       N       E                     dE             d eps       ncg     rms          rms(c)
DAV:   1     0.969237120862E+04    0.96924E+04   -0.50835E+05  1168   0.163E+03
DAV:   2     0.593394045050E+03   -0.90990E+04   -0.87733E+04  1016   0.522E+02
DAV:   3    -0.342710961164E+03   -0.93611E+03   -0.88378E+03  1104   0.179E+02
DAV:   4    -0.403295481571E+03   -0.60585E+02   -0.59840E+02  1152   0.400E+01
DAV:   5    -0.405372130929E+03   -0.20766E+01   -0.20735E+01  1216   0.793E+00    0.819E+01
DAV:   6    -0.487213224700E+03   -0.81841E+02   -0.96239E+02  1152   0.116E+02    0.156E+02
DAV:   7    -0.373047792462E+03    0.11417E+03   -0.17538E+02  1136   0.618E+01    0.604E+01
DAV:   8    -0.411130935522E+03   -0.38083E+02   -0.14798E+02  1336   0.673E+01    0.142E+02
DAV:   9    -0.370637712493E+03    0.40493E+02   -0.10493E+02  1192   0.432E+01    0.727E+01
DAV:  10    -0.374151136513E+03   -0.35134E+01   -0.83918E+01  1288   0.316E+01    0.478E+01
DAV:  11    -0.382162083498E+03   -0.80109E+01   -0.31136E+01  1312   0.376E+01    0.889E+01
DAV:  12    -0.370744777956E+03    0.11417E+02   -0.34897E+01  1312   0.243E+01    0.435E+01
DAV:  13    -0.364239824952E+03    0.65050E+01   -0.16109E+01  1256   0.276E+01    0.352E+01
DAV:  14    -0.362208149349E+03    0.20317E+01   -0.13687E+01  1312   0.206E+01    0.300E+01
DAV:  15    -0.358325893598E+03    0.38823E+01   -0.75158E+00  1208   0.148E+01    0.194E+01
DAV:  16    -0.357578573373E+03    0.74732E+00   -0.18896E+00  1312   0.716E+00    0.171E+01
DAV:  17    -0.356875581122E+03    0.70299E+00   -0.66891E-01  1256   0.475E+00    0.144E+01
DAV:  18    -0.356490783733E+03    0.38480E+00   -0.48554E-01  1312   0.425E+00    0.126E+01
DAV:  19    -0.356028057146E+03    0.46273E+00   -0.39330E-01  1336   0.422E+00    0.936E+00
DAV:  20    -0.355824025604E+03    0.20403E+00   -0.20801E-01  1288   0.239E+00    0.777E+00
DAV:  21    -0.355730283928E+03    0.93742E-01   -0.83188E-02  1288   0.150E+00    0.691E+00
DAV:  22    -0.355583689947E+03    0.14659E+00   -0.14304E-01  1416   0.243E+00    0.462E+00
DAV:  23    -0.355538620029E+03    0.45070E-01   -0.17951E-01  1312   0.279E+00    0.371E+00
DAV:  24    -0.355497442287E+03    0.41178E-01   -0.12144E-01  1328   0.197E+00    0.231E+00
DAV:  25    -0.355501885378E+03   -0.44431E-02   -0.92553E-02  1320   0.185E+00    0.244E+00
DAV:  26    -0.355504905314E+03   -0.30199E-02   -0.66243E-02  1288   0.127E+00    0.252E+00
DAV:  27    -0.355488666425E+03    0.16239E-01   -0.56349E-02  1224   0.136E+00    0.138E+00
DAV:  28    -0.355494627482E+03   -0.59611E-02   -0.32674E-02  1280   0.131E+00    0.164E+00
DAV:  29    -0.355483011547E+03    0.11616E-01   -0.20239E-02  1248   0.108E+00    0.572E-01
DAV:  30    -0.355484215186E+03   -0.12036E-02   -0.65440E-03  1296   0.536E-01    0.677E-01
DAV:  31    -0.355483208486E+03    0.10067E-02   -0.27250E-03  1144   0.395E-01    0.452E-01
DAV:  32    -0.355483459497E+03   -0.25101E-03   -0.16255E-03  1128   0.275E-01    0.438E-01
DAV:  33    -0.355483253272E+03    0.20623E-03   -0.12091E-03   976   0.222E-01    0.235E-01
DAV:  34    -0.355483383132E+03   -0.12986E-03   -0.46909E-04   784   0.155E-01    0.201E-01
DAV:  35    -0.355483584931E+03   -0.20180E-03   -0.21068E-04   592   0.104E-01    0.132E-01
DAV:  36    -0.355483723894E+03   -0.13896E-03   -0.12762E-04   608   0.846E-02    0.110E-01
DAV:  37    -0.355484169068E+03   -0.44517E-03   -0.19192E-04   600   0.821E-02    0.120E-01
DAV:  38    -0.355484434156E+03   -0.26509E-03   -0.13534E-04   648   0.724E-02    0.103E-01
DAV:  39    -0.355485044507E+03   -0.61035E-03   -0.13689E-04   656   0.578E-02    0.103E-01
DAV:  40    -0.355485346236E+03   -0.30173E-03   -0.98227E-05   608   0.643E-02    0.501E-02
DAV:  41    -0.355485727150E+03   -0.38091E-03   -0.64073E-05   608   0.383E-02    0.513E-02
DAV:  42    -0.355485891088E+03   -0.16394E-03   -0.50015E-05   608   0.406E-02    0.595E-02
DAV:  43    -0.355486145452E+03   -0.25436E-03   -0.41899E-05   584   0.323E-02    0.440E-02
DAV:  44    -0.355486279502E+03   -0.13405E-03   -0.29713E-05   600   0.281E-02    0.316E-02
DAV:  45    -0.355486442164E+03   -0.16266E-03   -0.20642E-05   592   0.177E-02    0.297E-02
DAV:  46    -0.355486496562E+03   -0.54397E-04   -0.15578E-05   600   0.183E-02
   1 F= -.35548650E+03 E0= -.35496579E+03  d E =-.104140E+01
