 vasp.5.4.4.18Apr17-6-g9f103f2a35 (build Aug 13 2019 17:33:20) gamma-only       
  
 executed on             LinuxIFC date 2020.05.11  13:13:54
 running on   12 total cores
 distrk:  each k-point on   12 cores,    1 groups
 distr:  one band on NCORES_PER_BAND=   6 cores,    2 groups


--------------------------------------------------------------------------------------------------------


 INCAR:
 POTCAR:    PAW_PBE Ni_pv 06Sep2000               
 POTCAR:    PAW_PBE S 06Sep2000                   
 POTCAR:    PAW_PBE Ni_pv 06Sep2000               
   VRHFIN =Ni:                                                                  
   LEXCH  = PE                                                                  
   EATOM  =  3501.1230 eV,  257.3253 Ry                                         
                                                                                
   TITEL  = PAW_PBE Ni_pv 06Sep2000                                             
   LULTRA =        F    use ultrasoft PP ?                                      
   IUNSCR =        1    unscreen: 0-lin 1-nonlin 2-no                           
   RPACOR =    1.500    partial core radius                                     
   POMASS =   58.690; ZVAL   =   16.000    mass and valenz                      
   RCORE  =    2.000    outmost cutoff radius                                   
   RWIGS  =    2.000; RWIGS  =    1.058    wigner-seitz radius (au A)           
   ENMAX  =  367.986; ENMIN  =  275.989 eV                                      
   RCLOC  =    1.301    cutoff for local pot                                    
   LCOR   =        T    correct aug charges                                     
   LPAW   =        T    paw PP                                                  
   EAUG   =  703.443                                                            
   DEXC   =    0.000                                                            
   RMAX   =    2.041    core radius for proj-oper                               
   RAUG   =    1.300    factor for augmentation sphere                          
   RDEP   =    2.103    radius for radial grids                                 
   RDEPT  =    1.618    core radius for aug-charge                              
                                                                                
   Atomic configuration                                                         
    8 entries                                                                   
     n  l   j            E        occ.                                          
     1  0  0.50     -8206.4253   2.0000                                         
     2  0  0.50      -976.1748   2.0000                                         
     2  1  1.50      -839.0571   6.0000                                         
     3  0  0.50      -105.9991   2.0000                                         
     3  1  1.50       -66.4603   6.0000                                         
     3  2  2.50        -4.6458   9.0000                                         
     4  0  0.50        -4.4926   1.0000                                         
     4  3  2.50        -1.3606   0.0000                                         
   Description                                                                  
     l       E           TYP  RCUT    TYP  RCUT                                 
     1    -66.4602962     23  1.700                                             
     1     -1.3605826     23  1.700                                             
     2     -4.6457867     23  2.000                                             
     2     -6.0063693     23  2.000                                             
     0     -4.4925576     23  1.900                                             
     0     16.3626226     23  1.900                                             
  local pseudopotential read in
  partial core-charges read in
  partial kinetic energy density read in
  atomic valenz-charges read in
  non local Contribution for L=           1  read in
    real space projection operators read in
  non local Contribution for L=           1  read in
    real space projection operators read in
  non local Contribution for L=           2  read in
    real space projection operators read in
  non local Contribution for L=           2  read in
    real space projection operators read in
  non local Contribution for L=           0  read in
    real space projection operators read in
  non local Contribution for L=           0  read in
    real space projection operators read in
    PAW grid and wavefunctions read in
 
   number of l-projection  operators is LMAX  =           6
   number of lm-projection operators is LMMAX =          18
 
 POTCAR:    PAW_PBE S 06Sep2000                   
   VRHFIN =S : s2p4                                                             
   LEXCH  = PE                                                                  
   EATOM  =   276.8230 eV,   20.3459 Ry                                         
                                                                                
   TITEL  = PAW_PBE S 06Sep2000                                                 
   LULTRA =        F    use ultrasoft PP ?                                      
   IUNSCR =        1    unscreen: 0-lin 1-nonlin 2-no                           
   RPACOR =    1.500    partial core radius                                     
   POMASS =   32.066; ZVAL   =    6.000    mass and valenz                      
   RCORE  =    1.900    outmost cutoff radius                                   
   RWIGS  =    2.200; RWIGS  =    1.164    wigner-seitz radius (au A)           
   ENMAX  =  258.689; ENMIN  =  194.016 eV                                      
   ICORE  =        2    local potential                                         
   LCOR   =        T    correct aug charges                                     
   LPAW   =        T    paw PP                                                  
   EAUG   =  335.092                                                            
   DEXC   =    0.000                                                            
   RMAX   =    1.942    core radius for proj-oper                               
   RAUG   =    1.300    factor for augmentation sphere                          
   RDEP   =    1.954    radius for radial grids                                 
   RDEPT  =    1.744    core radius for aug-charge                              
                                                                                
   Atomic configuration                                                         
    6 entries                                                                   
     n  l   j            E        occ.                                          
     1  0  0.50     -2405.8406   2.0000                                         
     2  0  0.50      -211.7007   2.0000                                         
     2  1  1.50      -156.4958   6.0000                                         
     3  0  0.50       -17.2562   2.0000                                         
     3  1  0.50        -7.0085   4.0000                                         
     3  2  1.50        -6.8029   0.0000                                         
   Description                                                                  
     l       E           TYP  RCUT    TYP  RCUT                                 
     0    -17.2561641     23  1.900                                             
     0    -15.8743224     23  1.900                                             
     1     -7.0085400     23  1.900                                             
     1     -2.7779785     23  1.900                                             
     2     -6.8029130     23  1.900                                             
  local pseudopotential read in
  partial core-charges read in
  partial kinetic energy density read in
  atomic valenz-charges read in
  non local Contribution for L=           0  read in
    real space projection operators read in
  non local Contribution for L=           0  read in
    real space projection operators read in
  non local Contribution for L=           1  read in
    real space projection operators read in
  non local Contribution for L=           1  read in
    real space projection operators read in
    PAW grid and wavefunctions read in
 
   number of l-projection  operators is LMAX  =           4
   number of lm-projection operators is LMMAX =           8
 
 Optimization of the real space projectors (new method)

 maximal supplied QI-value         = 18.90
 optimisation between [QCUT,QGAM] = [ 10.77, 21.73] = [ 32.49,132.25] Ry 
 Optimized for a Real-space Cutoff    1.38 Angstroem

   l    n(q)    QCUT    max X(q) W(low)/X(q) W(high)/X(q)  e(spline) 
   1      8    10.771     2.836    0.40E-04    0.29E-04    0.12E-06
   1      8    10.771     4.023    0.10E-03    0.48E-04    0.29E-06
   2      8    10.771    73.368    0.42E-03    0.97E-04    0.44E-06
   2      8    10.771    69.010    0.42E-03    0.99E-04    0.45E-06
   0      9    10.771    54.797    0.10E-03    0.56E-04    0.74E-07
   0      9    10.771    24.266    0.89E-04    0.49E-04    0.67E-07
 Optimization of the real space projectors (new method)

 maximal supplied QI-value         = 19.84
 optimisation between [QCUT,QGAM] = [ 10.71, 21.63] = [ 32.15,130.99] Ry 
 Optimized for a Real-space Cutoff    1.19 Angstroem

   l    n(q)    QCUT    max X(q) W(low)/X(q) W(high)/X(q)  e(spline) 
   0      8    10.715   187.594    0.41E-03    0.53E-04    0.66E-07
   0      8    10.715   164.243    0.41E-03    0.53E-04    0.65E-07
   1      7    10.715    67.533    0.19E-03    0.59E-03    0.68E-07
   1      7    10.715    50.729    0.19E-03    0.58E-03    0.67E-07
  PAW_PBE Ni_pv 06Sep2000               :
 energy of atom  1       EATOM=-3501.1230
 kinetic energy error for atom=    0.0925 (will be added to EATOM!!)
  PAW_PBE S 06Sep2000                   :
 energy of atom  2       EATOM= -276.8230
 kinetic energy error for atom=    0.0033 (will be added to EATOM!!)
 
 
 POSCAR: Type_048 Type_148                       
  positions in cartesian coordinates
  No initial velocities read in
 exchange correlation table for  LEXCH =        8
   RHO(1)=    0.500       N(1)  =     2000
   RHO(2)=  100.500       N(2)  =     4000
 


--------------------------------------------------------------------------------------------------------


 ion  position               nearest neighbor table
   1  0.261  0.479  0.295-  73 2.25  58 2.26  80 2.26  59 2.36  54 2.36   7 2.53  21 2.53
   2  0.355  0.385  0.426-  60 2.08  65 2.10  74 2.25  54 2.26  59 2.26   8 2.53  22 2.53
   3  0.042  0.213  0.091-  63 1.99  55 2.12  64 2.14   4 2.30  81 2.31  13 2.46
   4  0.167  0.073  0.165-  81 2.12  64 2.25  55 2.26   3 2.30  56 2.36  82 2.36  36 2.53  30 2.53

   5  0.190  0.327  0.038-  57 2.12  55 2.13  51 2.18   6 2.31  37 2.49
   6  0.274  0.333  0.130-  51 2.05  57 2.14  55 2.25   5 2.31  52 2.36  58 2.36  12 2.53  28 2.53

   7  0.368  0.239  0.261-  56 2.25  58 2.26  52 2.26  59 2.36  61 2.36   1 2.53  21 2.53
   8  0.462  0.145  0.391-  60 2.05  62 2.18  78 2.25  59 2.26  61 2.26   2 2.53  22 2.53
   9  0.000  0.372  0.261-  58 2.25  64 2.26  92 2.26  49 2.36  66 2.36  19 2.53  14 2.53
  10  0.094  0.278  0.391-  53 2.10  50 2.18  59 2.25  49 2.26  66 2.26  11 2.39  15 2.53  20 2.53

  11  0.212  0.189  0.481-  60 2.01  50 2.04  53 2.07  10 2.39
  12  0.406  0.465  0.130-  79 2.10  69 2.11  51 2.28  52 2.36  80 2.36  28 2.53   6 2.53
  13  0.225  0.007  0.053-  75 2.01  55 2.08  81 2.08   3 2.46  30 2.50
  14  0.761  0.479  0.295-  85 2.25  70 2.26  92 2.26  71 2.36  66 2.36  19 2.53   9 2.53
  15  0.855  0.385  0.426-  72 2.07  53 2.12  86 2.26  66 2.26  71 2.26  20 2.53  10 2.53
  16  0.667  0.073  0.165-  67 2.09  93 2.10  52 2.25  68 2.36  94 2.36  47 2.53  42 2.53
  17  0.687  0.427  0.034-  69 2.01  63 2.04  48 2.41  18 2.42
  18  0.774  0.333  0.130-  67 2.12  69 2.14  63 2.26  64 2.36  70 2.36  17 2.42  24 2.53  40 2.53

  19  0.868  0.239  0.261-  68 2.25  70 2.26  64 2.26  71 2.36  49 2.36  14 2.53   9 2.53
  20  0.962  0.145  0.391-  72 2.06  50 2.18  90 2.25  71 2.26  49 2.26  15 2.53  10 2.53
  21  0.500  0.372  0.261-  70 2.25  52 2.26  80 2.26  61 2.36  54 2.36   7 2.53   1 2.53
  22  0.594  0.278  0.391-  65 2.04  62 2.21  71 2.25  61 2.26  54 2.26  23 2.39   2 2.53   8 2.53

  23  0.704  0.186  0.483-  72 2.01  62 2.03  65 2.04  22 2.39
  24  0.906  0.465  0.130-  91 2.14  57 2.16  63 2.26  64 2.36  92 2.36  48 2.43  40 2.53  18 2.53

  25  0.818  0.055  0.033-  67 2.01  87 2.03  41 2.40  47 2.43
  26  0.261  0.979  0.295-  49 2.25  82 2.26  56 2.26  83 2.36  78 2.36  31 2.53  45 2.53
  27  0.355  0.885  0.426-  89 2.02  84 2.07  50 2.25  78 2.26  83 2.26  32 2.53  46 2.53
  28  0.167  0.573  0.165-  79 2.11  57 2.25  88 2.25  80 2.36  58 2.36  37 2.48  12 2.53   6 2.53

  29  0.031  0.527  0.483-  53 2.03  96 2.05  74 2.05  44 2.39
  30  0.274  0.833  0.130-  75 2.06  79 2.11  81 2.24  76 2.36  82 2.36  13 2.50  36 2.53   4 2.53

  31  0.368  0.739  0.261-  80 2.25  82 2.26  76 2.26  83 2.36  85 2.36  26 2.53  45 2.53
  32  0.462  0.645  0.391-  84 2.05  86 2.14  54 2.25  83 2.26  85 2.26  27 2.53  46 2.53
  33  0.000  0.872  0.261-  82 2.25  88 2.26  68 2.26  73 2.36  90 2.36  43 2.53  38 2.53
  34  0.094  0.778  0.391-  77 2.06  83 2.25  73 2.26  90 2.26  74 2.36  35 2.41  39 2.53  44 2.53

  35  0.204  0.712  0.486-  84 2.01  77 2.03  74 2.04  34 2.41
  36  0.406  0.965  0.130-  75 2.07  93 2.11  55 2.26  76 2.36  56 2.36   4 2.53  30 2.53
  37  0.214  0.534  0.057-  51 2.01  79 2.06  57 2.08  28 2.48   5 2.49
  38  0.761  0.979  0.295-  61 2.25  94 2.26  68 2.26  95 2.36  90 2.36  43 2.53  33 2.53
  39  0.855  0.885  0.426-  77 2.08  96 2.10  62 2.23  90 2.26  95 2.26  44 2.53  34 2.53
  40  0.667  0.573  0.165-  91 2.10  69 2.10  76 2.25  92 2.36  70 2.36  24 2.53  18 2.53
  41  0.687  0.935  0.034-  93 2.01  87 2.01  25 2.40  42 2.43
  42  0.774  0.833  0.130-  91 2.11  87 2.13  93 2.14  88 2.36  94 2.36  41 2.43  47 2.53  16 2.53

  43  0.868  0.739  0.261-  92 2.25  94 2.26  88 2.26  95 2.36  73 2.36  38 2.53  33 2.53
  44  0.962  0.645  0.391-  96 2.04  66 2.25  95 2.26  73 2.26  74 2.36  29 2.39  39 2.53  34 2.53

  45  0.500  0.872  0.261-  94 2.25  76 2.26  56 2.26  85 2.36  78 2.36  31 2.53  26 2.53
  46  0.594  0.778  0.391-  89 2.00  86 2.14  95 2.25  85 2.26  78 2.26  27 2.53  32 2.53
  47  0.906  0.965  0.130-  87 2.10  67 2.16  81 2.18  88 2.36  68 2.36  25 2.43  16 2.53  42 2.53

  48  0.812  0.553  0.034-  91 2.01  63 2.04  17 2.41  24 2.43
  49  0.073  0.167  0.311-  26 2.25  10 2.26  20 2.26   9 2.36  19 2.36  50 2.77
  50  0.164  0.075  0.425-  11 2.04  20 2.18  10 2.18  27 2.25  49 2.77
  51  0.369  0.351  0.055-  37 2.01   6 2.05   5 2.18  12 2.28
  52  0.479  0.261  0.181-  16 2.25   7 2.26  21 2.26  12 2.36   6 2.36
  53  0.026  0.349  0.477-  29 2.03  11 2.07  10 2.10  15 2.12
  54  0.436  0.472  0.355-  32 2.25   2 2.26  22 2.26   1 2.36  21 2.36
  55  0.248  0.160  0.094-  13 2.08   3 2.12   5 2.13   6 2.25   4 2.26  36 2.26
  56  0.342  0.066  0.225-   7 2.25  26 2.26  45 2.26   4 2.36  36 2.36
  57  0.083  0.478  0.100-  37 2.08   5 2.12   6 2.14  24 2.16  28 2.25
  58  0.174  0.397  0.225-   9 2.25   1 2.26   7 2.26   6 2.36  28 2.36
  59  0.268  0.303  0.355-  10 2.25   8 2.26   2 2.26   7 2.36   1 2.36
  60  0.375  0.218  0.472-  11 2.01   8 2.05   2 2.08  65 2.74
  61  0.573  0.167  0.311-  38 2.25  22 2.26   8 2.26  21 2.36   7 2.36  62 2.76
  62  0.665  0.072  0.423-  23 2.03   8 2.18  22 2.21  39 2.23  61 2.76
  63  0.885  0.355  0.051-   3 1.99  17 2.04  48 2.04  18 2.26  24 2.26
  64  0.979  0.261  0.181-   3 2.14   4 2.25  19 2.26   9 2.26  24 2.36  18 2.36
  65  0.527  0.351  0.474-  23 2.04  22 2.04   2 2.10  60 2.74
  66  0.936  0.472  0.355-  44 2.25  15 2.26  10 2.26  14 2.36   9 2.36
  67  0.753  0.161  0.108-  25 2.01  16 2.09  18 2.12  47 2.16
  68  0.842  0.066  0.225-  19 2.25  38 2.26  33 2.26  16 2.36  47 2.36
  69  0.580  0.484  0.109-  17 2.01  40 2.10  12 2.11  18 2.14
  70  0.674  0.397  0.225-  21 2.25  14 2.26  19 2.26  18 2.36  40 2.36
  71  0.768  0.303  0.355-  22 2.25  20 2.26  15 2.26  19 2.36  14 2.36  72 2.79
  72  0.863  0.220  0.470-  23 2.01  20 2.06  15 2.07  71 2.79
  73  0.073  0.667  0.311-   1 2.25  34 2.26  44 2.26  33 2.36  43 2.36
  74  0.167  0.573  0.442-  35 2.04  29 2.05   2 2.25  34 2.36  44 2.36
  75  0.397  0.842  0.064-  13 2.01  30 2.06  36 2.07
  76  0.479  0.761  0.181-  40 2.25  31 2.26  45 2.26  36 2.36  30 2.36
  77  0.022  0.867  0.472-  35 2.03  34 2.06  39 2.08
  78  0.436  0.972  0.355-   8 2.25  27 2.26  46 2.26  26 2.36  45 2.36
  79  0.259  0.657  0.109-  37 2.06  12 2.10  28 2.11  30 2.11
  80  0.342  0.566  0.225-  31 2.25   1 2.26  21 2.26  28 2.36  12 2.36
  81  0.076  0.996  0.103-  13 2.08   4 2.12  47 2.18  30 2.24   3 2.31
  82  0.174  0.897  0.225-  33 2.25  26 2.26  31 2.26  30 2.36   4 2.36
  83  0.268  0.803  0.355-  34 2.25  32 2.26  27 2.26  31 2.36  26 2.36
  84  0.377  0.718  0.472-  35 2.01  32 2.05  27 2.07  89 2.78
  85  0.573  0.667  0.311-  14 2.25  46 2.26  32 2.26  45 2.36  31 2.36  86 2.64
  86  0.664  0.575  0.418-  32 2.14  46 2.14  15 2.26  85 2.64
  87  0.879  0.863  0.058-  41 2.01  25 2.03  47 2.10  42 2.13
  88  0.979  0.761  0.181-  28 2.25  43 2.26  33 2.26  47 2.36  42 2.36
  89  0.519  0.866  0.469-  46 2.00  27 2.02  84 2.78
  90  0.936  0.972  0.355-  20 2.25  39 2.26  34 2.26  38 2.36  33 2.36
  91  0.755  0.660  0.109-  48 2.01  40 2.10  42 2.11  24 2.14
  92  0.842  0.566  0.225-  43 2.25  14 2.26   9 2.26  40 2.36  24 2.36
  93  0.580  0.984  0.109-  41 2.01  16 2.10  36 2.11  42 2.14
  94  0.674  0.897  0.225-  45 2.25  38 2.26  43 2.26  42 2.36  16 2.36
  95  0.768  0.803  0.355-  46 2.25  44 2.26  39 2.26  43 2.36  38 2.36
  96  0.879  0.714  0.472-  44 2.04  29 2.05  39 2.10
 
  LATTYP: Found a base centered orthorhombic cell.
 ALAT       =    11.8257374459
 B/A-ratio  =     1.6199260857
 C/A-ratio  =     1.9043172636
  
  Lattice vectors:
  
 A1 = (  11.2564630382,   0.0000000000,   0.0000000000)
 A2 = (  -5.0445621212, -10.0628203371,   0.0000000000)
 A3 = (   0.0000000000,   0.0000000000, -22.5199559732)


Analysis of symmetry for initial positions (statically):
=====================================================================
 Subroutine PRICEL returns:
 Original cell was already a primitive cell.
 

 Routine SETGRP: Setting up the symmetry group for a 
 base centered orthorhombic supercell.


 Subroutine GETGRP returns: Found  1 space group operations
 (whereof  1 operations were pure point group operations)
 out of a pool of  8 trial point group operations.


The static configuration has the point symmetry C_1 .


Analysis of symmetry for dynamics (positions and initial velocities):
=====================================================================
 Subroutine PRICEL returns:
 Original cell was already a primitive cell.
 

 Routine SETGRP: Setting up the symmetry group for a 
 base centered orthorhombic supercell.


 Subroutine GETGRP returns: Found  1 space group operations
 (whereof  1 operations were pure point group operations)
 out of a pool of  8 trial point group operations.


The dynamic configuration has the point symmetry C_1 .


 Subroutine INISYM returns: Found  1 space group operations
 (whereof  1 operations are pure point group operations),
 and found     1 'primitive' translations

 
 
 KPOINTS: gamma-point-only calculation. no periodi

Automatic generation of k-mesh.
Space group operators:
 irot       det(A)        alpha          n_x          n_y          n_z        tau_x        tau_y        tau_z
    1     1.000000     0.000000     1.000000     0.000000     0.000000     0.000000     0.000000     0.000000
 
 Subroutine IBZKPT returns following result:
 ===========================================
 
 Found      1 irreducible k-points:
 
 Following reciprocal coordinates:
            Coordinates               Weight
  0.000000  0.000000  0.000000      1.000000
 
 Following cartesian coordinates:
            Coordinates               Weight
  0.000000  0.000000  0.000000      1.000000
 


--------------------------------------------------------------------------------------------------------




 Dimension of arrays:
   k-points           NKPTS =      1   k-points in BZ     NKDIM =      1   number of bands    NBANDS=    634
   number of dos      NEDOS =    301   number of ions     NIONS =     96
   non local maximal  LDIM  =      6   non local SUM 2l+1 LMDIM =     18
   total plane-waves  NPLWV = 432000
   max r-space proj   IRMAX =   1917   max aug-charges    IRDMAX=   5534
   dimension x,y,z NGX =    60 NGY =   60 NGZ =  120
   dimension x,y,z NGXF=   120 NGYF=  120 NGZF=  240
   support grid    NGXF=   120 NGYF=  120 NGZF=  240
   ions per type =              48  48
   NGX,Y,Z   is equivalent  to a cutoff of   8.86,  8.86,  8.86 a.u.
   NGXF,Y,Z  is equivalent  to a cutoff of  17.72, 17.72, 17.72 a.u.

 SYSTEM =  "Millerite NiS"                         
 POSCAR =  Type_048 Type_148                       

 Startparameter for this run:
   NWRITE =      2    write-flag & timer
   PREC   = normal    normal or accurate (medium, high low for compatibility)
   ISTART =      0    job   : 0-new  1-cont  2-samecut
   ICHARG =      2    charge: 1-file 2-atom 10-const
   ISPIN  =      1    spin polarized calculation?
   LNONCOLLINEAR =      F non collinear calculations
   LSORBIT =      F    spin-orbit coupling
   INIWAV =      1    electr: 0-lowe 1-rand  2-diag
   LASPH  =      F    aspherical Exc in radial PAW
   METAGGA=      F    non-selfconsistent MetaGGA calc.

 Electronic Relaxation 1
   ENCUT  =  450.0 eV  33.07 Ry    5.75 a.u.  19.47 19.47 38.95*2*pi/ulx,y,z
   ENINI  =  450.0     initial cutoff
   ENAUG  =  703.4 eV  augmentation charge cutoff
   NELM   =    100;   NELMIN=  2; NELMDL= -5     # of ELM steps 
   EDIFF  = 0.1E-03   stopping-criterion for ELM
   LREAL  =      T    real-space projection
   NLSPLINE    = F    spline interpolate recip. space projectors
   LCOMPAT=      F    compatible to vasp.4.4
   GGA_COMPAT  = T    GGA compatible to vasp.4.4-vasp.4.6
   LMAXPAW     = -100 max onsite density
   LMAXMIX     =    2 max onsite mixed and CHGCAR
   VOSKOWN=      0    Vosko Wilk Nusair interpolation
   ROPT   =   -0.00050  -0.00050
 Ionic relaxation
   EDIFFG = 0.1E-02   stopping-criterion for IOM
   NSW    =      0    number of steps for IOM
   NBLOCK =      1;   KBLOCK =      1    inner block; outer block 
   IBRION =     -1    ionic relax: 0-MD 1-quasi-New 2-CG
   NFREE  =      0    steps in history (QN), initial steepest desc. (CG)
   ISIF   =      2    stress and relaxation
   IWAVPR =     10    prediction:  0-non 1-charg 2-wave 3-comb
   ISYM   =      2    0-nonsym 1-usesym 2-fastsym
   LCORR  =      T    Harris-Foulkes like correction to forces

   POTIM  = 0.5000    time-step for ionic-motion
   TEIN   =    0.0    initial temperature
   TEBEG  =    0.0;   TEEND  =   0.0 temperature during run
   SMASS  =  -3.00    Nose mass-parameter (am)
   estimated Nose-frequenzy (Omega)   =  0.10E-29 period in steps =****** mass=  -0.290E-26a.u.
   SCALEE = 1.0000    scale energy and forces
   NPACO  =    256;   APACO  = 16.0  distance and # of slots for P.C.
   PSTRESS=    0.0 pullay stress

  Mass of Ions in am
   POMASS =  58.69 32.07
  Ionic Valenz
   ZVAL   =  16.00  6.00
  Atomic Wigner-Seitz radii
   RWIGS  =  -1.00 -1.00
  virtual crystal weights 
   VCA    =   1.00  1.00
   NELECT =    1056.0000    total number of electrons
   NUPDOWN=      -1.0000    fix difference up-down

 DOS related values:
   EMIN   =  10.00;   EMAX   =-10.00  energy-range for DOS
   EFERMI =   0.00
   ISMEAR =     0;   SIGMA  =   0.20  broadening in eV -4-tet -1-fermi 0-gaus

 Electronic relaxation 2 (details)
   IALGO  =     38    algorithm
   LDIAG  =      T    sub-space diagonalisation (order eigenvalues)
   LSUBROT=      F    optimize rotation matrix (better conditioning)
   TURBO    =      0    0=normal 1=particle mesh
   IRESTART =      0    0=no restart 2=restart with 2 vectors
   NREBOOT  =      0    no. of reboots
   NMIN     =      0    reboot dimension
   EREF     =   0.00    reference energy to select bands
   IMIX   =      4    mixing-type and parameters
     AMIX     =   0.40;   BMIX     =  1.00
     AMIX_MAG =   1.60;   BMIX_MAG =  1.00
     AMIN     =   0.10
     WC   =   100.;   INIMIX=   1;  MIXPRE=   1;  MAXMIX= -45

 Intra band minimization:
   WEIMIN = 0.0000     energy-eigenvalue tresh-hold
   EBREAK =  0.39E-07  absolut break condition
   DEPER  =   0.30     relativ break condition  

   TIME   =   0.40     timestep for ELM

  volume/ion in A,a.u.               =      26.57       179.31
  Fermi-wavevector in a.u.,A,eV,Ry     =   1.220112  2.305678 20.254633  1.488674
  Thomas-Fermi vector in A             =   2.355341
 
 Write flags
   LWAVE        =      F    write WAVECAR
   LDOWNSAMPLE  =      F    k-point downsampling of WAVECAR
   LCHARG       =      F    write CHGCAR
   LVTOT        =      F    write LOCPOT, total local potential
   LVHAR        =      F    write LOCPOT, Hartree potential only
   LELF         =      F    write electronic localiz. function (ELF)
   LORBIT       =      0    0 simple, 1 ext, 2 COOP (PROOUT), +10 PAW based schemes


 Dipole corrections
   LMONO  =      F    monopole corrections only (constant potential shift)
   LDIPOL =      F    correct potential (dipole corrections)
   IDIPOL =      0    1-x, 2-y, 3-z, 4-all directions 
   EPSILON=  1.0000000 bulk dielectric constant

 Exchange correlation treatment:
   GGA     =    --    GGA type
   LEXCH   =     8    internal setting for exchange type
   VOSKOWN=      0    Vosko Wilk Nusair interpolation
   LHFCALC =     F    Hartree Fock is set to
   LHFONE  =     F    Hartree Fock one center treatment
   AEXX    =    0.0000 exact exchange contribution

 Linear response parameters
   LEPSILON=     F    determine dielectric tensor
   LRPA    =     F    only Hartree local field effects (RPA)
   LNABLA  =     F    use nabla operator in PAW spheres
   LVEL    =     F    velocity operator in full k-point grid
   LINTERFAST=   F  fast interpolation
   KINTER  =     0    interpolate to denser k-point grid
   CSHIFT  =0.1000    complex shift for real part using Kramers Kronig
   OMEGAMAX=  -1.0    maximum frequency
   DEG_THRESHOLD= 0.2000000E-02 threshold for treating states as degnerate
   RTIME   =   -0.100 relaxation time in fs
  (WPLASMAI=    0.000 imaginary part of plasma frequency in eV, 0.658/RTIME)
   DFIELD  = 0.0000000 0.0000000 0.0000000 field for delta impulse in time
 
 Orbital magnetization related:
   ORBITALMAG=     F  switch on orbital magnetization
   LCHIMAG   =     F  perturbation theory with respect to B field
   DQ        =  0.001000  dq finite difference perturbation B field
   LLRAUG    =     F  two centre corrections for induced B field



--------------------------------------------------------------------------------------------------------


 Static calculation
 charge density and potential will be updated during run
 non-spin polarized calculation
 Variant of blocked Davidson
 Davidson routine will perform the subspace rotation
 perform sub-space diagonalisation
    after iterative eigenvector-optimisation
 modified Broyden-mixing scheme, WC =      100.0
 initial mixing is a Kerker type mixing with AMIX =  0.4000 and BMIX =      1.0000
 Hartree-type preconditioning will be used
 using additional bands          106
 real space projection scheme for non local part
 use partial core corrections
 calculate Harris-corrections to forces 
   (improved forces if not selfconsistent)
 use gradient corrections 
 use of overlap-Matrix (Vanderbilt PP)
 Gauss-broadening in eV      SIGMA  =   0.20


--------------------------------------------------------------------------------------------------------


  energy-cutoff  :      450.00
  volume of cell :     2550.88
      direct lattice vectors                 reciprocal lattice vectors
    11.256463038  0.000000000  0.000000000     0.088837852 -0.044535036  0.000000000
     5.044562121 10.062820337  0.000000000     0.000000000  0.099375718  0.000000000
     0.000000000  0.000000000 22.519955973     0.000000000  0.000000000  0.044405060

  length of vectors
    11.256463038 11.256463038 22.519955973     0.099375718  0.099375718  0.044405060


 
 k-points in units of 2pi/SCALE and weight: gamma-point-only calculation. no periodi
   0.00000000  0.00000000  0.00000000       1.000
 
 k-points in reciprocal lattice and weights: gamma-point-only calculation. no periodi
   0.00000000  0.00000000  0.00000000       1.000
 
 position of ions in fractional coordinates (direct lattice) 
   0.26092069  0.47878037  0.29519774
   0.35488056  0.38482050  0.42557357
   0.04223026  0.21272021  0.09057006
   0.16696082  0.07274025  0.16482191
   0.18970723  0.32749705  0.03761247
   0.27423906  0.33335901  0.13037583
   0.36819893  0.23939914  0.26075166
   0.46215879  0.14543927  0.39112749
   0.00030194  0.37150214  0.26075166
   0.09426180  0.27754227  0.39112749
   0.21231421  0.18865741  0.48126148
   0.40634206  0.46546200  0.13037583
   0.22532521  0.00693161  0.05254004
   0.76092069  0.47878037  0.29519774
   0.85488056  0.38482050  0.42557357
   0.66696082  0.07274025  0.16482191
   0.68694509  0.42661203  0.03386354
   0.77423906  0.33335901  0.13037583
   0.86819893  0.23939914  0.26075166
   0.96215879  0.14543927  0.39112749
   0.50030194  0.37150214  0.26075166
   0.59426180  0.27754227  0.39112749
   0.70418351  0.18595088  0.48279668
   0.90634206  0.46546200  0.13037583
   0.81777990  0.05492442  0.03313760
   0.26092069  0.97878037  0.29519774
   0.35488056  0.88482051  0.42557357
   0.16696083  0.57274025  0.16482191
   0.03062085  0.52685094  0.48301706
   0.27423906  0.83335901  0.13037583
   0.36819893  0.73939914  0.26075166
   0.46215879  0.64543927  0.39112749
   0.00030194  0.87150214  0.26075166
   0.09426180  0.77754227  0.39112749
   0.20356988  0.71151590  0.48597050
   0.40634206  0.96546200  0.13037583
   0.21379790  0.53360509  0.05717452
   0.76092069  0.97878037  0.29519774
   0.85488056  0.88482051  0.42557357
   0.66696083  0.57274025  0.16482191
   0.68723703  0.93459155  0.03442625
   0.77423906  0.83335901  0.13037583
   0.86819893  0.73939914  0.26075166
   0.96215879  0.64543927  0.39112749
   0.50030194  0.87150214  0.26075166
   0.59426180  0.77754227  0.39112749
   0.90634206  0.96546200  0.13037583
   0.81219015  0.55304394  0.03360119
   0.07287763  0.16682345  0.31134757
   0.16419369  0.07517210  0.42451516
   0.36856387  0.35104355  0.05532660
   0.47891775  0.26078331  0.18097174
   0.02565008  0.34880810  0.47696214
   0.43627354  0.47164252  0.35520991
   0.24835381  0.15956227  0.09445824
   0.34231367  0.06560240  0.22483408
   0.08313110  0.47787032  0.10035621
   0.17409868  0.39738739  0.22483408
   0.26805854  0.30342752  0.35520991
   0.37467108  0.21752069  0.47191012
   0.57287763  0.16682345  0.31134757
   0.66505915  0.07193160  0.42341351
   0.88495788  0.35474318  0.05059590
   0.97891775  0.26078331  0.18097174
   0.52689837  0.35132094  0.47374557
   0.93627354  0.47164252  0.35520991
   0.75307257  0.16050452  0.10847576
   0.84231367  0.06560240  0.22483408
   0.57984056  0.48366205  0.10899109
   0.67409868  0.39738739  0.22483408
   0.76805854  0.30342752  0.35520991
   0.86313229  0.22003053  0.46974123
   0.07287763  0.66682345  0.31134757
   0.16683750  0.57286358  0.44172340
   0.39733166  0.84212947  0.06449534
   0.47891775  0.76078331  0.18097174
   0.02229863  0.86655271  0.47169528
   0.43627354  0.97164252  0.35520991
   0.25945497  0.65741951  0.10931381
   0.34231367  0.56560240  0.22483408
   0.07637095  0.99649349  0.10332386
   0.17409868  0.89738739  0.22483408
   0.26805854  0.80342752  0.35520991
   0.37742174  0.71757444  0.47213544
   0.57287763  0.66682345  0.31134757
   0.66449721  0.57497038  0.41798500
   0.87937862  0.86307659  0.05795190
   0.97891775  0.76078331  0.18097174
   0.51931167  0.86606435  0.46867236
   0.93627354  0.97164252  0.35520991
   0.75502488  0.65996209  0.10884939
   0.84231367  0.56560240  0.22483408
   0.57980883  0.98379704  0.10942650
   0.67409868  0.89738739  0.22483408
   0.76805854  0.80342752  0.35520991
   0.87936529  0.71447659  0.47237805
 
 position of ions in cartesian coordinates  (Angst):
   5.35228144  4.81788086  6.64784004
   5.93595083  3.87237960  9.58389801
   1.54844366  2.14056527  2.03963388
   2.24633108  0.73197210  3.71178209
   3.78751167  3.29554397  0.84703112
   4.76861206  3.35453179  2.93605795
   5.35228145  2.40903053  5.87211593
   5.93595082  1.46352927  8.80817388
   1.87746436  3.73835925  5.87211593
   2.46113373  2.79285799  8.80817388
   3.34160113  1.89842566 10.83798735
   6.92202632  4.68386050  2.93605795
   2.57133187  0.06975157  1.18319950
  10.98051296  4.81788086  6.64784004
  11.56418235  3.87237960  9.58389801
   7.87456260  0.73197210  3.71178209
   9.88464288  4.29292018  0.76260550
  10.39684358  3.35453179  2.93605795
  10.98051297  2.40903053  5.87211593
  11.56418234  1.46352927  8.80817388
   7.50569588  3.73835925  5.87211593
   8.08936525  2.79285799  8.80817388
   8.86465644  1.87119031 10.87255992
  12.55025784  4.68386050  2.93605795
   9.48237890  0.55269459  0.74625729
   7.87456250  9.84929103  6.64784004
   8.45823189  8.90378977  9.58389801
   4.76861214  5.76338227  3.71178209
   3.00241472  5.30160634 10.87752290
   7.29089312  8.38594195  2.93605795
   7.87456251  7.44044070  5.87211593
   8.45823188  6.49493944  8.80817388
   4.39974542  8.76976942  5.87211593
   4.98341479  7.82426816  8.80817388
   5.88076301  7.15985671 10.94403417
   9.44430738  9.71527067  2.93605795
   5.09841215  5.36957211  1.28756758
  13.50279402  9.84929103  6.64784004
  14.08646341  8.90378977  9.58389801
  10.39684366  5.76338227  3.71178209
  12.45046340  9.40462687  0.77527755
  12.91912464  8.38594195  2.93605795
  13.50279403  7.44044070  5.87211593
  14.08646340  6.49493944  8.80817388
  10.02797694  8.76976942  5.87211593
  10.61164631  7.82426816  8.80817388
  15.07253890  9.71527067  2.93605795
  11.93225294  5.56518182  0.75669736
   1.66189560  1.67871438  7.01153346
   2.22745048  0.75644329  9.56006277
   5.91958657  3.53248822  1.24595254
   6.70645757  2.62421563  4.07547550
   2.04831330  3.50999326 10.74116640
   7.29012695  4.74605393  7.99931144
   3.60050720  1.60564642  2.12719552
   4.18417659  0.66014516  5.06325349
   3.34640862  4.80872317  2.26001743
   3.96438071  3.99883791  5.06325349
   4.54805009  3.05333666  7.99931144
   5.31476781  2.18887162 10.62739515
   7.29012712  1.67871438  7.01153346
   7.84907713  0.72383475  9.53525350
  11.75101970  3.56971688  1.13941755
  12.33468909  2.62421563  4.07547550
   7.70327235  3.53527953 10.66872947
  12.91835847  4.74605393  7.99931144
   9.28660851  1.61512811  2.44286924
   9.81240811  0.66014516  5.06325349
   8.96681705  4.86700431  2.45447459
   9.59261223  3.99883791  5.06325349
  10.17628161  3.05333666  7.99931144
  10.82577435  2.21412766 10.57855174
   4.18417666  6.71012454  7.01153346
   4.76784605  5.76462328  9.94759143
   8.72072359  8.47419753  1.45243224
   9.22873863  7.65562579  4.07547550
   4.62238263  8.71996422 10.62255704
   9.81240801  9.77746410  7.99931144
   6.23693887  6.61549437  2.46174229
   6.70645765  5.69155533  5.06325349
   5.88654014 10.02753495  2.32684887
   6.48666177  9.03024808  5.06325349
   7.07033115  8.08474683  7.99931144
   7.86828266  7.22082268 10.63246929
   9.81240818  6.71012454  7.01153346
  10.38036210  5.78582363  9.41300383
  14.25253640  8.68498468  1.30507433
  14.85697015  7.65562579  4.07547550
  10.21452801  8.71505000 10.55448083
  15.44063953  9.77746410  7.99931144
  11.82812937  6.64107993  2.45128345
  12.33468917  5.69155533  5.06325349
  11.48942199  9.89977288  2.46427998
  12.11489329  9.03024808  5.06325349
  12.69856267  8.08474683  7.99931144
  13.50276445  7.18964961 10.63793279
 


--------------------------------------------------------------------------------------------------------


 use parallel FFT for orbitals z direction half grid
 k-point  1 :   0.0000 0.0000 0.0000  plane waves:   27671

 maximum and minimum number of plane-waves per node :      4613     4610

 maximum number of plane-waves:     27671
 maximum index in each direction: 
   IXMAX=   19   IYMAX=   19   IZMAX=   38
   IXMIN=  -19   IYMIN=  -19   IZMIN=    0


 real space projection operators:
  total allocation   :      15707.11 KBytes
  max/ min on nodes  :       2651.17       2587.05


 parallel 3D FFT for wavefunctions:
    minimum data exchange during FFTs selected (reduces bandwidth)
 parallel 3D FFT for charge:
    minimum data exchange during FFTs selected (reduces bandwidth)


 total amount of memory used by VASP MPI-rank0    87652. kBytes
=======================================================================

   base      :      30000. kBytes
   nonlr-proj:       3222. kBytes
   fftplans  :      11274. kBytes
   grid      :      19113. kBytes
   one-center:        124. kBytes
   wavefun   :      23919. kBytes
 
     INWAV:  cpu time    0.0000: real time    0.0000
 Broyden mixing: mesh for mixing (old mesh)
   NGX = 39   NGY = 39   NGZ = 77
  (NGX  =120   NGY  =120   NGZ  =240)
  gives a total of 117117 points

 initial charge density was supplied:
 charge density of overlapping atoms calculated
 number of electron    1056.0000000 magnetization 
 keeping initial charge density in first step


--------------------------------------------------------------------------------------------------------


 Maximum index for non-local projection operator          321
 Maximum index for augmentation-charges          493 (set IRDMAX)


--------------------------------------------------------------------------------------------------------


 First call to EWALD:  gamma=   0.130
 Maximum number of real-space cells 4x 4x 2
 Maximum number of reciprocal cells 2x 2x 4

    FEWALD:  cpu time    0.0156: real time    0.0156


--------------------------------------- Iteration      1(   1)  ---------------------------------------


    POTLOK:  cpu time    0.3736: real time    0.3736
    SETDIJ:  cpu time    0.0237: real time    0.0236
     EDDAV:  cpu time   13.5918: real time   13.5944
       DOS:  cpu time    0.0017: real time    0.0017
    --------------------------------------------
      LOOP:  cpu time   13.9909: real time   13.9935

 eigenvalue-minimisations  :  1540
 total energy-change (2. order) : 0.1340035E+05  (-0.6846659E+05)
 number of electron    1056.0000000 magnetization 
 augmentation part     1056.0000000 magnetization 

 Free energy of the ion-electron system (eV)
  ---------------------------------------------------
  alpha Z        PSCENC =      2592.50432107
  Ewald energy   TEWEN  =    326222.75067406
  -Hartree energ DENC   =   -489459.31909888
  -exchange      EXHF   =         0.00000000
  -V(xc)+E(xc)   XCENC  =      4903.77066120
  PAW double counting   =    150306.04444553  -156855.34918313
  entropy T*S    EENTRO =        -0.56196666
  eigenvalues    EBANDS =     -5646.29991705
  atomic energy  EATOM  =    181336.80673834
  Solvation  Ediel_sol  =         0.00000000
  ---------------------------------------------------
  free energy    TOTEN  =     13400.34667449 eV

  energy without entropy =    13400.90864115  energy(sigma->0) =    13400.62765782


--------------------------------------------------------------------------------------------------------




--------------------------------------- Iteration      1(   2)  ---------------------------------------


     EDDAV:  cpu time   12.1925: real time   12.1954
       DOS:  cpu time    0.0015: real time    0.0015
    --------------------------------------------
      LOOP:  cpu time   12.1940: real time   12.1968

 eigenvalue-minimisations  :  1342
 total energy-change (2. order) :-0.1255702E+05  (-0.1212498E+05)
 number of electron    1056.0000000 magnetization 
 augmentation part     1056.0000000 magnetization 

 Free energy of the ion-electron system (eV)
  ---------------------------------------------------
  alpha Z        PSCENC =      2592.50432107
  Ewald energy   TEWEN  =    326222.75067406
  -Hartree energ DENC   =   -489459.31909888
  -exchange      EXHF   =         0.00000000
  -V(xc)+E(xc)   XCENC  =      4903.77066120
  PAW double counting   =    150306.04444553  -156855.34918313
  entropy T*S    EENTRO =        -0.91175721
  eigenvalues    EBANDS =    -18202.97407479
  atomic energy  EATOM  =    181336.80673834
  Solvation  Ediel_sol  =         0.00000000
  ---------------------------------------------------
  free energy    TOTEN  =       843.32272621 eV

  energy without entropy =      844.23448342  energy(sigma->0) =      843.77860481


--------------------------------------------------------------------------------------------------------




--------------------------------------- Iteration      1(   3)  ---------------------------------------


     EDDAV:  cpu time   13.0026: real time   13.0046
       DOS:  cpu time    0.0015: real time    0.0015
    --------------------------------------------
      LOOP:  cpu time   13.0041: real time   13.0061

 eigenvalue-minimisations  :  1440
 total energy-change (2. order) :-0.1294223E+04  (-0.1226638E+04)
 number of electron    1056.0000000 magnetization 
 augmentation part     1056.0000000 magnetization 

 Free energy of the ion-electron system (eV)
  ---------------------------------------------------
  alpha Z        PSCENC =      2592.50432107
  Ewald energy   TEWEN  =    326222.75067406
  -Hartree energ DENC   =   -489459.31909888
  -exchange      EXHF   =         0.00000000
  -V(xc)+E(xc)   XCENC  =      4903.77066120
  PAW double counting   =    150306.04444553  -156855.34918313
  entropy T*S    EENTRO =        -1.46065385
  eigenvalues    EBANDS =    -19496.64792739
  atomic energy  EATOM  =    181336.80673834
  Solvation  Ediel_sol  =         0.00000000
  ---------------------------------------------------
  free energy    TOTEN  =      -450.90002304 eV

  energy without entropy =     -449.43936919  energy(sigma->0) =     -450.16969611


--------------------------------------------------------------------------------------------------------




--------------------------------------- Iteration      1(   4)  ---------------------------------------


     EDDAV:  cpu time   12.8029: real time   12.8052
       DOS:  cpu time    0.0017: real time    0.0017
    --------------------------------------------
      LOOP:  cpu time   12.8046: real time   12.8068

 eigenvalue-minimisations  :  1440
 total energy-change (2. order) :-0.7998555E+02  (-0.7907342E+02)
 number of electron    1056.0000000 magnetization 
 augmentation part     1056.0000000 magnetization 

 Free energy of the ion-electron system (eV)
  ---------------------------------------------------
  alpha Z        PSCENC =      2592.50432107
  Ewald energy   TEWEN  =    326222.75067406
  -Hartree energ DENC   =   -489459.31909888
  -exchange      EXHF   =         0.00000000
  -V(xc)+E(xc)   XCENC  =      4903.77066120
  PAW double counting   =    150306.04444553  -156855.34918313
  entropy T*S    EENTRO =        -1.51679014
  eigenvalues    EBANDS =    -19576.57733651
  atomic energy  EATOM  =    181336.80673834
  Solvation  Ediel_sol  =         0.00000000
  ---------------------------------------------------
  free energy    TOTEN  =      -530.88556844 eV

  energy without entropy =     -529.36877830  energy(sigma->0) =     -530.12717337


--------------------------------------------------------------------------------------------------------




--------------------------------------- Iteration      1(   5)  ---------------------------------------


     EDDAV:  cpu time   14.8354: real time   14.8419
       DOS:  cpu time    0.0015: real time    0.0015
    CHARGE:  cpu time    0.4090: real time    0.4091
    MIXING:  cpu time    0.0111: real time    0.0111
    --------------------------------------------
      LOOP:  cpu time   15.2571: real time   15.2637

 eigenvalue-minimisations  :  1704
 total energy-change (2. order) :-0.3445137E+01  (-0.3440762E+01)
 number of electron    1055.9999854 magnetization 
 augmentation part      382.2425062 magnetization 

 Broyden mixing:
  rms(total) = 0.10969E+02    rms(broyden)= 0.10956E+02
  rms(prec ) = 0.11327E+02
  weight for this iteration     100.00

 Free energy of the ion-electron system (eV)
  ---------------------------------------------------
  alpha Z        PSCENC =      2592.50432107
  Ewald energy   TEWEN  =    326222.75067406
  -Hartree energ DENC   =   -489459.31909888
  -exchange      EXHF   =         0.00000000
  -V(xc)+E(xc)   XCENC  =      4903.77066120
  PAW double counting   =    150306.04444553  -156855.34918313
  entropy T*S    EENTRO =        -1.50731790
  eigenvalues    EBANDS =    -19580.03194597
  atomic energy  EATOM  =    181336.80673834
  Solvation  Ediel_sol  =         0.00000000
  ---------------------------------------------------
  free energy    TOTEN  =      -534.33070567 eV

  energy without entropy =     -532.82338777  energy(sigma->0) =     -533.57704672


--------------------------------------------------------------------------------------------------------




--------------------------------------- Iteration      1(   6)  ---------------------------------------


    POTLOK:  cpu time    0.3609: real time    0.3610
    SETDIJ:  cpu time    0.0233: real time    0.0233
     EDDAV:  cpu time   14.2681: real time   14.2708
       DOS:  cpu time    0.0016: real time    0.0016
    CHARGE:  cpu time    0.3971: real time    0.3971
    MIXING:  cpu time    0.0131: real time    0.0131
    --------------------------------------------
      LOOP:  cpu time   15.0642: real time   15.0670

 eigenvalue-minimisations  :  1608
 total energy-change (2. order) :-0.1142413E+03  (-0.1255784E+03)
 number of electron    1055.9999822 magnetization 
 augmentation part      454.4858530 magnetization 

 Broyden mixing:
  rms(total) = 0.19794E+02    rms(broyden)= 0.19790E+02
  rms(prec ) = 0.20758E+02
  weight for this iteration     100.00

 eigenvalues of (default mixing * dielectric matrix)
  average eigenvalue GAMMA=   0.2064
  0.2064

 Free energy of the ion-electron system (eV)
  ---------------------------------------------------
  alpha Z        PSCENC =      2592.50432107
  Ewald energy   TEWEN  =    326222.75067406
  -Hartree energ DENC   =   -485784.16005211
  -exchange      EXHF   =         0.00000000
  -V(xc)+E(xc)   XCENC  =      4804.98949342
  PAW double counting   =    156276.69940969  -162518.42263276
  entropy T*S    EENTRO =        -1.22714136
  eigenvalues    EBANDS =    -23578.51283410
  atomic energy  EATOM  =    181336.80673834
  Solvation  Ediel_sol  =         0.00000000
  ---------------------------------------------------
  free energy    TOTEN  =      -648.57202376 eV

  energy without entropy =     -647.34488240  energy(sigma->0) =     -647.95845308


--------------------------------------------------------------------------------------------------------




--------------------------------------- Iteration      1(   7)  ---------------------------------------


    POTLOK:  cpu time    0.3567: real time    0.3569
    SETDIJ:  cpu time    0.0234: real time    0.0234
     EDDAV:  cpu time   12.9647: real time   12.9678
       DOS:  cpu time    0.0015: real time    0.0014
    CHARGE:  cpu time    0.3934: real time    0.3935
    MIXING:  cpu time    0.0125: real time    0.0125
    --------------------------------------------
      LOOP:  cpu time   13.7522: real time   13.7556

 eigenvalue-minimisations  :  1456
 total energy-change (2. order) : 0.1291532E+03  (-0.2997754E+02)
 number of electron    1055.9999772 magnetization 
 augmentation part      447.8357345 magnetization 

 Broyden mixing:
  rms(total) = 0.99427E+01    rms(broyden)= 0.99406E+01
  rms(prec ) = 0.10288E+02
  weight for this iteration     100.00

 eigenvalues of (default mixing * dielectric matrix)
  average eigenvalue GAMMA=   0.3779
  0.3779  0.3779

 Free energy of the ion-electron system (eV)
  ---------------------------------------------------
  alpha Z        PSCENC =      2592.50432107
  Ewald energy   TEWEN  =    326222.75067406
  -Hartree energ DENC   =   -487183.43541629
  -exchange      EXHF   =         0.00000000
  -V(xc)+E(xc)   XCENC  =      4830.21442229
  PAW double counting   =    161053.40930311  -167437.08860335
  entropy T*S    EENTRO =        -1.03544570
  eigenvalues    EBANDS =    -21933.54480337
  atomic energy  EATOM  =    181336.80673834
  Solvation  Ediel_sol  =         0.00000000
  ---------------------------------------------------
  free energy    TOTEN  =      -519.41880983 eV

  energy without entropy =     -518.38336413  energy(sigma->0) =     -518.90108698


--------------------------------------------------------------------------------------------------------




--------------------------------------- Iteration      1(   8)  ---------------------------------------


    POTLOK:  cpu time    0.3639: real time    0.3639
    SETDIJ:  cpu time    0.0235: real time    0.0235
     EDDAV:  cpu time   14.4527: real time   14.4553
       DOS:  cpu time    0.0017: real time    0.0017
    CHARGE:  cpu time    0.3815: real time    0.3815
    MIXING:  cpu time    0.0140: real time    0.0140
    --------------------------------------------
      LOOP:  cpu time   15.2372: real time   15.2399

 eigenvalue-minimisations  :  1648
 total energy-change (2. order) :-0.6964821E+02  (-0.2852548E+02)
 number of electron    1055.9999994 magnetization 
 augmentation part      411.4612032 magnetization 

 Broyden mixing:
  rms(total) = 0.18287E+02    rms(broyden)= 0.18285E+02
  rms(prec ) = 0.21076E+02
  weight for this iteration     100.00

 eigenvalues of (default mixing * dielectric matrix)
  average eigenvalue GAMMA=   0.4092
  0.5393  0.5393  0.1488

 Free energy of the ion-electron system (eV)
  ---------------------------------------------------
  alpha Z        PSCENC =      2592.50432107
  Ewald energy   TEWEN  =    326222.75067406
  -Hartree energ DENC   =   -488129.03074936
  -exchange      EXHF   =         0.00000000
  -V(xc)+E(xc)   XCENC  =      4867.32975443
  PAW double counting   =    168233.98854436  -174805.49067152
  entropy T*S    EENTRO =        -0.81961269
  eigenvalues    EBANDS =    -20907.10601358
  atomic energy  EATOM  =    181336.80673834
  Solvation  Ediel_sol  =         0.00000000
  ---------------------------------------------------
  free energy    TOTEN  =      -589.06701490 eV

  energy without entropy =     -588.24740221  energy(sigma->0) =     -588.65720856


--------------------------------------------------------------------------------------------------------




--------------------------------------- Iteration      1(   9)  ---------------------------------------


    POTLOK:  cpu time    0.3579: real time    0.3584
    SETDIJ:  cpu time    0.0231: real time    0.0230
     EDDAV:  cpu time   14.6398: real time   14.6422
       DOS:  cpu time    0.0015: real time    0.0015
    CHARGE:  cpu time    0.4044: real time    0.4045
    MIXING:  cpu time    0.0131: real time    0.0131
    --------------------------------------------
      LOOP:  cpu time   15.4397: real time   15.4427

 eigenvalue-minimisations  :  1664
 total energy-change (2. order) : 0.5225587E+02  (-0.2224606E+02)
 number of electron    1055.9999739 magnetization 
 augmentation part      406.2632598 magnetization 

 Broyden mixing:
  rms(total) = 0.12789E+02    rms(broyden)= 0.12783E+02
  rms(prec ) = 0.14954E+02
  weight for this iteration     100.00

 eigenvalues of (default mixing * dielectric matrix)
  average eigenvalue GAMMA=   0.3989
  0.7884  0.4600  0.2390  0.1082

 Free energy of the ion-electron system (eV)
  ---------------------------------------------------
  alpha Z        PSCENC =      2592.50432107
  Ewald energy   TEWEN  =    326222.75067406
  -Hartree energ DENC   =   -488621.18696108
  -exchange      EXHF   =         0.00000000
  -V(xc)+E(xc)   XCENC  =      4870.39367709
  PAW double counting   =    172989.44218230  -179611.10193879
  entropy T*S    EENTRO =        -1.29811516
  eigenvalues    EBANDS =    -20315.12172019
  atomic energy  EATOM  =    181336.80673834
  Solvation  Ediel_sol  =         0.00000000
  ---------------------------------------------------
  free energy    TOTEN  =      -536.81114236 eV

  energy without entropy =     -535.51302719  energy(sigma->0) =     -536.16208478


--------------------------------------------------------------------------------------------------------




--------------------------------------- Iteration      1(  10)  ---------------------------------------


    POTLOK:  cpu time    0.3554: real time    0.3555
    SETDIJ:  cpu time    0.0234: real time    0.0234
     EDDAV:  cpu time   15.0932: real time   15.0979
       DOS:  cpu time    0.0016: real time    0.0016
    CHARGE:  cpu time    0.4014: real time    0.4015
    MIXING:  cpu time    0.0137: real time    0.0137
    --------------------------------------------
      LOOP:  cpu time   15.8886: real time   15.8935

 eigenvalue-minimisations  :  1744
 total energy-change (2. order) :-0.3050710E+01  (-0.1697293E+02)
 number of electron    1055.9999844 magnetization 
 augmentation part      407.0563195 magnetization 

 Broyden mixing:
  rms(total) = 0.89763E+01    rms(broyden)= 0.89720E+01
  rms(prec ) = 0.10068E+02
  weight for this iteration     100.00

 eigenvalues of (default mixing * dielectric matrix)
  average eigenvalue GAMMA=   0.5132
  1.5494  0.3870  0.3870  0.1331  0.1094

 Free energy of the ion-electron system (eV)
  ---------------------------------------------------
  alpha Z        PSCENC =      2592.50432107
  Ewald energy   TEWEN  =    326222.75067406
  -Hartree energ DENC   =   -488748.17697493
  -exchange      EXHF   =         0.00000000
  -V(xc)+E(xc)   XCENC  =      4866.67190165
  PAW double counting   =    176095.33695204  -182732.87512806
  entropy T*S    EENTRO =        -1.31867458
  eigenvalues    EBANDS =    -20171.56166181
  atomic energy  EATOM  =    181336.80673834
  Solvation  Ediel_sol  =         0.00000000
  ---------------------------------------------------
  free energy    TOTEN  =      -539.86185223 eV

  energy without entropy =     -538.54317764  energy(sigma->0) =     -539.20251493


--------------------------------------------------------------------------------------------------------




--------------------------------------- Iteration      1(  11)  ---------------------------------------


    POTLOK:  cpu time    0.3593: real time    0.3593
    SETDIJ:  cpu time    0.0232: real time    0.0232
     EDDAV:  cpu time   15.2120: real time   15.2144
       DOS:  cpu time    0.0014: real time    0.0014
    CHARGE:  cpu time    0.3977: real time    0.3979
    MIXING:  cpu time    0.0132: real time    0.0132
    --------------------------------------------
      LOOP:  cpu time   16.0067: real time   16.0094

 eigenvalue-minimisations  :  1760
 total energy-change (2. order) :-0.3644425E+02  (-0.1035588E+02)
 number of electron    1055.9999610 magnetization 
 augmentation part      403.9133059 magnetization 

 Broyden mixing:
  rms(total) = 0.14399E+02    rms(broyden)= 0.14394E+02
  rms(prec ) = 0.17211E+02
  weight for this iteration     100.00

 eigenvalues of (default mixing * dielectric matrix)
  average eigenvalue GAMMA=   0.5161
  1.9432  0.3870  0.3870  0.1432  0.1432  0.0928

 Free energy of the ion-electron system (eV)
  ---------------------------------------------------
  alpha Z        PSCENC =      2592.50432107
  Ewald energy   TEWEN  =    326222.75067406
  -Hartree energ DENC   =   -488575.12460743
  -exchange      EXHF   =         0.00000000
  -V(xc)+E(xc)   XCENC  =      4862.91297066
  PAW double counting   =    183090.27056980  -189778.31731095
  entropy T*S    EENTRO =        -1.52696790
  eigenvalues    EBANDS =    -20326.58249478
  atomic energy  EATOM  =    181336.80673834
  Solvation  Ediel_sol  =         0.00000000
  ---------------------------------------------------
  free energy    TOTEN  =      -576.30610714 eV

  energy without entropy =     -574.77913924  energy(sigma->0) =     -575.54262319


--------------------------------------------------------------------------------------------------------




--------------------------------------- Iteration      1(  12)  ---------------------------------------


    POTLOK:  cpu time    0.3544: real time    0.3544
    SETDIJ:  cpu time    0.0232: real time    0.0232
     EDDAV:  cpu time   14.7167: real time   14.7193
       DOS:  cpu time    0.0015: real time    0.0015
    CHARGE:  cpu time    0.5279: real time    0.5280
    MIXING:  cpu time    0.0140: real time    0.0140
    --------------------------------------------
      LOOP:  cpu time   15.6377: real time   15.6404

 eigenvalue-minimisations  :  1720
 total energy-change (2. order) : 0.5735442E+02  (-0.7677475E+01)
 number of electron    1055.9999865 magnetization 
 augmentation part      414.6891243 magnetization 

 Broyden mixing:
  rms(total) = 0.65356E+01    rms(broyden)= 0.65293E+01
  rms(prec ) = 0.75408E+01
  weight for this iteration     100.00

 eigenvalues of (default mixing * dielectric matrix)
  average eigenvalue GAMMA=   0.5550
  2.2422  0.4533  0.4107  0.4107  0.1576  0.1261  0.0842

 Free energy of the ion-electron system (eV)
  ---------------------------------------------------
  alpha Z        PSCENC =      2592.50432107
  Ewald energy   TEWEN  =    326222.75067406
  -Hartree energ DENC   =   -488515.78907912
  -exchange      EXHF   =         0.00000000
  -V(xc)+E(xc)   XCENC  =      4859.04811290
  PAW double counting   =    187336.90750125  -194048.16539735
  entropy T*S    EENTRO =        -1.08701304
  eigenvalues    EBANDS =    -20301.92754538
  atomic energy  EATOM  =    181336.80673834
  Solvation  Ediel_sol  =         0.00000000
  ---------------------------------------------------
  free energy    TOTEN  =      -518.95168727 eV

  energy without entropy =     -517.86467423  energy(sigma->0) =     -518.40818075


--------------------------------------------------------------------------------------------------------




--------------------------------------- Iteration      1(  13)  ---------------------------------------


    POTLOK:  cpu time    0.3541: real time    0.3541
    SETDIJ:  cpu time    0.0232: real time    0.0232
     EDDAV:  cpu time   14.8427: real time   14.8452
       DOS:  cpu time    0.0015: real time    0.0015
    CHARGE:  cpu time    0.5245: real time    0.5245
    MIXING:  cpu time    0.0294: real time    0.0294
    --------------------------------------------
      LOOP:  cpu time   15.7754: real time   15.7779

 eigenvalue-minimisations  :  1736
 total energy-change (2. order) :-0.1044108E+02  (-0.8100612E+01)
 number of electron    1055.9999764 magnetization 
 augmentation part      414.8817504 magnetization 

 Broyden mixing:
  rms(total) = 0.10842E+02    rms(broyden)= 0.10839E+02
  rms(prec ) = 0.12313E+02
  weight for this iteration     100.00

 eigenvalues of (default mixing * dielectric matrix)
  average eigenvalue GAMMA=   0.5359
  2.3874  0.5556  0.4220  0.4220  0.1706  0.1207  0.1207  0.0883

 Free energy of the ion-electron system (eV)
  ---------------------------------------------------
  alpha Z        PSCENC =      2592.50432107
  Ewald energy   TEWEN  =    326222.75067406
  -Hartree energ DENC   =   -488363.16616080
  -exchange      EXHF   =         0.00000000
  -V(xc)+E(xc)   XCENC  =      4858.44481577
  PAW double counting   =    190112.22719131  -196845.00018377
  entropy T*S    EENTRO =        -1.29821473
  eigenvalues    EBANDS =    -20442.66194373
  atomic energy  EATOM  =    181336.80673834
  Solvation  Ediel_sol  =         0.00000000
  ---------------------------------------------------
  free energy    TOTEN  =      -529.39276250 eV

  energy without entropy =     -528.09454777  energy(sigma->0) =     -528.74365513


--------------------------------------------------------------------------------------------------------




--------------------------------------- Iteration      1(  14)  ---------------------------------------


    POTLOK:  cpu time    0.4139: real time    0.4144
    SETDIJ:  cpu time    0.0241: real time    0.0241
     EDDAV:  cpu time   14.9532: real time   14.9563
       DOS:  cpu time    0.0017: real time    0.0016
    CHARGE:  cpu time    0.3945: real time    0.3946
    MIXING:  cpu time    0.0158: real time    0.0158
    --------------------------------------------
      LOOP:  cpu time   15.8031: real time   15.8068

 eigenvalue-minimisations  :  1744
 total energy-change (2. order) : 0.3098440E+02  (-0.4628465E+01)
 number of electron    1055.9999859 magnetization 
 augmentation part      419.0699968 magnetization 

 Broyden mixing:
  rms(total) = 0.57412E+01    rms(broyden)= 0.57387E+01
  rms(prec ) = 0.65820E+01
  weight for this iteration     100.00

 eigenvalues of (default mixing * dielectric matrix)
  average eigenvalue GAMMA=   0.4988
  2.3504  0.5372  0.4355  0.4355  0.2609  0.1374  0.1374  0.0864  0.1086

 Free energy of the ion-electron system (eV)
  ---------------------------------------------------
  alpha Z        PSCENC =      2592.50432107
  Ewald energy   TEWEN  =    326222.75067406
  -Hartree energ DENC   =   -488319.95469467
  -exchange      EXHF   =         0.00000000
  -V(xc)+E(xc)   XCENC  =      4857.84585736
  PAW double counting   =    191283.47907778  -198021.46166239
  entropy T*S    EENTRO =        -1.26221819
  eigenvalues    EBANDS =    -20449.11645826
  atomic energy  EATOM  =    181336.80673834
  Solvation  Ediel_sol  =         0.00000000
  ---------------------------------------------------
  free energy    TOTEN  =      -498.40836490 eV

  energy without entropy =     -497.14614671  energy(sigma->0) =     -497.77725581


--------------------------------------------------------------------------------------------------------




--------------------------------------- Iteration      1(  15)  ---------------------------------------


    POTLOK:  cpu time    0.3690: real time    0.3694
    SETDIJ:  cpu time    0.0497: real time    0.0497
     EDDAV:  cpu time   15.1410: real time   15.1436
       DOS:  cpu time    0.0014: real time    0.0014
    CHARGE:  cpu time    0.3897: real time    0.3898
    MIXING:  cpu time    0.0161: real time    0.0161
    --------------------------------------------
      LOOP:  cpu time   15.9670: real time   15.9699

 eigenvalue-minimisations  :  1760
 total energy-change (2. order) : 0.1262695E+02  (-0.2313736E+01)
 number of electron    1055.9999851 magnetization 
 augmentation part      419.7055991 magnetization 

 Broyden mixing:
  rms(total) = 0.41377E+01    rms(broyden)= 0.41355E+01
  rms(prec ) = 0.47290E+01
  weight for this iteration     100.00

 eigenvalues of (default mixing * dielectric matrix)
  average eigenvalue GAMMA=   0.4712
  2.2108  0.4970  0.4970  0.4308  0.4308  0.1594  0.1594  0.1200  0.1200  0.0869

 Free energy of the ion-electron system (eV)
  ---------------------------------------------------
  alpha Z        PSCENC =      2592.50432107
  Ewald energy   TEWEN  =    326222.75067406
  -Hartree energ DENC   =   -488349.83923378
  -exchange      EXHF   =         0.00000000
  -V(xc)+E(xc)   XCENC  =      4858.47128680
  PAW double counting   =    191008.69059875  -197744.34373775
  entropy T*S    EENTRO =        -1.17469640
  eigenvalues    EBANDS =    -20409.64737093
  atomic energy  EATOM  =    181336.80673834
  Solvation  Ediel_sol  =         0.00000000
  ---------------------------------------------------
  free energy    TOTEN  =      -485.78141984 eV

  energy without entropy =     -484.60672344  energy(sigma->0) =     -485.19407164


--------------------------------------------------------------------------------------------------------




--------------------------------------- Iteration      1(  16)  ---------------------------------------


    POTLOK:  cpu time    0.3596: real time    0.3597
    SETDIJ:  cpu time    0.0231: real time    0.0231
     EDDAV:  cpu time   15.2754: real time   15.2781
       DOS:  cpu time    0.0016: real time    0.0016
    CHARGE:  cpu time    0.3942: real time    0.3942
    MIXING:  cpu time    0.0166: real time    0.0166
    --------------------------------------------
      LOOP:  cpu time   16.0705: real time   16.0734

 eigenvalue-minimisations  :  1768
 total energy-change (2. order) : 0.4767924E+01  (-0.1048066E+01)
 number of electron    1055.9999822 magnetization 
 augmentation part      418.0822528 magnetization 

 Broyden mixing:
  rms(total) = 0.36174E+01    rms(broyden)= 0.36165E+01
  rms(prec ) = 0.40847E+01
  weight for this iteration     100.00

 eigenvalues of (default mixing * dielectric matrix)
  average eigenvalue GAMMA=   0.4472
  2.0973  0.5877  0.5877  0.4095  0.4095  0.1878  0.1878  0.1271  0.1271  0.0867
  0.1110

 Free energy of the ion-electron system (eV)
  ---------------------------------------------------
  alpha Z        PSCENC =      2592.50432107
  Ewald energy   TEWEN  =    326222.75067406
  -Hartree energ DENC   =   -488397.09026181
  -exchange      EXHF   =         0.00000000
  -V(xc)+E(xc)   XCENC  =      4860.26188247
  PAW double counting   =    190100.26626070  -196831.01882089
  entropy T*S    EENTRO =        -1.20696301
  eigenvalues    EBANDS =    -20364.28732690
  atomic energy  EATOM  =    181336.80673834
  Solvation  Ediel_sol  =         0.00000000
  ---------------------------------------------------
  free energy    TOTEN  =      -481.01349598 eV

  energy without entropy =     -479.80653296  energy(sigma->0) =     -480.41001447


--------------------------------------------------------------------------------------------------------




--------------------------------------- Iteration      1(  17)  ---------------------------------------


    POTLOK:  cpu time    0.3734: real time    0.3733
    SETDIJ:  cpu time    0.0234: real time    0.0234
     EDDAV:  cpu time   15.0977: real time   15.1007
       DOS:  cpu time    0.0015: real time    0.0015
    CHARGE:  cpu time    0.3983: real time    0.3983
    MIXING:  cpu time    0.0175: real time    0.0175
    --------------------------------------------
      LOOP:  cpu time   15.9117: real time   15.9147

 eigenvalue-minimisations  :  1736
 total energy-change (2. order) : 0.3799019E+01  (-0.3999222E+00)
 number of electron    1055.9999839 magnetization 
 augmentation part      417.1939836 magnetization 

 Broyden mixing:
  rms(total) = 0.30074E+01    rms(broyden)= 0.30070E+01
  rms(prec ) = 0.34129E+01
  weight for this iteration     100.00

 eigenvalues of (default mixing * dielectric matrix)
  average eigenvalue GAMMA=   0.4463
  2.0637  0.6456  0.6456  0.3874  0.3874  0.3988  0.2199  0.1421  0.1421  0.0868
  0.1178  0.1178

 Free energy of the ion-electron system (eV)
  ---------------------------------------------------
  alpha Z        PSCENC =      2592.50432107
  Ewald energy   TEWEN  =    326222.75067406
  -Hartree energ DENC   =   -488429.49581265
  -exchange      EXHF   =         0.00000000
  -V(xc)+E(xc)   XCENC  =      4861.40750860
  PAW double counting   =    189299.08986427  -196024.07372628
  entropy T*S    EENTRO =        -1.21510353
  eigenvalues    EBANDS =    -20334.98894053
  atomic energy  EATOM  =    181336.80673834
  Solvation  Ediel_sol  =         0.00000000
  ---------------------------------------------------
  free energy    TOTEN  =      -477.21447665 eV

  energy without entropy =     -475.99937312  energy(sigma->0) =     -476.60692488


--------------------------------------------------------------------------------------------------------




--------------------------------------- Iteration      1(  18)  ---------------------------------------


    POTLOK:  cpu time    0.3659: real time    0.3660
    SETDIJ:  cpu time    0.0310: real time    0.0310
     EDDAV:  cpu time   15.0600: real time   15.0626
       DOS:  cpu time    0.0014: real time    0.0014
    CHARGE:  cpu time    0.3949: real time    0.3949
    MIXING:  cpu time    0.0184: real time    0.0184
    --------------------------------------------
      LOOP:  cpu time   15.8717: real time   15.8744

 eigenvalue-minimisations  :  1736
 total energy-change (2. order) : 0.9863235E+00  (-0.1450709E+00)
 number of electron    1055.9999834 magnetization 
 augmentation part      416.8531979 magnetization 

 Broyden mixing:
  rms(total) = 0.28949E+01    rms(broyden)= 0.28948E+01
  rms(prec ) = 0.32886E+01
  weight for this iteration     100.00

 eigenvalues of (default mixing * dielectric matrix)
  average eigenvalue GAMMA=   0.4628
  2.0464  0.8395  0.8395  0.4544  0.4225  0.4225  0.2349  0.1534  0.1534  0.0868
  0.1234  0.1234  0.1168

 Free energy of the ion-electron system (eV)
  ---------------------------------------------------
  alpha Z        PSCENC =      2592.50432107
  Ewald energy   TEWEN  =    326222.75067406
  -Hartree energ DENC   =   -488437.29612833
  -exchange      EXHF   =         0.00000000
  -V(xc)+E(xc)   XCENC  =      4861.72901488
  PAW double counting   =    188784.88547727  -195504.12319514
  entropy T*S    EENTRO =        -1.22567781
  eigenvalues    EBANDS =    -20332.25937748
  atomic energy  EATOM  =    181336.80673834
  Solvation  Ediel_sol  =         0.00000000
  ---------------------------------------------------
  free energy    TOTEN  =      -476.22815315 eV

  energy without entropy =     -475.00247533  energy(sigma->0) =     -475.61531424


--------------------------------------------------------------------------------------------------------




--------------------------------------- Iteration      1(  19)  ---------------------------------------


    POTLOK:  cpu time    0.3573: real time    0.3573
    SETDIJ:  cpu time    0.0231: real time    0.0231
     EDDAV:  cpu time   14.9995: real time   15.0022
       DOS:  cpu time    0.0015: real time    0.0015
    CHARGE:  cpu time    0.3953: real time    0.3953
    MIXING:  cpu time    0.0201: real time    0.0201
    --------------------------------------------
      LOOP:  cpu time   15.7968: real time   15.7995

 eigenvalue-minimisations  :  1728
 total energy-change (2. order) : 0.1497389E+01  (-0.8553189E-01)
 number of electron    1055.9999836 magnetization 
 augmentation part      416.6920646 magnetization 

 Broyden mixing:
  rms(total) = 0.26798E+01    rms(broyden)= 0.26796E+01
  rms(prec ) = 0.30492E+01
  weight for this iteration     100.00

 eigenvalues of (default mixing * dielectric matrix)
  average eigenvalue GAMMA=   0.4766
  2.0460  1.0214  1.0214  0.4412  0.4412  0.3813  0.3813  0.1737  0.1737  0.0868
  0.1339  0.1339  0.1185  0.1185

 Free energy of the ion-electron system (eV)
  ---------------------------------------------------
  alpha Z        PSCENC =      2592.50432107
  Ewald energy   TEWEN  =    326222.75067406
  -Hartree energ DENC   =   -488450.26943991
  -exchange      EXHF   =         0.00000000
  -V(xc)+E(xc)   XCENC  =      4862.00837897
  PAW double counting   =    188095.10309991  -194805.61710506
  entropy T*S    EENTRO =        -1.23644625
  eigenvalues    EBANDS =    -20326.78098578
  atomic energy  EATOM  =    181336.80673834
  Solvation  Ediel_sol  =         0.00000000
  ---------------------------------------------------
  free energy    TOTEN  =      -474.73076465 eV

  energy without entropy =     -473.49431839  energy(sigma->0) =     -474.11254152


--------------------------------------------------------------------------------------------------------




--------------------------------------- Iteration      1(  20)  ---------------------------------------


    POTLOK:  cpu time    0.3586: real time    0.3591
    SETDIJ:  cpu time    0.0230: real time    0.0230
     EDDAV:  cpu time   15.2403: real time   15.2436
       DOS:  cpu time    0.0016: real time    0.0016
    CHARGE:  cpu time    0.4065: real time    0.4065
    MIXING:  cpu time    0.0208: real time    0.0208
    --------------------------------------------
      LOOP:  cpu time   16.0507: real time   16.0545

 eigenvalue-minimisations  :  1744
 total energy-change (2. order) : 0.1472199E+01  (-0.6068595E-01)
 number of electron    1055.9999831 magnetization 
 augmentation part      416.5024801 magnetization 

 Broyden mixing:
  rms(total) = 0.24363E+01    rms(broyden)= 0.24362E+01
  rms(prec ) = 0.27694E+01
  weight for this iteration     100.00

 eigenvalues of (default mixing * dielectric matrix)
  average eigenvalue GAMMA=   0.5345
  2.0243  1.4656  1.4656  0.5000  0.5000  0.4628  0.4628  0.1973  0.1973  0.0868
  0.1434  0.1434  0.1228  0.1228  0.1226

 Free energy of the ion-electron system (eV)
  ---------------------------------------------------
  alpha Z        PSCENC =      2592.50432107
  Ewald energy   TEWEN  =    326222.75067406
  -Hartree energ DENC   =   -488464.51240926
  -exchange      EXHF   =         0.00000000
  -V(xc)+E(xc)   XCENC  =      4862.27888506
  PAW double counting   =    187488.73685689  -194191.04817267
  entropy T*S    EENTRO =        -1.25406001
  eigenvalues    EBANDS =    -20319.52139876
  atomic energy  EATOM  =    181336.80673834
  Solvation  Ediel_sol  =         0.00000000
  ---------------------------------------------------
  free energy    TOTEN  =      -473.25856528 eV

  energy without entropy =     -472.00450526  energy(sigma->0) =     -472.63153527


--------------------------------------------------------------------------------------------------------




--------------------------------------- Iteration      1(  21)  ---------------------------------------


    POTLOK:  cpu time    0.3598: real time    0.3598
    SETDIJ:  cpu time    0.0234: real time    0.0234
     EDDAV:  cpu time   16.4561: real time   16.4590
       DOS:  cpu time    0.0032: real time    0.0032
    CHARGE:  cpu time    0.4013: real time    0.4014
    MIXING:  cpu time    0.0234: real time    0.0234
    --------------------------------------------
      LOOP:  cpu time   17.2671: real time   17.2701

 eigenvalue-minimisations  :  1936
 total energy-change (2. order) : 0.3305217E+01  (-0.1491629E+00)
 number of electron    1055.9999835 magnetization 
 augmentation part      415.9904702 magnetization 

 Broyden mixing:
  rms(total) = 0.18041E+01    rms(broyden)= 0.18037E+01
  rms(prec ) = 0.20517E+01
  weight for this iteration     100.00

 eigenvalues of (default mixing * dielectric matrix)
  average eigenvalue GAMMA=   0.5479
  2.0139  1.6916  1.6916  0.5323  0.5323  0.4455  0.4455  0.3023  0.2056  0.0868
  0.1574  0.1574  0.1294  0.1294  0.1228  0.1228

 Free energy of the ion-electron system (eV)
  ---------------------------------------------------
  alpha Z        PSCENC =      2592.50432107
  Ewald energy   TEWEN  =    326222.75067406
  -Hartree energ DENC   =   -488505.02915461
  -exchange      EXHF   =         0.00000000
  -V(xc)+E(xc)   XCENC  =      4863.10451426
  PAW double counting   =    186001.82461469  -192683.59265812
  entropy T*S    EENTRO =        -1.34284129
  eigenvalues    EBANDS =    -20296.97955633
  atomic energy  EATOM  =    181336.80673834
  Solvation  Ediel_sol  =         0.00000000
  ---------------------------------------------------
  free energy    TOTEN  =      -469.95334793 eV

  energy without entropy =     -468.61050664  energy(sigma->0) =     -469.28192729


--------------------------------------------------------------------------------------------------------




--------------------------------------- Iteration      1(  22)  ---------------------------------------


    POTLOK:  cpu time    0.3630: real time    0.3630
    SETDIJ:  cpu time    0.0232: real time    0.0232
     EDDAV:  cpu time   14.8789: real time   14.8812
       DOS:  cpu time    0.0053: real time    0.0053
    CHARGE:  cpu time    0.3969: real time    0.3969
    MIXING:  cpu time    0.0247: real time    0.0247
    --------------------------------------------
      LOOP:  cpu time   15.6920: real time   15.6943

 eigenvalue-minimisations  :  1728
 total energy-change (2. order) : 0.1710199E+01  (-0.1875355E+00)
 number of electron    1055.9999828 magnetization 
 augmentation part      415.7708784 magnetization 

 Broyden mixing:
  rms(total) = 0.10862E+01    rms(broyden)= 0.10854E+01
  rms(prec ) = 0.11921E+01
  weight for this iteration     100.00

 eigenvalues of (default mixing * dielectric matrix)
  average eigenvalue GAMMA=   0.5459
  1.9985  1.7880  1.7880  0.5778  0.5778  0.4233  0.4233  0.4196  0.1995  0.0868
  0.1715  0.1715  0.1230  0.1230  0.1403  0.1403  0.1277

 Free energy of the ion-electron system (eV)
  ---------------------------------------------------
  alpha Z        PSCENC =      2592.50432107
  Ewald energy   TEWEN  =    326222.75067406
  -Hartree energ DENC   =   -488521.15272809
  -exchange      EXHF   =         0.00000000
  -V(xc)+E(xc)   XCENC  =      4863.73986551
  PAW double counting   =    184973.01494238  -191639.51785753
  entropy T*S    EENTRO =        -1.41712035
  eigenvalues    EBANDS =    -20294.97198399
  atomic energy  EATOM  =    181336.80673834
  Solvation  Ediel_sol  =         0.00000000
  ---------------------------------------------------
  free energy    TOTEN  =      -468.24314860 eV

  energy without entropy =     -466.82602825  energy(sigma->0) =     -467.53458843


--------------------------------------------------------------------------------------------------------




--------------------------------------- Iteration      1(  23)  ---------------------------------------


    POTLOK:  cpu time    0.3647: real time    0.3648
    SETDIJ:  cpu time    0.0231: real time    0.0231
     EDDAV:  cpu time   15.0220: real time   15.0248
       DOS:  cpu time    0.0051: real time    0.0051
    CHARGE:  cpu time    0.3897: real time    0.3898
    MIXING:  cpu time    0.0229: real time    0.0229
    --------------------------------------------
      LOOP:  cpu time   15.8274: real time   15.8304

 eigenvalue-minimisations  :  1744
 total energy-change (2. order) : 0.4369688E+00  (-0.9430317E-01)
 number of electron    1055.9999834 magnetization 
 augmentation part      415.5191153 magnetization 

 Broyden mixing:
  rms(total) = 0.75674E+00    rms(broyden)= 0.75637E+00
  rms(prec ) = 0.81191E+00
  weight for this iteration     100.00

 eigenvalues of (default mixing * dielectric matrix)
  average eigenvalue GAMMA=   0.5262
  2.0031  1.7833  1.7833  0.5828  0.5828  0.4123  0.4123  0.3855  0.2562  0.1952
  0.1952  0.0868  0.1468  0.1468  0.1264  0.1264  0.1228  0.1228

 Free energy of the ion-electron system (eV)
  ---------------------------------------------------
  alpha Z        PSCENC =      2592.50432107
  Ewald energy   TEWEN  =    326222.75067406
  -Hartree energ DENC   =   -488537.58625597
  -exchange      EXHF   =         0.00000000
  -V(xc)+E(xc)   XCENC  =      4864.03373610
  PAW double counting   =    184533.74591091  -191193.03719863
  entropy T*S    EENTRO =        -1.45963785
  eigenvalues    EBANDS =    -20285.56446780
  atomic energy  EATOM  =    181336.80673834
  Solvation  Ediel_sol  =         0.00000000
  ---------------------------------------------------
  free energy    TOTEN  =      -467.80617977 eV

  energy without entropy =     -466.34654192  energy(sigma->0) =     -467.07636085


--------------------------------------------------------------------------------------------------------




--------------------------------------- Iteration      1(  24)  ---------------------------------------


[...]
   -.108E+03 0.214E+03 -.588E+04   0.109E+03 -.213E+03 0.588E+04   -.917E+00 -.126E+01 0.156E+01   -.488E-02 -.475E-02 0.898E-02
   -.474E+03 -.377E+03 0.300E+04   0.475E+03 0.379E+03 -.300E+04   -.113E+01 -.194E+01 -.556E+00   0.772E-02 -.240E-01 0.230E-01
   -.232E+03 -.319E+03 0.596E+04   0.225E+03 0.319E+03 -.596E+04   0.686E+01 0.141E+01 -.231E+01   -.387E-02 -.540E-03 0.429E-04
   0.201E+03 -.307E+03 -.119E+04   -.202E+03 0.308E+03 0.119E+04   0.718E+00 -.128E+01 0.734E+00   0.520E-03 0.810E-02 -.400E-01
   0.102E+03 -.326E+03 -.466E+04   -.104E+03 0.330E+03 0.466E+04   0.100E+01 -.234E+01 -.381E+01   0.574E-02 0.188E-01 -.141E-01
   0.226E+03 -.637E+03 0.206E+04   -.229E+03 0.640E+03 -.206E+04   0.167E+01 -.248E+01 -.161E+01   -.917E-02 -.713E-02 0.680E-03
   0.181E+03 0.413E+02 -.580E+04   -.182E+03 -.438E+02 0.580E+04   0.447E+00 0.254E+01 0.119E+01   -.398E-02 -.992E-02 0.711E-02
   0.274E+03 0.822E+03 0.348E+04   -.275E+03 -.825E+03 -.348E+04   0.962E+00 0.229E+01 0.409E+00   -.818E-02 0.982E-02 0.123E-01
   0.205E+03 0.478E+03 -.122E+02   -.205E+03 -.478E+03 0.110E+02   0.821E+00 0.424E+00 0.117E+01   0.105E-02 0.353E-02 -.309E-01
   0.445E+02 0.518E+03 -.354E+04   -.470E+02 -.523E+03 0.354E+04   0.247E+01 0.465E+01 -.196E+01   -.204E-02 -.671E-02 -.352E-01
   -.496E+03 0.169E+02 -.225E+02   0.497E+03 -.165E+02 0.215E+02   -.928E+00 -.327E+00 0.113E+01   -.851E-02 0.672E-02 -.320E-01
   -.445E+03 -.137E+03 -.308E+04   0.448E+03 0.138E+03 0.308E+04   -.286E+01 -.621E+00 0.164E+01   -.760E-02 0.629E-02 -.447E-01
   -.349E+03 0.252E+02 -.585E+04   0.352E+03 -.250E+02 0.585E+04   -.208E+01 -.433E+00 0.216E+01   -.257E-02 -.667E-03 0.131E-01
   -.763E+03 0.166E+03 0.341E+04   0.768E+03 -.167E+03 -.341E+04   -.378E+01 0.959E+00 0.161E+00   0.969E-02 0.152E-01 0.998E-02
   -.227E+03 -.891E+03 0.585E+04   0.228E+03 0.895E+03 -.586E+04   -.209E+01 -.200E+01 0.522E+01   -.115E-01 -.161E-01 0.539E-02
   0.286E+03 -.364E+03 -.118E+04   -.287E+03 0.365E+03 0.118E+04   0.670E+00 -.109E+01 0.567E+00   0.164E-02 0.267E-02 -.398E-01
   0.464E+03 -.461E+03 -.464E+04   -.466E+03 0.463E+03 0.464E+04   0.120E+01 -.141E+01 -.203E+01   -.778E-02 0.948E-02 -.230E-01
   0.438E+03 -.631E+03 0.221E+04   -.440E+03 0.634E+03 -.221E+04   0.146E+01 -.220E+01 0.908E+00   0.613E-02 -.106E-01 0.141E-01
   0.687E+03 0.298E+02 0.590E+04   -.684E+03 -.255E+02 -.590E+04   -.369E+01 -.410E+01 -.185E+01   0.148E-01 0.175E-01 0.164E-04
   0.221E+03 0.559E+03 0.322E+04   -.222E+03 -.563E+03 -.321E+04   0.728E+00 0.274E+01 0.164E+00   0.929E-02 0.189E-01 -.544E-03
   0.271E+03 0.410E+03 -.389E+02   -.272E+03 -.410E+03 0.379E+02   0.672E+00 0.698E+00 0.107E+01   0.448E-03 0.399E-02 -.309E-01
   0.391E+03 0.229E+03 -.309E+04   -.393E+03 -.231E+03 0.309E+04   0.192E+01 0.225E+01 0.134E+01   -.482E-02 -.177E-03 -.426E-01
   -.530E+03 0.287E+02 -.485E+02   0.531E+03 -.283E+02 0.470E+02   -.697E+00 -.522E+00 0.154E+01   0.631E-02 0.585E-02 -.302E-01
   -.563E+03 0.428E+02 -.365E+04   0.569E+03 -.431E+02 0.365E+04   -.493E+01 0.469E-01 -.285E+01   0.133E-01 0.123E-01 -.317E-01
   -.553E+03 0.275E+03 0.320E+04   0.555E+03 -.276E+03 -.319E+04   -.156E+01 0.268E+00 -.114E+00   -.100E-01 0.126E-01 -.859E-02
   -.166E+03 -.757E+03 0.594E+04   0.161E+03 0.758E+03 -.594E+04   0.497E+01 -.797E+00 -.297E+01   0.169E-01 -.339E-02 0.980E-02
   -.600E+02 0.134E+03 -.421E+03   0.610E+02 -.136E+03 0.419E+03   -.115E+01 0.177E+01 0.779E+00   -.118E-02 0.294E-02 -.159E-01
   0.700E+02 0.275E+03 -.165E+04   -.703E+02 -.277E+03 0.165E+04   0.133E+00 0.564E-01 -.782E+00   0.225E-02 0.635E-02 -.414E-02
   -.455E+03 0.281E+03 0.221E+04   0.460E+03 -.285E+03 -.221E+04   -.201E+01 0.194E+01 0.996E+00   -.687E-02 -.702E-02 0.323E-02
   -.105E+03 0.138E+03 0.877E+03   0.106E+03 -.139E+03 -.878E+03   -.697E+00 0.125E+01 0.167E+01   -.635E-03 -.376E-02 -.398E-02
   0.163E+03 -.341E+02 -.227E+04   -.162E+03 0.356E+02 0.227E+04   -.663E+00 -.772E+00 -.178E+01   0.254E-02 -.789E-02 0.239E-02
   -.111E+03 -.166E+03 -.930E+03   0.113E+03 0.169E+03 0.931E+03   -.132E+01 -.227E+01 -.644E+00   -.555E-03 -.509E-02 -.160E-01
   -.341E+03 0.389E+02 0.163E+04   0.345E+03 -.387E+02 -.163E+04   -.200E+01 0.314E+00 -.668E+00   -.298E-02 0.114E-01 0.343E-02
   -.116E+03 -.117E+03 0.295E+03   0.117E+03 0.120E+03 -.296E+03   -.107E+01 -.274E+01 0.653E+00   0.380E-03 0.284E-02 -.805E-02
   0.194E+03 -.297E+03 0.153E+04   -.197E+03 0.299E+03 -.153E+04   0.148E+01 -.597E+00 -.102E-01   0.163E-02 -.994E-02 0.367E-02
   0.133E+03 -.239E+02 0.273E+03   -.136E+03 0.242E+02 -.273E+03   0.267E+01 -.512E+00 0.717E+00   -.126E-02 -.282E-02 -.964E-02
   0.128E+03 0.364E+01 -.869E+03   -.131E+03 -.363E+01 0.869E+03   0.283E+01 0.253E+00 -.999E+00   -.218E-02 -.191E-02 -.145E-01
   -.111E+03 0.150E+03 -.225E+04   0.111E+03 -.152E+03 0.226E+04   -.161E+00 0.137E+01 -.140E+01   -.394E-02 -.359E-02 0.313E-02
   -.676E+02 0.127E+03 -.402E+03   0.685E+02 -.129E+03 0.400E+03   -.111E+01 0.173E+01 0.774E+00   0.144E-02 -.143E-02 -.149E-01
   0.871E+02 0.274E+03 -.164E+04   -.872E+02 -.275E+03 0.164E+04   -.302E-01 0.967E-01 -.379E+00   -.885E-03 0.173E-02 -.745E-02
   -.275E+02 0.173E+03 0.224E+04   0.279E+02 -.175E+03 -.224E+04   -.771E+00 0.207E+01 0.226E+01   0.796E-02 -.200E-01 0.113E-01
   -.769E+01 0.813E+02 0.590E+03   0.789E+01 -.824E+02 -.588E+03   -.322E+00 0.144E+01 -.582E+00   -.101E-02 -.229E-02 -.741E-02
   -.795E+02 -.293E+03 -.227E+04   0.820E+02 0.296E+03 0.228E+04   -.198E+01 -.176E+01 -.132E+01   0.382E-03 -.456E-02 0.191E-02
   -.181E+02 -.181E+03 -.895E+03   0.192E+02 0.183E+03 0.895E+03   -.880E+00 -.263E+01 -.201E+00   -.152E-03 -.208E-02 -.185E-01
   0.145E+03 -.235E+03 0.148E+04   -.147E+03 0.238E+03 -.148E+04   0.105E+01 -.912E+00 0.128E+01   0.152E-02 -.602E-02 -.212E-02
   -.432E+02 -.132E+03 0.289E+03   0.443E+02 0.134E+03 -.290E+03   -.897E+00 -.242E+01 0.989E+00   -.253E-03 0.149E-02 -.940E-02
   0.296E+03 -.200E+03 0.152E+04   -.297E+03 0.202E+03 -.153E+04   -.461E-01 -.158E+01 0.158E+01   0.650E-04 -.564E-02 0.111E-01
   0.206E+03 -.265E+02 0.293E+03   -.209E+03 0.267E+02 -.293E+03   0.286E+01 -.385E+00 0.702E+00   0.515E-02 -.418E-02 -.680E-02
   0.175E+03 -.363E+02 -.917E+03   -.178E+03 0.364E+02 0.917E+03   0.295E+01 -.804E-01 -.823E+00   -.303E-03 -.140E-02 -.193E-01
   -.273E+02 0.573E+02 -.223E+04   0.278E+02 -.593E+02 0.224E+04   -.581E+00 0.119E+01 -.170E+01   -.308E-03 -.217E-02 0.268E-02
   -.747E+02 0.103E+03 -.389E+03   0.760E+02 -.105E+03 0.388E+03   -.111E+01 0.186E+01 0.926E+00   -.305E-02 0.642E-03 -.169E-01
   -.137E+03 0.138E+03 -.169E+04   0.138E+03 -.140E+03 0.169E+04   -.459E+00 0.456E+00 -.156E+01   -.171E-02 -.486E-02 -.810E-02
   -.216E+03 0.425E+03 0.219E+04   0.218E+03 -.428E+03 -.220E+04   -.621E+00 0.106E+01 0.952E+00   0.250E-02 0.150E-02 0.187E-02
   -.782E+02 0.149E+03 0.886E+03   0.789E+02 -.150E+03 -.888E+03   -.602E+00 0.112E+01 0.229E+01   0.264E-02 0.948E-03 0.881E-03
   -.305E+02 -.333E+03 -.223E+04   0.331E+02 0.336E+03 0.224E+04   -.178E+01 -.139E+01 -.119E+01   -.310E-02 0.717E-02 0.134E-02
   -.108E+03 -.109E+03 -.946E+03   0.109E+03 0.112E+03 0.946E+03   -.839E+00 -.264E+01 -.389E+00   0.246E-02 0.425E-02 -.155E-01
   -.137E+03 -.288E+03 0.164E+04   0.137E+03 0.290E+03 -.164E+04   0.641E-01 -.885E-01 0.729E+00   -.325E-02 0.465E-03 0.390E-02
   -.978E+02 -.164E+03 0.324E+03   0.985E+02 0.166E+03 -.324E+03   -.638E+00 -.242E+01 0.727E+00   -.124E-02 -.190E-02 -.625E-02
   0.293E+03 0.218E+03 0.164E+04   -.295E+03 -.219E+03 -.164E+04   0.127E+01 0.102E+01 0.220E+00   -.638E-02 0.938E-02 0.383E-02
   0.167E+03 0.467E+02 0.307E+03   -.170E+03 -.466E+02 -.307E+03   0.283E+01 -.282E+00 0.706E+00   -.288E-02 0.415E-02 -.763E-02
   0.132E+03 -.315E+01 -.901E+03   -.135E+03 0.338E+01 0.901E+03   0.296E+01 -.272E+00 -.953E+00   -.251E-02 0.319E-02 -.182E-01
   -.177E+03 0.123E+03 -.225E+04   0.176E+03 -.125E+03 0.226E+04   0.919E+00 0.128E+01 -.111E+01   0.398E-02 0.208E-03 0.549E-02
   -.720E+02 0.106E+03 -.433E+03   0.730E+02 -.108E+03 0.432E+03   -.122E+01 0.167E+01 -.609E-01   0.412E-02 -.189E-02 -.200E-01
   -.538E+02 0.783E+02 -.178E+04   0.541E+02 -.785E+02 0.178E+04   0.222E+00 -.610E+00 -.545E+00   0.321E-02 -.230E-02 -.779E-02
   -.274E+03 0.443E+03 0.209E+04   0.277E+03 -.447E+03 -.209E+04   -.146E+01 0.218E+01 0.141E+01   -.272E-02 0.125E-01 -.347E-03
   -.911E+02 0.122E+03 0.870E+03   0.922E+02 -.124E+03 -.871E+03   -.107E+01 0.176E+01 0.143E+01   -.282E-02 0.348E-02 -.197E-02
   -.235E+03 -.441E+02 -.230E+04   0.238E+03 0.451E+02 0.231E+04   -.114E+01 -.437E+00 -.536E+00   0.366E-02 0.483E-02 0.424E-02
   -.713E+02 -.152E+03 -.924E+03   0.724E+02 0.155E+03 0.923E+03   -.898E+00 -.243E+01 -.334E+00   -.225E-02 0.238E-02 -.177E-01
   0.739E+02 -.312E+03 0.148E+04   -.751E+02 0.314E+03 -.149E+04   0.110E+01 -.699E+00 0.107E+01   0.311E-02 0.631E-02 0.129E-01
   -.573E+02 -.197E+03 0.283E+03   0.587E+02 0.200E+03 -.283E+03   -.120E+01 -.251E+01 0.618E+00   -.330E-03 -.236E-02 -.494E-02
   0.246E+03 -.131E+03 0.151E+04   -.247E+03 0.133E+03 -.151E+04   -.248E+00 -.157E+01 0.204E+01   0.828E-02 0.273E-02 -.187E-02
   0.180E+03 0.138E+01 0.307E+03   -.183E+03 -.134E+01 -.307E+03   0.265E+01 -.277E+00 0.902E+00   0.306E-02 0.162E-02 -.805E-02
   0.216E+03 -.116E+02 -.958E+03   -.219E+03 0.119E+02 0.958E+03   0.257E+01 -.502E+00 -.446E+00   0.141E-02 0.203E-02 -.172E-01
   0.371E+03 -.157E+03 -.226E+04   -.375E+03 0.157E+03 0.226E+04   0.162E+01 0.943E+00 -.121E+01   -.371E-02 0.295E-02 0.114E-02
 -----------------------------------------------------------------------------------------------
   0.847E+00 0.132E+02 -.736E+01   0.284E-12 0.796E-12 0.100E-10   -.110E+01 -.132E+02 0.842E+01   -.974E-02 -.541E-01 -.839E+00
 
 
 POSITION                                       TOTAL-FORCE (eV/Angst)
 -----------------------------------------------------------------------------------
      5.35228      4.81788      6.64784         0.187918     -0.298173     -0.124378
      5.93595      3.87238      9.58390        -0.436811      1.039940     -1.513522
      1.54844      2.14057      2.03963         0.065670     -0.419522     -0.982700
      2.24633      0.73197      3.71178         0.446994     -0.389013      2.440891
      3.78751      3.29554      0.84703        -0.633290     -0.486013     -1.131982
      4.76861      3.35453      2.93606         0.176970     -1.039390      3.641649
      5.35228      2.40903      5.87212         0.032849      0.178786      0.034375
      5.93595      1.46353      8.80817         0.133659     -0.494172     -1.882154
      1.87746      3.73836      5.87212        -0.017334      0.027154      0.032088
      2.46113      2.79286      8.80817        -0.040162      0.333515     -2.556072
      3.34160      1.89843     10.83799        -0.233650     -0.532816      1.310615
      6.92203      4.68386      2.93606         0.585147     -0.854678      1.168263
      2.57133      0.06975      1.18320        -0.525586      0.688095     -1.803140
     10.98051      4.81788      6.64784         0.215876     -0.419912     -0.112882
     11.56418      3.87238      9.58390        -0.575833      1.116624     -1.495995
      7.87456      0.73197      3.71178        -0.210036      0.220707      1.961545
      9.88464      4.29292      0.76261        -0.399197     -0.086480     -1.446949
     10.39684      3.35453      2.93606         0.383859     -0.567232      1.868224
     10.98051      2.40903      5.87212        -0.144756      0.043031      0.147198
     11.56418      1.46353      8.80817        -0.006222     -0.394968     -1.796362
      7.50570      3.73836      5.87212        -0.109714      0.065120      0.023240
      8.08937      2.79286      8.80817         0.065340      0.269676     -3.033159
      8.86466      1.87119     10.87256         0.134759     -0.421156      1.316091
     12.55026      4.68386      2.93606         0.323783     -0.468482      1.635885
      9.48238      0.55269      0.74626         0.101139      0.707319     -1.599037
      7.87456      9.84929      6.64784         0.168840     -0.454010     -0.253500
      8.45823      8.90379      9.58390        -1.423259      1.463894     -2.202096
      4.76861      5.76338      3.71178        -0.591641      0.386339      1.586692
      3.00241      5.30161     10.87752        -0.124179      0.032472      1.320009
      7.29089      8.38594      2.93606        -0.786150     -0.608780      1.740401
      7.87456      7.44044      5.87212         0.070778      0.055599     -0.039907
      8.45823      6.49494      8.80817        -0.078514     -0.237203     -2.086571
      4.39975      8.76977      5.87212        -0.086539      0.010486      0.051161
      4.98341      7.82427      8.80817         0.015676     -0.269103     -2.351845
      5.88076      7.15986     10.94403         0.187012     -0.301773      1.345827
      9.44431      9.71527      2.93606         0.685033      0.089064      1.806367
      5.09841      5.36957      1.28757        -0.591584      1.440236     -1.612811
     13.50279      9.84929      6.64784         0.125008     -0.262580     -0.172884
     14.08646      8.90379      9.58390        -0.607964      0.702215     -0.926728
     10.39684      5.76338      3.71178        -0.177278      0.192867      1.851466
     12.45046      9.40463      0.77528        -0.650641      0.237452     -1.832461
     12.91912      8.38594      2.93606         0.214779     -0.722324      2.351318
     13.50279      7.44044      5.87212        -0.031305      0.130785      0.070100
     14.08646      6.49494      8.80817         0.118671     -0.186759     -2.563162
     10.02798      8.76977      5.87212        -0.148761     -0.036688     -0.013236
     10.61165      7.82427      8.80817         0.516745     -0.211027     -2.521427
     15.07254      9.71527      2.93606         0.802976     -0.249394      2.283565
     11.93225      5.56518      0.75670         0.162453      0.360431     -1.356418
      1.66190      1.67871      7.01153        -0.098687      0.128750     -0.780884
      2.22745      0.75644      9.56006        -0.209727     -1.428404      1.299025
      5.91959      3.53249      1.24595         2.310923     -1.674064     -2.907165
      6.70646      2.62422      4.07548        -0.125260      0.089212      0.031335
      2.04831      3.50999     10.74117         0.437302      0.718468      2.708804
      7.29013      4.74605      7.99931        -0.069807      0.241583     -0.244233
      3.60051      1.60565      2.12720         1.640805      0.577195     -0.077010
      4.18418      0.66015      5.06325         0.053652      0.182858      0.014709
      3.34641      4.80872      2.26002        -1.544665      1.347195     -0.292226
      3.96438      3.99884      5.06325        -0.086023     -0.141384      0.103852
      4.54805      3.05334      7.99931        -0.060497      0.254756     -0.570936
      5.31477      2.18887     10.62740        -0.163939     -0.584164      2.892651
      7.29013      1.67871      7.01153        -0.128892      0.086181     -0.885617
      7.84908      0.72383      9.53525        -0.174790     -1.296531      1.306842
     11.75102      3.56972      1.13942        -0.397040      0.219496     -2.717160
     12.33469      2.62422      4.07548        -0.112656      0.355700      1.065814
      7.70327      3.53528     10.66873         0.522888      1.661723      3.014693
     12.91836      4.74605      7.99931         0.270006      0.036784     -0.346232
      9.28661      1.61513      2.44287        -0.164889      1.496983     -1.140931
      9.81241      0.66015      5.06325         0.194149     -0.021119      0.485642
      8.96682      4.86700      2.45447        -1.411483      0.887221     -1.334493
      9.59261      3.99884      5.06325        -0.002272     -0.171120      0.546964
     10.17628      3.05334      7.99931         0.028309      0.044186     -0.863780
     10.82577      2.21413     10.57855        -0.046209     -0.901772      2.980567
      4.18418      6.71012      7.01153         0.184791     -0.194706     -0.118938
      4.76785      5.76462      9.94759         0.759955     -1.396184     -0.068627
      8.72072      8.47420      1.45243         1.475862     -2.149513     -3.166512
      9.22874      7.65563      4.07548         0.086545      0.000151      0.790027
      4.62238      8.71996     10.62256         0.775706      2.078168      2.567286
      9.81241      9.77746      7.99931         0.155973      0.218330     -0.458136
      6.23694      6.61549      2.46174         0.331533      1.640449     -1.251238
      6.70646      5.69156      5.06325         0.077871     -0.169043      0.732785
      5.88654     10.02753      2.32685        -1.612799     -0.292110     -1.041110
      6.48666      9.03025      5.06325        -0.014942     -0.104925      0.338240
      7.07033      8.08475      7.99931        -0.242737     -0.038425     -0.576259
      7.86828      7.22082     10.63247         0.124123     -0.911951      3.287708
      9.81241      6.71012      7.01153        -0.216946      0.207288     -1.038157
     10.38036      5.78582      9.41300         0.602428     -0.833224      1.924851
     14.25254      8.68498      1.30507         1.336450     -2.276342     -2.530850
     14.85697      7.65563      4.07548         0.054599     -0.100944     -0.036859
     10.21453      8.71505     10.55448         1.615452      0.569668      3.803276
     15.44064      9.77746      7.99931         0.245394      0.077233     -0.619845
     11.82813      6.64108      2.45128        -0.099731      1.421499     -1.270223
     12.33469      5.69156      5.06325         0.196477     -0.100793      0.448779
     11.48942      9.89977      2.46428        -1.543025      1.058684     -1.276436
     12.11489      9.03025      5.06325        -0.064907     -0.233490      0.632677
     12.69856      8.08475      7.99931        -0.075620     -0.204096     -0.647863
     13.50276      7.18965     10.63793        -2.105180      0.244383      2.709600
 -----------------------------------------------------------------------------------
    total drift:                               -0.265251      0.008179      0.218837


--------------------------------------------------------------------------------------------------------



  FREE ENERGIE OF THE ION-ELECTRON SYSTEM (eV)
  ---------------------------------------------------
  free  energy   TOTEN  =      -467.51040226 eV

  energy  without entropy=     -466.04923697  energy(sigma->0) =     -466.77981961
 


--------------------------------------------------------------------------------------------------------


    POTLOK:  cpu time    0.3875: real time    0.3877


--------------------------------------------------------------------------------------------------------


     LOOP+:  cpu time  710.3856: real time  710.5306
    4ORBIT:  cpu time    0.0000: real time    0.0000

 total amount of memory used by VASP MPI-rank0    87652. kBytes
=======================================================================

   base      :      30000. kBytes
   nonlr-proj:       3222. kBytes
   fftplans  :      11274. kBytes
   grid      :      19113. kBytes
   one-center:        124. kBytes
   wavefun   :      23919. kBytes
 
  
  
 General timing and accounting informations for this job:
 ========================================================
  
                  Total CPU time used (sec):      714.858
                            User time (sec):      714.434
                          System time (sec):        0.424
                         Elapsed time (sec):      715.244
  
                   Maximum memory used (kb):      254964.
                   Average memory used (kb):           0.
  
                          Minor page faults:       150993
                          Major page faults:            0
                 Voluntary context switches:          240
