  60  60   0   0
  0.3182702E+02  0.9578410E-09  0.1125646E-08  0.1771136E-08  0.5000000E-15
  1.000000000000000E-004
  CAR 
 "Millerite NiS"                         
      9.91448275    -67.38007710  301      0.30860404      1.00000000
    -67.380  0.0000E+00  0.0000E+00
    -67.122  0.0000E+00  0.0000E+00
    -66.865  0.0000E+00  0.0000E+00
    -66.607  0.0000E+00  0.0000E+00
    -66.349  0.0000E+00  0.0000E+00
    -66.092  0.0000E+00  0.0000E+00
    -65.834  0.0000E+00  0.0000E+00
    -65.577  0.0000E+00  0.0000E+00
    -65.319  0.0000E+00  0.0000E+00
    -65.061  0.0000E+00  0.0000E+00
    -64.804  0.2314E-09  0.5963E-10
    -64.546  0.1289E-04  0.3320E-05
    -64.288  0.3573E-01  0.9210E-02
    -64.031  0.6090E+01  0.1578E+01
    -63.773  0.8427E+02  0.2329E+02
    -63.515  0.1767E+03  0.6881E+02
    -63.258  0.1640E+03  0.1111E+03
    -63.000  0.1012E+03  0.1371E+03
    -62.742  0.7250E+02  0.1558E+03
    -62.485  0.4405E+02  0.1672E+03
    -62.227  0.2059E+02  0.1725E+03
    -61.969  0.1909E+02  0.1774E+03
    -61.712  0.9238E+01  0.1798E+03
    -61.454  0.9000E+00  0.1800E+03
    -61.197  0.7569E-02  0.1800E+03
    -60.939  0.3225E-05  0.1800E+03
    -60.681  0.5705E-10  0.1800E+03
    -60.424  0.0000E+00  0.1800E+03
    -60.166  0.0000E+00  0.1800E+03
    -59.908  0.0000E+00  0.1800E+03
    -59.651  0.0000E+00  0.1800E+03
    -59.393  0.0000E+00  0.1800E+03
    -59.135  0.0000E+00  0.1800E+03
    -58.878  0.0000E+00  0.1800E+03
    -58.620  0.0000E+00  0.1800E+03
    -58.362  0.0000E+00  0.1800E+03
    -58.105  0.0000E+00  0.1800E+03
    -57.847  0.0000E+00  0.1800E+03
    -57.589  0.0000E+00  0.1800E+03
    -57.332  0.0000E+00  0.1800E+03
    -57.074  0.0000E+00  0.1800E+03
    -56.816  0.0000E+00  0.1800E+03
    -56.559  0.0000E+00  0.1800E+03
    -56.301  0.0000E+00  0.1800E+03
    -56.044  0.0000E+00  0.1800E+03
    -55.786  0.0000E+00  0.1800E+03
    -55.528  0.0000E+00  0.1800E+03
    -55.271  0.0000E+00  0.1800E+03
    -55.013  0.0000E+00  0.1800E+03
    -54.755  0.0000E+00  0.1800E+03
    -54.498  0.0000E+00  0.1800E+03
    -54.240  0.0000E+00  0.1800E+03
    -53.982  0.0000E+00  0.1800E+03
    -53.725  0.0000E+00  0.1800E+03
    -53.467  0.0000E+00  0.1800E+03
    -53.209  0.0000E+00  0.1800E+03
    -52.952  0.0000E+00  0.1800E+03
    -52.694  0.0000E+00  0.1800E+03
    -52.436  0.0000E+00  0.1800E+03
    -52.179  0.0000E+00  0.1800E+03
    -51.921  0.0000E+00  0.1800E+03
    -51.664  0.0000E+00  0.1800E+03
    -51.406  0.0000E+00  0.1800E+03
    -51.148  0.0000E+00  0.1800E+03
    -50.891  0.0000E+00  0.1800E+03
    -50.633  0.0000E+00  0.1800E+03
    -50.375  0.0000E+00  0.1800E+03
    -50.118  0.0000E+00  0.1800E+03
    -49.860  0.0000E+00  0.1800E+03
    -49.602  0.0000E+00  0.1800E+03
    -49.345  0.0000E+00  0.1800E+03
    -49.087  0.0000E+00  0.1800E+03
    -48.829  0.0000E+00  0.1800E+03
    -48.572  0.0000E+00  0.1800E+03
    -48.314  0.0000E+00  0.1800E+03
    -48.056  0.0000E+00  0.1800E+03
    -47.799  0.0000E+00  0.1800E+03
    -47.541  0.0000E+00  0.1800E+03
    -47.283  0.0000E+00  0.1800E+03
    -47.026  0.0000E+00  0.1800E+03
    -46.768  0.0000E+00  0.1800E+03
    -46.511  0.0000E+00  0.1800E+03
    -46.253  0.0000E+00  0.1800E+03
    -45.995  0.0000E+00  0.1800E+03
    -45.738  0.0000E+00  0.1800E+03
    -45.480  0.0000E+00  0.1800E+03
    -45.222  0.0000E+00  0.1800E+03
    -44.965  0.0000E+00  0.1800E+03
    -44.707  0.0000E+00  0.1800E+03
    -44.449  0.0000E+00  0.1800E+03
    -44.192  0.0000E+00  0.1800E+03
    -43.934  0.0000E+00  0.1800E+03
    -43.676  0.0000E+00  0.1800E+03
    -43.419  0.0000E+00  0.1800E+03
    -43.161  0.0000E+00  0.1800E+03
    -42.903  0.0000E+00  0.1800E+03
    -42.646  0.0000E+00  0.1800E+03
    -42.388  0.0000E+00  0.1800E+03
    -42.131  0.0000E+00  0.1800E+03
    -41.873  0.0000E+00  0.1800E+03
    -41.615  0.0000E+00  0.1800E+03
    -41.358  0.0000E+00  0.1800E+03
    -41.100  0.0000E+00  0.1800E+03
    -40.842  0.0000E+00  0.1800E+03
    -40.585  0.0000E+00  0.1800E+03
    -40.327  0.0000E+00  0.1800E+03
    -40.069  0.0000E+00  0.1800E+03
    -39.812  0.0000E+00  0.1800E+03
    -39.554  0.0000E+00  0.1800E+03
    -39.296  0.0000E+00  0.1800E+03
    -39.039  0.0000E+00  0.1800E+03
    -38.781  0.0000E+00  0.1800E+03
    -38.523  0.0000E+00  0.1800E+03
    -38.266  0.0000E+00  0.1800E+03
    -38.008  0.0000E+00  0.1800E+03
    -37.750  0.0000E+00  0.1800E+03
    -37.493  0.0000E+00  0.1800E+03
    -37.235  0.0000E+00  0.1800E+03
    -36.978  0.0000E+00  0.1800E+03
    -36.720  0.0000E+00  0.1800E+03
    -36.462  0.0000E+00  0.1800E+03
    -36.205  0.0000E+00  0.1800E+03
    -35.947  0.0000E+00  0.1800E+03
    -35.689  0.0000E+00  0.1800E+03
    -35.432  0.0000E+00  0.1800E+03
    -35.174  0.0000E+00  0.1800E+03
    -34.916  0.0000E+00  0.1800E+03
    -34.659  0.0000E+00  0.1800E+03
    -34.401  0.0000E+00  0.1800E+03
    -34.143  0.0000E+00  0.1800E+03
    -33.886  0.0000E+00  0.1800E+03
    -33.628  0.0000E+00  0.1800E+03
    -33.370  0.0000E+00  0.1800E+03
    -33.113  0.0000E+00  0.1800E+03
    -32.855  0.0000E+00  0.1800E+03
    -32.598  0.0000E+00  0.1800E+03
    -32.340  0.0000E+00  0.1800E+03
    -32.082  0.0000E+00  0.1800E+03
    -31.825  0.0000E+00  0.1800E+03
    -31.567  0.0000E+00  0.1800E+03
    -31.309  0.0000E+00  0.1800E+03
    -31.052  0.0000E+00  0.1800E+03
    -30.794  0.0000E+00  0.1800E+03
    -30.536  0.0000E+00  0.1800E+03
    -30.279  0.0000E+00  0.1800E+03
    -30.021  0.0000E+00  0.1800E+03
    -29.763  0.0000E+00  0.1800E+03
    -29.506  0.0000E+00  0.1800E+03
    -29.248  0.0000E+00  0.1800E+03
    -28.990  0.0000E+00  0.1800E+03
    -28.733  0.0000E+00  0.1800E+03
    -28.475  0.0000E+00  0.1800E+03
    -28.218  0.0000E+00  0.1800E+03
    -27.960  0.0000E+00  0.1800E+03
    -27.702  0.0000E+00  0.1800E+03
    -27.445  0.0000E+00  0.1800E+03
    -27.187  0.0000E+00  0.1800E+03
    -26.929  0.0000E+00  0.1800E+03
    -26.672  0.0000E+00  0.1800E+03
    -26.414  0.0000E+00  0.1800E+03
    -26.156  0.0000E+00  0.1800E+03
    -25.899  0.0000E+00  0.1800E+03
    -25.641  0.0000E+00  0.1800E+03
    -25.383  0.0000E+00  0.1800E+03
    -25.126  0.0000E+00  0.1800E+03
    -24.868  0.0000E+00  0.1800E+03
    -24.610  0.0000E+00  0.1800E+03
    -24.353  0.0000E+00  0.1800E+03
    -24.095  0.0000E+00  0.1800E+03
    -23.837  0.0000E+00  0.1800E+03
    -23.580  0.0000E+00  0.1800E+03
    -23.322  0.0000E+00  0.1800E+03
    -23.065  0.0000E+00  0.1800E+03
    -22.807  0.0000E+00  0.1800E+03
    -22.549  0.0000E+00  0.1800E+03
    -22.292  0.0000E+00  0.1800E+03
    -22.034  0.0000E+00  0.1800E+03
    -21.776  0.0000E+00  0.1800E+03
    -21.519  0.0000E+00  0.1800E+03
    -21.261  0.0000E+00  0.1800E+03
    -21.003  0.0000E+00  0.1800E+03
    -20.746  0.0000E+00  0.1800E+03
    -20.488  0.0000E+00  0.1800E+03
    -20.230  0.0000E+00  0.1800E+03
    -19.973  0.0000E+00  0.1800E+03
    -19.715  0.0000E+00  0.1800E+03
    -19.457  0.0000E+00  0.1800E+03
    -19.200  0.0000E+00  0.1800E+03
    -18.942  0.0000E+00  0.1800E+03
    -18.685  0.0000E+00  0.1800E+03
    -18.427  0.0000E+00  0.1800E+03
    -18.169  0.0000E+00  0.1800E+03
    -17.912  0.0000E+00  0.1800E+03
    -17.654  0.0000E+00  0.1800E+03
    -17.396  0.0000E+00  0.1800E+03
    -17.139  0.0000E+00  0.1800E+03
    -16.881  0.0000E+00  0.1800E+03
    -16.623  0.0000E+00  0.1800E+03
    -16.366  0.0000E+00  0.1800E+03
    -16.108  0.0000E+00  0.1800E+03
    -15.850  0.1715E-12  0.1800E+03
    -15.593  0.3986E-07  0.1800E+03
    -15.335  0.3666E-03  0.1800E+03
    -15.077  0.1444E+00  0.1800E+03
    -14.820  0.2938E+01  0.1808E+03
    -14.562  0.4274E+01  0.1819E+03
    -14.304  0.3707E+01  0.1829E+03
    -14.047  0.1446E+02  0.1866E+03
    -13.789  0.1116E+02  0.1895E+03
    -13.532  0.1964E+02  0.1945E+03
    -13.274  0.2626E+02  0.2013E+03
    -13.016  0.2705E+02  0.2082E+03
    -12.759  0.2709E+02  0.2152E+03
    -12.501  0.1843E+02  0.2200E+03
    -12.243  0.1794E+02  0.2246E+03
    -11.986  0.1730E+02  0.2291E+03
    -11.728  0.1376E+02  0.2326E+03
    -11.470  0.1161E+02  0.2356E+03
    -11.213  0.8262E+01  0.2377E+03
    -10.955  0.7969E+01  0.2398E+03
    -10.697  0.8707E+00  0.2400E+03
    -10.440  0.6203E-02  0.2400E+03
    -10.182  0.2177E-05  0.2400E+03
     -9.924  0.3232E-10  0.2400E+03
     -9.667  0.0000E+00  0.2400E+03
     -9.409  0.0000E+00  0.2400E+03
     -9.152  0.0000E+00  0.2400E+03
     -8.894  0.0000E+00  0.2400E+03
     -8.636  0.0000E+00  0.2400E+03
     -8.379  0.0000E+00  0.2400E+03
     -8.121  0.0000E+00  0.2400E+03
     -7.863  0.0000E+00  0.2400E+03
     -7.606  0.6666E-12  0.2400E+03
     -7.348  0.1129E-06  0.2400E+03
     -7.090  0.7684E-03  0.2400E+03
     -6.833  0.2415E+00  0.2401E+03
     -6.575  0.5385E+01  0.2414E+03
     -6.317  0.1951E+02  0.2465E+03
     -6.060  0.2146E+02  0.2520E+03
     -5.802  0.2217E+02  0.2577E+03
     -5.544  0.3437E+02  0.2666E+03
     -5.287  0.3708E+02  0.2761E+03
     -5.029  0.3485E+02  0.2851E+03
     -4.771  0.3660E+02  0.2945E+03
     -4.514  0.3438E+02  0.3034E+03
     -4.256  0.3823E+02  0.3132E+03
     -3.999  0.4490E+02  0.3248E+03
     -3.741  0.5124E+02  0.3380E+03
     -3.483  0.5512E+02  0.3522E+03
     -3.226  0.5417E+02  0.3662E+03
     -2.968  0.4944E+02  0.3789E+03
     -2.710  0.4885E+02  0.3915E+03
     -2.453  0.4417E+02  0.4029E+03
     -2.195  0.5390E+02  0.4168E+03
     -1.937  0.6793E+02  0.4343E+03
     -1.680  0.8414E+02  0.4559E+03
     -1.422  0.9381E+02  0.4801E+03
     -1.164  0.1343E+03  0.5147E+03
     -0.907  0.1416E+03  0.5512E+03
     -0.649  0.1170E+03  0.5813E+03
     -0.391  0.1002E+03  0.6072E+03
     -0.134  0.9206E+02  0.6309E+03
      0.124  0.7313E+02  0.6497E+03
      0.381  0.5414E+02  0.6637E+03
      0.639  0.4852E+02  0.6762E+03
      0.897  0.5321E+02  0.6899E+03
      1.154  0.4393E+02  0.7012E+03
      1.412  0.4368E+02  0.7124E+03
      1.670  0.3070E+02  0.7204E+03
      1.927  0.8396E+01  0.7225E+03
      2.185  0.6802E+01  0.7243E+03
      2.443  0.5728E+01  0.7257E+03
      2.700  0.2459E+01  0.7264E+03
      2.958  0.8587E+01  0.7286E+03
      3.216  0.1241E+02  0.7318E+03
      3.473  0.8658E+01  0.7340E+03
      3.731  0.1083E+02  0.7368E+03
      3.989  0.1153E+02  0.7398E+03
      4.246  0.1425E+02  0.7435E+03
      4.504  0.1706E+02  0.7478E+03
      4.762  0.1491E+02  0.7517E+03
      5.019  0.1716E+02  0.7561E+03
      5.277  0.2201E+02  0.7618E+03
      5.534  0.3120E+02  0.7698E+03
      5.792  0.3326E+02  0.7784E+03
      6.050  0.3624E+02  0.7877E+03
      6.307  0.3252E+02  0.7961E+03
      6.565  0.1381E+02  0.7997E+03
      6.823  0.1288E+01  0.8000E+03
      7.080  0.1203E-01  0.8000E+03
      7.338  0.6173E-05  0.8000E+03
      7.596  0.1354E-09  0.8000E+03
      7.853  0.0000E+00  0.8000E+03
      8.111  0.0000E+00  0.8000E+03
      8.369  0.0000E+00  0.8000E+03
      8.626  0.0000E+00  0.8000E+03
      8.884  0.0000E+00  0.8000E+03
      9.142  0.0000E+00  0.8000E+03
      9.399  0.0000E+00  0.8000E+03
      9.657  0.0000E+00  0.8000E+03
      9.914  0.0000E+00  0.8000E+03
