LAMMPS data file via write_data, version 5 Jun 2019, timestep = 33

60 atoms
2 atom types

0.0000000000000000e+00 9.5784099999999999e+00 xlo xhi
0.0000000000000000e+00 1.1256463038200000e+01 ylo yhi
0.0000000000000000e+00 1.7711358899699999e+01 zlo zhi
0.0000000000000000e+00 0.0000000000000000e+00 0.0000000000000000e+00 xy xz yz

Masses

1 58.71
2 32.06

Atoms # atomic

1 1 9.5746243290460828e+00 5.1090767425524781e+00 1.2932298562969116e+00 -1 0 0
2 1 7.7362117420000021e-01 4.2700842881999996e+00 3.3183848654000001e+00 0 0 0
3 1 3.5061766816530365e-01 4.0668453199862160e+00 5.8091952876826785e+00 0 0 0
4 1 5.5628261741999996e+00 1.7478033079999999e+00 1.7761130829000000e+00 0 0 0
5 1 5.5628261741999996e+00 1.1641339181999999e+00 4.8606566479000000e+00 0 0 0
6 1 2.0389578704000000e+00 2.1166700262000000e+00 2.9109074064999998e+00 0 0 0
7 1 2.0389578704000000e+00 1.5330006475999998e+00 5.9954509715000031e+00 0 0 0
8 1 6.8281628704000017e+00 5.2226203962000000e+00 1.3686356240000006e+00 0 0 0
9 1 6.8341420987690649e+00 4.7627915549146076e+00 4.1782486950294837e+00 0 0 0
10 1 7.6221551649274213e+00 3.2584192006152564e+00 5.7658381624104393e+00 0 0 0
11 1 4.0895331717406309e+00 5.1044592478505484e+00 1.2990961245168280e+00 0 0 0
12 1 3.3042945666000008e+00 4.2700842881999996e+00 3.3183848654000001e+00 0 0 0
13 1 3.0558185064402936e+00 3.6157179041758636e+00 6.1920987140961552e+00 0 0 0
14 1 8.0934995666000003e+00 1.7478033079999999e+00 1.7761130829000000e+00 0 0 0
15 1 8.0934995666000003e+00 1.1641339181999999e+00 4.8606566479000000e+00 0 0 0
16 1 2.4267068643937101e-02 1.0773783072022979e+01 1.3158212139789653e+00 0 0 0
17 1 7.7362117420000021e-01 9.8983158072999995e+00 3.3183848654000001e+00 0 0 0
18 1 7.6187455736632359e-01 9.3911514578661315e+00 6.0765216692815578e+00 0 0 0
19 1 5.4009342145716852e+00 7.3262269554495356e+00 2.1021612293714806e+00 0 0 0
20 1 5.4929254217144710e+00 6.9216225650438528e+00 4.5491436762812718e+00 0 0 0
21 1 2.0389578704000000e+00 7.7449015452999994e+00 2.9109074064999998e+00 0 0 0
22 1 2.0402762062798905e+00 7.1637304999770901e+00 5.6495960579444757e+00 0 0 0
23 1 6.8273404436272243e+00 1.0910729991663898e+01 1.6365407375728620e+00 0 0 0
24 1 6.8281628704000017e+00 1.0267182525500001e+01 4.4531791890000001e+00 0 0 0
25 1 6.8556017004217145e+00 1.0912049390667761e+01 6.8277937008008172e+00 0 0 0
26 1 4.0533330988764442e+00 1.0776914248449984e+01 1.3164618889518038e+00 0 0 0
27 1 3.3042945666000008e+00 9.8983158072999995e+00 3.3183848654000001e+00 0 0 0
28 1 3.3536949768907656e+00 9.4113136475008758e+00 6.0580373486798864e+00 0 0 0
29 1 8.2551163745904255e+00 7.3371764045000916e+00 2.1306847238813993e+00 0 0 0
30 1 8.1460855135080212e+00 6.8780500437289538e+00 4.6213162769916041e+00 0 0 0
31 2 3.7112582048106657e+00 2.9757441464547565e+00 1.7705036226525905e+00 0 0 0
32 2 3.6501901085000008e+00 2.3322387788999999e+00 4.6268153475000000e+00 0 0 0
33 2 3.6046803272767201e+00 1.9300295975693647e+00 7.2188639494149891e+00 0 0 0
34 2 8.4393951084999994e+00 5.4381891489000003e+00 3.0845435650000002e+00 0 0 0
35 2 8.1008617951277788e+00 5.2299639116554344e+00 5.9046327172163391e+00 0 0 0
36 2 8.1772874283197599e+00 4.1161018414916467e-01 2.2695216619608816e-01 0 0 0
37 2 2.0389578704000000e+00 5.0743156401999991e+00 5.1456818272999998e+00 0 0 0
38 2 2.0389578704000000e+00 2.9753679700000001e-02 2.0611382800000002e+00 0 0 0
39 2 6.8276089062961356e+00 3.1686420057542071e+00 9.0237245798977617e-01 0 0 0
40 2 6.8281628704000017e+00 2.5520346598999999e+00 3.6034100625000001e+00 0 0 0
41 2 6.7288103898070046e+00 1.6351351040647948e+00 6.5337415348655279e+00 0 0 0
42 2 3.7302729768956855e-01 2.9776992412994425e+00 1.7543638134183559e+00 0 0 0
43 2 4.2772563219999998e-01 2.3322387788999999e+00 4.6268153475000000e+00 0 0 0
44 2 1.3632171066727148e+00 3.0412566184560550e+00 7.2550515657321029e+00 0 0 0
45 2 5.2169306322000004e+00 5.4381891489000003e+00 3.0845435650000002e+00 0 0 0
46 2 5.4785550493097874e+00 4.1331295805634977e-01 2.2599253104244846e-01 0 0 0
47 2 3.6917771313211740e+00 8.6272220979242622e+00 1.7520667393214873e+00 0 0 0
48 2 3.6501901085000008e+00 7.9604702979999997e+00 4.6268153475000000e+00 0 0 0
49 2 2.0742483795827029e+00 8.3957209000168795e+00 7.2820517826310445e+00 0 0 0
50 2 8.4393951084999994e+00 1.1066420667999999e+01 3.0845435650000002e+00 0 0 0
51 2 8.5418303545778631e+00 1.0500261326616084e+01 5.7812447375099998e+00 0 0 0
52 2 8.2628317648723062e+00 6.3149083926880687e+00 3.4474791730404991e-01 0 0 0
53 2 2.0389578704000000e+00 1.0702547159300000e+01 5.1456818272999998e+00 0 0 0
54 2 2.0389578704000000e+00 5.6579851987999987e+00 2.0611382800000002e+00 0 0 0
55 2 6.8281628704000017e+00 8.1802661790000002e+00 3.6034100625000001e+00 0 0 0
56 2 3.8780100990550009e-01 8.6276789411086838e+00 1.7529018576017383e+00 0 0 0
57 2 4.2772563219999998e-01 7.9604702979999997e+00 4.6268153475000000e+00 0 0 0
58 2 5.2169306322000004e+00 1.1066420667999999e+01 3.0845435650000002e+00 0 0 0
59 2 5.1553177170253015e+00 1.0505953022316406e+01 5.7869596205483020e+00 0 0 0
60 2 5.3940936562228581e+00 6.2952082386189048e+00 3.2371749110249043e-01 0 0 0

Velocities

1 0.0000000000000000e+00 0.0000000000000000e+00 0.0000000000000000e+00
2 0.0000000000000000e+00 0.0000000000000000e+00 0.0000000000000000e+00
3 0.0000000000000000e+00 0.0000000000000000e+00 0.0000000000000000e+00
4 0.0000000000000000e+00 0.0000000000000000e+00 0.0000000000000000e+00
5 0.0000000000000000e+00 0.0000000000000000e+00 0.0000000000000000e+00
6 0.0000000000000000e+00 0.0000000000000000e+00 0.0000000000000000e+00
7 0.0000000000000000e+00 0.0000000000000000e+00 0.0000000000000000e+00
8 0.0000000000000000e+00 0.0000000000000000e+00 0.0000000000000000e+00
9 0.0000000000000000e+00 0.0000000000000000e+00 0.0000000000000000e+00
10 0.0000000000000000e+00 0.0000000000000000e+00 0.0000000000000000e+00
11 0.0000000000000000e+00 0.0000000000000000e+00 0.0000000000000000e+00
12 0.0000000000000000e+00 0.0000000000000000e+00 0.0000000000000000e+00
13 0.0000000000000000e+00 0.0000000000000000e+00 0.0000000000000000e+00
14 0.0000000000000000e+00 0.0000000000000000e+00 0.0000000000000000e+00
15 0.0000000000000000e+00 0.0000000000000000e+00 0.0000000000000000e+00
16 0.0000000000000000e+00 0.0000000000000000e+00 0.0000000000000000e+00
17 0.0000000000000000e+00 0.0000000000000000e+00 0.0000000000000000e+00
18 0.0000000000000000e+00 0.0000000000000000e+00 0.0000000000000000e+00
19 0.0000000000000000e+00 0.0000000000000000e+00 0.0000000000000000e+00
20 0.0000000000000000e+00 0.0000000000000000e+00 0.0000000000000000e+00
21 0.0000000000000000e+00 0.0000000000000000e+00 0.0000000000000000e+00
22 0.0000000000000000e+00 0.0000000000000000e+00 0.0000000000000000e+00
23 0.0000000000000000e+00 0.0000000000000000e+00 0.0000000000000000e+00
24 0.0000000000000000e+00 0.0000000000000000e+00 0.0000000000000000e+00
25 0.0000000000000000e+00 0.0000000000000000e+00 0.0000000000000000e+00
26 0.0000000000000000e+00 0.0000000000000000e+00 0.0000000000000000e+00
27 0.0000000000000000e+00 0.0000000000000000e+00 0.0000000000000000e+00
28 0.0000000000000000e+00 0.0000000000000000e+00 0.0000000000000000e+00
29 0.0000000000000000e+00 0.0000000000000000e+00 0.0000000000000000e+00
30 0.0000000000000000e+00 0.0000000000000000e+00 0.0000000000000000e+00
31 0.0000000000000000e+00 0.0000000000000000e+00 0.0000000000000000e+00
32 0.0000000000000000e+00 0.0000000000000000e+00 0.0000000000000000e+00
33 0.0000000000000000e+00 0.0000000000000000e+00 0.0000000000000000e+00
34 0.0000000000000000e+00 0.0000000000000000e+00 0.0000000000000000e+00
35 0.0000000000000000e+00 0.0000000000000000e+00 0.0000000000000000e+00
36 0.0000000000000000e+00 0.0000000000000000e+00 0.0000000000000000e+00
37 0.0000000000000000e+00 0.0000000000000000e+00 0.0000000000000000e+00
38 0.0000000000000000e+00 0.0000000000000000e+00 0.0000000000000000e+00
39 0.0000000000000000e+00 0.0000000000000000e+00 0.0000000000000000e+00
40 0.0000000000000000e+00 0.0000000000000000e+00 0.0000000000000000e+00
41 0.0000000000000000e+00 0.0000000000000000e+00 0.0000000000000000e+00
42 0.0000000000000000e+00 0.0000000000000000e+00 0.0000000000000000e+00
43 0.0000000000000000e+00 0.0000000000000000e+00 0.0000000000000000e+00
44 0.0000000000000000e+00 0.0000000000000000e+00 0.0000000000000000e+00
45 0.0000000000000000e+00 0.0000000000000000e+00 0.0000000000000000e+00
46 0.0000000000000000e+00 0.0000000000000000e+00 0.0000000000000000e+00
47 0.0000000000000000e+00 0.0000000000000000e+00 0.0000000000000000e+00
48 0.0000000000000000e+00 0.0000000000000000e+00 0.0000000000000000e+00
49 0.0000000000000000e+00 0.0000000000000000e+00 0.0000000000000000e+00
50 0.0000000000000000e+00 0.0000000000000000e+00 0.0000000000000000e+00
51 0.0000000000000000e+00 0.0000000000000000e+00 0.0000000000000000e+00
52 0.0000000000000000e+00 0.0000000000000000e+00 0.0000000000000000e+00
53 0.0000000000000000e+00 0.0000000000000000e+00 0.0000000000000000e+00
54 0.0000000000000000e+00 0.0000000000000000e+00 0.0000000000000000e+00
55 0.0000000000000000e+00 0.0000000000000000e+00 0.0000000000000000e+00
56 0.0000000000000000e+00 0.0000000000000000e+00 0.0000000000000000e+00
57 0.0000000000000000e+00 0.0000000000000000e+00 0.0000000000000000e+00
58 0.0000000000000000e+00 0.0000000000000000e+00 0.0000000000000000e+00
59 0.0000000000000000e+00 0.0000000000000000e+00 0.0000000000000000e+00
60 0.0000000000000000e+00 0.0000000000000000e+00 0.0000000000000000e+00
