<?xml version="1.0" encoding="ISO-8859-1"?>
<modeling>
 <generator>
  <i name="program" type="string">vasp </i>
  <i name="version" type="string">6.1.0  </i>
  <i name="subversion" type="string">28Jan20 (build Mar 31 2020 17:42:31) gamma-only                       parallel </i>
  <i name="platform" type="string">LinuxIFC </i>
  <i name="date" type="string">2020 04 12 </i>
  <i name="time" type="string">00:34:08 </i>
 </generator>
 <incar>
  <i type="string" name="SYSTEM">"Millerite NiS"</i>
  <i type="int" name="NSIM">     4</i>
  <i type="int" name="NELM">   100</i>
  <i name="ENCUT">    450.00000000</i>
  <i type="string" name="LREAL">A</i>
  <i type="int" name="ISMEAR">     0</i>
  <i type="int" name="NWRITE">     2</i>
  <i type="logical" name="LWAVE"> F  </i>
  <i type="logical" name="LCHARG"> F  </i>
  <i type="int" name="NCORE">     6</i>
  <i type="int" name="NELM">   100</i>
 </incar>
 <structure name="primitive_cell" >
  <crystal>
   <varray name="basis" >
    <v>     -10.06282034      -5.04456212       0.00000000 </v>
    <v>       0.00000000       0.00000000     -21.74423184 </v>
    <v>      20.12564067       4.46089272       0.00000000 </v>
   </varray>
   <i name="volume">   1231.50376175 </i>
   <varray name="rec_basis" >
    <v>       0.07876442      -0.35535141       0.00000000 </v>
    <v>       0.00000000       0.00000000      -0.04598921 </v>
    <v>       0.08907007      -0.17767570       0.00000000 </v>
   </varray>
  </crystal>
  <varray name="positions" >
   <v>       0.82395786       0.74667201       0.04243928 </v>
   <v>       0.10583747       0.61164503       0.23035901 </v>
   <v>       0.38771706       0.47661805       0.41827875 </v>
   <v>       0.39232496       0.91737393       0.33328201 </v>
   <v>       0.67420456       0.78234695       0.52120174 </v>
   <v>       0.95608415       0.64731997       0.70912148 </v>
   <v>       0.51368956       0.78234695       0.25699575 </v>
   <v>       0.73180998       0.91737393       0.06907602 </v>
   <v>       0.32395786       0.74667201       0.04243928 </v>
   <v>       0.04207821       0.88169899       0.85451952 </v>
   <v>       0.01368956       0.78234695       0.25699575 </v>
   <v>       0.29556916       0.64731997       0.44491548 </v>
   <v>       0.57744876       0.51229299       0.63283522 </v>
   <v>       0.23180998       0.91737393       0.06907602 </v>
   <v>       0.54207821       0.88169899       0.85451952 </v>
   <v>       0.73796374       0.51229299       0.89704121 </v>
   <v>       0.79556916       0.64731997       0.44491548 </v>
   <v>       0.07744876       0.51229299       0.63283522 </v>
   <v>       0.60583747       0.61164503       0.23035901 </v>
   <v>       0.88771706       0.47661805       0.41827875 </v>
   <v>       0.23796374       0.51229299       0.89704121 </v>
   <v>       0.89232496       0.91737393       0.33328201 </v>
   <v>       0.17420456       0.78234695       0.52120174 </v>
   <v>       0.45608415       0.64731997       0.70912148 </v>
   <v>       0.47794904       0.86497302       0.47843340 </v>
   <v>       0.82358788       0.45989208       0.04219263 </v>
   <v>       0.45903601       0.54949193       0.24463472 </v>
   <v>       0.67715643       0.68451891       0.05671499 </v>
   <v>       0.95447220       0.95457287       0.01730551 </v>
   <v>       0.23635181       0.81954589       0.20522524 </v>
   <v>       0.51823140       0.68451891       0.39314498 </v>
   <v>       0.80011101       0.54949193       0.58106471 </v>
   <v>       0.75982863       0.72994604       0.66635313 </v>
   <v>       0.04170823       0.59491906       0.85427286 </v>
   <v>       0.32358788       0.45989208       0.04219263 </v>
   <v>       0.95903601       0.54949193       0.24463472 </v>
   <v>       0.17715643       0.68451891       0.05671499 </v>
   <v>       0.45447220       0.95457287       0.01730551 </v>
   <v>       0.73635181       0.81954589       0.20522524 </v>
   <v>       0.25982863       0.72994604       0.66635313 </v>
   <v>       0.54170823       0.59491906       0.85427286 </v>
   <v>       0.11339717       0.95457287       0.68087549 </v>
   <v>       0.39527677       0.81954589       0.86879522 </v>
   <v>       0.69606944       0.00000000       0.29051366 </v>
   <v>       0.97794904       0.86497302       0.47843340 </v>
   <v>       0.89527677       0.81954589       0.86879522 </v>
   <v>       0.01823140       0.68451891       0.39314498 </v>
   <v>       0.30011101       0.54949193       0.58106471 </v>
  </varray>
 </structure>
 <varray name="primitive_index" >
  <v type="int" >        1 </v>
  <v type="int" >        2 </v>
  <v type="int" >        3 </v>
  <v type="int" >        6 </v>
  <v type="int" >        7 </v>
  <v type="int" >        8 </v>
  <v type="int" >        9 </v>
  <v type="int" >       12 </v>
  <v type="int" >       13 </v>
  <v type="int" >       16 </v>
  <v type="int" >       21 </v>
  <v type="int" >       22 </v>
  <v type="int" >       23 </v>
  <v type="int" >       24 </v>
  <v type="int" >       28 </v>
  <v type="int" >       29 </v>
  <v type="int" >       34 </v>
  <v type="int" >       35 </v>
  <v type="int" >       38 </v>
  <v type="int" >       39 </v>
  <v type="int" >       41 </v>
  <v type="int" >       42 </v>
  <v type="int" >       43 </v>
  <v type="int" >       44 </v>
  <v type="int" >       51 </v>
  <v type="int" >       52 </v>
  <v type="int" >       53 </v>
  <v type="int" >       54 </v>
  <v type="int" >       57 </v>
  <v type="int" >       58 </v>
  <v type="int" >       59 </v>
  <v type="int" >       60 </v>
  <v type="int" >       61 </v>
  <v type="int" >       62 </v>
  <v type="int" >       65 </v>
  <v type="int" >       66 </v>
  <v type="int" >       67 </v>
  <v type="int" >       69 </v>
  <v type="int" >       70 </v>
  <v type="int" >       73 </v>
  <v type="int" >       74 </v>
  <v type="int" >       79 </v>
  <v type="int" >       80 </v>
  <v type="int" >       87 </v>
  <v type="int" >       88 </v>
  <v type="int" >       92 </v>
  <v type="int" >       95 </v>
  <v type="int" >       96 </v>
 </varray>
 <kpoints>
  <generation param="Gamma">
   <v type="int" name="divisions">       1        1        1 </v>
   <v name="usershift">      0.00000000       0.00000000       0.00000000 </v>
   <v name="genvec1">      1.00000000       0.00000000       0.00000000 </v>
   <v name="genvec2">     -0.00000000       1.00000000       0.00000000 </v>
   <v name="genvec3">      0.00000000       0.00000000       1.00000000 </v>
   <v name="shift">      0.00000000       0.00000000       0.00000000 </v>
  </generation>
  <varray name="kpointlist" >
   <v>       0.00000000       0.00000000       0.00000000 </v>
  </varray>
  <varray name="weights" >
   <v>       1.00000000 </v>
  </varray>
 </kpoints>
 <parameters>
  <separator name="general" >
   <i type="string" name="SYSTEM">"Millerite NiS"</i>
   <i type="logical" name="LCOMPAT"> F  </i>
  </separator>
  <separator name="electronic" >
   <i type="string" name="PREC">normal</i>
   <i name="ENMAX">    450.00000000</i>
   <i name="ENAUG">    703.44300000</i>
   <i name="EDIFF">      0.00010000</i>
   <i type="int" name="IALGO">    38</i>
   <i type="int" name="IWAVPR">    10</i>
   <i type="int" name="NBANDS">   640</i>
   <i type="int" name="NBANDSLOW">    -1</i>
   <i type="int" name="NBANDSHIGH">    -1</i>
   <i name="NELECT">   1056.00000000</i>
   <i type="int" name="TURBO">     0</i>
   <i type="int" name="IRESTART">     0</i>
   <i type="int" name="NREBOOT">     0</i>
   <i type="int" name="NMIN">     0</i>
   <i name="EREF">      0.00000000</i>
   <separator name="electronic smearing" >
    <i type="int" name="ISMEAR">     0</i>
    <i name="SIGMA">      0.20000000</i>
    <i name="KSPACING">      0.50000000</i>
    <i type="logical" name="KGAMMA"> T  </i>
    <i type="logical" name="KBLOWUP"> T  </i>
   </separator>
   <separator name="electronic projectors" >
    <i type="logical" name="LREAL"> T  </i>
    <v name="ROPT">     -0.00050000     -0.00050000</v>
    <i type="int" name="LMAXPAW">  -100</i>
    <i type="int" name="LMAXMIX">     2</i>
    <i type="logical" name="NLSPLINE"> F  </i>
   </separator>
   <separator name="electronic startup" >
    <i type="int" name="ISTART">     0</i>
    <i type="int" name="ICHARG">     2</i>
    <i type="int" name="INIWAV">     1</i>
   </separator>
   <separator name="electronic spin" >
    <i type="int" name="ISPIN">     1</i>
    <i type="logical" name="LNONCOLLINEAR"> F  </i>
    <v name="MAGMOM">      1.00000000      1.00000000      1.00000000      1.00000000      1.00000000      1.00000000      1.00000000      1.00000000      1.00000000      1.00000000      1.00000000      1.00000000      1.00000000      1.00000000      1.00000000      1.00000000      1.00000000      1.00000000      1.00000000      1.00000000
      1.00000000      1.00000000      1.00000000      1.00000000      1.00000000      1.00000000      1.00000000      1.00000000      1.00000000      1.00000000      1.00000000      1.00000000      1.00000000      1.00000000      1.00000000      1.00000000      1.00000000      1.00000000      1.00000000      1.00000000
      1.00000000      1.00000000      1.00000000      1.00000000      1.00000000      1.00000000      1.00000000      1.00000000      1.00000000      1.00000000      1.00000000      1.00000000      1.00000000      1.00000000      1.00000000      1.00000000      1.00000000      1.00000000      1.00000000      1.00000000
      1.00000000      1.00000000      1.00000000      1.00000000      1.00000000      1.00000000      1.00000000      1.00000000      1.00000000      1.00000000      1.00000000      1.00000000      1.00000000      1.00000000      1.00000000      1.00000000      1.00000000      1.00000000      1.00000000      1.00000000
      1.00000000      1.00000000      1.00000000      1.00000000      1.00000000      1.00000000      1.00000000      1.00000000      1.00000000      1.00000000      1.00000000      1.00000000      1.00000000      1.00000000      1.00000000      1.00000000</v>
    <i name="NUPDOWN">     -1.00000000</i>
    <i type="logical" name="LSORBIT"> F  </i>
    <v name="SAXIS">      0.00000000      0.00000000      1.00000000</v>
    <i type="logical" name="LSPIRAL"> F  </i>
    <v name="QSPIRAL">      0.00000000      0.00000000      0.00000000</v>
    <i type="logical" name="LZEROZ"> F  </i>
   </separator>
   <separator name="electronic exchange-correlation" >
    <i type="logical" name="LASPH"> F  </i>
    <i type="logical" name="LMETAGGA"> F  </i>
   </separator>
   <separator name="electronic convergence" >
    <i type="int" name="NELM">   100</i>
    <i type="int" name="NELMDL">    -5</i>
    <i type="int" name="NELMIN">     2</i>
    <i name="ENINI">    450.00000000</i>
    <separator name="electronic convergence detail" >
     <i type="logical" name="LDIAG"> T  </i>
     <i type="logical" name="LSUBROT"> F  </i>
     <i name="WEIMIN">      0.00000000</i>
     <i name="EBREAK">      0.00000004</i>
     <i name="DEPER">      0.30000000</i>
     <i type="int" name="NRMM">     4</i>
     <i name="TIME">      0.40000000</i>
    </separator>
   </separator>
   <separator name="electronic mixer" >
    <i name="AMIX">      0.40000000</i>
    <i name="BMIX">      1.00000000</i>
    <i name="AMIN">      0.10000000</i>
    <i name="AMIX_MAG">      1.60000000</i>
    <i name="BMIX_MAG">      1.00000000</i>
    <separator name="electronic mixer details" >
     <i type="int" name="IMIX">     4</i>
     <i type="logical" name="MIXFIRST"> F  </i>
     <i type="int" name="MAXMIX">   -45</i>
     <i name="WC">    100.00000000</i>
     <i type="int" name="INIMIX">     1</i>
     <i type="int" name="MIXPRE">     1</i>
     <i type="int" name="MREMOVE">     5</i>
    </separator>
   </separator>
   <separator name="electronic dipolcorrection" >
    <i type="logical" name="LDIPOL"> F  </i>
    <i type="logical" name="LMONO"> F  </i>
    <i type="int" name="IDIPOL">     0</i>
    <i name="EPSILON">      1.00000000</i>
    <v name="DIPOL">   -100.00000000   -100.00000000   -100.00000000</v>
    <i name="EFIELD">      0.00000000</i>
   </separator>
  </separator>
  <separator name="grids" >
   <i type="int" name="NGX">    60</i>
   <i type="int" name="NGY">    60</i>
   <i type="int" name="NGZ">   120</i>
   <i type="int" name="NGXF">   120</i>
   <i type="int" name="NGYF">   120</i>
   <i type="int" name="NGZF">   240</i>
   <i type="logical" name="ADDGRID"> F  </i>
  </separator>
  <separator name="ionic" >
   <i type="int" name="NSW">     0</i>
   <i type="int" name="IBRION">    -1</i>
   <i type="int" name="MDALGO">     0</i>
   <i type="int" name="ISIF">     2</i>
   <i name="PSTRESS">      0.00000000</i>
   <i name="EDIFFG">      0.00100000</i>
   <i type="int" name="NFREE">     0</i>
   <i name="POTIM">      0.50000000</i>
   <i name="SMASS">     -3.00000000</i>
   <i name="SCALEE">      1.00000000</i>
  </separator>
  <separator name="ionic md" >
   <i name="TEBEG">      0.00010000</i>
   <i name="TEEND">      0.00010000</i>
   <i type="int" name="NBLOCK">     1</i>
   <i type="int" name="KBLOCK">     1</i>
   <i type="int" name="NPACO">   256</i>
   <i name="APACO">     16.00000000</i>
  </separator>
  <separator name="symmetry" >
   <i type="int" name="ISYM">     2</i>
   <i name="SYMPREC">      0.00001000</i>
  </separator>
  <separator name="dos" >
   <i type="int" name="LORBIT">     0</i>
   <v name="RWIGS">     -1.00000000     -1.00000000</v>
   <i type="int" name="NEDOS">   301</i>
   <i name="EMIN">     10.00000000</i>
   <i name="EMAX">    -10.00000000</i>
   <i name="EFERMI">      0.00000000</i>
  </separator>
  <separator name="writing" >
   <i type="int" name="NWRITE">     2</i>
   <i type="logical" name="LWAVE"> F  </i>
   <i type="logical" name="LDOWNSAMPLE"> F  </i>
   <i type="logical" name="LCHARG"> F  </i>
   <i type="logical" name="LPARD"> F  </i>
   <i type="logical" name="LVTOT"> F  </i>
   <i type="logical" name="LVHAR"> F  </i>
   <i type="logical" name="LELF"> F  </i>
   <i type="logical" name="LOPTICS"> F  </i>
   <v name="STM">      0.00000000      0.00000000      0.00000000      0.00000000      0.00000000      0.00000000      0.00000000</v>
  </separator>
  <separator name="performance" >
   <i type="int" name="NPAR">     8</i>
   <i type="int" name="NSIM">     4</i>
   <i type="int" name="NBLK">    -1</i>
   <i type="logical" name="LPLANE"> T  </i>
   <i type="logical" name="LSCALAPACK"> T  </i>
   <i type="logical" name="LSCAAWARE"> F  </i>
   <i type="logical" name="LSCALU"> F  </i>
   <i type="logical" name="LASYNC"> F  </i>
   <i type="logical" name="LORBITALREAL"> F  </i>
  </separator>
  <separator name="miscellaneous" >
   <i type="int" name="IDIOT">     3</i>
   <i type="int" name="PHON_NSTRUCT">    -1</i>
   <i type="logical" name="LMUSIC"> F  </i>
   <v name="POMASS">     58.69000000     32.06600000</v>
   <v name="DARWINR">      0.00000000      0.00000000</v>
   <v name="DARWINV">      1.00000000      1.00000000</v>
   <i type="logical" name="LCORR"> T  </i>
  </separator>
  <i type="logical" name="GGA_COMPAT"> T  </i>
  <i type="logical" name="LBERRY"> F  </i>
  <i type="int" name="ICORELEVEL">     0</i>
  <i type="logical" name="LDAU"> F  </i>
  <i type="int" name="I_CONSTRAINED_M">     0</i>
  <separator name="electronic exchange-correlation" >
   <i type="string" name="GGA">--</i>
   <i type="int" name="VOSKOWN">     0</i>
   <i type="logical" name="LHFCALC"> F  </i>
   <i type="string" name="PRECFOCK"></i>
   <i type="logical" name="LSYMGRAD"> F  </i>
   <i type="logical" name="LHFONE"> F  </i>
   <i type="logical" name="LRHFCALC"> F  </i>
   <i type="logical" name="LTHOMAS"> F  </i>
   <i type="logical" name="LMODELHF"> F  </i>
   <i type="logical" name="LFOCKACE"> F  </i>
   <i name="ENCUT4O">     -1.00000000</i>
   <i type="int" name="EXXOEP">     0</i>
   <i type="int" name="FOURORBIT">     0</i>
   <i name="AEXX">      0.00000000</i>
   <i name="HFALPHA">      0.00000000</i>
   <i name="MCALPHA">      0.00000000</i>
   <i name="ALDAX">      1.00000000</i>
   <i name="AGGAX">      1.00000000</i>
   <i name="ALDAC">      1.00000000</i>
   <i name="AGGAC">      1.00000000</i>
   <i type="int" name="NKREDX">     1</i>
   <i type="int" name="NKREDY">     1</i>
   <i type="int" name="NKREDZ">     1</i>
   <i type="logical" name="SHIFTRED"> F  </i>
   <i type="logical" name="ODDONLY"> F  </i>
   <i type="logical" name="EVENONLY"> F  </i>
   <i type="int" name="LMAXFOCK">     0</i>
   <i type="int" name="NMAXFOCKAE">     0</i>
   <i type="logical" name="LFOCKAEDFT"> F  </i>
   <i name="HFSCREEN">      0.00000000</i>
   <i name="HFSCREENC">      0.00000000</i>
   <i type="int" name="NBANDSGWLOW">     0</i>
  </separator>
  <separator name="vdW DFT" >
   <i type="logical" name="LUSE_VDW"> F  </i>
   <i name="Zab_VDW">     -0.84910000</i>
   <i name="PARAM1">      0.12340000</i>
   <i name="PARAM2">      1.00000000</i>
   <i name="PARAM3">      0.00000000</i>
  </separator>
  <separator name="model GW" >
   <i type="int" name="MODEL_GW">     0</i>
   <i name="MODEL_EPS0">     15.39379702</i>
   <i name="MODEL_ALPHA">      1.00000000</i>
  </separator>
  <separator name="linear response parameters" >
   <i type="logical" name="LEPSILON"> F  </i>
   <i type="logical" name="LRPA"> F  </i>
   <i type="logical" name="LNABLA"> F  </i>
   <i type="logical" name="LVEL"> F  </i>
   <i type="int" name="KINTER">     0</i>
   <i name="CSHIFT">      0.10000000</i>
   <i name="OMEGAMAX">     -1.00000000</i>
   <i name="DEG_THRESHOLD">      0.00200000</i>
   <i name="RTIME">     -0.10000000</i>
   <i name="WPLASMAI">      0.00000000</i>
   <v name="DFIELD">      0.00000000      0.00000000      0.00000000</v>
   <v name="WPLASMA">      0.00000000      0.00000000      0.00000000      0.00000000      0.00000000      0.00000000      0.00000000      0.00000000      0.00000000</v>
  </separator>
  <separator name="orbital magnetization" >
   <i type="logical" name="NUCIND"> F  </i>
   <v name="MAGPOS">      0.00000000      0.00000000      0.00000000</v>
   <i type="logical" name="LNICSALL"> T  </i>
   <i type="logical" name="ORBITALMAG"> F  </i>
   <i type="logical" name="LMAGBLOCH"> F  </i>
   <i type="logical" name="LCHIMAG"> F  </i>
   <i type="logical" name="LGAUGE"> T  </i>
   <i type="int" name="MAGATOM">     0</i>
   <v name="MAGDIPOL">      0.00000000      0.00000000      0.00000000</v>
   <v name="AVECCONST">      0.00000000      0.00000000      0.00000000</v>
  </separator>
  <separator name="response functions" >
   <i type="logical" name="LFINITE_TEMPERATURE"> F  </i>
   <i type="logical" name="LADDER"> F  </i>
   <i type="logical" name="LRPAFORCE"> F  </i>
   <i type="logical" name="LFXC"> F  </i>
   <i type="logical" name="LHARTREE"> T  </i>
   <i type="int" name="IBSE">     0</i>
   <v type="int" name="KPOINT">    -1     0     0     0</v>
   <i type="logical" name="LTCTC"> F  </i>
   <i type="logical" name="LTCTE"> F  </i>
   <i type="logical" name="LTETE"> F  </i>
   <i type="logical" name="LTRIPLET"> F  </i>
   <i type="logical" name="LFXCEPS"> F  </i>
   <i type="logical" name="LFXHEG"> F  </i>
   <i type="int" name="NATURALO">     2</i>
   <i type="logical" name="LHOLEGF"> F  </i>
   <i type="logical" name="L2ORDER"> F  </i>
   <i type="logical" name="LDMP1"> F  </i>
   <i type="logical" name="LMP2LT"> F  </i>
   <i type="logical" name="LSMP2LT"> F  </i>
   <i type="logical" name="LGWLF"> F  </i>
   <i name="ENCUTGW">     -2.00000000</i>
   <i name="ENCUTGWSOFT">     -2.00000000</i>
   <i name="ENCUTLF">     -1.00000000</i>
   <i type="logical" name="LESF_SPLINES"> F  </i>
   <i type="int" name="LMAXMP2">    -1</i>
   <i name="SCISSOR">      0.00000000</i>
   <i type="int" name="NOMEGA">     0</i>
   <i type="int" name="NOMEGAR">     0</i>
   <i type="int" name="NBANDSGW">    -1</i>
   <i type="int" name="NBANDSO">    -1</i>
   <i type="int" name="NBANDSV">    -1</i>
   <i type="int" name="NELM">   100</i>
   <i type="int" name="NELMHF">     1</i>
   <i type="int" name="DIM">     3</i>
   <i type="int" name="IESPILON">     4</i>
   <i type="int" name="ANTIRES">     0</i>
   <i name="OMEGAMAX">    -30.00000000</i>
   <i name="OMEGAMIN">    -30.00000000</i>
   <i name="OMEGATL">   -200.00000000</i>
   <i type="int" name="OMEGAGRID">     0</i>
   <i name="CSHIFT">     -0.10000000</i>
   <i type="logical" name="LSELFENERGY"> F  </i>
   <i type="logical" name="LSPECTRAL"> F  </i>
   <i type="logical" name="LSPECTRALGW"> F  </i>
   <i type="logical" name="LSINGLES"> F  </i>
   <i type="logical" name="LFERMIGW"> F  </i>
   <i type="logical" name="ODDONLYGW"> F  </i>
   <i type="logical" name="EVENONLYGW"> F  </i>
   <i type="int" name="NKREDLFX">     1</i>
   <i type="int" name="NKREDLFY">     1</i>
   <i type="int" name="NKREDLFZ">     1</i>
   <i type="int" name="MAXMEM">  2800</i>
   <i type="int" name="TELESCOPE">     0</i>
   <i type="int" name="NTAUPAR">    -1</i>
   <i type="int" name="NOMEGAPAR">    -1</i>
   <i name="LAMBDA">      1.00000000</i>
  </separator>
  <separator name="External order field" >
   <i name="OFIELD_KAPPA">      0.00000000</i>
   <v name="OFIELD_K">      0.00000000      0.00000000      0.00000000</v>
   <i name="OFIELD_Q6_NEAR">      0.00000000</i>
   <i name="OFIELD_Q6_FAR">      0.00000000</i>
   <i name="OFIELD_A">      0.00000000</i>
  </separator>
 </parameters>
 <atominfo>
  <atoms>      96 </atoms>
  <types>       2 </types>
  <array name="atoms" >
   <dimension dim="1">ion</dimension>
   <field type="string">element</field>
   <field type="int">atomtype</field>
   <set>
    <rc><c>Ni</c><c>   1</c></rc>
    <rc><c>Ni</c><c>   1</c></rc>
    <rc><c>Ni</c><c>   1</c></rc>
    <rc><c>Ni</c><c>   1</c></rc>
    <rc><c>Ni</c><c>   1</c></rc>
    <rc><c>Ni</c><c>   1</c></rc>
    <rc><c>Ni</c><c>   1</c></rc>
    <rc><c>Ni</c><c>   1</c></rc>
    <rc><c>Ni</c><c>   1</c></rc>
    <rc><c>Ni</c><c>   1</c></rc>
    <rc><c>Ni</c><c>   1</c></rc>
    <rc><c>Ni</c><c>   1</c></rc>
    <rc><c>Ni</c><c>   1</c></rc>
    <rc><c>Ni</c><c>   1</c></rc>
    <rc><c>Ni</c><c>   1</c></rc>
    <rc><c>Ni</c><c>   1</c></rc>
    <rc><c>Ni</c><c>   1</c></rc>
    <rc><c>Ni</c><c>   1</c></rc>
    <rc><c>Ni</c><c>   1</c></rc>
    <rc><c>Ni</c><c>   1</c></rc>
    <rc><c>Ni</c><c>   1</c></rc>
    <rc><c>Ni</c><c>   1</c></rc>
    <rc><c>Ni</c><c>   1</c></rc>
    <rc><c>Ni</c><c>   1</c></rc>
    <rc><c>Ni</c><c>   1</c></rc>
    <rc><c>Ni</c><c>   1</c></rc>
    <rc><c>Ni</c><c>   1</c></rc>
    <rc><c>Ni</c><c>   1</c></rc>
    <rc><c>Ni</c><c>   1</c></rc>
    <rc><c>Ni</c><c>   1</c></rc>
    <rc><c>Ni</c><c>   1</c></rc>
    <rc><c>Ni</c><c>   1</c></rc>
    <rc><c>Ni</c><c>   1</c></rc>
    <rc><c>Ni</c><c>   1</c></rc>
    <rc><c>Ni</c><c>   1</c></rc>
    <rc><c>Ni</c><c>   1</c></rc>
    <rc><c>Ni</c><c>   1</c></rc>
    <rc><c>Ni</c><c>   1</c></rc>
    <rc><c>Ni</c><c>   1</c></rc>
    <rc><c>Ni</c><c>   1</c></rc>
    <rc><c>Ni</c><c>   1</c></rc>
    <rc><c>Ni</c><c>   1</c></rc>
    <rc><c>Ni</c><c>   1</c></rc>
    <rc><c>Ni</c><c>   1</c></rc>
    <rc><c>Ni</c><c>   1</c></rc>
    <rc><c>Ni</c><c>   1</c></rc>
    <rc><c>Ni</c><c>   1</c></rc>
    <rc><c>Ni</c><c>   1</c></rc>
    <rc><c>S </c><c>   2</c></rc>
    <rc><c>S </c><c>   2</c></rc>
    <rc><c>S </c><c>   2</c></rc>
    <rc><c>S </c><c>   2</c></rc>
    <rc><c>S </c><c>   2</c></rc>
    <rc><c>S </c><c>   2</c></rc>
    <rc><c>S </c><c>   2</c></rc>
    <rc><c>S </c><c>   2</c></rc>
    <rc><c>S </c><c>   2</c></rc>
    <rc><c>S </c><c>   2</c></rc>
    <rc><c>S </c><c>   2</c></rc>
    <rc><c>S </c><c>   2</c></rc>
    <rc><c>S </c><c>   2</c></rc>
    <rc><c>S </c><c>   2</c></rc>
    <rc><c>S </c><c>   2</c></rc>
    <rc><c>S </c><c>   2</c></rc>
    <rc><c>S </c><c>   2</c></rc>
    <rc><c>S </c><c>   2</c></rc>
    <rc><c>S </c><c>   2</c></rc>
    <rc><c>S </c><c>   2</c></rc>
    <rc><c>S </c><c>   2</c></rc>
    <rc><c>S </c><c>   2</c></rc>
    <rc><c>S </c><c>   2</c></rc>
    <rc><c>S </c><c>   2</c></rc>
    <rc><c>S </c><c>   2</c></rc>
    <rc><c>S </c><c>   2</c></rc>
    <rc><c>S </c><c>   2</c></rc>
    <rc><c>S </c><c>   2</c></rc>
    <rc><c>S </c><c>   2</c></rc>
    <rc><c>S </c><c>   2</c></rc>
    <rc><c>S </c><c>   2</c></rc>
    <rc><c>S </c><c>   2</c></rc>
    <rc><c>S </c><c>   2</c></rc>
    <rc><c>S </c><c>   2</c></rc>
    <rc><c>S </c><c>   2</c></rc>
    <rc><c>S </c><c>   2</c></rc>
    <rc><c>S </c><c>   2</c></rc>
    <rc><c>S </c><c>   2</c></rc>
    <rc><c>S </c><c>   2</c></rc>
    <rc><c>S </c><c>   2</c></rc>
    <rc><c>S </c><c>   2</c></rc>
    <rc><c>S </c><c>   2</c></rc>
    <rc><c>S </c><c>   2</c></rc>
    <rc><c>S </c><c>   2</c></rc>
    <rc><c>S </c><c>   2</c></rc>
    <rc><c>S </c><c>   2</c></rc>
    <rc><c>S </c><c>   2</c></rc>
    <rc><c>S </c><c>   2</c></rc>
   </set>
  </array>
  <array name="atomtypes" >
   <dimension dim="1">type</dimension>
   <field type="int">atomspertype</field>
   <field type="string">element</field>
   <field>mass</field>
   <field>valence</field>
   <field type="string">pseudopotential</field>
   <set>
    <rc><c>  48</c><c>Ni</c><c>     58.69000000</c><c>     16.00000000</c><c>  PAW_PBE Ni_pv 06Sep2000               </c></rc>
    <rc><c>  48</c><c>S </c><c>     32.06600000</c><c>      6.00000000</c><c>  PAW_PBE S 06Sep2000                   </c></rc>
   </set>
  </array>
 </atominfo>
 <structure name="initialpos" >
  <crystal>
   <varray name="basis" >
    <v>      10.06282034       5.04456212       0.00000000 </v>
    <v>       0.00000000      11.25646304       0.00000000 </v>
    <v>       0.00000000       0.00000000      21.74423184 </v>
   </varray>
   <i name="volume">   2463.00752351 </i>
   <varray name="rec_basis" >
    <v>       0.09937572       0.00000000       0.00000000 </v>
    <v>      -0.04453504       0.08883785       0.00000000 </v>
    <v>       0.00000000       0.00000000       0.04598921 </v>
   </varray>
  </crystal>
  <varray name="positions" >
   <v>       0.26092070       0.47878036       0.25332799 </v>
   <v>       0.35488056       0.38482049       0.38835497 </v>
   <v>       0.44884043       0.29086063       0.52338195 </v>
   <v>       0.16696083       0.07274024       0.11830101 </v>
   <v>       0.05611868       0.05147940       0.48770701 </v>
   <v>       0.27423907       0.33335899       0.08262607 </v>
   <v>       0.36819893       0.23939913       0.21765305 </v>
   <v>       0.46215880       0.14543926       0.35268003 </v>
   <v>       0.00030194       0.37150212       0.21765305 </v>
   <v>       0.09426181       0.27754226       0.35268003 </v>
   <v>       0.18822168       0.18358239       0.48770701 </v>
   <v>       0.40634206       0.46546199       0.08262607 </v>
   <v>       0.76092070       0.47878036       0.25332799 </v>
   <v>       0.85488056       0.38482049       0.38835497 </v>
   <v>       0.94884043       0.29086063       0.52338195 </v>
   <v>       0.66696083       0.07274024       0.11830101 </v>
   <v>       0.55611868       0.05147940       0.48770701 </v>
   <v>       0.77423907       0.33335899       0.08262607 </v>
   <v>       0.86819893       0.23939913       0.21765305 </v>
   <v>       0.96215880       0.14543926       0.35268003 </v>
   <v>       0.50030194       0.37150212       0.21765305 </v>
   <v>       0.59426181       0.27754226       0.35268003 </v>
   <v>       0.68822168       0.18358239       0.48770701 </v>
   <v>       0.90634206       0.46546199       0.08262607 </v>
   <v>       0.26092070       0.97878036       0.25332799 </v>
   <v>       0.35488056       0.88482049       0.38835497 </v>
   <v>       0.44884043       0.79086063       0.52338195 </v>
   <v>       0.16696083       0.57274024       0.11830101 </v>
   <v>       0.05611868       0.55147940       0.48770701 </v>
   <v>       0.27423907       0.83335899       0.08262607 </v>
   <v>       0.36819893       0.73939913       0.21765305 </v>
   <v>       0.46215880       0.64543926       0.35268003 </v>
   <v>       0.00030194       0.87150212       0.21765305 </v>
   <v>       0.09426181       0.77754226       0.35268003 </v>
   <v>       0.18822168       0.68358239       0.48770701 </v>
   <v>       0.40634206       0.96546199       0.08262607 </v>
   <v>       0.76092070       0.97878036       0.25332799 </v>
   <v>       0.85488056       0.88482049       0.38835497 </v>
   <v>       0.94884043       0.79086063       0.52338195 </v>
   <v>       0.66696083       0.57274024       0.11830101 </v>
   <v>       0.55611868       0.55147940       0.48770701 </v>
   <v>       0.77423907       0.83335899       0.08262607 </v>
   <v>       0.86819893       0.73939913       0.21765305 </v>
   <v>       0.96215880       0.64543926       0.35268003 </v>
   <v>       0.50030194       0.87150212       0.21765305 </v>
   <v>       0.59426181       0.77754226       0.35268003 </v>
   <v>       0.68822168       0.68358239       0.48770701 </v>
   <v>       0.90634206       0.96546199       0.08262607 </v>
   <v>       0.07287763       0.16682343       0.27005396 </v>
   <v>       0.16683750       0.07286357       0.40508094 </v>
   <v>       0.47891775       0.26078330       0.13502698 </v>
   <v>       0.26079737       0.47890369       0.54010792 </v>
   <v>       0.03023342       0.37768264       0.45050807 </v>
   <v>       0.43627354       0.47164251       0.31548109 </v>
   <v>       0.24835381       0.15956225       0.04542713 </v>
   <v>       0.34231368       0.06560239       0.18045411 </v>
   <v>       0.08013882       0.49134725       0.04542713 </v>
   <v>       0.17409868       0.39738738       0.18045411 </v>
   <v>       0.26805855       0.30342751       0.31548109 </v>
   <v>       0.36201842       0.20946764       0.45050807 </v>
   <v>       0.57287763       0.16682343       0.27005396 </v>
   <v>       0.66683750       0.07286357       0.40508094 </v>
   <v>       0.88495789       0.35474317       0.00000000 </v>
   <v>       0.97891775       0.26078330       0.13502698 </v>
   <v>       0.76079737       0.47890369       0.54010792 </v>
   <v>       0.53023342       0.37768264       0.45050807 </v>
   <v>       0.93627354       0.47164251       0.31548109 </v>
   <v>       0.84231368       0.06560239       0.18045411 </v>
   <v>       0.58013882       0.49134725       0.04542713 </v>
   <v>       0.67409868       0.39738738       0.18045411 </v>
   <v>       0.76805855       0.30342751       0.31548109 </v>
   <v>       0.86201842       0.20946764       0.45050807 </v>
   <v>       0.07287763       0.66682343       0.27005396 </v>
   <v>       0.16683750       0.57286357       0.40508094 </v>
   <v>       0.47891775       0.76078330       0.13502698 </v>
   <v>       0.26079737       0.97890369       0.54010792 </v>
   <v>       0.03023342       0.87768264       0.45050807 </v>
   <v>       0.43627354       0.97164251       0.31548109 </v>
   <v>       0.24835381       0.65956225       0.04542713 </v>
   <v>       0.34231368       0.56560239       0.18045411 </v>
   <v>       0.08013882       0.99134725       0.04542713 </v>
   <v>       0.17409868       0.89738738       0.18045411 </v>
   <v>       0.26805855       0.80342751       0.31548109 </v>
   <v>       0.36201842       0.70946764       0.45050807 </v>
   <v>       0.57287763       0.66682343       0.27005396 </v>
   <v>       0.66683750       0.57286357       0.40508094 </v>
   <v>       0.88495789       0.85474317       0.00000000 </v>
   <v>       0.97891775       0.76078330       0.13502698 </v>
   <v>       0.76079737       0.97890369       0.54010792 </v>
   <v>       0.53023342       0.87768264       0.45050807 </v>
   <v>       0.93627354       0.97164251       0.31548109 </v>
   <v>       0.84231368       0.56560239       0.18045411 </v>
   <v>       0.58013882       0.99134725       0.04542713 </v>
   <v>       0.67409868       0.89738738       0.18045411 </v>
   <v>       0.76805855       0.80342751       0.31548109 </v>
   <v>       0.86201842       0.70946764       0.45050807 </v>
  </varray>
 </structure>
 <calculation>
  <scstep>
   <time name="dav">    6.54    6.56</time>
   <time name="total">    6.64    6.67</time>
   <energy>
    <i name="alphaZ">   2684.99175279 </i>
    <i name="ewald"> 244895.98790101 </i>
    <i name="hartreedc">-408899.25872056 </i>
    <i name="XCdc">   4873.73983477 </i>
    <i name="pawpsdc"> 150306.04444553 </i>
    <i name="pawaedc">-156855.34918313 </i>
    <i name="eentropy">     -0.57003581 </i>
    <i name="bandstr">  -4981.45746952 </i>
    <i name="atom"> 181336.80673834 </i>
    <i name="e_fr_energy">  13360.93526344 </i>
    <i name="e_wo_entrp">  13361.50529924 </i>
    <i name="e_0_energy">  13361.22028134 </i>
   </energy>
  </scstep>
  <scstep>
   <time name="dav">    5.83    5.84</time>
   <time name="total">    5.83    5.85</time>
   <energy>
    <i name="e_fr_energy">    865.43776165 </i>
    <i name="e_wo_entrp">    866.52743262 </i>
    <i name="e_0_energy">    865.98259714 </i>
   </energy>
  </scstep>
  <scstep>
   <time name="dav">    6.17    6.19</time>
   <time name="total">    6.17    6.19</time>
   <energy>
    <i name="e_fr_energy">   -456.47988585 </i>
    <i name="e_wo_entrp">   -455.02429635 </i>
    <i name="e_0_energy">   -455.75209110 </i>
   </energy>
  </scstep>
  <scstep>
   <time name="dav">    6.15    6.17</time>
   <time name="total">    6.15    6.17</time>
   <energy>
    <i name="e_fr_energy">   -545.77745755 </i>
    <i name="e_wo_entrp">   -544.25059745 </i>
    <i name="e_0_energy">   -545.01402750 </i>
   </energy>
  </scstep>
  <scstep>
   <time name="dav">    6.98    6.99</time>
   <time name="total">    7.10    7.12</time>
   <energy>
    <i name="e_fr_energy">   -549.79626129 </i>
    <i name="e_wo_entrp">   -548.27562778 </i>
    <i name="e_0_energy">   -549.03594454 </i>
   </energy>
  </scstep>
  <scstep>
   <time name="dav">    6.48    6.49</time>
   <time name="total">    6.70    6.72</time>
   <energy>
    <i name="e_fr_energy">   -675.42685903 </i>
    <i name="e_wo_entrp">   -674.20316284 </i>
    <i name="e_0_energy">   -674.81501094 </i>
   </energy>
  </scstep>
  <scstep>
   <time name="dav">    6.39    6.41</time>
   <time name="total">    6.61    6.63</time>
   <energy>
    <i name="e_fr_energy">   -513.48360683 </i>
    <i name="e_wo_entrp">   -512.35102706 </i>
    <i name="e_0_energy">   -512.91731695 </i>
   </energy>
  </scstep>
  <scstep>
   <time name="dav">    6.77    6.79</time>
   <time name="total">    7.00    7.02</time>
   <energy>
    <i name="e_fr_energy">   -760.51410318 </i>
    <i name="e_wo_entrp">   -759.57668013 </i>
    <i name="e_0_energy">   -760.04539166 </i>
   </energy>
  </scstep>
  <scstep>
   <time name="dav">    7.08    7.09</time>
   <time name="total">    7.30    7.32</time>
   <energy>
    <i name="e_fr_energy">   -537.68054065 </i>
    <i name="e_wo_entrp">   -535.75155320 </i>
    <i name="e_0_energy">   -536.71604692 </i>
   </energy>
  </scstep>
  <scstep>
   <time name="dav">    7.63    7.65</time>
   <time name="total">    7.85    7.87</time>
   <energy>
    <i name="e_fr_energy">   -513.86874374 </i>
    <i name="e_wo_entrp">   -511.91277359 </i>
    <i name="e_0_energy">   -512.89075866 </i>
   </energy>
  </scstep>
  <scstep>
   <time name="dav">    7.12    7.14</time>
   <time name="total">    7.34    7.36</time>
   <energy>
    <i name="e_fr_energy">   -523.62061358 </i>
    <i name="e_wo_entrp">   -521.73317770 </i>
    <i name="e_0_energy">   -522.67689564 </i>
   </energy>
  </scstep>
  <scstep>
   <time name="dav">    7.14    7.16</time>
   <time name="total">    7.36    7.38</time>
   <energy>
    <i name="e_fr_energy">   -495.35994614 </i>
    <i name="e_wo_entrp">   -494.07206436 </i>
    <i name="e_0_energy">   -494.71600525 </i>
   </energy>
  </scstep>
  <scstep>
   <time name="dav">    7.09    7.11</time>
   <time name="total">    7.31    7.34</time>
   <energy>
    <i name="e_fr_energy">   -498.25768231 </i>
    <i name="e_wo_entrp">   -497.04076684 </i>
    <i name="e_0_energy">   -497.64922458 </i>
   </energy>
  </scstep>
  <scstep>
   <time name="dav">    6.87    6.89</time>
   <time name="total">    7.09    7.11</time>
   <energy>
    <i name="e_fr_energy">   -489.29851782 </i>
    <i name="e_wo_entrp">   -487.90278053 </i>
    <i name="e_0_energy">   -488.60064917 </i>
   </energy>
  </scstep>
  <scstep>
   <time name="dav">    7.18    7.20</time>
   <time name="total">    7.40    7.42</time>
   <energy>
    <i name="e_fr_energy">   -486.28227142 </i>
    <i name="e_wo_entrp">   -484.91610058 </i>
    <i name="e_0_energy">   -485.59918600 </i>
   </energy>
  </scstep>
  <scstep>
   <time name="dav">    7.00    7.02</time>
   <time name="total">    7.22    7.24</time>
   <energy>
    <i name="e_fr_energy">   -484.25851905 </i>
    <i name="e_wo_entrp">   -482.89128424 </i>
    <i name="e_0_energy">   -483.57490165 </i>
   </energy>
  </scstep>
  <scstep>
   <time name="dav">    6.96    6.98</time>
   <time name="total">    7.18    7.19</time>
   <energy>
    <i name="e_fr_energy">   -483.24345646 </i>
    <i name="e_wo_entrp">   -481.85979996 </i>
    <i name="e_0_energy">   -482.55162821 </i>
   </energy>
  </scstep>
  <scstep>
   <time name="dav">    7.18    7.20</time>
   <time name="total">    7.40    7.42</time>
   <energy>
    <i name="e_fr_energy">   -482.56659916 </i>
    <i name="e_wo_entrp">   -481.12450078 </i>
    <i name="e_0_energy">   -481.84554997 </i>
   </energy>
  </scstep>
  <scstep>
   <time name="dav">    7.16    7.18</time>
   <time name="total">    7.38    7.40</time>
   <energy>
    <i name="e_fr_energy">   -482.23737533 </i>
    <i name="e_wo_entrp">   -480.79989314 </i>
    <i name="e_0_energy">   -481.51863424 </i>
   </energy>
  </scstep>
  <scstep>
   <time name="dav">    7.09    7.10</time>
   <time name="total">    7.31    7.33</time>
   <energy>
    <i name="e_fr_energy">   -481.99789819 </i>
    <i name="e_wo_entrp">   -480.57898334 </i>
    <i name="e_0_energy">   -481.28844077 </i>
   </energy>
  </scstep>
  <scstep>
   <time name="dav">    7.17    7.19</time>
   <time name="total">    7.40    7.43</time>
   <energy>
    <i name="e_fr_energy">   -482.04954335 </i>
    <i name="e_wo_entrp">   -480.61913170 </i>
    <i name="e_0_energy">   -481.33433753 </i>
   </energy>
  </scstep>
  <scstep>
   <time name="dav">    7.14    7.16</time>
   <time name="total">    7.36    7.38</time>
   <energy>
    <i name="e_fr_energy">   -481.79092002 </i>
    <i name="e_wo_entrp">   -480.34296147 </i>
    <i name="e_0_energy">   -481.06694075 </i>
   </energy>
  </scstep>
  <scstep>
   <time name="dav">    6.70    6.72</time>
   <time name="total">    6.93    6.95</time>
   <energy>
    <i name="e_fr_energy">   -481.75575616 </i>
    <i name="e_wo_entrp">   -480.30242402 </i>
    <i name="e_0_energy">   -481.02909009 </i>
   </energy>
  </scstep>
  <scstep>
   <time name="dav">    6.16    6.17</time>
   <time name="total">    6.38    6.40</time>
   <energy>
    <i name="e_fr_energy">   -481.73176321 </i>
    <i name="e_wo_entrp">   -480.28535010 </i>
    <i name="e_0_energy">   -481.00855665 </i>
   </energy>
  </scstep>
  <scstep>
   <time name="dav">    6.99    7.00</time>
   <time name="total">    7.21    7.23</time>
   <energy>
    <i name="e_fr_energy">   -481.72651022 </i>
    <i name="e_wo_entrp">   -480.28629233 </i>
    <i name="e_0_energy">   -481.00640127 </i>
   </energy>
  </scstep>
  <scstep>
   <time name="dav">    6.58    6.60</time>
   <time name="total">    6.81    6.82</time>
   <energy>
    <i name="e_fr_energy">   -481.70656685 </i>
    <i name="e_wo_entrp">   -480.27484876 </i>
    <i name="e_0_energy">   -480.99070780 </i>
   </energy>
  </scstep>
  <scstep>
   <time name="dav">    7.13    7.15</time>
   <time name="total">    7.36    7.38</time>
   <energy>
    <i name="e_fr_energy">   -481.69977907 </i>
    <i name="e_wo_entrp">   -480.27822428 </i>
    <i name="e_0_energy">   -480.98900168 </i>
   </energy>
  </scstep>
  <scstep>
   <time name="dav">    6.93    6.94</time>
   <time name="total">    7.15    7.17</time>
   <energy>
    <i name="e_fr_energy">   -481.67799894 </i>
    <i name="e_wo_entrp">   -480.25140621 </i>
    <i name="e_0_energy">   -480.96470257 </i>
   </energy>
  </scstep>
  <scstep>
   <time name="dav">    6.75    6.77</time>
   <time name="total">    6.98    7.00</time>
   <energy>
    <i name="e_fr_energy">   -481.67817200 </i>
    <i name="e_wo_entrp">   -480.25274231 </i>
    <i name="e_0_energy">   -480.96545716 </i>
   </energy>
  </scstep>
  <scstep>
   <time name="dav">    6.36    6.38</time>
   <time name="total">    6.59    6.60</time>
   <energy>
    <i name="e_fr_energy">   -481.67740012 </i>
    <i name="e_wo_entrp">   -480.25224428 </i>
    <i name="e_0_energy">   -480.96482220 </i>
   </energy>
  </scstep>
  <scstep>
   <time name="dav">    5.97    5.98</time>
   <time name="total">    6.19    6.21</time>
   <energy>
    <i name="e_fr_energy">   -481.67700827 </i>
    <i name="e_wo_entrp">   -480.25081105 </i>
    <i name="e_0_energy">   -480.96390966 </i>
   </energy>
  </scstep>
  <scstep>
   <time name="dav">    6.78    6.79</time>
   <time name="total">    7.01    7.02</time>
   <energy>
    <i name="e_fr_energy">   -481.67608905 </i>
    <i name="e_wo_entrp">   -480.25004869 </i>
    <i name="e_0_energy">   -480.96306887 </i>
   </energy>
  </scstep>
  <scstep>
   <time name="dav">    6.35    6.36</time>
   <time name="total">    6.57    6.59</time>
   <energy>
    <i name="e_fr_energy">   -481.67613013 </i>
    <i name="e_wo_entrp">   -480.24896818 </i>
    <i name="e_0_energy">   -480.96254916 </i>
   </energy>
  </scstep>
  <scstep>
   <time name="dav">    5.07    5.08</time>
   <time name="total">    5.29    5.31</time>
   <energy>
    <i name="e_fr_energy">   -481.67597959 </i>
    <i name="e_wo_entrp">   -480.24969060 </i>
    <i name="e_0_energy">   -480.96283509 </i>
   </energy>
  </scstep>
  <scstep>
   <time name="dav">    4.34    4.35</time>
   <time name="total">    4.44    4.46</time>
   <energy>
    <i name="alphaZ">   2684.99175279 </i>
    <i name="ewald"> 244895.98790101 </i>
    <i name="hartreedc">-407587.13847259 </i>
    <i name="XCdc">   4831.56721328 </i>
    <i name="pawpsdc"> 174704.11654330 </i>
    <i name="pawaedc">-181337.53371260 </i>
    <i name="eentropy">     -1.42640408 </i>
    <i name="bandstr"> -20009.04763087 </i>
    <i name="atom"> 181336.80673834 </i>
    <i name="e_fr_energy">   -481.67607141 </i>
    <i name="e_wo_entrp">   -480.24966733 </i>
    <i name="e_0_energy">   -480.96286937 </i>
   </energy>
  </scstep>
  <structure>
   <crystal>
    <varray name="basis" >
     <v>      10.06282034       5.04456212       0.00000000 </v>
     <v>       0.00000000      11.25646304       0.00000000 </v>
     <v>       0.00000000       0.00000000      21.74423184 </v>
    </varray>
    <i name="volume">   2463.00752351 </i>
    <varray name="rec_basis" >
     <v>       0.09937572       0.00000000       0.00000000 </v>
     <v>      -0.04453504       0.08883785       0.00000000 </v>
     <v>       0.00000000       0.00000000       0.04598921 </v>
    </varray>
   </crystal>
   <varray name="positions" >
    <v>       0.26092070       0.47878036       0.25332799 </v>
    <v>       0.35488056       0.38482049       0.38835497 </v>
    <v>       0.44884043       0.29086063       0.52338195 </v>
    <v>       0.16696083       0.07274024       0.11830101 </v>
    <v>       0.05611868       0.05147940       0.48770701 </v>
    <v>       0.27423907       0.33335899       0.08262607 </v>
    <v>       0.36819893       0.23939913       0.21765305 </v>
    <v>       0.46215880       0.14543926       0.35268003 </v>
    <v>       0.00030194       0.37150212       0.21765305 </v>
    <v>       0.09426181       0.27754226       0.35268003 </v>
    <v>       0.18822168       0.18358239       0.48770701 </v>
    <v>       0.40634206       0.46546199       0.08262607 </v>
    <v>       0.76092070       0.47878036       0.25332799 </v>
    <v>       0.85488056       0.38482049       0.38835497 </v>
    <v>       0.94884043       0.29086063       0.52338195 </v>
    <v>       0.66696083       0.07274024       0.11830101 </v>
    <v>       0.55611868       0.05147940       0.48770701 </v>
    <v>       0.77423907       0.33335899       0.08262607 </v>
    <v>       0.86819893       0.23939913       0.21765305 </v>
    <v>       0.96215880       0.14543926       0.35268003 </v>
    <v>       0.50030194       0.37150212       0.21765305 </v>
    <v>       0.59426181       0.27754226       0.35268003 </v>
    <v>       0.68822168       0.18358239       0.48770701 </v>
    <v>       0.90634206       0.46546199       0.08262607 </v>
    <v>       0.26092070       0.97878036       0.25332799 </v>
    <v>       0.35488056       0.88482049       0.38835497 </v>
    <v>       0.44884043       0.79086063       0.52338195 </v>
    <v>       0.16696083       0.57274024       0.11830101 </v>
    <v>       0.05611868       0.55147940       0.48770701 </v>
    <v>       0.27423907       0.83335899       0.08262607 </v>
    <v>       0.36819893       0.73939913       0.21765305 </v>
    <v>       0.46215880       0.64543926       0.35268003 </v>
    <v>       0.00030194       0.87150212       0.21765305 </v>
    <v>       0.09426181       0.77754226       0.35268003 </v>
    <v>       0.18822168       0.68358239       0.48770701 </v>
    <v>       0.40634206       0.96546199       0.08262607 </v>
    <v>       0.76092070       0.97878036       0.25332799 </v>
    <v>       0.85488056       0.88482049       0.38835497 </v>
    <v>       0.94884043       0.79086063       0.52338195 </v>
    <v>       0.66696083       0.57274024       0.11830101 </v>
    <v>       0.55611868       0.55147940       0.48770701 </v>
    <v>       0.77423907       0.83335899       0.08262607 </v>
    <v>       0.86819893       0.73939913       0.21765305 </v>
    <v>       0.96215880       0.64543926       0.35268003 </v>
    <v>       0.50030194       0.87150212       0.21765305 </v>
    <v>       0.59426181       0.77754226       0.35268003 </v>
    <v>       0.68822168       0.68358239       0.48770701 </v>
    <v>       0.90634206       0.96546199       0.08262607 </v>
    <v>       0.07287763       0.16682343       0.27005396 </v>
    <v>       0.16683750       0.07286357       0.40508094 </v>
    <v>       0.47891775       0.26078330       0.13502698 </v>
    <v>       0.26079737       0.47890369       0.54010792 </v>
    <v>       0.03023342       0.37768264       0.45050807 </v>
    <v>       0.43627354       0.47164251       0.31548109 </v>
    <v>       0.24835381       0.15956225       0.04542713 </v>
    <v>       0.34231368       0.06560239       0.18045411 </v>
    <v>       0.08013882       0.49134725       0.04542713 </v>
    <v>       0.17409868       0.39738738       0.18045411 </v>
    <v>       0.26805855       0.30342751       0.31548109 </v>
    <v>       0.36201842       0.20946764       0.45050807 </v>
    <v>       0.57287763       0.16682343       0.27005396 </v>
    <v>       0.66683750       0.07286357       0.40508094 </v>
    <v>       0.88495789       0.35474317       0.00000000 </v>
    <v>       0.97891775       0.26078330       0.13502698 </v>
    <v>       0.76079737       0.47890369       0.54010792 </v>
    <v>       0.53023342       0.37768264       0.45050807 </v>
    <v>       0.93627354       0.47164251       0.31548109 </v>
    <v>       0.84231368       0.06560239       0.18045411 </v>
    <v>       0.58013882       0.49134725       0.04542713 </v>
    <v>       0.67409868       0.39738738       0.18045411 </v>
    <v>       0.76805855       0.30342751       0.31548109 </v>
    <v>       0.86201842       0.20946764       0.45050807 </v>
    <v>       0.07287763       0.66682343       0.27005396 </v>
    <v>       0.16683750       0.57286357       0.40508094 </v>
    <v>       0.47891775       0.76078330       0.13502698 </v>
    <v>       0.26079737       0.97890369       0.54010792 </v>
    <v>       0.03023342       0.87768264       0.45050807 </v>
    <v>       0.43627354       0.97164251       0.31548109 </v>
    <v>       0.24835381       0.65956225       0.04542713 </v>
    <v>       0.34231368       0.56560239       0.18045411 </v>
    <v>       0.08013882       0.99134725       0.04542713 </v>
    <v>       0.17409868       0.89738738       0.18045411 </v>
    <v>       0.26805855       0.80342751       0.31548109 </v>
    <v>       0.36201842       0.70946764       0.45050807 </v>
    <v>       0.57287763       0.66682343       0.27005396 </v>
    <v>       0.66683750       0.57286357       0.40508094 </v>
    <v>       0.88495789       0.85474317       0.00000000 </v>
    <v>       0.97891775       0.76078330       0.13502698 </v>
    <v>       0.76079737       0.97890369       0.54010792 </v>
    <v>       0.53023342       0.87768264       0.45050807 </v>
    <v>       0.93627354       0.97164251       0.31548109 </v>
    <v>       0.84231368       0.56560239       0.18045411 </v>
    <v>       0.58013882       0.99134725       0.04542713 </v>
    <v>       0.67409868       0.89738738       0.18045411 </v>
    <v>       0.76805855       0.80342751       0.31548109 </v>
    <v>       0.86201842       0.70946764       0.45050807 </v>
   </varray>
  </structure>
  <varray name="forces" >
   <v>       0.00186066       0.02360619      -0.00610349 </v>
   <v>       0.12165306      -0.07923130      -0.02111311 </v>
   <v>      -1.03288420       0.63114059      -1.32617286 </v>
   <v>      -0.06559324      -0.11332224      -0.54572790 </v>
   <v>       0.74018939       0.02839889      -0.54958647 </v>
   <v>      -0.81833210      -0.73689748       0.25204745 </v>
   <v>      -0.13757543       0.03922416      -0.03566168 </v>
   <v>       0.09952207      -0.12673050       0.03760246 </v>
   <v>      -0.11421449      -0.00635435      -0.09391298 </v>
   <v>       0.14454168      -0.03485493       0.05866336 </v>
   <v>       0.30300259      -0.68310373      -0.56063359 </v>
   <v>       0.20958051       0.92485409       0.30301703 </v>
   <v>       0.03806633      -0.10585724      -0.18780199 </v>
   <v>       0.10449504      -0.09378266       0.03169282 </v>
   <v>      -1.03841658       0.63459065      -1.31337279 </v>
   <v>      -0.49653016      -0.44586156       0.06851323 </v>
   <v>       0.73444564       0.01539821      -0.57970402 </v>
   <v>       0.05212114       1.01043309      -0.16439315 </v>
   <v>      -0.00897667       0.07028236      -0.02643952 </v>
   <v>       0.09159668      -0.15107515       0.00546563 </v>
   <v>      -0.16591093       0.01259606      -0.09385513 </v>
   <v>       0.13995699      -0.06115011       0.02778943 </v>
   <v>       0.29030634      -0.65525922      -0.55884263 </v>
   <v>       0.73633424      -0.38987124      -0.52964908 </v>
   <v>       0.00186066       0.02360619      -0.00610349 </v>
   <v>       0.12165306      -0.07923130      -0.02111311 </v>
   <v>      -1.03288420       0.63114059      -1.32617286 </v>
   <v>      -0.06559324      -0.11332224      -0.54572790 </v>
   <v>       0.74018939       0.02839889      -0.54958647 </v>
   <v>      -0.81833210      -0.73689748       0.25204745 </v>
   <v>      -0.13757543       0.03922416      -0.03566168 </v>
   <v>       0.09952207      -0.12673050       0.03760246 </v>
   <v>      -0.11421449      -0.00635435      -0.09391298 </v>
   <v>       0.14454168      -0.03485493       0.05866336 </v>
   <v>       0.30300259      -0.68310373      -0.56063359 </v>
   <v>       0.20958051       0.92485409       0.30301703 </v>
   <v>       0.03806633      -0.10585724      -0.18780199 </v>
   <v>       0.10449504      -0.09378266       0.03169282 </v>
   <v>      -1.03841658       0.63459065      -1.31337279 </v>
   <v>      -0.49653016      -0.44586156       0.06851323 </v>
   <v>       0.73444564       0.01539821      -0.57970402 </v>
   <v>       0.05212114       1.01043309      -0.16439315 </v>
   <v>      -0.00897667       0.07028236      -0.02643952 </v>
   <v>       0.09159668      -0.15107515       0.00546563 </v>
   <v>      -0.16591093       0.01259606      -0.09385513 </v>
   <v>       0.13995699      -0.06115011       0.02778943 </v>
   <v>       0.29030634      -0.65525922      -0.55884263 </v>
   <v>       0.73633424      -0.38987124      -0.52964908 </v>
   <v>       0.10367657      -0.04340932       0.00892644 </v>
   <v>      -0.19204847       0.10668482       0.05570651 </v>
   <v>       0.12250786       0.20498613      -1.28819611 </v>
   <v>      -0.79740012       0.50255388      -0.01376437 </v>
   <v>       0.31595953      -0.19597954       1.06748908 </v>
   <v>       0.04872626       0.06312221       0.10928264 </v>
   <v>       0.78950398       0.07154015       0.50290571 </v>
   <v>      -0.07681477      -0.13487873       0.09453169 </v>
   <v>       0.07870922      -0.12906816       0.66527188 </v>
   <v>       0.19144634       0.11610238       0.08863272 </v>
   <v>      -0.06261001      -0.06731516       0.09951200 </v>
   <v>       0.27677556      -0.16733446       1.11720754 </v>
   <v>      -0.01075436       0.02770398       0.01120206 </v>
   <v>      -0.17769637       0.14388525       0.02247317 </v>
   <v>      -0.36067397       0.15875728       1.58475479 </v>
   <v>      -0.22012492      -0.17107516      -0.20911753 </v>
   <v>      -0.77513336       0.49314394       0.02008444 </v>
   <v>       0.30211385      -0.16844279       1.12410101 </v>
   <v>      -0.03864342      -0.00605669      -0.02332736 </v>
   <v>      -0.25548550       0.28193090      -0.93106310 </v>
   <v>       0.30853454      -0.43291360       0.53210200 </v>
   <v>       0.27279488      -0.17202049      -0.12736882 </v>
   <v>      -0.06551303      -0.01267489       0.20059325 </v>
   <v>       0.29291114      -0.17641451       1.09623934 </v>
   <v>       0.10367657      -0.04340932       0.00892644 </v>
   <v>      -0.19204847       0.10668482       0.05570651 </v>
   <v>       0.12250786       0.20498613      -1.28819611 </v>
   <v>      -0.79740012       0.50255388      -0.01376437 </v>
   <v>       0.31595953      -0.19597954       1.06748908 </v>
   <v>       0.04872626       0.06312221       0.10928264 </v>
   <v>       0.78950398       0.07154015       0.50290571 </v>
   <v>      -0.07681477      -0.13487873       0.09453169 </v>
   <v>       0.07870922      -0.12906816       0.66527188 </v>
   <v>       0.19144634       0.11610238       0.08863272 </v>
   <v>      -0.06261001      -0.06731516       0.09951200 </v>
   <v>       0.27677556      -0.16733446       1.11720754 </v>
   <v>      -0.01075436       0.02770398       0.01120206 </v>
   <v>      -0.17769637       0.14388525       0.02247317 </v>
   <v>      -0.36067397       0.15875728       1.58475479 </v>
   <v>      -0.22012492      -0.17107516      -0.20911753 </v>
   <v>      -0.77513336       0.49314394       0.02008444 </v>
   <v>       0.30211385      -0.16844279       1.12410101 </v>
   <v>      -0.03864342      -0.00605669      -0.02332736 </v>
   <v>      -0.25548550       0.28193090      -0.93106310 </v>
   <v>       0.30853454      -0.43291360       0.53210200 </v>
   <v>       0.27279488      -0.17202049      -0.12736882 </v>
   <v>      -0.06551303      -0.01267489       0.20059325 </v>
   <v>       0.29291114      -0.17641451       1.09623934 </v>
  </varray>
  <varray name="stress" >
   <v>     -29.47158797       3.88259878     -10.72140134 </v>
   <v>       3.88259867     -20.48201859       4.56972320 </v>
   <v>     -10.72140138       4.56972300     -24.00650662 </v>
  </varray>
  <energy>
   <i name="e_fr_energy">   -481.67607141 </i>
   <i name="e_wo_entrp">   -480.24966733 </i>
   <i name="e_0_energy">   -480.96286937 </i>
  </energy>
  <time name="totalsc">  244.96  245.65</time>
  <eigenvalues>
   <array>
    <dimension dim="1">band</dimension>
    <dimension dim="2">kpoint</dimension>
    <dimension dim="3">spin</dimension>
    <field>eigene</field>
    <field>occ</field>
    <set>
     <set comment="spin 1">
      <set comment="kpoint 1">
       <r>  -62.6266    1.0000 </r>
       <r>  -62.6266    1.0000 </r>
       <r>  -62.6084    1.0000 </r>
       <r>  -62.6084    1.0000 </r>
       <r>  -62.5816    1.0000 </r>
       <r>  -62.5815    1.0000 </r>
       <r>  -62.5780    1.0000 </r>
       <r>  -62.5780    1.0000 </r>
       <r>  -62.5777    1.0000 </r>
       <r>  -62.5776    1.0000 </r>
       <r>  -62.5749    1.0000 </r>
       <r>  -62.5748    1.0000 </r>
       <r>  -62.5744    1.0000 </r>
       <r>  -62.5743    1.0000 </r>
       <r>  -62.5737    1.0000 </r>
       <r>  -62.5736    1.0000 </r>
       <r>  -62.5657    1.0000 </r>
       <r>  -62.5657    1.0000 </r>
       <r>  -62.5624    1.0000 </r>
       <r>  -62.5624    1.0000 </r>
       <r>  -62.5606    1.0000 </r>
       <r>  -62.5606    1.0000 </r>
       <r>  -62.5554    1.0000 </r>
       <r>  -62.5553    1.0000 </r>
       <r>  -62.5552    1.0000 </r>
       <r>  -62.5552    1.0000 </r>
       <r>  -62.5528    1.0000 </r>
       <r>  -62.5528    1.0000 </r>
       <r>  -62.5469    1.0000 </r>
       <r>  -62.5469    1.0000 </r>
       <r>  -62.5448    1.0000 </r>
       <r>  -62.5447    1.0000 </r>
       <r>  -62.5419    1.0000 </r>
       <r>  -62.5419    1.0000 </r>
       <r>  -62.5392    1.0000 </r>
       <r>  -62.5391    1.0000 </r>
       <r>  -62.5317    1.0000 </r>
       <r>  -62.5317    1.0000 </r>
       <r>  -62.5287    1.0000 </r>
       <r>  -62.5287    1.0000 </r>
       <r>  -62.5262    1.0000 </r>
       <r>  -62.5262    1.0000 </r>
       <r>  -62.5176    1.0000 </r>
       <r>  -62.5176    1.0000 </r>
       <r>  -62.5165    1.0000 </r>
       <r>  -62.5165    1.0000 </r>
       <r>  -62.5147    1.0000 </r>
       <r>  -62.5146    1.0000 </r>
       <r>  -62.5110    1.0000 </r>
       <r>  -62.5109    1.0000 </r>
       <r>  -62.4981    1.0000 </r>
       <r>  -62.4981    1.0000 </r>
       <r>  -62.4310    1.0000 </r>
       <r>  -62.4309    1.0000 </r>
       <r>  -62.3845    1.0000 </r>
       <r>  -62.3845    1.0000 </r>
       <r>  -62.3828    1.0000 </r>
       <r>  -62.3828    1.0000 </r>
       <r>  -62.3705    1.0000 </r>
       <r>  -62.3705    1.0000 </r>
       <r>  -62.3669    1.0000 </r>
       <r>  -62.3669    1.0000 </r>
       <r>  -62.3652    1.0000 </r>
       <r>  -62.3651    1.0000 </r>
       <r>  -62.3598    1.0000 </r>
       <r>  -62.3598    1.0000 </r>
       <r>  -62.3420    1.0000 </r>
       <r>  -62.3419    1.0000 </r>
       <r>  -62.3355    1.0000 </r>
       <r>  -62.3355    1.0000 </r>
       <r>  -62.3333    1.0000 </r>
       <r>  -62.3332    1.0000 </r>
       <r>  -62.3329    1.0000 </r>
       <r>  -62.3328    1.0000 </r>
       <r>  -62.3136    1.0000 </r>
       <r>  -62.3135    1.0000 </r>
       <r>  -62.3135    1.0000 </r>
       <r>  -62.3134    1.0000 </r>
       <r>  -62.3125    1.0000 </r>
       <r>  -62.3125    1.0000 </r>
       <r>  -62.3083    1.0000 </r>
       <r>  -62.3083    1.0000 </r>
       <r>  -62.3069    1.0000 </r>
       <r>  -62.3068    1.0000 </r>
       <r>  -62.3041    1.0000 </r>
       <r>  -62.3040    1.0000 </r>
       <r>  -62.2803    1.0000 </r>
       <r>  -62.2802    1.0000 </r>
       <r>  -62.2743    1.0000 </r>
       <r>  -62.2742    1.0000 </r>
       <r>  -62.2736    1.0000 </r>
       <r>  -62.2735    1.0000 </r>
       <r>  -62.2658    1.0000 </r>
       <r>  -62.2656    1.0000 </r>
       <r>  -62.2431    1.0000 </r>
       <r>  -62.2430    1.0000 </r>
       <r>  -62.2362    1.0000 </r>
       <r>  -62.2361    1.0000 </r>
       <r>  -62.2062    1.0000 </r>
       <r>  -62.2061    1.0000 </r>
       <r>  -62.2042    1.0000 </r>
       <r>  -62.2041    1.0000 </r>
       <r>  -62.1989    1.0000 </r>
       <r>  -62.1987    1.0000 </r>
       <r>  -62.1735    1.0000 </r>
       <r>  -62.1735    1.0000 </r>
       <r>  -62.1707    1.0000 </r>
       <r>  -62.1705    1.0000 </r>
       <r>  -62.1634    1.0000 </r>
       <r>  -62.1633    1.0000 </r>
       <r>  -62.1571    1.0000 </r>
       <r>  -62.1570    1.0000 </r>
       <r>  -62.1539    1.0000 </r>
       <r>  -62.1539    1.0000 </r>
       <r>  -62.1474    1.0000 </r>
       <r>  -62.1474    1.0000 </r>
       <r>  -62.1418    1.0000 </r>
       <r>  -62.1417    1.0000 </r>
       <r>  -62.1155    1.0000 </r>
       <r>  -62.1155    1.0000 </r>
       <r>  -62.0376    1.0000 </r>
       <r>  -62.0376    1.0000 </r>
       <r>  -62.0373    1.0000 </r>
       <r>  -62.0371    1.0000 </r>
       <r>  -62.0317    1.0000 </r>
       <r>  -62.0316    1.0000 </r>
       <r>  -61.9261    1.0000 </r>
       <r>  -61.9259    1.0000 </r>
       <r>  -61.9149    1.0000 </r>
       <r>  -61.9148    1.0000 </r>
       <r>  -61.8420    1.0000 </r>
       <r>  -61.8419    1.0000 </r>
       <r>  -61.8358    1.0000 </r>
       <r>  -61.8357    1.0000 </r>
       <r>  -61.8295    1.0000 </r>
       <r>  -61.8294    1.0000 </r>
       <r>  -61.8279    1.0000 </r>
       <r>  -61.8278    1.0000 </r>
       <r>  -61.8130    1.0000 </r>
       <r>  -61.8129    1.0000 </r>
       <r>  -61.7583    1.0000 </r>
       <r>  -61.7582    1.0000 </r>
       <r>  -61.7529    1.0000 </r>
       <r>  -61.7529    1.0000 </r>
       <r>  -13.9774    1.0000 </r>
       <r>  -13.4395    1.0000 </r>
       <r>  -13.2395    1.0000 </r>
       <r>  -13.2346    1.0000 </r>
       <r>  -13.1989    1.0000 </r>
       <r>  -13.0346    1.0000 </r>
       <r>  -13.0320    1.0000 </r>
       <r>  -12.8753    1.0000 </r>
       <r>  -12.7582    1.0000 </r>
       <r>  -12.7538    1.0000 </r>
       <r>  -12.7238    1.0000 </r>
       <r>  -12.7140    1.0000 </r>
       <r>  -12.6328    1.0000 </r>
       <r>  -12.6311    1.0000 </r>
       <r>  -12.4757    1.0000 </r>
       <r>  -12.2928    1.0000 </r>
       <r>  -12.2885    1.0000 </r>
       <r>  -12.2794    1.0000 </r>
       <r>  -12.2417    1.0000 </r>
       <r>  -12.2402    1.0000 </r>
       <r>  -12.1679    1.0000 </r>
       <r>  -12.0866    1.0000 </r>
       <r>  -12.0487    1.0000 </r>
       <r>  -12.0395    1.0000 </r>
       <r>  -12.0055    1.0000 </r>
       <r>  -11.9559    1.0000 </r>
       <r>  -11.9537    1.0000 </r>
       <r>  -11.9479    1.0000 </r>
       <r>  -11.9209    1.0000 </r>
       <r>  -11.8976    1.0000 </r>
       <r>  -11.8695    1.0000 </r>
       <r>  -11.7890    1.0000 </r>
       <r>  -11.7649    1.0000 </r>
       <r>  -11.6410    1.0000 </r>
       <r>  -11.6246    1.0000 </r>
       <r>  -11.5357    1.0000 </r>
       <r>  -11.3929    1.0000 </r>
       <r>  -11.2092    1.0000 </r>
       <r>  -11.1161    1.0000 </r>
       <r>  -11.0210    1.0000 </r>
       <r>  -10.9487    1.0000 </r>
       <r>  -10.7677    1.0000 </r>
       <r>  -10.7458    1.0000 </r>
       <r>  -10.7309    1.0000 </r>
       <r>  -10.7173    1.0000 </r>
       <r>  -10.7161    1.0000 </r>
       <r>  -10.2596    1.0000 </r>
       <r>  -10.2372    1.0000 </r>
       <r>   -5.7540    1.0000 </r>
       <r>   -5.7515    1.0000 </r>
       <r>   -5.7496    1.0000 </r>
       <r>   -5.7466    1.0000 </r>
       <r>   -5.7163    1.0000 </r>
       <r>   -5.6582    1.0000 </r>
       <r>   -5.3451    1.0000 </r>
       <r>   -5.2747    1.0000 </r>
       <r>   -5.2679    1.0000 </r>
       <r>   -5.1158    1.0000 </r>
       <r>   -5.0233    1.0000 </r>
       <r>   -5.0162    1.0000 </r>
       <r>   -4.9982    1.0000 </r>
       <r>   -4.9563    1.0000 </r>
       <r>   -4.9336    1.0000 </r>
       <r>   -4.9161    1.0000 </r>
       <r>   -4.9046    1.0000 </r>
       <r>   -4.8083    1.0000 </r>
       <r>   -4.7231    1.0000 </r>
       <r>   -4.7147    1.0000 </r>
       <r>   -4.6214    1.0000 </r>
       <r>   -4.6194    1.0000 </r>
       <r>   -4.6121    1.0000 </r>
       <r>   -4.6047    1.0000 </r>
       <r>   -4.6041    1.0000 </r>
       <r>   -4.5639    1.0000 </r>
       <r>   -4.5482    1.0000 </r>
       <r>   -4.5043    1.0000 </r>
       <r>   -4.4931    1.0000 </r>
       <r>   -4.4760    1.0000 </r>
       <r>   -4.3796    1.0000 </r>
       <r>   -4.3644    1.0000 </r>
       <r>   -4.3519    1.0000 </r>
       <r>   -4.3238    1.0000 </r>
       <r>   -4.3159    1.0000 </r>
       <r>   -4.2782    1.0000 </r>
       <r>   -4.2696    1.0000 </r>
       <r>   -4.0882    1.0000 </r>
       <r>   -3.8734    1.0000 </r>
       <r>   -3.8719    1.0000 </r>
       <r>   -3.8456    1.0000 </r>
       <r>   -3.8445    1.0000 </r>
       <r>   -3.8172    1.0000 </r>
       <r>   -3.8132    1.0000 </r>
       <r>   -3.7830    1.0000 </r>
       <r>   -3.7631    1.0000 </r>
       <r>   -3.7233    1.0000 </r>
       <r>   -3.7128    1.0000 </r>
       <r>   -3.6838    1.0000 </r>
       <r>   -3.6781    1.0000 </r>
       <r>   -3.5616    1.0000 </r>
       <r>   -3.5509    1.0000 </r>
       <r>   -3.5297    1.0000 </r>
       <r>   -3.5205    1.0000 </r>
       <r>   -3.5173    1.0000 </r>
       <r>   -3.4171    1.0000 </r>
       <r>   -3.4021    1.0000 </r>
       <r>   -3.3720    1.0000 </r>
       <r>   -3.3489    1.0000 </r>
       <r>   -3.3194    1.0000 </r>
       <r>   -3.2926    1.0000 </r>
       <r>   -3.2327    1.0000 </r>
       <r>   -3.2312    1.0000 </r>
       <r>   -3.2293    1.0000 </r>
       <r>   -3.2142    1.0000 </r>
       <r>   -3.1715    1.0000 </r>
       <r>   -3.1631    1.0000 </r>
       <r>   -3.1366    1.0000 </r>
       <r>   -3.1151    1.0000 </r>
       <r>   -3.0934    1.0000 </r>
       <r>   -3.0639    1.0000 </r>
       <r>   -3.0491    1.0000 </r>
       <r>   -3.0330    1.0000 </r>
       <r>   -3.0165    1.0000 </r>
       <r>   -2.9921    1.0000 </r>
       <r>   -2.9650    1.0000 </r>
       <r>   -2.9559    1.0000 </r>
       <r>   -2.9423    1.0000 </r>
       <r>   -2.9239    1.0000 </r>
       <r>   -2.8926    1.0000 </r>
       <r>   -2.8666    1.0000 </r>
       <r>   -2.8367    1.0000 </r>
       <r>   -2.8107    1.0000 </r>
       <r>   -2.7970    1.0000 </r>
       <r>   -2.7350    1.0000 </r>
       <r>   -2.7239    1.0000 </r>
       <r>   -2.7120    1.0000 </r>
       <r>   -2.6625    1.0000 </r>
       <r>   -2.6605    1.0000 </r>
       <r>   -2.6393    1.0000 </r>
       <r>   -2.5962    1.0000 </r>
       <r>   -2.5776    1.0000 </r>
       <r>   -2.5733    1.0000 </r>
       <r>   -2.5439    1.0000 </r>
       <r>   -2.5295    1.0000 </r>
       <r>   -2.4775    1.0000 </r>
       <r>   -2.4439    1.0000 </r>
       <r>   -2.4333    1.0000 </r>
       <r>   -2.4245    1.0000 </r>
       <r>   -2.4140    1.0000 </r>
       <r>   -2.4113    1.0000 </r>
       <r>   -2.4047    1.0000 </r>
       <r>   -2.3880    1.0000 </r>
       <r>   -2.3761    1.0000 </r>
       <r>   -2.3741    1.0000 </r>
       <r>   -2.3663    1.0000 </r>
       <r>   -2.3142    1.0000 </r>
       <r>   -2.3078    1.0000 </r>
       <r>   -2.2896    1.0000 </r>
       <r>   -2.2607    1.0000 </r>
       <r>   -2.2576    1.0000 </r>
       <r>   -2.2488    1.0000 </r>
       <r>   -2.2362    1.0000 </r>
       <r>   -2.1895    1.0000 </r>
       <r>   -2.1411    1.0000 </r>
       <r>   -2.0673    1.0000 </r>
       <r>   -2.0233    1.0000 </r>
       <r>   -1.9657    1.0000 </r>
       <r>   -1.9033    1.0000 </r>
       <r>   -1.8782    1.0000 </r>
       <r>   -1.8452    1.0000 </r>
       <r>   -1.7862    1.0000 </r>
       <r>   -1.7535    1.0000 </r>
       <r>   -1.7331    1.0000 </r>
       <r>   -1.6843    1.0000 </r>
       <r>   -1.6672    1.0000 </r>
       <r>   -1.6386    1.0000 </r>
       <r>   -1.6347    1.0000 </r>
       <r>   -1.5797    1.0000 </r>
       <r>   -1.5738    1.0000 </r>
       <r>   -1.5166    1.0000 </r>
       <r>   -1.5048    1.0000 </r>
       <r>   -1.4890    1.0000 </r>
       <r>   -1.4837    1.0000 </r>
       <r>   -1.4035    1.0000 </r>
       <r>   -1.3837    1.0000 </r>
       <r>   -1.3612    1.0000 </r>
       <r>   -1.3247    1.0000 </r>
       <r>   -1.2925    1.0000 </r>
       <r>   -1.2873    1.0000 </r>
       <r>   -1.2674    1.0000 </r>
       <r>   -1.2500    1.0000 </r>
       <r>   -1.2307    1.0000 </r>
       <r>   -1.2240    1.0000 </r>
       <r>   -1.1889    1.0000 </r>
       <r>   -1.1650    1.0000 </r>
       <r>   -1.1601    1.0000 </r>
       <r>   -1.1274    1.0000 </r>
       <r>   -1.1186    1.0000 </r>
       <r>   -1.1064    1.0000 </r>
       <r>   -1.1005    1.0000 </r>
       <r>   -1.0774    1.0000 </r>
       <r>   -1.0652    1.0000 </r>
       <r>   -1.0621    1.0000 </r>
       <r>   -1.0485    1.0000 </r>
       <r>   -1.0035    1.0000 </r>
       <r>   -0.9735    1.0000 </r>
       <r>   -0.9383    1.0000 </r>
       <r>   -0.8847    1.0000 </r>
       <r>   -0.8841    1.0000 </r>
       <r>   -0.8691    1.0000 </r>
       <r>   -0.8386    1.0000 </r>
       <r>   -0.8285    1.0000 </r>
       <r>   -0.8060    1.0000 </r>
       <r>   -0.7968    1.0000 </r>
       <r>   -0.7908    1.0000 </r>
       <r>   -0.7905    1.0000 </r>
       <r>   -0.7604    1.0000 </r>
       <r>   -0.7528    1.0000 </r>
       <r>   -0.7465    1.0000 </r>
       <r>   -0.7408    1.0000 </r>
       <r>   -0.7374    1.0000 </r>
       <r>   -0.7136    1.0000 </r>
       <r>   -0.7110    1.0000 </r>
       <r>   -0.7058    1.0000 </r>
       <r>   -0.6934    1.0000 </r>
       <r>   -0.6861    1.0000 </r>
       <r>   -0.6740    1.0000 </r>
       <r>   -0.6325    1.0000 </r>
       <r>   -0.6206    1.0000 </r>
       <r>   -0.6193    1.0000 </r>
       <r>   -0.5998    1.0000 </r>
       <r>   -0.5976    1.0000 </r>
       <r>   -0.5780    1.0000 </r>
       <r>   -0.5689    1.0000 </r>
       <r>   -0.5640    1.0000 </r>
       <r>   -0.5577    1.0000 </r>
       <r>   -0.5180    1.0000 </r>
       <r>   -0.5127    1.0000 </r>
       <r>   -0.5101    1.0000 </r>
       <r>   -0.4924    1.0000 </r>
       <r>   -0.4769    1.0000 </r>
       <r>   -0.4527    1.0000 </r>
       <r>   -0.4493    1.0000 </r>
       <r>   -0.4490    1.0000 </r>
       <r>   -0.4284    1.0000 </r>
       <r>   -0.4153    1.0000 </r>
       <r>   -0.4149    1.0000 </r>
       <r>   -0.3837    1.0000 </r>
       <r>   -0.3759    1.0000 </r>
       <r>   -0.3689    1.0000 </r>
       <r>   -0.3588    1.0000 </r>
       <r>   -0.3539    1.0000 </r>
       <r>   -0.3414    1.0000 </r>
       <r>   -0.3253    1.0000 </r>
       <r>   -0.3178    1.0000 </r>
       <r>   -0.3072    1.0000 </r>
       <r>   -0.2902    1.0000 </r>
       <r>   -0.2820    1.0000 </r>
       <r>   -0.2796    1.0000 </r>
       <r>   -0.2764    1.0000 </r>
       <r>   -0.2562    1.0000 </r>
       <r>   -0.2418    1.0000 </r>
       <r>   -0.2388    1.0000 </r>
       <r>   -0.2385    1.0000 </r>
       <r>   -0.2246    1.0000 </r>
       <r>   -0.2176    1.0000 </r>
       <r>   -0.2030    1.0000 </r>
       <r>   -0.1911    1.0000 </r>
       <r>   -0.1819    1.0000 </r>
       <r>   -0.1810    1.0000 </r>
       <r>   -0.1677    1.0000 </r>
       <r>   -0.1591    1.0000 </r>
       <r>   -0.1549    1.0000 </r>
       <r>   -0.1465    1.0000 </r>
       <r>   -0.1302    1.0000 </r>
       <r>   -0.1232    1.0000 </r>
       <r>   -0.1213    1.0000 </r>
       <r>   -0.1081    1.0000 </r>
       <r>   -0.1026    1.0000 </r>
       <r>   -0.1000    1.0000 </r>
       <r>   -0.0928    1.0000 </r>
       <r>   -0.0872    1.0000 </r>
       <r>   -0.0689    1.0000 </r>
       <r>   -0.0689    1.0000 </r>
       <r>   -0.0577    1.0000 </r>
       <r>   -0.0420    1.0000 </r>
       <r>   -0.0350    1.0000 </r>
       <r>   -0.0285    1.0000 </r>
       <r>   -0.0222    1.0000 </r>
       <r>   -0.0081    1.0000 </r>
       <r>    0.0021    1.0000 </r>
       <r>    0.0038    1.0000 </r>
       <r>    0.0133    1.0000 </r>
       <r>    0.0135    1.0000 </r>
       <r>    0.0391    1.0000 </r>
       <r>    0.0424    1.0000 </r>
       <r>    0.0543    1.0000 </r>
       <r>    0.0559    1.0000 </r>
       <r>    0.0696    1.0000 </r>
       <r>    0.0764    1.0000 </r>
       <r>    0.0780    1.0000 </r>
       <r>    0.0937    1.0000 </r>
       <r>    0.1167    1.0000 </r>
       <r>    0.1262    1.0000 </r>
       <r>    0.1329    1.0000 </r>
       <r>    0.1428    1.0000 </r>
       <r>    0.1477    1.0000 </r>
       <r>    0.1549    1.0000 </r>
       <r>    0.1565    1.0000 </r>
       <r>    0.1608    1.0000 </r>
       <r>    0.1711    1.0000 </r>
       <r>    0.1830    1.0000 </r>
       <r>    0.1848    1.0000 </r>
       <r>    0.1853    1.0000 </r>
       <r>    0.2090    1.0000 </r>
       <r>    0.2228    1.0000 </r>
       <r>    0.2278    1.0000 </r>
       <r>    0.2303    1.0000 </r>
       <r>    0.2350    1.0000 </r>
       <r>    0.2645    1.0000 </r>
       <r>    0.2672    1.0000 </r>
       <r>    0.2679    1.0000 </r>
       <r>    0.2737    1.0000 </r>
       <r>    0.2793    1.0000 </r>
       <r>    0.2825    1.0000 </r>
       <r>    0.3030    1.0000 </r>
       <r>    0.3062    1.0000 </r>
       <r>    0.3154    1.0000 </r>
       <r>    0.3238    1.0000 </r>
       <r>    0.3595    1.0000 </r>
       <r>    0.3675    1.0000 </r>
       <r>    0.3726    1.0000 </r>
       <r>    0.3741    1.0000 </r>
       <r>    0.3922    1.0000 </r>
       <r>    0.4016    1.0000 </r>
       <r>    0.4214    1.0000 </r>
       <r>    0.4414    1.0000 </r>
       <r>    0.4578    1.0000 </r>
       <r>    0.4636    1.0000 </r>
       <r>    0.4850    1.0000 </r>
       <r>    0.5061    1.0000 </r>
       <r>    0.5111    1.0000 </r>
       <r>    0.5152    1.0000 </r>
       <r>    0.5184    1.0000 </r>
       <r>    0.5405    1.0000 </r>
       <r>    0.5426    1.0000 </r>
       <r>    0.6029    1.0000 </r>
       <r>    0.6092    1.0000 </r>
       <r>    0.6269    1.0000 </r>
       <r>    0.6288    1.0000 </r>
       <r>    0.6560    1.0000 </r>
       <r>    0.6591    1.0000 </r>
       <r>    0.6684    1.0000 </r>
       <r>    0.6946    1.0000 </r>
       <r>    0.7032    1.0000 </r>
       <r>    0.7219    1.0000 </r>
       <r>    0.7457    1.0000 </r>
       <r>    0.7703    1.0000 </r>
       <r>    0.7966    1.0000 </r>
       <r>    0.8119    1.0000 </r>
       <r>    0.8308    1.0000 </r>
       <r>    0.8540    1.0000 </r>
       <r>    0.8625    1.0000 </r>
       <r>    0.8756    1.0000 </r>
       <r>    0.8877    1.0000 </r>
       <r>    0.9041    1.0000 </r>
       <r>    0.9506    0.9999 </r>
       <r>    0.9843    0.9997 </r>
       <r>    0.9982    0.9996 </r>
       <r>    1.0197    0.9993 </r>
       <r>    1.0513    0.9986 </r>
       <r>    1.1018    0.9957 </r>
       <r>    1.1140    0.9945 </r>
       <r>    1.1206    0.9937 </r>
       <r>    1.1909    0.9771 </r>
       <r>    1.2058    0.9707 </r>
       <r>    1.2179    0.9645 </r>
       <r>    1.2889    0.9039 </r>
       <r>    1.2983    0.8921 </r>
       <r>    1.3079    0.8790 </r>
       <r>    1.3605    0.7875 </r>
       <r>    1.3782    0.7494 </r>
       <r>    1.4088    0.6760 </r>
       <r>    1.4395    0.5945 </r>
       <r>    1.4568    0.5466 </r>
       <r>    1.4734    0.4998 </r>
       <r>    1.5197    0.3716 </r>
       <r>    1.5318    0.3396 </r>
       <r>    1.5693    0.2488 </r>
       <r>    1.5804    0.2246 </r>
       <r>    1.6224    0.1459 </r>
       <r>    1.6579    0.0959 </r>
       <r>    1.6878    0.0647 </r>
       <r>    1.6898    0.0629 </r>
       <r>    1.8182    0.0074 </r>
       <r>    1.8298    0.0059 </r>
       <r>    1.8448    0.0043 </r>
       <r>    1.8554    0.0035 </r>
       <r>    1.8924    0.0015 </r>
       <r>    1.9350    0.0005 </r>
       <r>    1.9417    0.0005 </r>
       <r>    1.9755    0.0002 </r>
       <r>    2.0177    0.0001 </r>
       <r>    2.0317    0.0000 </r>
       <r>    2.0596    0.0000 </r>
       <r>    2.0753    0.0000 </r>
       <r>    2.0784    0.0000 </r>
       <r>    2.1125    0.0000 </r>
       <r>    2.1207    0.0000 </r>
       <r>    2.1391    0.0000 </r>
       <r>    2.1919    0.0000 </r>
       <r>    2.2197    0.0000 </r>
       <r>    2.2372    0.0000 </r>
       <r>    2.2897    0.0000 </r>
       <r>    2.3043    0.0000 </r>
       <r>    2.3292    0.0000 </r>
       <r>    2.3648    0.0000 </r>
       <r>    2.4291    0.0000 </r>
       <r>    2.4429    0.0000 </r>
       <r>    2.4586    0.0000 </r>
       <r>    2.4630    0.0000 </r>
       <r>    2.4980    0.0000 </r>
       <r>    2.5005    0.0000 </r>
       <r>    2.5272    0.0000 </r>
       <r>    2.5293    0.0000 </r>
       <r>    2.5616    0.0000 </r>
       <r>    2.6002    0.0000 </r>
       <r>    2.6335    0.0000 </r>
       <r>    2.6688    0.0000 </r>
       <r>    2.6779    0.0000 </r>
       <r>    2.6931    0.0000 </r>
       <r>    2.7552    0.0000 </r>
       <r>    2.8362    0.0000 </r>
       <r>    3.3693    0.0000 </r>
       <r>    3.5946    0.0000 </r>
       <r>    4.4052    0.0000 </r>
       <r>    4.4597    0.0000 </r>
       <r>    4.5038    0.0000 </r>
       <r>    4.5123    0.0000 </r>
       <r>    4.8438    0.0000 </r>
       <r>    4.8967    0.0000 </r>
       <r>    5.0132    0.0000 </r>
       <r>    5.2357    0.0000 </r>
       <r>    5.2509    0.0000 </r>
       <r>    5.3371    0.0000 </r>
       <r>    5.4295    0.0000 </r>
       <r>    5.6221    0.0000 </r>
       <r>    5.6403    0.0000 </r>
       <r>    5.7332    0.0000 </r>
       <r>    5.7712    0.0000 </r>
       <r>    5.8034    0.0000 </r>
       <r>    6.0288    0.0000 </r>
       <r>    6.0707    0.0000 </r>
       <r>    6.0956    0.0000 </r>
       <r>    6.1269    0.0000 </r>
       <r>    6.1642    0.0000 </r>
       <r>    6.2339    0.0000 </r>
       <r>    6.2581    0.0000 </r>
       <r>    6.3098    0.0000 </r>
       <r>    6.3549    0.0000 </r>
       <r>    6.4388    0.0000 </r>
       <r>    6.5326    0.0000 </r>
       <r>    6.6363    0.0000 </r>
       <r>    6.6641    0.0000 </r>
       <r>    6.6845    0.0000 </r>
       <r>    6.7233    0.0000 </r>
       <r>    6.8372    0.0000 </r>
       <r>    6.8640    0.0000 </r>
       <r>    6.8733    0.0000 </r>
       <r>    6.9770    0.0000 </r>
       <r>    6.9954    0.0000 </r>
       <r>    7.0223    0.0000 </r>
       <r>    7.0416    0.0000 </r>
       <r>    7.1482    0.0000 </r>
       <r>    7.1544    0.0000 </r>
       <r>    7.2002    0.0000 </r>
       <r>    7.2680    0.0000 </r>
       <r>    7.2737    0.0000 </r>
       <r>    7.2958    0.0000 </r>
       <r>    7.3538    0.0000 </r>
       <r>    7.4364    0.0000 </r>
       <r>    7.4464    0.0000 </r>
       <r>    7.5204    0.0000 </r>
       <r>    7.5241    0.0000 </r>
       <r>    7.5866    0.0000 </r>
       <r>    7.6284    0.0000 </r>
       <r>    7.6331    0.0000 </r>
       <r>    7.6833    0.0000 </r>
       <r>    7.7502    0.0000 </r>
       <r>    7.7585    0.0000 </r>
       <r>    7.7863    0.0000 </r>
       <r>    7.8012    0.0000 </r>
       <r>    7.8104    0.0000 </r>
       <r>    7.8169    0.0000 </r>
       <r>    7.8805    0.0000 </r>
       <r>    7.9202    0.0000 </r>
       <r>    7.9639    0.0000 </r>
      </set>
     </set>
    </set>
   </array>
  </eigenvalues>
  <separator name="orbital magnetization" >
   <v name="MAGDIPOLOUT">      0.00000000      0.00000000      0.00000000</v>
  </separator>
  <dos>
   <i name="efermi">      1.47334018 </i>
   <total>
    <array>
     <dimension dim="1">gridpoints</dimension>
     <dimension dim="2">spin</dimension>
     <field>energy</field>
     <field>total</field>
     <field>integrated</field>
     <set>
      <set comment="spin 1">
       <r>   -66.1561     0.0000     0.0000 </r>
       <r>   -65.8973     0.0000     0.0000 </r>
[...]
       <r>   -58.1324     0.0000   288.0000 </r>
       <r>   -57.8735     0.0000   288.0000 </r>
       <r>   -57.6147     0.0000   288.0000 </r>
       <r>   -57.3559     0.0000   288.0000 </r>
       <r>   -57.0970     0.0000   288.0000 </r>
       <r>   -56.8382     0.0000   288.0000 </r>
       <r>   -56.5794     0.0000   288.0000 </r>
       <r>   -56.3205     0.0000   288.0000 </r>
       <r>   -56.0617     0.0000   288.0000 </r>
       <r>   -55.8029     0.0000   288.0000 </r>
       <r>   -55.5440     0.0000   288.0000 </r>
       <r>   -55.2852     0.0000   288.0000 </r>
       <r>   -55.0264     0.0000   288.0000 </r>
       <r>   -54.7675     0.0000   288.0000 </r>
       <r>   -54.5087     0.0000   288.0000 </r>
       <r>   -54.2499     0.0000   288.0000 </r>
       <r>   -53.9910     0.0000   288.0000 </r>
       <r>   -53.7322     0.0000   288.0000 </r>
       <r>   -53.4734     0.0000   288.0000 </r>
       <r>   -53.2145     0.0000   288.0000 </r>
       <r>   -52.9557     0.0000   288.0000 </r>
       <r>   -52.6969     0.0000   288.0000 </r>
       <r>   -52.4381     0.0000   288.0000 </r>
       <r>   -52.1792     0.0000   288.0000 </r>
       <r>   -51.9204     0.0000   288.0000 </r>
       <r>   -51.6616     0.0000   288.0000 </r>
       <r>   -51.4027     0.0000   288.0000 </r>
       <r>   -51.1439     0.0000   288.0000 </r>
       <r>   -50.8851     0.0000   288.0000 </r>
       <r>   -50.6262     0.0000   288.0000 </r>
       <r>   -50.3674     0.0000   288.0000 </r>
       <r>   -50.1086     0.0000   288.0000 </r>
       <r>   -49.8497     0.0000   288.0000 </r>
       <r>   -49.5909     0.0000   288.0000 </r>
       <r>   -49.3321     0.0000   288.0000 </r>
       <r>   -49.0732     0.0000   288.0000 </r>
       <r>   -48.8144     0.0000   288.0000 </r>
       <r>   -48.5556     0.0000   288.0000 </r>
       <r>   -48.2967     0.0000   288.0000 </r>
       <r>   -48.0379     0.0000   288.0000 </r>
       <r>   -47.7791     0.0000   288.0000 </r>
       <r>   -47.5202     0.0000   288.0000 </r>
       <r>   -47.2614     0.0000   288.0000 </r>
       <r>   -47.0026     0.0000   288.0000 </r>
       <r>   -46.7437     0.0000   288.0000 </r>
       <r>   -46.4849     0.0000   288.0000 </r>
       <r>   -46.2261     0.0000   288.0000 </r>
       <r>   -45.9673     0.0000   288.0000 </r>
       <r>   -45.7084     0.0000   288.0000 </r>
       <r>   -45.4496     0.0000   288.0000 </r>
       <r>   -45.1908     0.0000   288.0000 </r>
       <r>   -44.9319     0.0000   288.0000 </r>
       <r>   -44.6731     0.0000   288.0000 </r>
       <r>   -44.4143     0.0000   288.0000 </r>
       <r>   -44.1554     0.0000   288.0000 </r>
       <r>   -43.8966     0.0000   288.0000 </r>
       <r>   -43.6378     0.0000   288.0000 </r>
       <r>   -43.3789     0.0000   288.0000 </r>
       <r>   -43.1201     0.0000   288.0000 </r>
       <r>   -42.8613     0.0000   288.0000 </r>
       <r>   -42.6024     0.0000   288.0000 </r>
       <r>   -42.3436     0.0000   288.0000 </r>
       <r>   -42.0848     0.0000   288.0000 </r>
       <r>   -41.8259     0.0000   288.0000 </r>
       <r>   -41.5671     0.0000   288.0000 </r>
       <r>   -41.3083     0.0000   288.0000 </r>
       <r>   -41.0494     0.0000   288.0000 </r>
       <r>   -40.7906     0.0000   288.0000 </r>
       <r>   -40.5318     0.0000   288.0000 </r>
       <r>   -40.2730     0.0000   288.0000 </r>
       <r>   -40.0141     0.0000   288.0000 </r>
       <r>   -39.7553     0.0000   288.0000 </r>
       <r>   -39.4965     0.0000   288.0000 </r>
       <r>   -39.2376     0.0000   288.0000 </r>
       <r>   -38.9788     0.0000   288.0000 </r>
       <r>   -38.7200     0.0000   288.0000 </r>
       <r>   -38.4611     0.0000   288.0000 </r>
       <r>   -38.2023     0.0000   288.0000 </r>
       <r>   -37.9435     0.0000   288.0000 </r>
       <r>   -37.6846     0.0000   288.0000 </r>
       <r>   -37.4258     0.0000   288.0000 </r>
       <r>   -37.1670     0.0000   288.0000 </r>
       <r>   -36.9081     0.0000   288.0000 </r>
       <r>   -36.6493     0.0000   288.0000 </r>
       <r>   -36.3905     0.0000   288.0000 </r>
       <r>   -36.1316     0.0000   288.0000 </r>
       <r>   -35.8728     0.0000   288.0000 </r>
       <r>   -35.6140     0.0000   288.0000 </r>
       <r>   -35.3551     0.0000   288.0000 </r>
       <r>   -35.0963     0.0000   288.0000 </r>
       <r>   -34.8375     0.0000   288.0000 </r>
       <r>   -34.5786     0.0000   288.0000 </r>
       <r>   -34.3198     0.0000   288.0000 </r>
       <r>   -34.0610     0.0000   288.0000 </r>
       <r>   -33.8022     0.0000   288.0000 </r>
       <r>   -33.5433     0.0000   288.0000 </r>
       <r>   -33.2845     0.0000   288.0000 </r>
       <r>   -33.0257     0.0000   288.0000 </r>
       <r>   -32.7668     0.0000   288.0000 </r>
       <r>   -32.5080     0.0000   288.0000 </r>
       <r>   -32.2492     0.0000   288.0000 </r>
       <r>   -31.9903     0.0000   288.0000 </r>
       <r>   -31.7315     0.0000   288.0000 </r>
       <r>   -31.4727     0.0000   288.0000 </r>
       <r>   -31.2138     0.0000   288.0000 </r>
       <r>   -30.9550     0.0000   288.0000 </r>
       <r>   -30.6962     0.0000   288.0000 </r>
       <r>   -30.4373     0.0000   288.0000 </r>
       <r>   -30.1785     0.0000   288.0000 </r>
       <r>   -29.9197     0.0000   288.0000 </r>
       <r>   -29.6608     0.0000   288.0000 </r>
       <r>   -29.4020     0.0000   288.0000 </r>
       <r>   -29.1432     0.0000   288.0000 </r>
       <r>   -28.8843     0.0000   288.0000 </r>
       <r>   -28.6255     0.0000   288.0000 </r>
       <r>   -28.3667     0.0000   288.0000 </r>
       <r>   -28.1079     0.0000   288.0000 </r>
       <r>   -27.8490     0.0000   288.0000 </r>
       <r>   -27.5902     0.0000   288.0000 </r>
       <r>   -27.3314     0.0000   288.0000 </r>
       <r>   -27.0725     0.0000   288.0000 </r>
       <r>   -26.8137     0.0000   288.0000 </r>
       <r>   -26.5549     0.0000   288.0000 </r>
       <r>   -26.2960     0.0000   288.0000 </r>
       <r>   -26.0372     0.0000   288.0000 </r>
       <r>   -25.7784     0.0000   288.0000 </r>
       <r>   -25.5195     0.0000   288.0000 </r>
       <r>   -25.2607     0.0000   288.0000 </r>
       <r>   -25.0019     0.0000   288.0000 </r>
       <r>   -24.7430     0.0000   288.0000 </r>
       <r>   -24.4842     0.0000   288.0000 </r>
       <r>   -24.2254     0.0000   288.0000 </r>
       <r>   -23.9665     0.0000   288.0000 </r>
       <r>   -23.7077     0.0000   288.0000 </r>
       <r>   -23.4489     0.0000   288.0000 </r>
       <r>   -23.1900     0.0000   288.0000 </r>
       <r>   -22.9312     0.0000   288.0000 </r>
       <r>   -22.6724     0.0000   288.0000 </r>
       <r>   -22.4136     0.0000   288.0000 </r>
       <r>   -22.1547     0.0000   288.0000 </r>
       <r>   -21.8959     0.0000   288.0000 </r>
       <r>   -21.6371     0.0000   288.0000 </r>
       <r>   -21.3782     0.0000   288.0000 </r>
       <r>   -21.1194     0.0000   288.0000 </r>
       <r>   -20.8606     0.0000   288.0000 </r>
       <r>   -20.6017     0.0000   288.0000 </r>
       <r>   -20.3429     0.0000   288.0000 </r>
       <r>   -20.0841     0.0000   288.0000 </r>
       <r>   -19.8252     0.0000   288.0000 </r>
       <r>   -19.5664     0.0000   288.0000 </r>
       <r>   -19.3076     0.0000   288.0000 </r>
       <r>   -19.0487     0.0000   288.0000 </r>
       <r>   -18.7899     0.0000   288.0000 </r>
       <r>   -18.5311     0.0000   288.0000 </r>
       <r>   -18.2722     0.0000   288.0000 </r>
       <r>   -18.0134     0.0000   288.0000 </r>
       <r>   -17.7546     0.0000   288.0000 </r>
       <r>   -17.4957     0.0000   288.0000 </r>
       <r>   -17.2369     0.0000   288.0000 </r>
       <r>   -16.9781     0.0000   288.0000 </r>
       <r>   -16.7192     0.0000   288.0000 </r>
       <r>   -16.4604     0.0000   288.0000 </r>
       <r>   -16.2016     0.0000   288.0000 </r>
       <r>   -15.9428     0.0000   288.0000 </r>
       <r>   -15.6839     0.0000   288.0000 </r>
       <r>   -15.4251     0.0000   288.0000 </r>
       <r>   -15.1663     0.0000   288.0000 </r>
       <r>   -14.9074     0.0000   288.0000 </r>
       <r>   -14.6486     0.0000   288.0000 </r>
       <r>   -14.3898     0.0137   288.0035 </r>
       <r>   -14.1309     1.0584   288.2775 </r>
       <r>   -13.8721     4.8990   289.5455 </r>
       <r>   -13.6133     2.6375   290.2282 </r>
       <r>   -13.3544     9.1018   292.5840 </r>
       <r>   -13.0956    22.3692   298.3739 </r>
       <r>   -12.8368    26.0534   305.1174 </r>
       <r>   -12.5779    34.8220   314.1304 </r>
       <r>   -12.3191    29.7840   321.8395 </r>
       <r>   -12.0603    49.5748   334.6710 </r>
       <r>   -11.8014    57.2739   349.4953 </r>
       <r>   -11.5426    32.7507   357.9722 </r>
       <r>   -11.2838    16.9958   362.3713 </r>
       <r>   -11.0249    18.1141   367.0598 </r>
       <r>   -10.7661    26.3088   373.8694 </r>
       <r>   -10.5073    22.0847   379.5856 </r>
       <r>   -10.2485     9.3131   381.9961 </r>
       <r>    -9.9896     7.2155   383.8637 </r>
       <r>    -9.7308     0.5245   383.9995 </r>
       <r>    -9.4720     0.0020   384.0000 </r>
       <r>    -9.2131     0.0000   384.0000 </r>
       <r>    -8.9543     0.0000   384.0000 </r>
       <r>    -8.6955     0.0000   384.0000 </r>
       <r>    -8.4366     0.0000   384.0000 </r>
       <r>    -8.1778     0.0000   384.0000 </r>
       <r>    -7.9190     0.0000   384.0000 </r>
       <r>    -7.6601     0.0000   384.0000 </r>
       <r>    -7.4013     0.0000   384.0000 </r>
       <r>    -7.1425     0.0000   384.0000 </r>
       <r>    -6.8836     0.0000   384.0000 </r>
       <r>    -6.6248     0.0000   384.0000 </r>
       <r>    -6.3660     0.0002   384.0001 </r>
       <r>    -6.1071     0.2080   384.0539 </r>
       <r>    -5.8483     9.3944   386.4855 </r>
       <r>    -5.5895    29.4816   394.1162 </r>
       <r>    -5.3306    17.3800   398.6147 </r>
       <r>    -5.0718    29.4862   406.2467 </r>
       <r>    -4.8130    48.4339   418.7829 </r>
       <r>    -4.5541    61.9889   434.8276 </r>
       <r>    -4.2953    64.6320   451.5564 </r>
       <r>    -4.0365    33.4857   460.2236 </r>
       <r>    -3.7777    48.8936   472.8788 </r>
       <r>    -3.5188    67.1155   490.2505 </r>
       <r>    -3.2600    70.8681   508.5934 </r>
       <r>    -3.0012    90.0426   531.8993 </r>
       <r>    -2.7423    86.3509   554.2496 </r>
       <r>    -2.4835    91.4526   577.9205 </r>
       <r>    -2.2247   102.4947   604.4494 </r>
       <r>    -1.9658    57.8486   619.4224 </r>
       <r>    -1.7070    53.4626   633.2602 </r>
       <r>    -1.4482    70.0916   651.4022 </r>
       <r>    -1.1893    88.5348   674.3178 </r>
       <r>    -0.9305   104.4747   701.3592 </r>
       <r>    -0.6717   136.0396   736.5706 </r>
       <r>    -0.4128   165.7340   779.4678 </r>
       <r>    -0.1540   202.6287   831.9146 </r>
       <r>     0.1048   227.7415   890.8614 </r>
       <r>     0.3637   207.1358   944.4747 </r>
       <r>     0.6225   148.6685   982.9549 </r>
       <r>     0.8813   110.5158  1011.5599 </r>
       <r>     1.1402    80.7888  1032.4706 </r>
       <r>     1.3990    70.2973  1050.6658 </r>
       <r>     1.6578    68.6787  1068.4420 </r>
       <r>     1.9166    64.6548  1085.1767 </r>
       <r>     2.1755    77.7189  1105.2929 </r>
       <r>     2.4343    75.3038  1124.7839 </r>
       <r>     2.6931    72.1110  1143.4485 </r>
       <r>     2.9520    29.9801  1151.2083 </r>
       <r>     3.2108     4.0594  1152.2590 </r>
       <r>     3.4696     6.3358  1153.8989 </r>
       <r>     3.7285     6.7468  1155.6452 </r>
       <r>     3.9873     1.3666  1155.9989 </r>
       <r>     4.2461     2.0131  1156.5200 </r>
       <r>     4.5050    16.3743  1160.7582 </r>
       <r>     4.7638    15.6708  1164.8143 </r>
       <r>     5.0226    15.1753  1168.7421 </r>
       <r>     5.2815    17.9066  1173.3769 </r>
       <r>     5.5403    20.6609  1178.7246 </r>
       <r>     5.7991    25.1650  1185.2382 </r>
       <r>     6.0580    27.3147  1192.3081 </r>
       <r>     6.3168    39.2062  1202.4559 </r>
       <r>     6.5756    32.1172  1210.7688 </r>
       <r>     6.8345    37.2663  1220.4145 </r>
       <r>     7.0933    44.5336  1231.9412 </r>
       <r>     7.3521    47.5506  1244.2488 </r>
       <r>     7.6109    50.3602  1257.2837 </r>
       <r>     7.8698    58.1082  1272.3239 </r>
       <r>     8.1286    27.4502  1279.4289 </r>
       <r>     8.3874     2.1902  1279.9958 </r>
       <r>     8.6463     0.0162  1280.0000 </r>
       <r>     8.9051     0.0000  1280.0000 </r>
       <r>     9.1639     0.0000  1280.0000 </r>
       <r>     9.4228     0.0000  1280.0000 </r>
       <r>     9.6816     0.0000  1280.0000 </r>
       <r>     9.9404     0.0000  1280.0000 </r>
       <r>    10.1993     0.0000  1280.0000 </r>
       <r>    10.4581     0.0000  1280.0000 </r>
       <r>    10.7169     0.0000  1280.0000 </r>
       <r>    10.9758     0.0000  1280.0000 </r>
       <r>    11.2346     0.0000  1280.0000 </r>
       <r>    11.4934     0.0000  1280.0000 </r>
      </set>
     </set>
    </array>
   </total>
  </dos>
 </calculation>
 <structure name="finalpos" >
  <crystal>
   <varray name="basis" >
    <v>      10.06282034       5.04456212       0.00000000 </v>
    <v>       0.00000000      11.25646304       0.00000000 </v>
    <v>       0.00000000       0.00000000      21.74423184 </v>
   </varray>
   <i name="volume">   2463.00752351 </i>
   <varray name="rec_basis" >
    <v>       0.09937572       0.00000000       0.00000000 </v>
    <v>      -0.04453504       0.08883785       0.00000000 </v>
    <v>       0.00000000       0.00000000       0.04598921 </v>
   </varray>
  </crystal>
  <varray name="positions" >
   <v>       0.26092070       0.47878036       0.25332799 </v>
   <v>       0.35488056       0.38482049       0.38835497 </v>
   <v>       0.44884043       0.29086063       0.52338195 </v>
   <v>       0.16696083       0.07274024       0.11830101 </v>
   <v>       0.05611868       0.05147940       0.48770701 </v>
   <v>       0.27423907       0.33335899       0.08262607 </v>
   <v>       0.36819893       0.23939913       0.21765305 </v>
   <v>       0.46215880       0.14543926       0.35268003 </v>
   <v>       0.00030194       0.37150212       0.21765305 </v>
   <v>       0.09426181       0.27754226       0.35268003 </v>
   <v>       0.18822168       0.18358239       0.48770701 </v>
   <v>       0.40634206       0.46546199       0.08262607 </v>
   <v>       0.76092070       0.47878036       0.25332799 </v>
   <v>       0.85488056       0.38482049       0.38835497 </v>
   <v>       0.94884043       0.29086063       0.52338195 </v>
   <v>       0.66696083       0.07274024       0.11830101 </v>
   <v>       0.55611868       0.05147940       0.48770701 </v>
   <v>       0.77423907       0.33335899       0.08262607 </v>
   <v>       0.86819893       0.23939913       0.21765305 </v>
   <v>       0.96215880       0.14543926       0.35268003 </v>
   <v>       0.50030194       0.37150212       0.21765305 </v>
   <v>       0.59426181       0.27754226       0.35268003 </v>
   <v>       0.68822168       0.18358239       0.48770701 </v>
   <v>       0.90634206       0.46546199       0.08262607 </v>
   <v>       0.26092070       0.97878036       0.25332799 </v>
   <v>       0.35488056       0.88482049       0.38835497 </v>
   <v>       0.44884043       0.79086063       0.52338195 </v>
   <v>       0.16696083       0.57274024       0.11830101 </v>
   <v>       0.05611868       0.55147940       0.48770701 </v>
   <v>       0.27423907       0.83335899       0.08262607 </v>
   <v>       0.36819893       0.73939913       0.21765305 </v>
   <v>       0.46215880       0.64543926       0.35268003 </v>
   <v>       0.00030194       0.87150212       0.21765305 </v>
   <v>       0.09426181       0.77754226       0.35268003 </v>
   <v>       0.18822168       0.68358239       0.48770701 </v>
   <v>       0.40634206       0.96546199       0.08262607 </v>
   <v>       0.76092070       0.97878036       0.25332799 </v>
   <v>       0.85488056       0.88482049       0.38835497 </v>
   <v>       0.94884043       0.79086063       0.52338195 </v>
   <v>       0.66696083       0.57274024       0.11830101 </v>
   <v>       0.55611868       0.55147940       0.48770701 </v>
   <v>       0.77423907       0.83335899       0.08262607 </v>
   <v>       0.86819893       0.73939913       0.21765305 </v>
   <v>       0.96215880       0.64543926       0.35268003 </v>
   <v>       0.50030194       0.87150212       0.21765305 </v>
   <v>       0.59426181       0.77754226       0.35268003 </v>
   <v>       0.68822168       0.68358239       0.48770701 </v>
   <v>       0.90634206       0.96546199       0.08262607 </v>
   <v>       0.07287763       0.16682343       0.27005396 </v>
   <v>       0.16683750       0.07286357       0.40508094 </v>
   <v>       0.47891775       0.26078330       0.13502698 </v>
   <v>       0.26079737       0.47890369       0.54010792 </v>
   <v>       0.03023342       0.37768264       0.45050807 </v>
   <v>       0.43627354       0.47164251       0.31548109 </v>
   <v>       0.24835381       0.15956225       0.04542713 </v>
   <v>       0.34231368       0.06560239       0.18045411 </v>
   <v>       0.08013882       0.49134725       0.04542713 </v>
   <v>       0.17409868       0.39738738       0.18045411 </v>
   <v>       0.26805855       0.30342751       0.31548109 </v>
   <v>       0.36201842       0.20946764       0.45050807 </v>
   <v>       0.57287763       0.16682343       0.27005396 </v>
   <v>       0.66683750       0.07286357       0.40508094 </v>
   <v>       0.88495789       0.35474317       0.00000000 </v>
   <v>       0.97891775       0.26078330       0.13502698 </v>
   <v>       0.76079737       0.47890369       0.54010792 </v>
   <v>       0.53023342       0.37768264       0.45050807 </v>
   <v>       0.93627354       0.47164251       0.31548109 </v>
   <v>       0.84231368       0.06560239       0.18045411 </v>
   <v>       0.58013882       0.49134725       0.04542713 </v>
   <v>       0.67409868       0.39738738       0.18045411 </v>
   <v>       0.76805855       0.30342751       0.31548109 </v>
   <v>       0.86201842       0.20946764       0.45050807 </v>
   <v>       0.07287763       0.66682343       0.27005396 </v>
   <v>       0.16683750       0.57286357       0.40508094 </v>
   <v>       0.47891775       0.76078330       0.13502698 </v>
   <v>       0.26079737       0.97890369       0.54010792 </v>
   <v>       0.03023342       0.87768264       0.45050807 </v>
   <v>       0.43627354       0.97164251       0.31548109 </v>
   <v>       0.24835381       0.65956225       0.04542713 </v>
   <v>       0.34231368       0.56560239       0.18045411 </v>
   <v>       0.08013882       0.99134725       0.04542713 </v>
   <v>       0.17409868       0.89738738       0.18045411 </v>
   <v>       0.26805855       0.80342751       0.31548109 </v>
   <v>       0.36201842       0.70946764       0.45050807 </v>
   <v>       0.57287763       0.66682343       0.27005396 </v>
   <v>       0.66683750       0.57286357       0.40508094 </v>
   <v>       0.88495789       0.85474317       0.00000000 </v>
   <v>       0.97891775       0.76078330       0.13502698 </v>
   <v>       0.76079737       0.97890369       0.54010792 </v>
   <v>       0.53023342       0.87768264       0.45050807 </v>
   <v>       0.93627354       0.97164251       0.31548109 </v>
   <v>       0.84231368       0.56560239       0.18045411 </v>
   <v>       0.58013882       0.99134725       0.04542713 </v>
   <v>       0.67409868       0.89738738       0.18045411 </v>
   <v>       0.76805855       0.80342751       0.31548109 </v>
   <v>       0.86201842       0.70946764       0.45050807 </v>
  </varray>
 </structure>
</modeling>
