<?xml version="1.0" encoding="ISO-8859-1"?>
<modeling>
 <generator>
  <i name="program" type="string">vasp </i>
  <i name="version" type="string">5.4.4.18Apr17-6-g9f103f2a35  </i>
  <i name="subversion" type="string">(build Aug 13 2019 17:33:20) gamma-only         parallel </i>
  <i name="platform" type="string">LinuxIFC </i>
  <i name="date" type="string">2020 05 12 </i>
  <i name="time" type="string">23:23:09 </i>
 </generator>
 <incar>
  <i type="string" name="SYSTEM">"Millerite NiS"</i>
  <i type="string" name="PREC">normal</i>
  <i type="int" name="NSIM">     4</i>
  <i type="int" name="NELM">   100</i>
  <i name="ENCUT">    450.00000000</i>
  <i type="string" name="LREAL">A</i>
  <i type="int" name="ISMEAR">     0</i>
  <i type="int" name="NWRITE">     2</i>
  <i type="logical" name="LWAVE"> F  </i>
  <i type="logical" name="LCHARG"> F  </i>
  <v type="int" name="KPOINT_BSE">    -1     0     0     0</v>
  <i type="int" name="NELM">   100</i>
 </incar>
 <structure name="primitive_cell" >
  <crystal>
   <varray name="basis" >
    <v>      10.07973298       0.00000000       0.00000000 </v>
    <v>       3.57329804       9.42510255       0.00000000 </v>
    <v>       0.00000000       0.00000000      20.68350356 </v>
   </varray>
   <i name="volume">   1964.98490008 </i>
   <varray name="rec_basis" >
    <v>       0.09920898      -0.03761267       0.00000000 </v>
    <v>       0.00000000       0.10609964       0.00000000 </v>
    <v>       0.00000000       0.00000000       0.04834771 </v>
   </varray>
  </crystal>
  <varray name="positions" >
   <v>       0.39705889      -0.20504821       0.11816221 </v>
   <v>       0.48547218      -0.21743776       0.02808426 </v>
   <v>       0.21354282      -0.24125825       0.08856556 </v>
   <v>       0.30255546       0.02257655       0.15078409 </v>
   <v>      -0.36364587      -0.30812545       0.15117717 </v>
   <v>       0.35047896      -0.35868028       0.19388260 </v>
   <v>      -0.41669994      -0.11637103       0.08816338 </v>
   <v>      -0.40834143      -0.40595646       0.07160787 </v>
   <v>       0.36438994      -0.44722092       0.10398942 </v>
   <v>      -0.45267260      -0.35531672       0.24509923 </v>
   <v>       0.46236127       0.07692475       0.04714590 </v>
   <v>       0.45282397      -0.12769196       0.27772112 </v>
   <v>      -0.41420071       0.40599939       0.10847175 </v>
   <v>       0.44888589       0.07645813       0.22033653 </v>
   <v>       0.01537355      -0.15669620       0.13571184 </v>
   <v>       0.22438173       0.03675628       0.25387405 </v>
   <v>       0.06986647      -0.07497112       0.23580185 </v>
   <v>      -0.36627721       0.02474256       0.15157025 </v>
   <v>      -0.26787028       0.45988096       0.17802418 </v>
   <v>      -0.49237444       0.42017912       0.21156171 </v>
   <v>       0.07411322       0.18702480       0.12693702 </v>
   <v>       0.29861738       0.22672664       0.09339950 </v>
   <v>      -0.20913061      -0.19639804       0.16924937 </v>
   <v>       0.16564206      -0.30696471       0.26264887 </v>
   <v>       0.22907824       0.44362535       0.08350185 </v>
   <v>      -0.08040204       0.07529739       0.10886483 </v>
   <v>       0.11249739       0.23413658       0.03682761 </v>
   <v>       0.01931163      -0.36084629       0.19309643 </v>
   <v>      -0.11715486      -0.22734817       0.07881742 </v>
   <v>      -0.22284429      -0.01587389       0.07615801 </v>
   <v>      -0.49925253       0.49105121       0.32081962 </v>
   <v>      -0.21337736      -0.45839396       0.27811420 </v>
   <v>       0.35311030       0.30845172       0.19348951 </v>
   <v>       0.06723513       0.25789688       0.23619494 </v>
   <v>      -0.07904814       0.39800215       0.12322590 </v>
   <v>      -0.21600870      -0.12552596       0.27850728 </v>
   <v>       0.22013498      -0.22523963       0.36273888 </v>
   <v>       0.37465024      -0.11351223       0.38081107 </v>
   <v>      -0.40084560      -0.07381039       0.34727355 </v>
   <v>      -0.28314531       0.21456282       0.13503661 </v>
   <v>       0.11381506       0.41152895       0.16047455 </v>
   <v>      -0.16942877       0.02810612       0.20278689 </v>
   <v>       0.26408357       0.26126044       0.28741157 </v>
   <v>      -0.10614750       0.26420168       0.05304987 </v>
   <v>      -0.26393220       0.25573088       0.23540877 </v>
   <v>       0.15454156       0.49415222       0.29659803 </v>
   <v>       0.21750365       0.10762837       0.36313196 </v>
   <v>      -0.49662119       0.15818320       0.32042654 </v>
   <v>      -0.01916026      -0.12216240       0.32972391 </v>
   <v>      -0.39690751      -0.27796047       0.40465814 </v>
   <v>      -0.30240408       0.49441477       0.37203626 </v>
   <v>      -0.05886210      -0.34666655       0.29618639 </v>
   <v>       0.20047739      -0.42419290       0.38357054 </v>
   <v>      -0.11760177       0.30961245       0.30496121 </v>
   <v>      -0.34210593       0.26991061       0.33849873 </v>
   <v>       0.45090180       0.47555486       0.41766890 </v>
   <v>       0.41435209       0.11099193       0.41434860 </v>
   <v>      -0.11366368       0.10546237       0.36234580 </v>
   <v>       0.43336095      -0.27757654       0.46494179 </v>
   <v>      -0.02027795      -0.28946674       0.39311068 </v>
   <v>      -0.22880880      -0.20147346       0.42238560 </v>
   <v>       0.10252830      -0.18969167       0.44592118 </v>
   <v>       0.03137888       0.15412248       0.41670643 </v>
   <v>       0.39269161      -0.05696889       0.47263998 </v>
   <v>      -0.36379341       0.00789486       0.43583175 </v>
   <v>       0.32627966       0.34932649       0.40594843 </v>
   <v>       0.28468283      -0.37335670       0.47152064 </v>
   <v>      -0.08305530       0.37711006       0.39565747 </v>
   <v>      -0.34898401       0.34078269       0.44775664 </v>
   <v>      -0.01312068       0.01508749       0.48045566 </v>
   <v>      -0.22111889       0.11757220       0.44713625 </v>
   <v>      -0.15537794       0.32219083       0.47828538 </v>
  </varray>
 </structure>
 <varray name="primitive_index" >
  <v type="int" >        1 </v>
  <v type="int" >       49 </v>
  <v type="int" >       61 </v>
  <v type="int" >       42 </v>
  <v type="int" >       50 </v>
  <v type="int" >       62 </v>
  <v type="int" >       21 </v>
  <v type="int" >       25 </v>
  <v type="int" >       12 </v>
  <v type="int" >        2 </v>
  <v type="int" >       69 </v>
  <v type="int" >       43 </v>
  <v type="int" >       38 </v>
  <v type="int" >       29 </v>
  <v type="int" >       32 </v>
  <v type="int" >       17 </v>
  <v type="int" >       57 </v>
  <v type="int" >       70 </v>
  <v type="int" >       26 </v>
  <v type="int" >       13 </v>
  <v type="int" >       16 </v>
  <v type="int" >       28 </v>
  <v type="int" >       22 </v>
  <v type="int" >       33 </v>
  <v type="int" >       53 </v>
  <v type="int" >       60 </v>
  <v type="int" >       41 </v>
  <v type="int" >       45 </v>
  <v type="int" >       48 </v>
  <v type="int" >       36 </v>
  <v type="int" >       63 </v>
  <v type="int" >       51 </v>
  <v type="int" >       54 </v>
  <v type="int" >       65 </v>
  <v type="int" >       68 </v>
  <v type="int" >       71 </v>
  <v type="int" >       58 </v>
  <v type="int" >       18 </v>
  <v type="int" >       30 </v>
  <v type="int" >        9 </v>
  <v type="int" >        5 </v>
  <v type="int" >       10 </v>
  <v type="int" >        6 </v>
  <v type="int" >       20 </v>
  <v type="int" >       39 </v>
  <v type="int" >       46 </v>
  <v type="int" >       66 </v>
  <v type="int" >       55 </v>
  <v type="int" >       11 </v>
  <v type="int" >       44 </v>
  <v type="int" >        3 </v>
  <v type="int" >       23 </v>
  <v type="int" >       34 </v>
  <v type="int" >       27 </v>
  <v type="int" >       14 </v>
  <v type="int" >       35 </v>
  <v type="int" >        7 </v>
  <v type="int" >       40 </v>
  <v type="int" >       19 </v>
  <v type="int" >       72 </v>
  <v type="int" >       31 </v>
  <v type="int" >        8 </v>
  <v type="int" >       24 </v>
  <v type="int" >       67 </v>
  <v type="int" >       56 </v>
  <v type="int" >       47 </v>
  <v type="int" >       59 </v>
  <v type="int" >       52 </v>
  <v type="int" >       64 </v>
  <v type="int" >       37 </v>
  <v type="int" >       15 </v>
  <v type="int" >        4 </v>
 </varray>
 <kpoints>
  <generation param="Gamma">
   <v type="int" name="divisions">       1        1        1 </v>
   <v name="usershift">      0.00000000       0.00000000       0.00000000 </v>
   <v name="genvec1">      1.00000000      -0.00000000       0.00000000 </v>
   <v name="genvec2">      0.00000000       1.00000000       0.00000000 </v>
   <v name="genvec3">      0.00000000       0.00000000       1.00000000 </v>
   <v name="shift">      0.00000000       0.00000000       0.00000000 </v>
  </generation>
  <varray name="kpointlist" >
   <v>       0.00000000       0.00000000       0.00000000 </v>
  </varray>
  <varray name="weights" >
   <v>       1.00000000 </v>
  </varray>
 </kpoints>
 <parameters>
  <separator name="general" >
   <i type="string" name="SYSTEM">"Millerite NiS"</i>
   <i type="logical" name="LCOMPAT"> F  </i>
  </separator>
  <separator name="electronic" >
   <i type="string" name="PREC">normal</i>
   <i name="ENMAX">    450.00000000</i>
   <i name="ENAUG">    703.44300000</i>
   <i name="EDIFF">      0.00010000</i>
   <i type="int" name="IALGO">    38</i>
   <i type="int" name="IWAVPR">    10</i>
   <i type="int" name="NBANDS">   476</i>
   <i name="NELECT">    792.00000000</i>
   <i type="int" name="TURBO">     0</i>
   <i type="int" name="IRESTART">     0</i>
   <i type="int" name="NREBOOT">     0</i>
   <i type="int" name="NMIN">     0</i>
   <i name="EREF">      0.00000000</i>
   <separator name="electronic smearing" >
    <i type="int" name="ISMEAR">     0</i>
    <i name="SIGMA">      0.20000000</i>
    <i name="KSPACING">      0.50000000</i>
    <i type="logical" name="KGAMMA"> T  </i>
   </separator>
   <separator name="electronic projectors" >
    <i type="logical" name="LREAL"> T  </i>
    <v name="ROPT">     -0.00050000     -0.00050000</v>
    <i type="int" name="LMAXPAW">  -100</i>
    <i type="int" name="LMAXMIX">     2</i>
    <i type="logical" name="NLSPLINE"> F  </i>
   </separator>
   <separator name="electronic startup" >
    <i type="int" name="ISTART">     0</i>
    <i type="int" name="ICHARG">     2</i>
    <i type="int" name="INIWAV">     1</i>
   </separator>
   <separator name="electronic spin" >
    <i type="int" name="ISPIN">     1</i>
    <i type="logical" name="LNONCOLLINEAR"> F  </i>
    <v name="MAGMOM">      1.00000000      1.00000000      1.00000000      1.00000000      1.00000000      1.00000000      1.00000000      1.00000000      1.00000000      1.00000000      1.00000000      1.00000000      1.00000000      1.00000000      1.00000000      1.00000000      1.00000000      1.00000000      1.00000000      1.00000000
      1.00000000      1.00000000      1.00000000      1.00000000      1.00000000      1.00000000      1.00000000      1.00000000      1.00000000      1.00000000      1.00000000      1.00000000      1.00000000      1.00000000      1.00000000      1.00000000      1.00000000      1.00000000      1.00000000      1.00000000
      1.00000000      1.00000000      1.00000000      1.00000000      1.00000000      1.00000000      1.00000000      1.00000000      1.00000000      1.00000000      1.00000000      1.00000000      1.00000000      1.00000000      1.00000000      1.00000000      1.00000000      1.00000000      1.00000000      1.00000000
      1.00000000      1.00000000      1.00000000      1.00000000      1.00000000      1.00000000      1.00000000      1.00000000      1.00000000      1.00000000      1.00000000      1.00000000</v>
    <i name="NUPDOWN">     -1.00000000</i>
    <i type="logical" name="LSORBIT"> F  </i>
    <v name="SAXIS">      0.00000000      0.00000000      1.00000000</v>
    <i type="logical" name="LSPIRAL"> F  </i>
    <v name="QSPIRAL">      0.00000000      0.00000000      0.00000000</v>
    <i type="logical" name="LZEROZ"> F  </i>
   </separator>
   <separator name="electronic exchange-correlation" >
    <i type="logical" name="LASPH"> F  </i>
    <i type="logical" name="LMETAGGA"> F  </i>
   </separator>
   <separator name="electronic convergence" >
    <i type="int" name="NELM">   100</i>
    <i type="int" name="NELMDL">    -5</i>
    <i type="int" name="NELMIN">     2</i>
    <i name="ENINI">    450.00000000</i>
    <separator name="electronic convergence detail" >
     <i type="logical" name="LDIAG"> T  </i>
     <i type="logical" name="LSUBROT"> F  </i>
     <i name="WEIMIN">      0.00000000</i>
     <i name="EBREAK">      0.00000005</i>
     <i name="DEPER">      0.30000000</i>
     <i type="int" name="NRMM">     4</i>
     <i name="TIME">      0.40000000</i>
    </separator>
   </separator>
   <separator name="electronic mixer" >
    <i name="AMIX">      0.40000000</i>
    <i name="BMIX">      1.00000000</i>
    <i name="AMIN">      0.10000000</i>
    <i name="AMIX_MAG">      1.60000000</i>
    <i name="BMIX_MAG">      1.00000000</i>
    <separator name="electronic mixer details" >
     <i type="int" name="IMIX">     4</i>
     <i type="logical" name="MIXFIRST"> F  </i>
     <i type="int" name="MAXMIX">   -45</i>
     <i name="WC">    100.00000000</i>
     <i type="int" name="INIMIX">     1</i>
     <i type="int" name="MIXPRE">     1</i>
     <i type="int" name="MREMOVE">     5</i>
    </separator>
   </separator>
   <separator name="electronic dipolcorrection" >
    <i type="logical" name="LDIPOL"> F  </i>
    <i type="logical" name="LMONO"> F  </i>
    <i type="int" name="IDIPOL">     0</i>
    <i name="EPSILON">      1.00000000</i>
    <v name="DIPOL">   -100.00000000   -100.00000000   -100.00000000</v>
    <i name="EFIELD">      0.00000000</i>
   </separator>
  </separator>
  <separator name="grids" >
   <i type="int" name="NGX">    54</i>
   <i type="int" name="NGY">    54</i>
   <i type="int" name="NGZ">   108</i>
   <i type="int" name="NGXF">   108</i>
   <i type="int" name="NGYF">   108</i>
   <i type="int" name="NGZF">   216</i>
   <i type="logical" name="ADDGRID"> F  </i>
  </separator>
  <separator name="ionic" >
   <i type="int" name="NSW">     0</i>
   <i type="int" name="IBRION">    -1</i>
   <i type="int" name="MDALGO">     0</i>
   <i type="int" name="ISIF">     2</i>
   <i name="PSTRESS">      0.00000000</i>
   <i name="EDIFFG">      0.00100000</i>
   <i type="int" name="NFREE">     0</i>
   <i name="POTIM">      0.50000000</i>
   <i name="SMASS">     -3.00000000</i>
   <i name="SCALEE">      1.00000000</i>
  </separator>
  <separator name="ionic md" >
   <i name="TEBEG">      0.00010000</i>
   <i name="TEEND">      0.00010000</i>
   <i type="int" name="NBLOCK">     1</i>
   <i type="int" name="KBLOCK">     1</i>
   <i type="int" name="NPACO">   256</i>
   <i name="APACO">     16.00000000</i>
  </separator>
  <separator name="symmetry" >
   <i type="int" name="ISYM">     2</i>
   <i name="SYMPREC">      0.00001000</i>
  </separator>
  <separator name="dos" >
   <i type="int" name="LORBIT">     0</i>
   <v name="RWIGS">     -1.00000000     -1.00000000</v>
   <i type="int" name="NEDOS">   301</i>
   <i name="EMIN">     10.00000000</i>
   <i name="EMAX">    -10.00000000</i>
   <i name="EFERMI">      0.00000000</i>
  </separator>
  <separator name="writing" >
   <i type="int" name="NWRITE">     2</i>
   <i type="logical" name="LWAVE"> F  </i>
   <i type="logical" name="LDOWNSAMPLE"> F  </i>
   <i type="logical" name="LCHARG"> F  </i>
   <i type="logical" name="LPARD"> F  </i>
   <i type="logical" name="LVTOT"> F  </i>
   <i type="logical" name="LVHAR"> F  </i>
   <i type="logical" name="LELF"> F  </i>
   <i type="logical" name="LOPTICS"> F  </i>
   <v name="STM">      0.00000000      0.00000000      0.00000000      0.00000000      0.00000000      0.00000000      0.00000000</v>
  </separator>
  <separator name="performance" >
   <i type="int" name="NPAR">     2</i>
   <i type="int" name="NSIM">     4</i>
   <i type="int" name="NBLK">    -1</i>
   <i type="logical" name="LPLANE"> T  </i>
   <i type="logical" name="LSCALAPACK"> T  </i>
   <i type="logical" name="LSCAAWARE"> F  </i>
   <i type="logical" name="LSCALU"> F  </i>
   <i type="logical" name="LASYNC"> F  </i>
   <i type="logical" name="LORBITALREAL"> F  </i>
  </separator>
  <separator name="miscellaneous" >
   <i type="int" name="IDIOT">     3</i>
   <i type="int" name="ISPECIAL">     0</i>
   <i type="logical" name="LMUSIC"> F  </i>
   <v name="POMASS">     58.69000000     32.06600000</v>
   <v name="DARWINR">      0.00000000      0.00000000</v>
   <v name="DARWINV">      1.00000000      1.00000000</v>
   <i type="logical" name="LCORR"> T  </i>
  </separator>
  <i type="logical" name="GGA_COMPAT"> T  </i>
  <i type="logical" name="LBERRY"> F  </i>
  <i type="int" name="ICORELEVEL">     0</i>
  <i type="logical" name="LDAU"> F  </i>
  <i type="int" name="I_CONSTRAINED_M">     0</i>
  <separator name="electronic exchange-correlation" >
   <i type="string" name="GGA">--</i>
   <i type="int" name="VOSKOWN">     0</i>
   <i type="logical" name="LHFCALC"> F  </i>
   <i type="string" name="PRECFOCK"></i>
   <i type="logical" name="LSYMGRAD"> F  </i>
   <i type="logical" name="LHFONE"> F  </i>
   <i type="logical" name="LRHFCALC"> F  </i>
   <i type="logical" name="LTHOMAS"> F  </i>
   <i type="logical" name="LMODELHF"> F  </i>
   <i name="ENCUT4O">     -1.00000000</i>
   <i type="int" name="EXXOEP">     0</i>
   <i type="int" name="FOURORBIT">     0</i>
   <i name="AEXX">      0.00000000</i>
   <i name="HFALPHA">      0.00000000</i>
   <i name="MCALPHA">      0.00000000</i>
   <i name="ALDAX">      1.00000000</i>
   <i name="AGGAX">      1.00000000</i>
   <i name="ALDAC">      1.00000000</i>
   <i name="AGGAC">      1.00000000</i>
   <i type="int" name="NKREDX">     1</i>
   <i type="int" name="NKREDY">     1</i>
   <i type="int" name="NKREDZ">     1</i>
   <i type="logical" name="SHIFTRED"> F  </i>
   <i type="logical" name="ODDONLY"> F  </i>
   <i type="logical" name="EVENONLY"> F  </i>
   <i type="int" name="LMAXFOCK">     0</i>
   <i type="int" name="NMAXFOCKAE">     0</i>
   <i type="logical" name="LFOCKAEDFT"> F  </i>
   <i name="HFSCREEN">      0.00000000</i>
   <i name="HFSCREENC">      0.00000000</i>
   <i type="int" name="NBANDSGWLOW">     0</i>
  </separator>
  <separator name="vdW DFT" >
   <i type="logical" name="LUSE_VDW"> F  </i>
   <i name="Zab_VDW">     -0.84910000</i>
   <i name="PARAM1">      0.12340000</i>
   <i name="PARAM2">      1.00000000</i>
   <i name="PARAM3">      0.00000000</i>
  </separator>
  <separator name="model GW" >
   <i type="int" name="MODEL_GW">     0</i>
   <i name="MODEL_EPS0">     16.37487417</i>
   <i name="MODEL_ALPHA">      1.00000000</i>
  </separator>
  <separator name="linear response parameters" >
   <i type="logical" name="LEPSILON"> F  </i>
   <i type="logical" name="LRPA"> F  </i>
   <i type="logical" name="LNABLA"> F  </i>
   <i type="logical" name="LVEL"> F  </i>
   <i type="int" name="KINTER">     0</i>
   <i name="CSHIFT">      0.10000000</i>
   <i name="OMEGAMAX">     -1.00000000</i>
   <i name="DEG_THRESHOLD">      0.00200000</i>
   <i name="RTIME">     -0.10000000</i>
   <i name="WPLASMAI">      0.00000000</i>
   <v name="DFIELD">      0.00000000      0.00000000      0.00000000</v>
   <v name="WPLASMA">      0.00000000      0.00000000      0.00000000      0.00000000      0.00000000      0.00000000      0.00000000      0.00000000      0.00000000</v>
  </separator>
  <separator name="orbital magnetization" >
   <i type="logical" name="NUCIND"> F  </i>
   <v name="MAGPOS">      0.00000000      0.00000000      0.00000000</v>
   <i type="logical" name="LNICSALL"> T  </i>
   <i type="logical" name="ORBITALMAG"> F  </i>
   <i type="logical" name="LMAGBLOCH"> F  </i>
   <i type="logical" name="LCHIMAG"> F  </i>
   <i type="logical" name="LGAUGE"> T  </i>
   <i type="int" name="MAGATOM">     0</i>
   <v name="MAGDIPOL">      0.00000000      0.00000000      0.00000000</v>
   <v name="AVECCONST">      0.00000000      0.00000000      0.00000000</v>
  </separator>
  <separator name="response functions" >
   <i type="logical" name="LADDER"> F  </i>
   <i type="logical" name="LRPAFORCE"> F  </i>
   <i type="logical" name="LFXC"> F  </i>
   <i type="logical" name="LHARTREE"> T  </i>
   <i type="int" name="IBSE">     0</i>
   <v type="int" name="KPOINT">    -1     0     0     0</v>
   <i type="logical" name="LTCTE"> F  </i>
   <i type="logical" name="LTETE"> F  </i>
   <i type="logical" name="LTRIPLET"> F  </i>
   <i type="logical" name="LFXCEPS"> F  </i>
   <i type="logical" name="LFXHEG"> F  </i>
   <i type="int" name="NATURALO">     2</i>
   <i type="logical" name="L2ORDER"> F  </i>
   <i type="logical" name="LMP2LT"> F  </i>
   <i type="logical" name="LUSEW"> F  </i>
   <i name="ENCUTGW">     -2.00000000</i>
   <i name="ENCUTGWSOFT">     -2.00000000</i>
   <i name="ENCUTLF">     -1.00000000</i>
   <i type="int" name="LMAXMP2">    -1</i>
   <i name="SCISSOR">      0.00000000</i>
   <i type="int" name="NOMEGA">     0</i>
   <i type="int" name="NOMEGAR">     0</i>
   <i type="int" name="NBANDSGW">    -1</i>
   <i type="int" name="NBANDSO">    -1</i>
   <i type="int" name="NBANDSV">    -1</i>
   <i type="int" name="NELM">   100</i>
   <i type="int" name="NELMHF">     1</i>
   <i type="int" name="DIM">     3</i>
   <i type="int" name="ANTIRES">     0</i>
   <i name="OMEGAMAX">    -30.00000000</i>
   <i name="OMEGAMIN">    -30.00000000</i>
   <i name="OMEGATL">   -200.00000000</i>
   <i type="int" name="OMEGAGRID">   140</i>
   <i name="CSHIFT">     -0.10000000</i>
   <i type="logical" name="SELFENERGY"> F  </i>
   <i type="logical" name="LSPECTRAL"> F  </i>
   <i type="logical" name="LSPECTRALGW"> F  </i>
   <i type="logical" name="LSINGLES"> F  </i>
   <i type="logical" name="LFERMIGW"> F  </i>
   <i type="logical" name="ODDONLYGW"> F  </i>
   <i type="logical" name="EVENONLYGW"> F  </i>
   <i type="int" name="NKREDLFX">     1</i>
   <i type="int" name="NKREDLFY">     1</i>
   <i type="int" name="NKREDLFZ">     1</i>
   <i type="int" name="MAXMEM">  2800</i>
   <i type="int" name="TELESCOPE">     0</i>
   <i type="int" name="TAUPAR">     1</i>
   <i type="int" name="OMEGAPAR">    -1</i>
   <i name="LAMBDA">      1.00000000</i>
  </separator>
  <separator name="External order field" >
   <i name="OFIELD_KAPPA">      0.00000000</i>
   <v name="OFIELD_K">      0.00000000      0.00000000      0.00000000</v>
   <i name="OFIELD_Q6_NEAR">      0.00000000</i>
   <i name="OFIELD_Q6_FAR">      0.00000000</i>
   <i name="OFIELD_A">      0.00000000</i>
  </separator>
 </parameters>
 <atominfo>
  <atoms>      72 </atoms>
  <types>       2 </types>
  <array name="atoms" >
   <dimension dim="1">ion</dimension>
   <field type="string">element</field>
   <field type="int">atomtype</field>
   <set>
    <rc><c>Ni</c><c>   1</c></rc>
    <rc><c>Ni</c><c>   1</c></rc>
    <rc><c>Ni</c><c>   1</c></rc>
    <rc><c>Ni</c><c>   1</c></rc>
    <rc><c>Ni</c><c>   1</c></rc>
    <rc><c>Ni</c><c>   1</c></rc>
    <rc><c>Ni</c><c>   1</c></rc>
    <rc><c>Ni</c><c>   1</c></rc>
    <rc><c>Ni</c><c>   1</c></rc>
    <rc><c>Ni</c><c>   1</c></rc>
    <rc><c>Ni</c><c>   1</c></rc>
    <rc><c>Ni</c><c>   1</c></rc>
    <rc><c>Ni</c><c>   1</c></rc>
    <rc><c>Ni</c><c>   1</c></rc>
    <rc><c>Ni</c><c>   1</c></rc>
    <rc><c>Ni</c><c>   1</c></rc>
    <rc><c>Ni</c><c>   1</c></rc>
    <rc><c>Ni</c><c>   1</c></rc>
    <rc><c>Ni</c><c>   1</c></rc>
    <rc><c>Ni</c><c>   1</c></rc>
    <rc><c>Ni</c><c>   1</c></rc>
    <rc><c>Ni</c><c>   1</c></rc>
    <rc><c>Ni</c><c>   1</c></rc>
    <rc><c>Ni</c><c>   1</c></rc>
    <rc><c>Ni</c><c>   1</c></rc>
    <rc><c>Ni</c><c>   1</c></rc>
    <rc><c>Ni</c><c>   1</c></rc>
    <rc><c>Ni</c><c>   1</c></rc>
    <rc><c>Ni</c><c>   1</c></rc>
    <rc><c>Ni</c><c>   1</c></rc>
    <rc><c>Ni</c><c>   1</c></rc>
    <rc><c>Ni</c><c>   1</c></rc>
    <rc><c>Ni</c><c>   1</c></rc>
    <rc><c>Ni</c><c>   1</c></rc>
    <rc><c>Ni</c><c>   1</c></rc>
    <rc><c>Ni</c><c>   1</c></rc>
    <rc><c>S </c><c>   2</c></rc>
    <rc><c>S </c><c>   2</c></rc>
    <rc><c>S </c><c>   2</c></rc>
    <rc><c>S </c><c>   2</c></rc>
    <rc><c>S </c><c>   2</c></rc>
    <rc><c>S </c><c>   2</c></rc>
    <rc><c>S </c><c>   2</c></rc>
    <rc><c>S </c><c>   2</c></rc>
    <rc><c>S </c><c>   2</c></rc>
    <rc><c>S </c><c>   2</c></rc>
    <rc><c>S </c><c>   2</c></rc>
    <rc><c>S </c><c>   2</c></rc>
    <rc><c>S </c><c>   2</c></rc>
    <rc><c>S </c><c>   2</c></rc>
    <rc><c>S </c><c>   2</c></rc>
    <rc><c>S </c><c>   2</c></rc>
    <rc><c>S </c><c>   2</c></rc>
    <rc><c>S </c><c>   2</c></rc>
    <rc><c>S </c><c>   2</c></rc>
    <rc><c>S </c><c>   2</c></rc>
    <rc><c>S </c><c>   2</c></rc>
    <rc><c>S </c><c>   2</c></rc>
    <rc><c>S </c><c>   2</c></rc>
    <rc><c>S </c><c>   2</c></rc>
    <rc><c>S </c><c>   2</c></rc>
    <rc><c>S </c><c>   2</c></rc>
    <rc><c>S </c><c>   2</c></rc>
    <rc><c>S </c><c>   2</c></rc>
    <rc><c>S </c><c>   2</c></rc>
    <rc><c>S </c><c>   2</c></rc>
    <rc><c>S </c><c>   2</c></rc>
    <rc><c>S </c><c>   2</c></rc>
    <rc><c>S </c><c>   2</c></rc>
    <rc><c>S </c><c>   2</c></rc>
    <rc><c>S </c><c>   2</c></rc>
    <rc><c>S </c><c>   2</c></rc>
   </set>
  </array>
  <array name="atomtypes" >
   <dimension dim="1">type</dimension>
   <field type="int">atomspertype</field>
   <field type="string">element</field>
   <field>mass</field>
   <field>valence</field>
   <field type="string">pseudopotential</field>
   <set>
    <rc><c>  36</c><c>Ni</c><c>     58.69000000</c><c>     16.00000000</c><c>  PAW_PBE Ni_pv 06Sep2000               </c></rc>
    <rc><c>  36</c><c>S </c><c>     32.06600000</c><c>      6.00000000</c><c>  PAW_PBE S 06Sep2000                   </c></rc>
   </set>
  </array>
 </atominfo>
 <structure name="initialpos" >
  <crystal>
   <varray name="basis" >
    <v>      10.07973298       0.00000000       0.00000000 </v>
    <v>       3.57329804       9.42510255       0.00000000 </v>
    <v>       0.00000000       0.00000000      20.68350356 </v>
   </varray>
   <i name="volume">   1964.98490008 </i>
   <varray name="rec_basis" >
    <v>       0.09920898      -0.03761267       0.00000000 </v>
    <v>       0.00000000       0.10609964       0.00000000 </v>
    <v>       0.00000000       0.00000000       0.04834771 </v>
   </varray>
  </crystal>
  <varray name="positions" >
   <v>       0.39705889       0.79495179       0.11816221 </v>
   <v>       0.54732740       0.64468328       0.24509923 </v>
   <v>       0.69759592       0.49441477       0.37203626 </v>
   <v>       0.84462206       0.32219083       0.47828538 </v>
   <v>       0.11381506       0.41152895       0.16047455 </v>
   <v>       0.26408357       0.26126044       0.28741157 </v>
   <v>       0.41435209       0.11099193       0.41434860 </v>
   <v>       0.10252830       0.81030833       0.44592118 </v>
   <v>       0.71685469       0.21456282       0.13503661 </v>
   <v>       0.83057123       0.02810612       0.20278689 </v>
   <v>       0.98083974       0.87783760       0.32972391 </v>
   <v>       0.36438994       0.55277908       0.10398942 </v>
   <v>       0.50762556       0.42017912       0.21156171 </v>
   <v>       0.65789407       0.26991061       0.33849873 </v>
   <v>       0.77888111       0.11757220       0.44713625 </v>
   <v>       0.07411322       0.18702480       0.12693702 </v>
   <v>       0.22438173       0.03675628       0.25387405 </v>
   <v>       0.37465024       0.88648777       0.38081107 </v>
   <v>       0.43336095       0.72242346       0.46494179 </v>
   <v>       0.89385250       0.26420168       0.05304987 </v>
   <v>       0.58330006       0.88362897       0.08816338 </v>
   <v>       0.79086939       0.80360196       0.16924937 </v>
   <v>       0.94113790       0.65333345       0.29618639 </v>
   <v>       0.03137888       0.15412248       0.41670643 </v>
   <v>       0.59165857       0.59404354       0.07160787 </v>
   <v>       0.73212972       0.45988096       0.17802418 </v>
   <v>       0.88239823       0.30961245       0.30496121 </v>
   <v>       0.29861738       0.22672664       0.09339950 </v>
   <v>       0.44888589       0.07645813       0.22033653 </v>
   <v>       0.59915440       0.92618961       0.34727355 </v>
   <v>       0.77119120       0.79852654       0.42238560 </v>
   <v>       0.01537355       0.84330380       0.13571184 </v>
   <v>       0.16564206       0.69303529       0.26264887 </v>
   <v>       0.20047739       0.57580710       0.38357054 </v>
   <v>       0.45090180       0.47555486       0.41766890 </v>
   <v>       0.77715571       0.98412611       0.07615801 </v>
   <v>       0.98687932       0.01508749       0.48045566 </v>
   <v>       0.58579929       0.40599939       0.10847175 </v>
   <v>       0.73606780       0.25573088       0.23540877 </v>
   <v>       0.88633632       0.10546237       0.36234580 </v>
   <v>       0.11249739       0.23413658       0.03682761 </v>
   <v>       0.30255546       0.02257655       0.15078409 </v>
   <v>       0.45282397       0.87230804       0.27772112 </v>
   <v>       0.60309249       0.72203953       0.40465814 </v>
   <v>       0.01931163       0.63915371       0.19309643 </v>
   <v>       0.15454156       0.49415222       0.29659803 </v>
   <v>       0.32627966       0.34932649       0.40594843 </v>
   <v>       0.88284514       0.77265183       0.07881742 </v>
   <v>       0.48547218       0.78256224       0.02808426 </v>
   <v>       0.63635413       0.69187455       0.15117717 </v>
   <v>       0.78662264       0.54160604       0.27811420 </v>
   <v>       0.91694470       0.37711006       0.39565747 </v>
   <v>       0.22907824       0.44362535       0.08350185 </v>
   <v>       0.35311030       0.30845172       0.19348951 </v>
   <v>       0.50337881       0.15818320       0.32042654 </v>
   <v>       0.63620659       0.00789486       0.43583175 </v>
   <v>       0.06986647       0.92502888       0.23580185 </v>
   <v>       0.22013498       0.77476037       0.36273888 </v>
   <v>       0.28468283       0.62664330       0.47152064 </v>
   <v>       0.91959796       0.07529739       0.10886483 </v>
   <v>       0.21354282       0.75874175       0.08856556 </v>
   <v>       0.35047896       0.64131972       0.19388260 </v>
   <v>       0.50074747       0.49105121       0.32081962 </v>
   <v>       0.65101599       0.34078269       0.44775664 </v>
   <v>       0.06723513       0.25789688       0.23619494 </v>
   <v>       0.21750365       0.10762837       0.36313196 </v>
   <v>       0.39269161       0.94303111       0.47263998 </v>
   <v>       0.92095186       0.39800215       0.12322590 </v>
   <v>       0.46236127       0.07692475       0.04714590 </v>
   <v>       0.63372279       0.02474256       0.15157025 </v>
   <v>       0.78399130       0.87447404       0.27850728 </v>
   <v>       0.97972205       0.71053326       0.39311068 </v>
  </varray>
 </structure>
 <calculation>
  <scstep>
   <time name="dav">    6.88    6.88</time>
   <time name="total">    7.16    7.16</time>
   <energy>
    <i name="alphaZ">   1893.09323658 </i>
    <i name="ewald"> 222634.50980967 </i>
    <i name="hartreedc">-344823.37287221 </i>
    <i name="XCdc">   3681.08411265 </i>
    <i name="pawpsdc"> 112729.53333415 </i>
    <i name="pawaedc">-117641.51188735 </i>
    <i name="eentropy">     -0.37574365 </i>
    <i name="bandstr">  -4556.17118576 </i>
    <i name="atom"> 136002.60505376 </i>
    <i name="e_fr_energy">   9919.39385785 </i>
    <i name="e_wo_entrp">   9919.76960150 </i>
    <i name="e_0_energy">   9919.58172967 </i>
   </energy>
  </scstep>
  <scstep>
   <time name="dav">    6.14    6.14</time>
   <time name="total">    6.14    6.14</time>
   <energy>
    <i name="e_fr_energy">    620.09532117 </i>
    <i name="e_wo_entrp">    621.04452630 </i>
    <i name="e_0_energy">    620.56992373 </i>
   </energy>
  </scstep>
  <scstep>
   <time name="dav">    6.53    6.53</time>
   <time name="total">    6.53    6.53</time>
   <energy>
    <i name="e_fr_energy">   -337.91455185 </i>
    <i name="e_wo_entrp">   -336.89765465 </i>
    <i name="e_0_energy">   -337.40610325 </i>
   </energy>
  </scstep>
  <scstep>
   <time name="dav">    6.55    6.55</time>
   <time name="total">    6.55    6.55</time>
   <energy>
    <i name="e_fr_energy">   -395.59216284 </i>
    <i name="e_wo_entrp">   -394.53857935 </i>
    <i name="e_0_energy">   -395.06537110 </i>
   </energy>
  </scstep>
  <scstep>
   <time name="dav">    7.32    7.32</time>
   <time name="total">    7.55    7.55</time>
   <energy>
    <i name="e_fr_energy">   -397.80272833 </i>
    <i name="e_wo_entrp">   -396.75743148 </i>
    <i name="e_0_energy">   -397.28007991 </i>
   </energy>
  </scstep>
  <scstep>
   <time name="dav">    6.95    6.95</time>
   <time name="total">    7.43    7.43</time>
   <energy>
    <i name="e_fr_energy">   -464.31306470 </i>
    <i name="e_wo_entrp">   -463.46257245 </i>
    <i name="e_0_energy">   -463.88781858 </i>
   </energy>
  </scstep>
  <scstep>
   <time name="dav">    6.55    6.55</time>
   <time name="total">    7.08    7.08</time>
   <energy>
    <i name="e_fr_energy">   -364.39665427 </i>
    <i name="e_wo_entrp">   -363.49999103 </i>
    <i name="e_0_energy">   -363.94832265 </i>
   </energy>
  </scstep>
  <scstep>
   <time name="dav">    7.32    7.32</time>
   <time name="total">    7.91    7.91</time>
   <energy>
    <i name="e_fr_energy">   -420.16415024 </i>
    <i name="e_wo_entrp">   -419.24044635 </i>
    <i name="e_0_energy">   -419.70229829 </i>
   </energy>
  </scstep>
  <scstep>
   <time name="dav">    7.07    7.08</time>
   <time name="total">    7.55    7.56</time>
   <energy>
    <i name="e_fr_energy">   -370.69458433 </i>
    <i name="e_wo_entrp">   -369.64372693 </i>
    <i name="e_0_energy">   -370.16915563 </i>
   </energy>
  </scstep>
  <scstep>
   <time name="dav">    7.82    7.82</time>
   <time name="total">    8.30    8.31</time>
   <energy>
    <i name="e_fr_energy">   -407.43862279 </i>
    <i name="e_wo_entrp">   -406.38049522 </i>
    <i name="e_0_energy">   -406.90955901 </i>
   </energy>
  </scstep>
  <scstep>
   <time name="dav">    7.24    7.25</time>
   <time name="total">    7.73    7.73</time>
   <energy>
    <i name="e_fr_energy">   -371.00957214 </i>
    <i name="e_wo_entrp">   -369.99468987 </i>
    <i name="e_0_energy">   -370.50213101 </i>
   </energy>
  </scstep>
  <scstep>
   <time name="dav">    7.68    7.68</time>
   <time name="total">    8.17    8.17</time>
   <energy>
    <i name="e_fr_energy">   -359.54349403 </i>
    <i name="e_wo_entrp">   -358.54854716 </i>
    <i name="e_0_energy">   -359.04602059 </i>
   </energy>
  </scstep>
  <scstep>
   <time name="dav">    7.27    7.28</time>
   <time name="total">    7.76    7.76</time>
   <energy>
    <i name="e_fr_energy">   -357.82940361 </i>
    <i name="e_wo_entrp">   -356.93140448 </i>
    <i name="e_0_energy">   -357.38040405 </i>
   </energy>
  </scstep>
  <scstep>
   <time name="dav">    7.73    7.74</time>
   <time name="total">    8.22    8.22</time>
   <energy>
    <i name="e_fr_energy">   -353.31692635 </i>
    <i name="e_wo_entrp">   -352.32265804 </i>
    <i name="e_0_energy">   -352.81979220 </i>
   </energy>
  </scstep>
  <scstep>
   <time name="dav">    7.48    7.48</time>
   <time name="total">    7.97    7.97</time>
   <energy>
    <i name="e_fr_energy">   -351.38877109 </i>
    <i name="e_wo_entrp">   -350.44742157 </i>
    <i name="e_0_energy">   -350.91809633 </i>
   </energy>
  </scstep>
  <scstep>
   <time name="dav">    7.68    7.68</time>
   <time name="total">    8.17    8.17</time>
   <energy>
    <i name="e_fr_energy">   -350.55866330 </i>
    <i name="e_wo_entrp">   -349.59773525 </i>
    <i name="e_0_energy">   -350.07819928 </i>
   </energy>
  </scstep>
  <scstep>
   <time name="dav">    7.44    7.45</time>
   <time name="total">    7.93    7.94</time>
   <energy>
    <i name="e_fr_energy">   -350.05010338 </i>
    <i name="e_wo_entrp">   -349.07843402 </i>
    <i name="e_0_energy">   -349.56426870 </i>
   </energy>
  </scstep>
  <scstep>
   <time name="dav">    7.68    7.69</time>
   <time name="total">    8.17    8.18</time>
   <energy>
    <i name="e_fr_energy">   -349.69865019 </i>
    <i name="e_wo_entrp">   -348.74343671 </i>
    <i name="e_0_energy">   -349.22104345 </i>
   </energy>
  </scstep>
  <scstep>
   <time name="dav">    7.55    7.56</time>
   <time name="total">    8.04    8.04</time>
   <energy>
    <i name="e_fr_energy">   -349.21309787 </i>
    <i name="e_wo_entrp">   -348.23836882 </i>
    <i name="e_0_energy">   -348.72573334 </i>
   </energy>
  </scstep>
  <scstep>
   <time name="dav">    8.01    8.01</time>
   <time name="total">    8.50    8.51</time>
   <energy>
    <i name="e_fr_energy">   -348.59185150 </i>
    <i name="e_wo_entrp">   -347.61472886 </i>
    <i name="e_0_energy">   -348.10329018 </i>
   </energy>
  </scstep>
  <scstep>
   <time name="dav">    7.44    7.44</time>
   <time name="total">    7.93    7.94</time>
   <energy>
    <i name="e_fr_energy">   -348.30023344 </i>
    <i name="e_wo_entrp">   -347.29894739 </i>
    <i name="e_0_energy">   -347.79959042 </i>
   </energy>
  </scstep>
  <scstep>
   <time name="dav">    7.08    7.09</time>
   <time name="total">    7.82    7.82</time>
   <energy>
    <i name="e_fr_energy">   -348.28947703 </i>
    <i name="e_wo_entrp">   -347.27867898 </i>
    <i name="e_0_energy">   -347.78407800 </i>
   </energy>
  </scstep>
  <scstep>
   <time name="dav">    7.54    7.54</time>
   <time name="total">    8.04    8.04</time>
   <energy>
    <i name="e_fr_energy">   -348.24125653 </i>
    <i name="e_wo_entrp">   -347.22424471 </i>
    <i name="e_0_energy">   -347.73275062 </i>
   </energy>
  </scstep>
  <scstep>
   <time name="dav">    7.27    7.28</time>
   <time name="total">    7.77    7.78</time>
   <energy>
    <i name="e_fr_energy">   -348.24657916 </i>
    <i name="e_wo_entrp">   -347.22729118 </i>
    <i name="e_0_energy">   -347.73693517 </i>
   </energy>
  </scstep>
  <scstep>
   <time name="dav">    7.25    7.25</time>
   <time name="total">    7.86    7.86</time>
   <energy>
    <i name="e_fr_energy">   -348.24636788 </i>
    <i name="e_wo_entrp">   -347.21724527 </i>
    <i name="e_0_energy">   -347.73180658 </i>
   </energy>
  </scstep>
  <scstep>
   <time name="dav">    7.19    7.19</time>
   <time name="total">    7.70    7.70</time>
   <energy>
    <i name="e_fr_energy">   -348.22867969 </i>
    <i name="e_wo_entrp">   -347.21444508 </i>
    <i name="e_0_energy">   -347.72156238 </i>
   </energy>
  </scstep>
  <scstep>
   <time name="dav">    7.24    7.24</time>
   <time name="total">    7.74    7.74</time>
   <energy>
    <i name="e_fr_energy">   -348.22299046 </i>
    <i name="e_wo_entrp">   -347.19958836 </i>
    <i name="e_0_energy">   -347.71128941 </i>
   </energy>
  </scstep>
  <scstep>
   <time name="dav">    7.19    7.19</time>
   <time name="total">    7.69    7.69</time>
   <energy>
    <i name="e_fr_energy">   -348.22202472 </i>
    <i name="e_wo_entrp">   -347.20313060 </i>
    <i name="e_0_energy">   -347.71257766 </i>
   </energy>
  </scstep>
  <scstep>
   <time name="dav">    6.55    6.55</time>
   <time name="total">    7.05    7.06</time>
   <energy>
    <i name="e_fr_energy">   -348.22049915 </i>
    <i name="e_wo_entrp">   -347.20137586 </i>
    <i name="e_0_energy">   -347.71093750 </i>
   </energy>
  </scstep>
  <scstep>
   <time name="dav">    7.39    7.39</time>
   <time name="total">    7.98    7.98</time>
   <energy>
    <i name="e_fr_energy">   -348.22042189 </i>
    <i name="e_wo_entrp">   -347.20125102 </i>
    <i name="e_0_energy">   -347.71083645 </i>
   </energy>
  </scstep>
  <scstep>
   <time name="dav">    6.60    6.60</time>
   <time name="total">    7.10    7.10</time>
   <energy>
    <i name="e_fr_energy">   -348.22010914 </i>
    <i name="e_wo_entrp">   -347.20231721 </i>
    <i name="e_0_energy">   -347.71121318 </i>
   </energy>
  </scstep>
  <scstep>
   <time name="dav">    6.00    6.00</time>
   <time name="total">    6.51    6.51</time>
   <energy>
    <i name="e_fr_energy">   -348.22053277 </i>
    <i name="e_wo_entrp">   -347.20223865 </i>
    <i name="e_0_energy">   -347.71138571 </i>
   </energy>
  </scstep>
  <scstep>
   <time name="dav">    5.44    5.44</time>
   <time name="total">    5.71    5.71</time>
   <energy>
    <i name="alphaZ">   1893.09323658 </i>
    <i name="ewald"> 222634.50980967 </i>
    <i name="hartreedc">-344116.85726085 </i>
    <i name="XCdc">   3651.30794990 </i>
    <i name="pawpsdc"> 139071.81062372 </i>
    <i name="pawaedc">-144057.70677603 </i>
    <i name="eentropy">     -1.01732515 </i>
    <i name="bandstr"> -15425.96589302 </i>
    <i name="atom"> 136002.60505376 </i>
    <i name="e_fr_energy">   -348.22058142 </i>
    <i name="e_wo_entrp">   -347.20325627 </i>
    <i name="e_0_energy">   -347.71191884 </i>
   </energy>
  </scstep>
  <structure>
   <crystal>
    <varray name="basis" >
     <v>      10.07973298       0.00000000       0.00000000 </v>
     <v>       3.57329804       9.42510255       0.00000000 </v>
     <v>       0.00000000       0.00000000      20.68350356 </v>
    </varray>
    <i name="volume">   1964.98490008 </i>
    <varray name="rec_basis" >
     <v>       0.09920898      -0.03761267       0.00000000 </v>
     <v>       0.00000000       0.10609964       0.00000000 </v>
     <v>       0.00000000       0.00000000       0.04834771 </v>
    </varray>
   </crystal>
   <varray name="positions" >
    <v>       0.39705889       0.79495179       0.11816221 </v>
    <v>       0.54732740       0.64468328       0.24509923 </v>
    <v>       0.69759592       0.49441477       0.37203626 </v>
    <v>       0.84462206       0.32219083       0.47828538 </v>
    <v>       0.11381506       0.41152895       0.16047455 </v>
    <v>       0.26408357       0.26126044       0.28741157 </v>
    <v>       0.41435209       0.11099193       0.41434860 </v>
    <v>       0.10252830       0.81030833       0.44592118 </v>
    <v>       0.71685469       0.21456282       0.13503661 </v>
    <v>       0.83057123       0.02810612       0.20278689 </v>
    <v>       0.98083974       0.87783760       0.32972391 </v>
    <v>       0.36438994       0.55277908       0.10398942 </v>
    <v>       0.50762556       0.42017912       0.21156171 </v>
    <v>       0.65789407       0.26991061       0.33849873 </v>
    <v>       0.77888111       0.11757220       0.44713625 </v>
    <v>       0.07411322       0.18702480       0.12693702 </v>
    <v>       0.22438173       0.03675628       0.25387405 </v>
    <v>       0.37465024       0.88648777       0.38081107 </v>
    <v>       0.43336095       0.72242346       0.46494179 </v>
    <v>       0.89385250       0.26420168       0.05304987 </v>
    <v>       0.58330006       0.88362897       0.08816338 </v>
    <v>       0.79086939       0.80360196       0.16924937 </v>
    <v>       0.94113790       0.65333345       0.29618639 </v>
    <v>       0.03137888       0.15412248       0.41670643 </v>
    <v>       0.59165857       0.59404354       0.07160787 </v>
    <v>       0.73212972       0.45988096       0.17802418 </v>
    <v>       0.88239823       0.30961245       0.30496121 </v>
    <v>       0.29861738       0.22672664       0.09339950 </v>
    <v>       0.44888589       0.07645813       0.22033653 </v>
    <v>       0.59915440       0.92618961       0.34727355 </v>
    <v>       0.77119120       0.79852654       0.42238560 </v>
    <v>       0.01537355       0.84330380       0.13571184 </v>
    <v>       0.16564206       0.69303529       0.26264887 </v>
    <v>       0.20047739       0.57580710       0.38357054 </v>
    <v>       0.45090180       0.47555486       0.41766890 </v>
    <v>       0.77715571       0.98412611       0.07615801 </v>
    <v>       0.98687932       0.01508749       0.48045566 </v>
    <v>       0.58579929       0.40599939       0.10847175 </v>
    <v>       0.73606780       0.25573088       0.23540877 </v>
    <v>       0.88633632       0.10546237       0.36234580 </v>
    <v>       0.11249739       0.23413658       0.03682761 </v>
    <v>       0.30255546       0.02257655       0.15078409 </v>
    <v>       0.45282397       0.87230804       0.27772112 </v>
    <v>       0.60309249       0.72203953       0.40465814 </v>
    <v>       0.01931163       0.63915371       0.19309643 </v>
    <v>       0.15454156       0.49415222       0.29659803 </v>
    <v>       0.32627966       0.34932649       0.40594843 </v>
    <v>       0.88284514       0.77265183       0.07881742 </v>
    <v>       0.48547218       0.78256224       0.02808426 </v>
    <v>       0.63635413       0.69187455       0.15117717 </v>
    <v>       0.78662264       0.54160604       0.27811420 </v>
    <v>       0.91694470       0.37711006       0.39565747 </v>
    <v>       0.22907824       0.44362535       0.08350185 </v>
    <v>       0.35311030       0.30845172       0.19348951 </v>
    <v>       0.50337881       0.15818320       0.32042654 </v>
    <v>       0.63620659       0.00789486       0.43583175 </v>
    <v>       0.06986647       0.92502888       0.23580185 </v>
    <v>       0.22013498       0.77476037       0.36273888 </v>
    <v>       0.28468283       0.62664330       0.47152064 </v>
    <v>       0.91959796       0.07529739       0.10886483 </v>
    <v>       0.21354282       0.75874175       0.08856556 </v>
    <v>       0.35047896       0.64131972       0.19388260 </v>
    <v>       0.50074747       0.49105121       0.32081962 </v>
    <v>       0.65101599       0.34078269       0.44775664 </v>
    <v>       0.06723513       0.25789688       0.23619494 </v>
    <v>       0.21750365       0.10762837       0.36313196 </v>
    <v>       0.39269161       0.94303111       0.47263998 </v>
    <v>       0.92095186       0.39800215       0.12322590 </v>
    <v>       0.46236127       0.07692475       0.04714590 </v>
    <v>       0.63372279       0.02474256       0.15157025 </v>
    <v>       0.78399130       0.87447404       0.27850728 </v>
    <v>       0.97972205       0.71053326       0.39311068 </v>
   </varray>
  </structure>
  <varray name="forces" >
   <v>      -1.04385664       0.36617858       1.97629363 </v>
   <v>       0.08869433      -0.06322528       0.16836761 </v>
   <v>      -0.71280344       0.26925359      -0.00941227 </v>
   <v>       0.50758195      -0.02600721       1.46338208 </v>
   <v>       0.09991757       0.06529245       1.56799733 </v>
   <v>       0.15141728      -0.45764249       0.25500121 </v>
   <v>      -0.04980915       0.27901030      -0.15296121 </v>
   <v>      -0.41807674      -0.35468579       1.02816940 </v>
   <v>      -0.87647806      -0.28133260      -0.92981898 </v>
   <v>       0.30541797      -0.95949790       1.65411864 </v>
   <v>       0.55760773       0.44436745      -0.91507014 </v>
   <v>       0.26295900      -0.48777806      -0.92948427 </v>
   <v>      -0.22700109       0.11034848       0.02111300 </v>
   <v>       0.25394556      -0.16330758      -0.14618118 </v>
   <v>      -1.13494782       0.41751698       0.78665514 </v>
   <v>       0.99614794      -1.54231617       3.68488435 </v>
   <v>       0.10893780      -0.09713217      -0.09642824 </v>
   <v>      -0.45670913       0.17183031      -2.95390885 </v>
   <v>       0.86579092      -0.49393776       0.42974502 </v>
   <v>      -1.08215246       0.18448238      -1.00993917 </v>
   <v>       1.27790393      -0.58054666      -0.05135583 </v>
   <v>      -0.51478099      -0.44663055       1.66347942 </v>
   <v>      -0.92738838       0.04722215      -1.27243089 </v>
   <v>       0.83646460       0.74345360       0.78554155 </v>
   <v>       0.47812912      -1.41742618      -0.85088278 </v>
   <v>      -0.15418505       0.19117364       0.62753864 </v>
   <v>      -0.45096046      -0.60061791      -1.15134894 </v>
   <v>      -0.41584651      -0.81811396       1.24793995 </v>
   <v>      -0.23337420       0.01361903       0.50294007 </v>
   <v>      -0.62566766       0.11786019      -1.99395173 </v>
   <v>      -0.11117421      -0.83863508       0.98563725 </v>
   <v>       0.84165500      -0.29001837       1.10079575 </v>
   <v>       0.43631238       0.57704523      -0.89587702 </v>
   <v>       0.14158127      -1.07355043       1.31680893 </v>
   <v>      -0.19445101       0.24288282       0.96755076 </v>
   <v>      -0.29098925       0.77659357      -1.65124021 </v>
   <v>       0.63241235      -0.33008046       2.26390575 </v>
   <v>      -1.14996026       0.48360920      -1.62097148 </v>
   <v>      -0.10624790      -0.21071996       1.09848747 </v>
   <v>      -0.79202773      -0.97396243      -3.39103634 </v>
   <v>       0.48516632      -0.27322240      -4.19958123 </v>
   <v>      -0.61144431       0.14601594       0.47375379 </v>
   <v>      -0.08408892      -0.14184884      -0.23936892 </v>
   <v>       0.88852894      -1.30469733       0.21653160 </v>
   <v>      -0.08333593       0.26889844       0.01794622 </v>
   <v>      -0.14742387      -0.81224392       0.04750909 </v>
   <v>      -1.00844611      -0.72740838       0.90265214 </v>
   <v>      -0.08996207      -2.14695585      -3.21010241 </v>
   <v>      -0.34897600       0.59094423      -3.86723372 </v>
   <v>       0.90480586       0.58114712       2.09735050 </v>
   <v>      -0.04728250       0.19926588      -0.14139359 </v>
   <v>       2.96862414       1.75608243       0.95955618 </v>
   <v>      -0.33309976       1.40742562      -2.66367148 </v>
   <v>       0.40343320      -0.89675200       0.53769342 </v>
   <v>       0.11671929      -0.13787044      -1.09238354 </v>
   <v>       0.83065531       0.30997301       2.04843329 </v>
   <v>       0.25222385      -0.00679845       0.12438383 </v>
   <v>       1.38836338       2.01834317      -2.85602314 </v>
   <v>      -0.46761896      -0.41122058       3.56484076 </v>
   <v>       1.99058459      -0.02533694      -0.89085867 </v>
   <v>      -1.00221771       0.68096796      -2.12155019 </v>
   <v>       0.75948519       0.62262125       2.92022244 </v>
   <v>       0.48267094       0.32099560      -2.20848607 </v>
   <v>      -1.15370819       0.34284243       0.69082882 </v>
   <v>      -0.07270312      -0.45848970       0.12302772 </v>
   <v>       0.39033144       0.04326866      -0.98657156 </v>
   <v>      -0.90349785       1.04014531       3.60293623 </v>
   <v>      -0.51741432       2.12001825      -0.52198665 </v>
   <v>       0.97135501       0.68446086      -2.57017371 </v>
   <v>      -0.87585584       1.45576338       2.37552005 </v>
   <v>       0.09068023       0.17219239      -0.31232278 </v>
   <v>      -2.05054078      -0.41310203       1.60446815 </v>
  </varray>
  <varray name="stress" >
   <v>      70.33095009      -2.89063472      -0.94762565 </v>
   <v>      -2.89063451      71.70528273      -0.67750118 </v>
   <v>      -0.94762546      -0.67750125      90.67607474 </v>
  </varray>
  <energy>
   <i name="e_fr_energy">   -348.22058142 </i>
   <i name="e_wo_entrp">   -347.71191884 </i>
   <i name="e_0_energy">     -1.01732515 </i>
  </energy>
  <time name="totalsc">  256.13  256.22</time>
  <eigenvalues>
   <array>
    <dimension dim="1">band</dimension>
    <dimension dim="2">kpoint</dimension>
    <dimension dim="3">spin</dimension>
    <field>eigene</field>
    <field>occ</field>
    <set>
     <set comment="spin 1">
      <set comment="kpoint 1">
       <r>  -63.3510    1.0000 </r>
       <r>  -63.3339    1.0000 </r>
       <r>  -63.2294    1.0000 </r>
       <r>  -63.2093    1.0000 </r>
       <r>  -63.1833    1.0000 </r>
       <r>  -63.1753    1.0000 </r>
       <r>  -63.1422    1.0000 </r>
       <r>  -63.1404    1.0000 </r>
       <r>  -63.1298    1.0000 </r>
       <r>  -63.0937    1.0000 </r>
       <r>  -63.0787    1.0000 </r>
       <r>  -63.0727    1.0000 </r>
       <r>  -63.0632    1.0000 </r>
       <r>  -63.0548    1.0000 </r>
       <r>  -63.0172    1.0000 </r>
       <r>  -63.0144    1.0000 </r>
       <r>  -63.0055    1.0000 </r>
       <r>  -62.9794    1.0000 </r>
       <r>  -62.9753    1.0000 </r>
       <r>  -62.9451    1.0000 </r>
       <r>  -62.9400    1.0000 </r>
       <r>  -62.9396    1.0000 </r>
       <r>  -62.9371    1.0000 </r>
       <r>  -62.9272    1.0000 </r>
       <r>  -62.9232    1.0000 </r>
       <r>  -62.9113    1.0000 </r>
       <r>  -62.9048    1.0000 </r>
       <r>  -62.9039    1.0000 </r>
       <r>  -62.8948    1.0000 </r>
       <r>  -62.8904    1.0000 </r>
       <r>  -62.8853    1.0000 </r>
       <r>  -62.8692    1.0000 </r>
       <r>  -62.8603    1.0000 </r>
       <r>  -62.8558    1.0000 </r>
       <r>  -62.8546    1.0000 </r>
       <r>  -62.8423    1.0000 </r>
       <r>  -62.8385    1.0000 </r>
       <r>  -62.8312    1.0000 </r>
       <r>  -62.8142    1.0000 </r>
       <r>  -62.8135    1.0000 </r>
       <r>  -62.8105    1.0000 </r>
       <r>  -62.8091    1.0000 </r>
       <r>  -62.7894    1.0000 </r>
       <r>  -62.7889    1.0000 </r>
       <r>  -62.7860    1.0000 </r>
       <r>  -62.7818    1.0000 </r>
       <r>  -62.7741    1.0000 </r>
       <r>  -62.7729    1.0000 </r>
       <r>  -62.7624    1.0000 </r>
       <r>  -62.7601    1.0000 </r>
       <r>  -62.7600    1.0000 </r>
       <r>  -62.7476    1.0000 </r>
       <r>  -62.7434    1.0000 </r>
       <r>  -62.7417    1.0000 </r>
       <r>  -62.7266    1.0000 </r>
       <r>  -62.7206    1.0000 </r>
       <r>  -62.7164    1.0000 </r>
       <r>  -62.7136    1.0000 </r>
       <r>  -62.7043    1.0000 </r>
       <r>  -62.6959    1.0000 </r>
       <r>  -62.6918    1.0000 </r>
       <r>  -62.6856    1.0000 </r>
       <r>  -62.6811    1.0000 </r>
       <r>  -62.6791    1.0000 </r>
       <r>  -62.6746    1.0000 </r>
       <r>  -62.6654    1.0000 </r>
       <r>  -62.6594    1.0000 </r>
       <r>  -62.6547    1.0000 </r>
       <r>  -62.6451    1.0000 </r>
       <r>  -62.6370    1.0000 </r>
       <r>  -62.5975    1.0000 </r>
       <r>  -62.5965    1.0000 </r>
       <r>  -62.5926    1.0000 </r>
       <r>  -62.5901    1.0000 </r>
       <r>  -62.5757    1.0000 </r>
       <r>  -62.5698    1.0000 </r>
       <r>  -62.5688    1.0000 </r>
       <r>  -62.5601    1.0000 </r>
       <r>  -62.5581    1.0000 </r>
       <r>  -62.5524    1.0000 </r>
       <r>  -62.5427    1.0000 </r>
       <r>  -62.5338    1.0000 </r>
       <r>  -62.5283    1.0000 </r>
       <r>  -62.5226    1.0000 </r>
       <r>  -62.5142    1.0000 </r>
       <r>  -62.5086    1.0000 </r>
       <r>  -62.5069    1.0000 </r>
       <r>  -62.4987    1.0000 </r>
       <r>  -62.4523    1.0000 </r>
       <r>  -62.4513    1.0000 </r>
       <r>  -62.4367    1.0000 </r>
       <r>  -62.4304    1.0000 </r>
       <r>  -62.4242    1.0000 </r>
       <r>  -62.4146    1.0000 </r>
       <r>  -62.4055    1.0000 </r>
       <r>  -62.3780    1.0000 </r>
       <r>  -62.3765    1.0000 </r>
       <r>  -62.3606    1.0000 </r>
       <r>  -62.3359    1.0000 </r>
       <r>  -62.3293    1.0000 </r>
       <r>  -62.2580    1.0000 </r>
       <r>  -62.2424    1.0000 </r>
       <r>  -62.2020    1.0000 </r>
       <r>  -62.1552    1.0000 </r>
       <r>  -62.1403    1.0000 </r>
       <r>  -61.8742    1.0000 </r>
       <r>  -61.7418    1.0000 </r>
       <r>  -61.6637    1.0000 </r>
       <r>  -14.8633    1.0000 </r>
       <r>  -14.5662    1.0000 </r>
       <r>  -14.2416    1.0000 </r>
       <r>  -14.0499    1.0000 </r>
       <r>  -13.9404    1.0000 </r>
       <r>  -13.8345    1.0000 </r>
       <r>  -13.7390    1.0000 </r>
       <r>  -13.5859    1.0000 </r>
       <r>  -13.5438    1.0000 </r>
       <r>  -13.5094    1.0000 </r>
       <r>  -13.4405    1.0000 </r>
       <r>  -13.2076    1.0000 </r>
       <r>  -13.1713    1.0000 </r>
       <r>  -13.1022    1.0000 </r>
       <r>  -13.0536    1.0000 </r>
       <r>  -12.9026    1.0000 </r>
       <r>  -12.8337    1.0000 </r>
       <r>  -12.7657    1.0000 </r>
       <r>  -12.7072    1.0000 </r>
       <r>  -12.6329    1.0000 </r>
       <r>  -12.5813    1.0000 </r>
       <r>  -12.4716    1.0000 </r>
       <r>  -12.3928    1.0000 </r>
       <r>  -12.3807    1.0000 </r>
       <r>  -12.2835    1.0000 </r>
       <r>  -12.2224    1.0000 </r>
       <r>  -12.0894    1.0000 </r>
       <r>  -11.9970    1.0000 </r>
       <r>  -11.9415    1.0000 </r>
       <r>  -11.8841    1.0000 </r>
       <r>  -11.8533    1.0000 </r>
       <r>  -11.7686    1.0000 </r>
       <r>  -11.7055    1.0000 </r>
       <r>  -11.5925    1.0000 </r>
       <r>  -11.3946    1.0000 </r>
       <r>  -11.2518    1.0000 </r>
       <r>   -6.6772    1.0000 </r>
       <r>   -6.5014    1.0000 </r>
       <r>   -6.4412    1.0000 </r>
       <r>   -6.3260    1.0000 </r>
       <r>   -6.1963    1.0000 </r>
       <r>   -6.1846    1.0000 </r>
       <r>   -6.0565    1.0000 </r>
       <r>   -5.9625    1.0000 </r>
       <r>   -5.8830    1.0000 </r>
       <r>   -5.8170    1.0000 </r>
       <r>   -5.7998    1.0000 </r>
       <r>   -5.7105    1.0000 </r>
       <r>   -5.6943    1.0000 </r>
       <r>   -5.6625    1.0000 </r>
       <r>   -5.6387    1.0000 </r>
       <r>   -5.5913    1.0000 </r>
       <r>   -5.5233    1.0000 </r>
       <r>   -5.4822    1.0000 </r>
       <r>   -5.3953    1.0000 </r>
       <r>   -5.3494    1.0000 </r>
       <r>   -5.3318    1.0000 </r>
       <r>   -5.2980    1.0000 </r>
       <r>   -5.2605    1.0000 </r>
       <r>   -5.2355    1.0000 </r>
       <r>   -5.1957    1.0000 </r>
       <r>   -5.1535    1.0000 </r>
       <r>   -5.1251    1.0000 </r>
       <r>   -5.0697    1.0000 </r>
       <r>   -5.0167    1.0000 </r>
       <r>   -4.9283    1.0000 </r>
       <r>   -4.8921    1.0000 </r>
       <r>   -4.8245    1.0000 </r>
       <r>   -4.7701    1.0000 </r>
       <r>   -4.7352    1.0000 </r>
       <r>   -4.7302    1.0000 </r>
       <r>   -4.6274    1.0000 </r>
       <r>   -4.5856    1.0000 </r>
       <r>   -4.5023    1.0000 </r>
       <r>   -4.4655    1.0000 </r>
       <r>   -4.4168    1.0000 </r>
       <r>   -4.3931    1.0000 </r>
       <r>   -4.3397    1.0000 </r>
       <r>   -4.2661    1.0000 </r>
       <r>   -4.2343    1.0000 </r>
       <r>   -4.1688    1.0000 </r>
       <r>   -4.1546    1.0000 </r>
       <r>   -4.1157    1.0000 </r>
       <r>   -4.1036    1.0000 </r>
       <r>   -4.0239    1.0000 </r>
       <r>   -4.0055    1.0000 </r>
       <r>   -3.9311    1.0000 </r>
       <r>   -3.8788    1.0000 </r>
       <r>   -3.8757    1.0000 </r>
       <r>   -3.8298    1.0000 </r>
       <r>   -3.7988    1.0000 </r>
       <r>   -3.7686    1.0000 </r>
       <r>   -3.7470    1.0000 </r>
       <r>   -3.7145    1.0000 </r>
       <r>   -3.7014    1.0000 </r>
       <r>   -3.6520    1.0000 </r>
       <r>   -3.6134    1.0000 </r>
       <r>   -3.6119    1.0000 </r>
       <r>   -3.5604    1.0000 </r>
       <r>   -3.5129    1.0000 </r>
       <r>   -3.4709    1.0000 </r>
       <r>   -3.4574    1.0000 </r>
       <r>   -3.4324    1.0000 </r>
       <r>   -3.3936    1.0000 </r>
       <r>   -3.3823    1.0000 </r>
       <r>   -3.3472    1.0000 </r>
       <r>   -3.3234    1.0000 </r>
       <r>   -3.3056    1.0000 </r>
       <r>   -3.2715    1.0000 </r>
       <r>   -3.2440    1.0000 </r>
       <r>   -3.2116    1.0000 </r>
       <r>   -3.1672    1.0000 </r>
       <r>   -3.1325    1.0000 </r>
       <r>   -3.0748    1.0000 </r>
       <r>   -3.0321    1.0000 </r>
       <r>   -2.9927    1.0000 </r>
       <r>   -2.9679    1.0000 </r>
       <r>   -2.9366    1.0000 </r>
       <r>   -2.9198    1.0000 </r>
       <r>   -2.8939    1.0000 </r>
       <r>   -2.8542    1.0000 </r>
       <r>   -2.8334    1.0000 </r>
       <r>   -2.7913    1.0000 </r>
       <r>   -2.7694    1.0000 </r>
       <r>   -2.7204    1.0000 </r>
       <r>   -2.6886    1.0000 </r>
       <r>   -2.6149    1.0000 </r>
       <r>   -2.5679    1.0000 </r>
       <r>   -2.5053    1.0000 </r>
       <r>   -2.4715    1.0000 </r>
       <r>   -2.3972    1.0000 </r>
       <r>   -2.3780    1.0000 </r>
       <r>   -2.3254    1.0000 </r>
       <r>   -2.3024    1.0000 </r>
       <r>   -2.2654    1.0000 </r>
       <r>   -2.1353    1.0000 </r>
       <r>   -2.0963    1.0000 </r>
       <r>   -2.0739    1.0000 </r>
       <r>   -2.0429    1.0000 </r>
       <r>   -2.0155    1.0000 </r>
       <r>   -1.9937    1.0000 </r>
       <r>   -1.9647    1.0000 </r>
       <r>   -1.9380    1.0000 </r>
       <r>   -1.8958    1.0000 </r>
       <r>   -1.8284    1.0000 </r>
       <r>   -1.8055    1.0000 </r>
       <r>   -1.7748    1.0000 </r>
       <r>   -1.7388    1.0000 </r>
       <r>   -1.6800    1.0000 </r>
       <r>   -1.6398    1.0000 </r>
       <r>   -1.6238    1.0000 </r>
       <r>   -1.5942    1.0000 </r>
       <r>   -1.5680    1.0000 </r>
       <r>   -1.5446    1.0000 </r>
       <r>   -1.5013    1.0000 </r>
       <r>   -1.4752    1.0000 </r>
       <r>   -1.4712    1.0000 </r>
       <r>   -1.4276    1.0000 </r>
       <r>   -1.3838    1.0000 </r>
       <r>   -1.3766    1.0000 </r>
       <r>   -1.3523    1.0000 </r>
       <r>   -1.3399    1.0000 </r>
       <r>   -1.3353    1.0000 </r>
       <r>   -1.3181    1.0000 </r>
       <r>   -1.2881    1.0000 </r>
       <r>   -1.2433    1.0000 </r>
       <r>   -1.2316    1.0000 </r>
       <r>   -1.2120    1.0000 </r>
       <r>   -1.1983    1.0000 </r>
       <r>   -1.1888    1.0000 </r>
       <r>   -1.1462    1.0000 </r>
       <r>   -1.1454    1.0000 </r>
       <r>   -1.1172    1.0000 </r>
       <r>   -1.1078    1.0000 </r>
       <r>   -1.0911    1.0000 </r>
       <r>   -1.0710    1.0000 </r>
       <r>   -1.0293    1.0000 </r>
       <r>   -1.0086    1.0000 </r>
       <r>   -0.9959    1.0000 </r>
       <r>   -0.9895    1.0000 </r>
       <r>   -0.9630    1.0000 </r>
       <r>   -0.9400    1.0000 </r>
       <r>   -0.9164    1.0000 </r>
       <r>   -0.8879    1.0000 </r>
       <r>   -0.8761    1.0000 </r>
       <r>   -0.8637    1.0000 </r>
       <r>   -0.8363    1.0000 </r>
       <r>   -0.8184    1.0000 </r>
       <r>   -0.8020    1.0000 </r>
       <r>   -0.7920    1.0000 </r>
       <r>   -0.7807    1.0000 </r>
       <r>   -0.7494    1.0000 </r>
       <r>   -0.7418    1.0000 </r>
       <r>   -0.7167    1.0000 </r>
       <r>   -0.6998    1.0000 </r>
       <r>   -0.6923    1.0000 </r>
       <r>   -0.6740    1.0000 </r>
       <r>   -0.6654    1.0000 </r>
       <r>   -0.6594    1.0000 </r>
       <r>   -0.6426    1.0000 </r>
       <r>   -0.6284    1.0000 </r>
       <r>   -0.6055    1.0000 </r>
       <r>   -0.6001    1.0000 </r>
       <r>   -0.5695    1.0000 </r>
       <r>   -0.5620    1.0000 </r>
       <r>   -0.5245    1.0000 </r>
       <r>   -0.5154    1.0000 </r>
       <r>   -0.4920    1.0000 </r>
       <r>   -0.4869    1.0000 </r>
       <r>   -0.4824    1.0000 </r>
       <r>   -0.4756    1.0000 </r>
       <r>   -0.4566    1.0000 </r>
       <r>   -0.4473    1.0000 </r>
       <r>   -0.4325    1.0000 </r>
       <r>   -0.4240    1.0000 </r>
       <r>   -0.4203    1.0000 </r>
       <r>   -0.3849    1.0000 </r>
       <r>   -0.3765    1.0000 </r>
       <r>   -0.3715    1.0000 </r>
       <r>   -0.3327    1.0000 </r>
       <r>   -0.3238    1.0000 </r>
       <r>   -0.3083    1.0000 </r>
       <r>   -0.3003    1.0000 </r>
       <r>   -0.2840    1.0000 </r>
       <r>   -0.2804    1.0000 </r>
       <r>   -0.2649    1.0000 </r>
       <r>   -0.2340    1.0000 </r>
       <r>   -0.2278    1.0000 </r>
       <r>   -0.2068    1.0000 </r>
       <r>   -0.1933    1.0000 </r>
       <r>   -0.1805    1.0000 </r>
       <r>   -0.1611    1.0000 </r>
       <r>   -0.1401    1.0000 </r>
       <r>   -0.1210    1.0000 </r>
       <r>   -0.0984    1.0000 </r>
       <r>   -0.0941    1.0000 </r>
       <r>   -0.0750    1.0000 </r>
       <r>   -0.0542    1.0000 </r>
       <r>   -0.0510    1.0000 </r>
       <r>   -0.0394    1.0000 </r>
       <r>   -0.0183    1.0000 </r>
       <r>   -0.0014    1.0000 </r>
       <r>    0.0089    1.0000 </r>
       <r>    0.0150    1.0000 </r>
       <r>    0.0370    1.0000 </r>
       <r>    0.0538    1.0000 </r>
       <r>    0.0772    1.0000 </r>
       <r>    0.1016    1.0000 </r>
       <r>    0.1299    1.0000 </r>
       <r>    0.1639    1.0000 </r>
       <r>    0.1805    1.0000 </r>
       <r>    0.1951    1.0000 </r>
       <r>    0.2111    1.0000 </r>
       <r>    0.2392    1.0000 </r>
       <r>    0.2596    1.0000 </r>
       <r>    0.3027    1.0000 </r>
       <r>    0.3369    1.0000 </r>
       <r>    0.3662    1.0000 </r>
       <r>    0.3885    1.0000 </r>
       <r>    0.4134    1.0000 </r>
       <r>    0.4493    1.0000 </r>
       <r>    0.4914    1.0000 </r>
       <r>    0.5134    1.0000 </r>
       <r>    0.5471    1.0000 </r>
       <r>    0.5673    1.0000 </r>
       <r>    0.5747    1.0000 </r>
       <r>    0.6455    1.0000 </r>
       <r>    0.6564    1.0000 </r>
       <r>    0.6849    1.0000 </r>
       <r>    0.7361    1.0000 </r>
       <r>    0.7866    1.0000 </r>
       <r>    0.8342    1.0000 </r>
       <r>    0.8785    1.0000 </r>
       <r>    0.9139    0.9999 </r>
       <r>    0.9432    0.9998 </r>
       <r>    0.9847    0.9994 </r>
       <r>    1.0475    0.9975 </r>
       <r>    1.0783    0.9952 </r>
       <r>    1.1098    0.9910 </r>
       <r>    1.1244    0.9881 </r>
       <r>    1.1380    0.9848 </r>
       <r>    1.1557    0.9793 </r>
       <r>    1.2542    0.9103 </r>
       <r>    1.3018    0.8429 </r>
       <r>    1.3088    0.8308 </r>
       <r>    1.3431    0.7625 </r>
       <r>    1.3693    0.7016 </r>
       <r>    1.4105    0.5940 </r>
       <r>    1.4405    0.5102 </r>
       <r>    1.4991    0.3488 </r>
       <r>    1.5626    0.2012 </r>
       <r>    1.6068    0.1251 </r>
       <r>    1.6296    0.0948 </r>
       <r>    1.6589    0.0644 </r>
       <r>    1.6802    0.0476 </r>
       <r>    1.7305    0.0214 </r>
       <r>    1.8033    0.0055 </r>
       <r>    1.8322    0.0030 </r>
       <r>    1.8897    0.0008 </r>
       <r>    1.9531    0.0002 </r>
       <r>    1.9917    0.0001 </r>
       <r>    2.0294    0.0000 </r>
       <r>    2.0762    0.0000 </r>
       <r>    2.1063    0.0000 </r>
       <r>    2.1533    0.0000 </r>
       <r>    2.1611    0.0000 </r>
       <r>    2.1850    0.0000 </r>
       <r>    2.1930    0.0000 </r>
       <r>    2.2646    0.0000 </r>
       <r>    2.3331    0.0000 </r>
       <r>    2.3430    0.0000 </r>
       <r>    2.3821    0.0000 </r>
       <r>    2.4578    0.0000 </r>
       <r>    2.5129    0.0000 </r>
       <r>    2.5246    0.0000 </r>
       <r>    2.5510    0.0000 </r>
       <r>    2.6173    0.0000 </r>
       <r>    2.6510    0.0000 </r>
       <r>    2.6616    0.0000 </r>
       <r>    2.7892    0.0000 </r>
       <r>    2.8688    0.0000 </r>
       <r>    2.8920    0.0000 </r>
       <r>    3.0007    0.0000 </r>
       <r>    3.1044    0.0000 </r>
       <r>    3.8676    0.0000 </r>
       <r>    3.9945    0.0000 </r>
       <r>    4.5228    0.0000 </r>
       <r>    4.6299    0.0000 </r>
       <r>    4.8532    0.0000 </r>
       <r>    4.9438    0.0000 </r>
       <r>    5.0374    0.0000 </r>
       <r>    5.3480    0.0000 </r>
       <r>    5.3999    0.0000 </r>
       <r>    5.5124    0.0000 </r>
       <r>    5.6037    0.0000 </r>
       <r>    5.6418    0.0000 </r>
       <r>    5.7531    0.0000 </r>
       <r>    5.8536    0.0000 </r>
       <r>    5.8917    0.0000 </r>
       <r>    5.9485    0.0000 </r>
       <r>    6.0368    0.0000 </r>
       <r>    6.0977    0.0000 </r>
       <r>    6.2004    0.0000 </r>
       <r>    6.2772    0.0000 </r>
       <r>    6.3467    0.0000 </r>
       <r>    6.3695    0.0000 </r>
       <r>    6.4477    0.0000 </r>
       <r>    6.5261    0.0000 </r>
       <r>    6.5618    0.0000 </r>
       <r>    6.6064    0.0000 </r>
       <r>    6.6597    0.0000 </r>
       <r>    6.7186    0.0000 </r>
       <r>    6.8466    0.0000 </r>
       <r>    6.8668    0.0000 </r>
       <r>    6.9173    0.0000 </r>
       <r>    6.9844    0.0000 </r>
       <r>    7.0472    0.0000 </r>
       <r>    7.0574    0.0000 </r>
       <r>    7.0912    0.0000 </r>
       <r>    7.1713    0.0000 </r>
       <r>    7.2327    0.0000 </r>
       <r>    7.2678    0.0000 </r>
       <r>    7.3339    0.0000 </r>
       <r>    7.3913    0.0000 </r>
       <r>    7.4269    0.0000 </r>
       <r>    7.4679    0.0000 </r>
       <r>    7.4892    0.0000 </r>
       <r>    7.5612    0.0000 </r>
      </set>
     </set>
    </set>
   </array>
  </eigenvalues>
  <separator name="orbital magnetization" >
   <v name="MAGDIPOLOUT">      0.00000000      0.00000000      0.00000000</v>
  </separator>
  <dos>
   <i name="efermi">      1.44412587 </i>
   <total>
    <array>
     <dimension dim="1">gridpoints</dimension>
     <dimension dim="2">spin</dimension>
     <field>energy</field>
     <field>total</field>
     <field>integrated</field>
     <set>
      <set comment="spin 1">
       <r>   -66.8966     0.0000     0.0000 </r>
       <r>   -66.6366     0.0000     0.0000 </r>
       <r>   -66.3766     0.0000     0.0000 </r>
       <r>   -66.1166     0.0000     0.0000 </r>
       <r>   -65.8565     0.0000     0.0000 </r>
       <r>   -65.5965     0.0000     0.0000 </r>
       <r>   -65.3365     0.0000     0.0000 </r>
       <r>   -65.0765     0.0000     0.0000 </r>
       <r>   -64.8165     0.0000     0.0000 </r>
       <r>   -64.5565     0.0000     0.0000 </r>
       <r>   -64.2965     0.0000     0.0000 </r>
       <r>   -64.0365     0.0000     0.0000 </r>
       <r>   -63.7765     0.0178     0.0046 </r>
       <r>   -63.5164     2.2065     0.5783 </r>
       <r>   -63.2564    30.2971     8.4559 </r>
       <r>   -62.9964   121.7928    40.1234 </r>
       <r>   -62.7364   250.2300   105.1861 </r>
       <r>   -62.4764   247.7420   169.6018 </r>
       <r>   -62.2164   123.0800   201.6040 </r>
       <r>   -61.9564    33.0011   210.1847 </r>
       <r>   -61.6964    14.1251   213.8573 </r>
       <r>   -61.4363     7.6998   215.8594 </r>
       <r>   -61.1763     0.5384   215.9994 </r>
       <r>   -60.9163     0.0024   216.0000 </r>
       <r>   -60.6563     0.0000   216.0000 </r>
       <r>   -60.3963     0.0000   216.0000 </r>
       <r>   -60.1363     0.0000   216.0000 </r>
       <r>   -59.8763     0.0000   216.0000 </r>
       <r>   -59.6163     0.0000   216.0000 </r>
       <r>   -59.3563     0.0000   216.0000 </r>
       <r>   -59.0962     0.0000   216.0000 </r>
       <r>   -58.8362     0.0000   216.0000 </r>
       <r>   -58.5762     0.0000   216.0000 </r>
       <r>   -58.3162     0.0000   216.0000 </r>
       <r>   -58.0562     0.0000   216.0000 </r>
       <r>   -57.7962     0.0000   216.0000 </r>
       <r>   -57.5362     0.0000   216.0000 </r>
       <r>   -57.2762     0.0000   216.0000 </r>
       <r>   -57.0162     0.0000   216.0000 </r>
       <r>   -56.7561     0.0000   216.0000 </r>
       <r>   -56.4961     0.0000   216.0000 </r>
       <r>   -56.2361     0.0000   216.0000 </r>
       <r>   -55.9761     0.0000   216.0000 </r>
       <r>   -55.7161     0.0000   216.0000 </r>
       <r>   -55.4561     0.0000   216.0000 </r>
       <r>   -55.1961     0.0000   216.0000 </r>
       <r>   -54.9361     0.0000   216.0000 </r>
       <r>   -54.6761     0.0000   216.0000 </r>
       <r>   -54.4160     0.0000   216.0000 </r>
       <r>   -54.1560     0.0000   216.0000 </r>
       <r>   -53.8960     0.0000   216.0000 </r>
       <r>   -53.6360     0.0000   216.0000 </r>
       <r>   -53.3760     0.0000   216.0000 </r>
       <r>   -53.1160     0.0000   216.0000 </r>
       <r>   -52.8560     0.0000   216.0000 </r>
       <r>   -52.5960     0.0000   216.0000 </r>
       <r>   -52.3360     0.0000   216.0000 </r>
       <r>   -52.0759     0.0000   216.0000 </r>
       <r>   -51.8159     0.0000   216.0000 </r>
       <r>   -51.5559     0.0000   216.0000 </r>
       <r>   -51.2959     0.0000   216.0000 </r>
       <r>   -51.0359     0.0000   216.0000 </r>
       <r>   -50.7759     0.0000   216.0000 </r>
       <r>   -50.5159     0.0000   216.0000 </r>
       <r>   -50.2559     0.0000   216.0000 </r>
       <r>   -49.9959     0.0000   216.0000 </r>
       <r>   -49.7358     0.0000   216.0000 </r>
       <r>   -49.4758     0.0000   216.0000 </r>
       <r>   -49.2158     0.0000   216.0000 </r>
       <r>   -48.9558     0.0000   216.0000 </r>
       <r>   -48.6958     0.0000   216.0000 </r>
       <r>   -48.4358     0.0000   216.0000 </r>
       <r>   -48.1758     0.0000   216.0000 </r>
       <r>   -47.9158     0.0000   216.0000 </r>
       <r>   -47.6557     0.0000   216.0000 </r>
       <r>   -47.3957     0.0000   216.0000 </r>
       <r>   -47.1357     0.0000   216.0000 </r>
       <r>   -46.8757     0.0000   216.0000 </r>
       <r>   -46.6157     0.0000   216.0000 </r>
       <r>   -46.3557     0.0000   216.0000 </r>
       <r>   -46.0957     0.0000   216.0000 </r>
       <r>   -45.8357     0.0000   216.0000 </r>
       <r>   -45.5757     0.0000   216.0000 </r>
       <r>   -45.3156     0.0000   216.0000 </r>
       <r>   -45.0556     0.0000   216.0000 </r>
       <r>   -44.7956     0.0000   216.0000 </r>
       <r>   -44.5356     0.0000   216.0000 </r>
       <r>   -44.2756     0.0000   216.0000 </r>
       <r>   -44.0156     0.0000   216.0000 </r>
       <r>   -43.7556     0.0000   216.0000 </r>
       <r>   -43.4956     0.0000   216.0000 </r>
       <r>   -43.2356     0.0000   216.0000 </r>
       <r>   -42.9755     0.0000   216.0000 </r>
       <r>   -42.7155     0.0000   216.0000 </r>
       <r>   -42.4555     0.0000   216.0000 </r>
       <r>   -42.1955     0.0000   216.0000 </r>
       <r>   -41.9355     0.0000   216.0000 </r>
       <r>   -41.6755     0.0000   216.0000 </r>
       <r>   -41.4155     0.0000   216.0000 </r>
       <r>   -41.1555     0.0000   216.0000 </r>
       <r>   -40.8955     0.0000   216.0000 </r>
       <r>   -40.6354     0.0000   216.0000 </r>
       <r>   -40.3754     0.0000   216.0000 </r>
       <r>   -40.1154     0.0000   216.0000 </r>
       <r>   -39.8554     0.0000   216.0000 </r>
       <r>   -39.5954     0.0000   216.0000 </r>
       <r>   -39.3354     0.0000   216.0000 </r>
       <r>   -39.0754     0.0000   216.0000 </r>
       <r>   -38.8154     0.0000   216.0000 </r>
       <r>   -38.5554     0.0000   216.0000 </r>
       <r>   -38.2953     0.0000   216.0000 </r>
       <r>   -38.0353     0.0000   216.0000 </r>
       <r>   -37.7753     0.0000   216.0000 </r>
       <r>   -37.5153     0.0000   216.0000 </r>
       <r>   -37.2553     0.0000   216.0000 </r>
       <r>   -36.9953     0.0000   216.0000 </r>
       <r>   -36.7353     0.0000   216.0000 </r>
       <r>   -36.4753     0.0000   216.0000 </r>
       <r>   -36.2153     0.0000   216.0000 </r>
       <r>   -35.9552     0.0000   216.0000 </r>
       <r>   -35.6952     0.0000   216.0000 </r>
       <r>   -35.4352     0.0000   216.0000 </r>
       <r>   -35.1752     0.0000   216.0000 </r>
       <r>   -34.9152     0.0000   216.0000 </r>
       <r>   -34.6552     0.0000   216.0000 </r>
       <r>   -34.3952     0.0000   216.0000 </r>
       <r>   -34.1352     0.0000   216.0000 </r>
       <r>   -33.8751     0.0000   216.0000 </r>
       <r>   -33.6151     0.0000   216.0000 </r>
       <r>   -33.3551     0.0000   216.0000 </r>
       <r>   -33.0951     0.0000   216.0000 </r>
       <r>   -32.8351     0.0000   216.0000 </r>
       <r>   -32.5751     0.0000   216.0000 </r>
       <r>   -32.3151     0.0000   216.0000 </r>
       <r>   -32.0551     0.0000   216.0000 </r>
       <r>   -31.7951     0.0000   216.0000 </r>
       <r>   -31.5350     0.0000   216.0000 </r>
       <r>   -31.2750     0.0000   216.0000 </r>
       <r>   -31.0150     0.0000   216.0000 </r>
       <r>   -30.7550     0.0000   216.0000 </r>
       <r>   -30.4950     0.0000   216.0000 </r>
       <r>   -30.2350     0.0000   216.0000 </r>
       <r>   -29.9750     0.0000   216.0000 </r>
       <r>   -29.7150     0.0000   216.0000 </r>
       <r>   -29.4550     0.0000   216.0000 </r>
       <r>   -29.1949     0.0000   216.0000 </r>
       <r>   -28.9349     0.0000   216.0000 </r>
       <r>   -28.6749     0.0000   216.0000 </r>
       <r>   -28.4149     0.0000   216.0000 </r>
       <r>   -28.1549     0.0000   216.0000 </r>
       <r>   -27.8949     0.0000   216.0000 </r>
       <r>   -27.6349     0.0000   216.0000 </r>
       <r>   -27.3749     0.0000   216.0000 </r>
       <r>   -27.1149     0.0000   216.0000 </r>
       <r>   -26.8548     0.0000   216.0000 </r>
       <r>   -26.5948     0.0000   216.0000 </r>
       <r>   -26.3348     0.0000   216.0000 </r>
       <r>   -26.0748     0.0000   216.0000 </r>
       <r>   -25.8148     0.0000   216.0000 </r>
       <r>   -25.5548     0.0000   216.0000 </r>
       <r>   -25.2948     0.0000   216.0000 </r>
       <r>   -25.0348     0.0000   216.0000 </r>
       <r>   -24.7748     0.0000   216.0000 </r>
       <r>   -24.5147     0.0000   216.0000 </r>
       <r>   -24.2547     0.0000   216.0000 </r>
       <r>   -23.9947     0.0000   216.0000 </r>
       <r>   -23.7347     0.0000   216.0000 </r>
       <r>   -23.4747     0.0000   216.0000 </r>
       <r>   -23.2147     0.0000   216.0000 </r>
       <r>   -22.9547     0.0000   216.0000 </r>
       <r>   -22.6947     0.0000   216.0000 </r>
       <r>   -22.4347     0.0000   216.0000 </r>
       <r>   -22.1746     0.0000   216.0000 </r>
       <r>   -21.9146     0.0000   216.0000 </r>
       <r>   -21.6546     0.0000   216.0000 </r>
       <r>   -21.3946     0.0000   216.0000 </r>
       <r>   -21.1346     0.0000   216.0000 </r>
       <r>   -20.8746     0.0000   216.0000 </r>
       <r>   -20.6146     0.0000   216.0000 </r>
       <r>   -20.3546     0.0000   216.0000 </r>
       <r>   -20.0946     0.0000   216.0000 </r>
       <r>   -19.8345     0.0000   216.0000 </r>
       <r>   -19.5745     0.0000   216.0000 </r>
       <r>   -19.3145     0.0000   216.0000 </r>
       <r>   -19.0545     0.0000   216.0000 </r>
       <r>   -18.7945     0.0000   216.0000 </r>
       <r>   -18.5345     0.0000   216.0000 </r>
       <r>   -18.2745     0.0000   216.0000 </r>
       <r>   -18.0145     0.0000   216.0000 </r>
       <r>   -17.7544     0.0000   216.0000 </r>
       <r>   -17.4944     0.0000   216.0000 </r>
       <r>   -17.2344     0.0000   216.0000 </r>
       <r>   -16.9744     0.0000   216.0000 </r>
       <r>   -16.7144     0.0000   216.0000 </r>
       <r>   -16.4544     0.0000   216.0000 </r>
       <r>   -16.1944     0.0000   216.0000 </r>
       <r>   -15.9344     0.0000   216.0000 </r>
       <r>   -15.6744     0.0000   216.0000 </r>
       <r>   -15.4143     0.0004   216.0001 </r>
       <r>   -15.1543     0.1521   216.0396 </r>
       <r>   -14.8943     3.1042   216.8468 </r>
       <r>   -14.6343     6.4746   218.5302 </r>
       <r>   -14.3743     6.4093   220.1967 </r>
       <r>   -14.1143     9.0665   222.5541 </r>
       <r>   -13.8543    15.9157   226.6924 </r>
       <r>   -13.5943    20.7911   232.0983 </r>
       <r>   -13.3343    22.2533   237.8844 </r>
       <r>   -13.0742    21.7677   243.5442 </r>
       <r>   -12.8142    24.5546   249.9287 </r>
       <r>   -12.5542    27.9868   257.2056 </r>
       <r>   -12.2942    27.8742   264.4532 </r>
       <r>   -12.0342    24.7607   270.8912 </r>
       <r>   -11.7742    28.9154   278.4096 </r>
       <r>   -11.5142    19.9821   283.6052 </r>
       <r>   -11.2542    11.7021   286.6478 </r>
       <r>   -10.9942     4.9193   287.9269 </r>
       <r>   -10.7341     0.2801   287.9997 </r>
       <r>   -10.4741     0.0010   288.0000 </r>
       <r>   -10.2141     0.0000   288.0000 </r>
       <r>    -9.9541     0.0000   288.0000 </r>
       <r>    -9.6941     0.0000   288.0000 </r>
       <r>    -9.4341     0.0000   288.0000 </r>
       <r>    -9.1741     0.0000   288.0000 </r>
       <r>    -8.9141     0.0000   288.0000 </r>
       <r>    -8.6541     0.0000   288.0000 </r>
       <r>    -8.3940     0.0000   288.0000 </r>
       <r>    -8.1340     0.0000   288.0000 </r>
       <r>    -7.8740     0.0000   288.0000 </r>
       <r>    -7.6140     0.0000   288.0000 </r>
       <r>    -7.3540     0.0000   288.0000 </r>
       <r>    -7.0940     0.0124   288.0032 </r>
       <r>    -6.8340     1.1105   288.2920 </r>
       <r>    -6.5740     8.8126   290.5833 </r>
       <r>    -6.3140    18.3503   295.3546 </r>
       <r>    -6.0539    22.5955   301.2297 </r>
       <r>    -5.7939    30.7771   309.2321 </r>
       <r>    -5.5339    43.1140   320.4423 </r>
       <r>    -5.2739    46.0797   332.4235 </r>
       <r>    -5.0139    45.9739   344.3773 </r>
       <r>    -4.7539    38.3131   354.3391 </r>
       <r>    -4.4939    38.4306   364.3315 </r>
       <r>    -4.2339    42.5073   375.3839 </r>
       <r>    -3.9738    48.4910   387.9921 </r>
       <r>    -3.7138    57.9887   403.0698 </r>
       <r>    -3.4538    64.4642   419.8312 </r>
       <r>    -3.1938    65.1290   436.7655 </r>
       <r>    -2.9338    58.2448   451.9098 </r>
       <r>    -2.6738    55.2010   466.2627 </r>
       <r>    -2.4138    42.5793   477.3338 </r>
       <r>    -2.1538    42.5865   488.4068 </r>
       <r>    -1.8938    53.1013   502.2137 </r>
       <r>    -1.6337    57.6575   517.2053 </r>
       <r>    -1.3737    75.5577   536.8512 </r>
       <r>    -1.1137    95.3954   561.6551 </r>
       <r>    -0.8537   103.9104   588.6729 </r>
       <r>    -0.5937   122.9824   620.6497 </r>
       <r>    -0.3337   135.7714   655.9518 </r>
       <r>    -0.0737   128.6068   689.3911 </r>
       <r>     0.1863   106.0028   716.9530 </r>
       <r>     0.4463    75.4213   736.5634 </r>
       <r>     0.7064    61.8309   752.6401 </r>
       <r>     0.9664    51.6665   766.0740 </r>
       <r>     1.2264    55.1579   780.4157 </r>
       <r>     1.4864    52.7529   794.1320 </r>
       <r>     1.7464    48.3348   806.6996 </r>
       <r>     2.0064    45.5912   818.5539 </r>
       <r>     2.2664    53.1591   832.3758 </r>
       <r>     2.5264    47.9892   844.8536 </r>
       <r>     2.7864    38.8943   854.9665 </r>
       <r>     3.0465    24.6219   861.3685 </r>
       <r>     3.3065     9.3935   863.8109 </r>
       <r>     3.5665     0.8603   864.0346 </r>
       <r>     3.8265     3.7365   865.0061 </r>
       <r>     4.0865     9.0722   867.3650 </r>
       <r>     4.3465     3.3828   868.2445 </r>
       <r>     4.6065     8.3498   870.4156 </r>
       <r>     4.8665    12.9344   873.7787 </r>
       <r>     5.1265    13.9261   877.3996 </r>
       <r>     5.3866    12.7106   880.7045 </r>
       <r>     5.6466    22.3827   886.5243 </r>
       <r>     5.9066    26.2483   893.3491 </r>
       <r>     6.1666    27.4053   900.4748 </r>
       <r>     6.4266    30.3425   908.3642 </r>
       <r>     6.6866    34.1911   917.2543 </r>
       <r>     6.9466    34.1403   926.1311 </r>
       <r>     7.2066    39.3718   936.3683 </r>
       <r>     7.4666    38.3468   946.3389 </r>
       <r>     7.7267    19.9980   951.5386 </r>
       <r>     7.9867     1.7616   951.9966 </r>
       <r>     8.2467     0.0131   952.0000 </r>
       <r>     8.5067     0.0000   952.0000 </r>
       <r>     8.7667     0.0000   952.0000 </r>
       <r>     9.0267     0.0000   952.0000 </r>
       <r>     9.2867     0.0000   952.0000 </r>
       <r>     9.5467     0.0000   952.0000 </r>
       <r>     9.8068     0.0000   952.0000 </r>
       <r>    10.0668     0.0000   952.0000 </r>
       <r>    10.3268     0.0000   952.0000 </r>
       <r>    10.5868     0.0000   952.0000 </r>
       <r>    10.8468     0.0000   952.0000 </r>
       <r>    11.1068     0.0000   952.0000 </r>
      </set>
     </set>
    </array>
   </total>
  </dos>
 </calculation>
 <structure name="finalpos" >
  <crystal>
   <varray name="basis" >
    <v>      10.07973298       0.00000000       0.00000000 </v>
    <v>       3.57329804       9.42510255       0.00000000 </v>
    <v>       0.00000000       0.00000000      20.68350356 </v>
   </varray>
   <i name="volume">   1964.98490008 </i>
   <varray name="rec_basis" >
    <v>       0.09920898      -0.03761267       0.00000000 </v>
    <v>       0.00000000       0.10609964       0.00000000 </v>
    <v>       0.00000000       0.00000000       0.04834771 </v>
   </varray>
  </crystal>
  <varray name="positions" >
   <v>       0.39705889       0.79495179       0.11816221 </v>
   <v>       0.54732740       0.64468328       0.24509923 </v>
   <v>       0.69759592       0.49441477       0.37203626 </v>
   <v>       0.84462206       0.32219083       0.47828538 </v>
   <v>       0.11381506       0.41152895       0.16047455 </v>
   <v>       0.26408357       0.26126044       0.28741157 </v>
   <v>       0.41435209       0.11099193       0.41434860 </v>
   <v>       0.10252830       0.81030833       0.44592118 </v>
   <v>       0.71685469       0.21456282       0.13503661 </v>
   <v>       0.83057123       0.02810612       0.20278689 </v>
   <v>       0.98083974       0.87783760       0.32972391 </v>
   <v>       0.36438994       0.55277908       0.10398942 </v>
   <v>       0.50762556       0.42017912       0.21156171 </v>
   <v>       0.65789407       0.26991061       0.33849873 </v>
   <v>       0.77888111       0.11757220       0.44713625 </v>
   <v>       0.07411322       0.18702480       0.12693702 </v>
   <v>       0.22438173       0.03675628       0.25387405 </v>
   <v>       0.37465024       0.88648777       0.38081107 </v>
   <v>       0.43336095       0.72242346       0.46494179 </v>
   <v>       0.89385250       0.26420168       0.05304987 </v>
   <v>       0.58330006       0.88362897       0.08816338 </v>
   <v>       0.79086939       0.80360196       0.16924937 </v>
   <v>       0.94113790       0.65333345       0.29618639 </v>
   <v>       0.03137888       0.15412248       0.41670643 </v>
   <v>       0.59165857       0.59404354       0.07160787 </v>
   <v>       0.73212972       0.45988096       0.17802418 </v>
   <v>       0.88239823       0.30961245       0.30496121 </v>
   <v>       0.29861738       0.22672664       0.09339950 </v>
   <v>       0.44888589       0.07645813       0.22033653 </v>
   <v>       0.59915440       0.92618961       0.34727355 </v>
   <v>       0.77119120       0.79852654       0.42238560 </v>
   <v>       0.01537355       0.84330380       0.13571184 </v>
   <v>       0.16564206       0.69303529       0.26264887 </v>
   <v>       0.20047739       0.57580710       0.38357054 </v>
   <v>       0.45090180       0.47555486       0.41766890 </v>
   <v>       0.77715571       0.98412611       0.07615801 </v>
   <v>       0.98687932       0.01508749       0.48045566 </v>
   <v>       0.58579929       0.40599939       0.10847175 </v>
   <v>       0.73606780       0.25573088       0.23540877 </v>
   <v>       0.88633632       0.10546237       0.36234580 </v>
   <v>       0.11249739       0.23413658       0.03682761 </v>
   <v>       0.30255546       0.02257655       0.15078409 </v>
   <v>       0.45282397       0.87230804       0.27772112 </v>
   <v>       0.60309249       0.72203953       0.40465814 </v>
   <v>       0.01931163       0.63915371       0.19309643 </v>
   <v>       0.15454156       0.49415222       0.29659803 </v>
   <v>       0.32627966       0.34932649       0.40594843 </v>
   <v>       0.88284514       0.77265183       0.07881742 </v>
   <v>       0.48547218       0.78256224       0.02808426 </v>
   <v>       0.63635413       0.69187455       0.15117717 </v>
   <v>       0.78662264       0.54160604       0.27811420 </v>
   <v>       0.91694470       0.37711006       0.39565747 </v>
   <v>       0.22907824       0.44362535       0.08350185 </v>
   <v>       0.35311030       0.30845172       0.19348951 </v>
   <v>       0.50337881       0.15818320       0.32042654 </v>
   <v>       0.63620659       0.00789486       0.43583175 </v>
   <v>       0.06986647       0.92502888       0.23580185 </v>
   <v>       0.22013498       0.77476037       0.36273888 </v>
   <v>       0.28468283       0.62664330       0.47152064 </v>
   <v>       0.91959796       0.07529739       0.10886483 </v>
   <v>       0.21354282       0.75874175       0.08856556 </v>
   <v>       0.35047896       0.64131972       0.19388260 </v>
   <v>       0.50074747       0.49105121       0.32081962 </v>
   <v>       0.65101599       0.34078269       0.44775664 </v>
   <v>       0.06723513       0.25789688       0.23619494 </v>
   <v>       0.21750365       0.10762837       0.36313196 </v>
   <v>       0.39269161       0.94303111       0.47263998 </v>
   <v>       0.92095186       0.39800215       0.12322590 </v>
   <v>       0.46236127       0.07692475       0.04714590 </v>
   <v>       0.63372279       0.02474256       0.15157025 </v>
   <v>       0.78399130       0.87447404       0.27850728 </v>
   <v>       0.97972205       0.71053326       0.39311068 </v>
  </varray>
 </structure>
</modeling>
