       N       E                     dE             d eps       ncg     rms          rms(c)
DAV:   1     0.990767040870E+04    0.99077E+04   -0.51292E+05  1160   0.165E+03
DAV:   2     0.616710980352E+03   -0.92910E+04   -0.89746E+04  1004   0.532E+02
DAV:   3    -0.337898201468E+03   -0.95461E+03   -0.90477E+03  1088   0.185E+02
DAV:   4    -0.396886338138E+03   -0.58988E+02   -0.58256E+02  1072   0.416E+01
DAV:   5    -0.399403810528E+03   -0.25175E+01   -0.25132E+01  1256   0.912E+00    0.956E+01
DAV:   6    -0.471419966689E+03   -0.72016E+02   -0.94822E+02  1192   0.126E+02    0.159E+02
DAV:   7    -0.371262762225E+03    0.10016E+03   -0.20232E+02  1064   0.797E+01    0.706E+01
DAV:   8    -0.426057397181E+03   -0.54795E+02   -0.22157E+02  1240   0.986E+01    0.118E+02
DAV:   9    -0.373826418615E+03    0.52231E+02   -0.12766E+02  1228   0.606E+01    0.593E+01
DAV:  10    -0.404446117863E+03   -0.30620E+02   -0.98892E+01  1328   0.689E+01    0.923E+01
DAV:  11    -0.375236544997E+03    0.29210E+02   -0.63129E+01  1272   0.523E+01    0.551E+01
DAV:  12    -0.365776106550E+03    0.94604E+01   -0.46776E+01  1296   0.381E+01    0.365E+01
DAV:  13    -0.363966356401E+03    0.18098E+01   -0.22272E+01  1288   0.330E+01    0.565E+01
DAV:  14    -0.357501470368E+03    0.64649E+01   -0.19353E+01  1304   0.179E+01    0.266E+01
DAV:  15    -0.355015203292E+03    0.24863E+01   -0.43713E+00  1304   0.136E+01    0.220E+01
DAV:  16    -0.353335305147E+03    0.16799E+01   -0.21491E+00  1320   0.949E+00    0.194E+01
DAV:  17    -0.352503582220E+03    0.83172E+00   -0.11482E+00  1312   0.689E+00    0.175E+01
DAV:  18    -0.351986976453E+03    0.51661E+00   -0.54242E-01  1312   0.486E+00    0.162E+01
DAV:  19    -0.351209645724E+03    0.77733E+00   -0.34365E-01  1320   0.421E+00    0.137E+01
DAV:  20    -0.350533020883E+03    0.67662E+00   -0.34196E-01  1328   0.410E+00    0.116E+01
DAV:  21    -0.349789208566E+03    0.74381E+00   -0.52977E-01  1328   0.552E+00    0.764E+00
DAV:  22    -0.349600036908E+03    0.18917E+00   -0.44977E-01  1312   0.359E+00    0.579E+00
DAV:  23    -0.349533207323E+03    0.66830E-01   -0.26168E-01  1288   0.338E+00    0.458E+00
DAV:  24    -0.349516621513E+03    0.16586E-01   -0.18014E-01  1224   0.253E+00    0.421E+00
DAV:  25    -0.349477896326E+03    0.38725E-01   -0.20654E-01  1160   0.293E+00    0.308E+00
DAV:  26    -0.349472068150E+03    0.58282E-02   -0.14933E-01  1096   0.273E+00    0.295E+00
DAV:  27    -0.349452226335E+03    0.19842E-01   -0.69292E-02  1088   0.193E+00    0.202E+00
DAV:  28    -0.349436945097E+03    0.15281E-01   -0.28468E-02  1304   0.103E+00    0.132E+00
DAV:  29    -0.349435286560E+03    0.16585E-02   -0.17081E-02  1288   0.880E-01    0.114E+00
DAV:  30    -0.349435941925E+03   -0.65536E-03   -0.19182E-02  1392   0.878E-01    0.111E+00
DAV:  31    -0.349432800568E+03    0.31414E-02   -0.10963E-02  1208   0.650E-01    0.773E-01
DAV:  32    -0.349430620019E+03    0.21805E-02   -0.61061E-03  1328   0.578E-01    0.574E-01
DAV:  33    -0.349429893377E+03    0.72664E-03   -0.29146E-03  1192   0.363E-01    0.441E-01
DAV:  34    -0.349429287537E+03    0.60584E-03   -0.12310E-03  1080   0.221E-01    0.232E-01
DAV:  35    -0.349429309783E+03   -0.22245E-04   -0.37205E-04   776   0.124E-01
   1 F= -.34942931E+03 E0= -.34889852E+03  d E =-.106159E+01
