<?xml version="1.0" encoding="ISO-8859-1"?>
<modeling>
 <generator>
  <i name="program" type="string">vasp </i>
  <i name="version" type="string">5.4.4.18Apr17-6-g9f103f2a35  </i>
  <i name="subversion" type="string">(build Aug 13 2019 17:33:20) gamma-only         parallel </i>
  <i name="platform" type="string">LinuxIFC </i>
  <i name="date" type="string">2020 05 12 </i>
  <i name="time" type="string">21:51:23 </i>
 </generator>
 <incar>
  <i type="string" name="SYSTEM">"Millerite NiS"</i>
  <i type="string" name="PREC">normal</i>
  <i type="int" name="NSIM">     4</i>
  <i type="int" name="NELM">   100</i>
  <i name="ENCUT">    450.00000000</i>
  <i type="string" name="LREAL">A</i>
  <i type="int" name="ISMEAR">     0</i>
  <i type="int" name="NWRITE">     2</i>
  <i type="logical" name="LWAVE"> F  </i>
  <i type="logical" name="LCHARG"> F  </i>
  <v type="int" name="KPOINT_BSE">    -1     0     0     0</v>
  <i type="int" name="NELM">   100</i>
 </incar>
 <structure name="primitive_cell" >
  <crystal>
   <varray name="basis" >
    <v>      10.07973298       0.00000000       0.00000000 </v>
    <v>       3.57329804       9.42510255       0.00000000 </v>
    <v>       0.00000000       0.00000000      20.68350356 </v>
   </varray>
   <i name="volume">   1964.98490008 </i>
   <varray name="rec_basis" >
    <v>       0.09920898      -0.03761267       0.00000000 </v>
    <v>       0.00000000       0.10609964       0.00000000 </v>
    <v>       0.00000000       0.00000000       0.04834771 </v>
   </varray>
  </crystal>
  <varray name="positions" >
   <v>       0.39705889      -0.20504821       0.11816221 </v>
   <v>       0.48531813      -0.21800848       0.02800732 </v>
   <v>       0.21355450      -0.24129937       0.08866540 </v>
   <v>       0.30255546       0.02257655       0.15078409 </v>
   <v>      -0.36364587      -0.30812545       0.15117717 </v>
   <v>       0.35047896      -0.35868028       0.19388260 </v>
   <v>      -0.41690808      -0.11644120       0.08806128 </v>
   <v>      -0.40833020      -0.40604057       0.07158105 </v>
   <v>       0.36412954      -0.44731383       0.10409235 </v>
   <v>      -0.45267260      -0.35531672       0.24509923 </v>
   <v>       0.45877651       0.07371870       0.04664880 </v>
   <v>       0.45282397      -0.12769196       0.27772112 </v>
   <v>      -0.41420071       0.40599939       0.10847175 </v>
   <v>       0.44888589       0.07645813       0.22033653 </v>
   <v>       0.01537355      -0.15669620       0.13571184 </v>
   <v>       0.22438173       0.03675628       0.25387405 </v>
   <v>       0.06986647      -0.07497112       0.23580185 </v>
   <v>      -0.36627721       0.02474256       0.15157025 </v>
   <v>      -0.26787028       0.45988096       0.17802418 </v>
   <v>      -0.49237444       0.42017912       0.21156171 </v>
   <v>       0.07411322       0.18702480       0.12693702 </v>
   <v>       0.29861738       0.22672664       0.09339950 </v>
   <v>      -0.20913061      -0.19639804       0.16924937 </v>
   <v>       0.16564206      -0.30696471       0.26264887 </v>
   <v>       0.22878556       0.44365879       0.08340301 </v>
   <v>      -0.08040204       0.07529739       0.10886483 </v>
   <v>       0.11323179       0.23372224       0.03670252 </v>
   <v>       0.01931163      -0.36084629       0.19309643 </v>
   <v>      -0.11645299      -0.22850699       0.07882020 </v>
   <v>      -0.22183818      -0.01712853       0.07668200 </v>
   <v>      -0.49925253       0.49105121       0.32081962 </v>
   <v>      -0.21337736      -0.45839396       0.27811420 </v>
   <v>       0.35311030       0.30845172       0.19348951 </v>
   <v>       0.06723513       0.25789688       0.23619494 </v>
   <v>      -0.07899676       0.39831028       0.12316823 </v>
   <v>      -0.21600870      -0.12552596       0.27850728 </v>
   <v>       0.22013498      -0.22523963       0.36273888 </v>
   <v>       0.37465024      -0.11351223       0.38081107 </v>
   <v>      -0.40084560      -0.07381039       0.34727355 </v>
   <v>      -0.28206364       0.21539208       0.13503644 </v>
   <v>       0.11381506       0.41152895       0.16047455 </v>
   <v>      -0.16942877       0.02810612       0.20278689 </v>
   <v>       0.26408357       0.26126044       0.28741157 </v>
   <v>      -0.10527529       0.26499944       0.05260470 </v>
   <v>      -0.40805456      -0.27399066       0.38499153 </v>
   <v>      -0.26393220       0.25573088       0.23540877 </v>
   <v>       0.21750365       0.10762837       0.36313196 </v>
   <v>      -0.49662119       0.15818320       0.32042654 </v>
   <v>      -0.01916026      -0.12216240       0.32972391 </v>
   <v>       0.16958015       0.48888520       0.32003346 </v>
   <v>      -0.30240408       0.49441477       0.37203626 </v>
   <v>      -0.05886210      -0.34666655       0.29618639 </v>
   <v>       0.31591057      -0.45723322       0.38958589 </v>
   <v>      -0.11760177       0.30961245       0.30496121 </v>
   <v>      -0.34210593       0.26991061       0.33849873 </v>
   <v>       0.45536784      -0.33451831       0.44069824 </v>
   <v>       0.41435209       0.11099193       0.41434860 </v>
   <v>      -0.11366368       0.10546237       0.36234580 </v>
   <v>      -0.03440326      -0.28737549       0.39065879 </v>
   <v>       0.10686332      -0.22287773       0.44425503 </v>
   <v>       0.41408450      -0.05792555       0.46921374 </v>
   <v>       0.02582556       0.16310472       0.41691141 </v>
   <v>      -0.36485739       0.03236734       0.42797594 </v>
   <v>       0.09110367       0.49743744       0.41093890 </v>
   <v>       0.29042585      -0.37537071       0.48496357 </v>
   <v>      -0.06310885       0.39133753       0.40505122 </v>
   <v>      -0.34898401       0.34078269       0.44775664 </v>
   <v>       0.30593202       0.34944300       0.43210790 </v>
   <v>       0.00083352      -0.00677109       0.46996517 </v>
   <v>       0.44511664       0.42423930       0.48068849 </v>
   <v>      -0.21142828       0.12306587       0.44959837 </v>
   <v>      -0.16186026       0.34100931       0.47963616 </v>
  </varray>
 </structure>
 <varray name="primitive_index" >
  <v type="int" >        1 </v>
  <v type="int" >       49 </v>
  <v type="int" >       61 </v>
  <v type="int" >       42 </v>
  <v type="int" >       50 </v>
  <v type="int" >       62 </v>
  <v type="int" >       22 </v>
  <v type="int" >       26 </v>
  <v type="int" >       12 </v>
  <v type="int" >        2 </v>
  <v type="int" >       69 </v>
  <v type="int" >       43 </v>
  <v type="int" >       38 </v>
  <v type="int" >       30 </v>
  <v type="int" >       32 </v>
  <v type="int" >       17 </v>
  <v type="int" >       57 </v>
  <v type="int" >       70 </v>
  <v type="int" >       27 </v>
  <v type="int" >       13 </v>
  <v type="int" >       16 </v>
  <v type="int" >       29 </v>
  <v type="int" >       23 </v>
  <v type="int" >       33 </v>
  <v type="int" >       53 </v>
  <v type="int" >       60 </v>
  <v type="int" >       41 </v>
  <v type="int" >       45 </v>
  <v type="int" >       48 </v>
  <v type="int" >       36 </v>
  <v type="int" >       63 </v>
  <v type="int" >       51 </v>
  <v type="int" >       54 </v>
  <v type="int" >       65 </v>
  <v type="int" >       68 </v>
  <v type="int" >       71 </v>
  <v type="int" >       58 </v>
  <v type="int" >       18 </v>
  <v type="int" >       31 </v>
  <v type="int" >        9 </v>
  <v type="int" >        5 </v>
  <v type="int" >       10 </v>
  <v type="int" >        6 </v>
  <v type="int" >       20 </v>
  <v type="int" >       44 </v>
  <v type="int" >       39 </v>
  <v type="int" >       66 </v>
  <v type="int" >       55 </v>
  <v type="int" >       11 </v>
  <v type="int" >       46 </v>
  <v type="int" >        3 </v>
  <v type="int" >       24 </v>
  <v type="int" >       34 </v>
  <v type="int" >       28 </v>
  <v type="int" >       14 </v>
  <v type="int" >       19 </v>
  <v type="int" >        7 </v>
  <v type="int" >       40 </v>
  <v type="int" >       72 </v>
  <v type="int" >        8 </v>
  <v type="int" >       67 </v>
  <v type="int" >       25 </v>
  <v type="int" >       56 </v>
  <v type="int" >       21 </v>
  <v type="int" >       59 </v>
  <v type="int" >       52 </v>
  <v type="int" >       64 </v>
  <v type="int" >       47 </v>
  <v type="int" >       37 </v>
  <v type="int" >       35 </v>
  <v type="int" >       15 </v>
  <v type="int" >        4 </v>
 </varray>
 <kpoints>
  <generation param="Gamma">
   <v type="int" name="divisions">       1        1        1 </v>
   <v name="usershift">      0.00000000       0.00000000       0.00000000 </v>
   <v name="genvec1">      1.00000000      -0.00000000       0.00000000 </v>
   <v name="genvec2">      0.00000000       1.00000000       0.00000000 </v>
   <v name="genvec3">      0.00000000       0.00000000       1.00000000 </v>
   <v name="shift">      0.00000000       0.00000000       0.00000000 </v>
  </generation>
  <varray name="kpointlist" >
   <v>       0.00000000       0.00000000       0.00000000 </v>
  </varray>
  <varray name="weights" >
   <v>       1.00000000 </v>
  </varray>
 </kpoints>
 <parameters>
  <separator name="general" >
   <i type="string" name="SYSTEM">"Millerite NiS"</i>
   <i type="logical" name="LCOMPAT"> F  </i>
  </separator>
  <separator name="electronic" >
   <i type="string" name="PREC">normal</i>
   <i name="ENMAX">    450.00000000</i>
   <i name="ENAUG">    703.44300000</i>
   <i name="EDIFF">      0.00010000</i>
   <i type="int" name="IALGO">    38</i>
   <i type="int" name="IWAVPR">    10</i>
   <i type="int" name="NBANDS">   476</i>
   <i name="NELECT">    792.00000000</i>
   <i type="int" name="TURBO">     0</i>
   <i type="int" name="IRESTART">     0</i>
   <i type="int" name="NREBOOT">     0</i>
   <i type="int" name="NMIN">     0</i>
   <i name="EREF">      0.00000000</i>
   <separator name="electronic smearing" >
    <i type="int" name="ISMEAR">     0</i>
    <i name="SIGMA">      0.20000000</i>
    <i name="KSPACING">      0.50000000</i>
    <i type="logical" name="KGAMMA"> T  </i>
   </separator>
   <separator name="electronic projectors" >
    <i type="logical" name="LREAL"> T  </i>
    <v name="ROPT">     -0.00050000     -0.00050000</v>
    <i type="int" name="LMAXPAW">  -100</i>
    <i type="int" name="LMAXMIX">     2</i>
    <i type="logical" name="NLSPLINE"> F  </i>
   </separator>
   <separator name="electronic startup" >
    <i type="int" name="ISTART">     0</i>
    <i type="int" name="ICHARG">     2</i>
    <i type="int" name="INIWAV">     1</i>
   </separator>
   <separator name="electronic spin" >
    <i type="int" name="ISPIN">     1</i>
    <i type="logical" name="LNONCOLLINEAR"> F  </i>
    <v name="MAGMOM">      1.00000000      1.00000000      1.00000000      1.00000000      1.00000000      1.00000000      1.00000000      1.00000000      1.00000000      1.00000000      1.00000000      1.00000000      1.00000000      1.00000000      1.00000000      1.00000000      1.00000000      1.00000000      1.00000000      1.00000000
      1.00000000      1.00000000      1.00000000      1.00000000      1.00000000      1.00000000      1.00000000      1.00000000      1.00000000      1.00000000      1.00000000      1.00000000      1.00000000      1.00000000      1.00000000      1.00000000      1.00000000      1.00000000      1.00000000      1.00000000
      1.00000000      1.00000000      1.00000000      1.00000000      1.00000000      1.00000000      1.00000000      1.00000000      1.00000000      1.00000000      1.00000000      1.00000000      1.00000000      1.00000000      1.00000000      1.00000000      1.00000000      1.00000000      1.00000000      1.00000000
      1.00000000      1.00000000      1.00000000      1.00000000      1.00000000      1.00000000      1.00000000      1.00000000      1.00000000      1.00000000      1.00000000      1.00000000</v>
    <i name="NUPDOWN">     -1.00000000</i>
    <i type="logical" name="LSORBIT"> F  </i>
    <v name="SAXIS">      0.00000000      0.00000000      1.00000000</v>
    <i type="logical" name="LSPIRAL"> F  </i>
    <v name="QSPIRAL">      0.00000000      0.00000000      0.00000000</v>
    <i type="logical" name="LZEROZ"> F  </i>
   </separator>
   <separator name="electronic exchange-correlation" >
    <i type="logical" name="LASPH"> F  </i>
    <i type="logical" name="LMETAGGA"> F  </i>
   </separator>
   <separator name="electronic convergence" >
    <i type="int" name="NELM">   100</i>
    <i type="int" name="NELMDL">    -5</i>
    <i type="int" name="NELMIN">     2</i>
    <i name="ENINI">    450.00000000</i>
    <separator name="electronic convergence detail" >
     <i type="logical" name="LDIAG"> T  </i>
     <i type="logical" name="LSUBROT"> F  </i>
     <i name="WEIMIN">      0.00000000</i>
     <i name="EBREAK">      0.00000005</i>
     <i name="DEPER">      0.30000000</i>
     <i type="int" name="NRMM">     4</i>
     <i name="TIME">      0.40000000</i>
    </separator>
   </separator>
   <separator name="electronic mixer" >
    <i name="AMIX">      0.40000000</i>
    <i name="BMIX">      1.00000000</i>
    <i name="AMIN">      0.10000000</i>
    <i name="AMIX_MAG">      1.60000000</i>
    <i name="BMIX_MAG">      1.00000000</i>
    <separator name="electronic mixer details" >
     <i type="int" name="IMIX">     4</i>
     <i type="logical" name="MIXFIRST"> F  </i>
     <i type="int" name="MAXMIX">   -45</i>
     <i name="WC">    100.00000000</i>
     <i type="int" name="INIMIX">     1</i>
     <i type="int" name="MIXPRE">     1</i>
     <i type="int" name="MREMOVE">     5</i>
    </separator>
   </separator>
   <separator name="electronic dipolcorrection" >
    <i type="logical" name="LDIPOL"> F  </i>
    <i type="logical" name="LMONO"> F  </i>
    <i type="int" name="IDIPOL">     0</i>
    <i name="EPSILON">      1.00000000</i>
    <v name="DIPOL">   -100.00000000   -100.00000000   -100.00000000</v>
    <i name="EFIELD">      0.00000000</i>
   </separator>
  </separator>
  <separator name="grids" >
   <i type="int" name="NGX">    54</i>
   <i type="int" name="NGY">    54</i>
   <i type="int" name="NGZ">   108</i>
   <i type="int" name="NGXF">   108</i>
   <i type="int" name="NGYF">   108</i>
   <i type="int" name="NGZF">   216</i>
   <i type="logical" name="ADDGRID"> F  </i>
  </separator>
  <separator name="ionic" >
   <i type="int" name="NSW">     0</i>
   <i type="int" name="IBRION">    -1</i>
   <i type="int" name="MDALGO">     0</i>
   <i type="int" name="ISIF">     2</i>
   <i name="PSTRESS">      0.00000000</i>
   <i name="EDIFFG">      0.00100000</i>
   <i type="int" name="NFREE">     0</i>
   <i name="POTIM">      0.50000000</i>
   <i name="SMASS">     -3.00000000</i>
   <i name="SCALEE">      1.00000000</i>
  </separator>
  <separator name="ionic md" >
   <i name="TEBEG">      0.00010000</i>
   <i name="TEEND">      0.00010000</i>
   <i type="int" name="NBLOCK">     1</i>
   <i type="int" name="KBLOCK">     1</i>
   <i type="int" name="NPACO">   256</i>
   <i name="APACO">     16.00000000</i>
  </separator>
  <separator name="symmetry" >
   <i type="int" name="ISYM">     2</i>
   <i name="SYMPREC">      0.00001000</i>
  </separator>
  <separator name="dos" >
   <i type="int" name="LORBIT">     0</i>
   <v name="RWIGS">     -1.00000000     -1.00000000</v>
   <i type="int" name="NEDOS">   301</i>
   <i name="EMIN">     10.00000000</i>
   <i name="EMAX">    -10.00000000</i>
   <i name="EFERMI">      0.00000000</i>
  </separator>
  <separator name="writing" >
   <i type="int" name="NWRITE">     2</i>
   <i type="logical" name="LWAVE"> F  </i>
   <i type="logical" name="LDOWNSAMPLE"> F  </i>
   <i type="logical" name="LCHARG"> F  </i>
   <i type="logical" name="LPARD"> F  </i>
   <i type="logical" name="LVTOT"> F  </i>
   <i type="logical" name="LVHAR"> F  </i>
   <i type="logical" name="LELF"> F  </i>
   <i type="logical" name="LOPTICS"> F  </i>
   <v name="STM">      0.00000000      0.00000000      0.00000000      0.00000000      0.00000000      0.00000000      0.00000000</v>
  </separator>
  <separator name="performance" >
   <i type="int" name="NPAR">     2</i>
   <i type="int" name="NSIM">     4</i>
   <i type="int" name="NBLK">    -1</i>
   <i type="logical" name="LPLANE"> T  </i>
   <i type="logical" name="LSCALAPACK"> T  </i>
   <i type="logical" name="LSCAAWARE"> F  </i>
   <i type="logical" name="LSCALU"> F  </i>
   <i type="logical" name="LASYNC"> F  </i>
   <i type="logical" name="LORBITALREAL"> F  </i>
  </separator>
  <separator name="miscellaneous" >
   <i type="int" name="IDIOT">     3</i>
   <i type="int" name="ISPECIAL">     0</i>
   <i type="logical" name="LMUSIC"> F  </i>
   <v name="POMASS">     58.69000000     32.06600000</v>
   <v name="DARWINR">      0.00000000      0.00000000</v>
   <v name="DARWINV">      1.00000000      1.00000000</v>
   <i type="logical" name="LCORR"> T  </i>
  </separator>
  <i type="logical" name="GGA_COMPAT"> T  </i>
  <i type="logical" name="LBERRY"> F  </i>
  <i type="int" name="ICORELEVEL">     0</i>
  <i type="logical" name="LDAU"> F  </i>
  <i type="int" name="I_CONSTRAINED_M">     0</i>
  <separator name="electronic exchange-correlation" >
   <i type="string" name="GGA">--</i>
   <i type="int" name="VOSKOWN">     0</i>
   <i type="logical" name="LHFCALC"> F  </i>
   <i type="string" name="PRECFOCK"></i>
   <i type="logical" name="LSYMGRAD"> F  </i>
   <i type="logical" name="LHFONE"> F  </i>
   <i type="logical" name="LRHFCALC"> F  </i>
   <i type="logical" name="LTHOMAS"> F  </i>
   <i type="logical" name="LMODELHF"> F  </i>
   <i name="ENCUT4O">     -1.00000000</i>
   <i type="int" name="EXXOEP">     0</i>
   <i type="int" name="FOURORBIT">     0</i>
   <i name="AEXX">      0.00000000</i>
   <i name="HFALPHA">      0.00000000</i>
   <i name="MCALPHA">      0.00000000</i>
   <i name="ALDAX">      1.00000000</i>
   <i name="AGGAX">      1.00000000</i>
   <i name="ALDAC">      1.00000000</i>
   <i name="AGGAC">      1.00000000</i>
   <i type="int" name="NKREDX">     1</i>
   <i type="int" name="NKREDY">     1</i>
   <i type="int" name="NKREDZ">     1</i>
   <i type="logical" name="SHIFTRED"> F  </i>
   <i type="logical" name="ODDONLY"> F  </i>
   <i type="logical" name="EVENONLY"> F  </i>
   <i type="int" name="LMAXFOCK">     0</i>
   <i type="int" name="NMAXFOCKAE">     0</i>
   <i type="logical" name="LFOCKAEDFT"> F  </i>
   <i name="HFSCREEN">      0.00000000</i>
   <i name="HFSCREENC">      0.00000000</i>
   <i type="int" name="NBANDSGWLOW">     0</i>
  </separator>
  <separator name="vdW DFT" >
   <i type="logical" name="LUSE_VDW"> F  </i>
   <i name="Zab_VDW">     -0.84910000</i>
   <i name="PARAM1">      0.12340000</i>
   <i name="PARAM2">      1.00000000</i>
   <i name="PARAM3">      0.00000000</i>
  </separator>
  <separator name="model GW" >
   <i type="int" name="MODEL_GW">     0</i>
   <i name="MODEL_EPS0">     16.37487417</i>
   <i name="MODEL_ALPHA">      1.00000000</i>
  </separator>
  <separator name="linear response parameters" >
   <i type="logical" name="LEPSILON"> F  </i>
   <i type="logical" name="LRPA"> F  </i>
   <i type="logical" name="LNABLA"> F  </i>
   <i type="logical" name="LVEL"> F  </i>
   <i type="int" name="KINTER">     0</i>
   <i name="CSHIFT">      0.10000000</i>
   <i name="OMEGAMAX">     -1.00000000</i>
   <i name="DEG_THRESHOLD">      0.00200000</i>
   <i name="RTIME">     -0.10000000</i>
   <i name="WPLASMAI">      0.00000000</i>
   <v name="DFIELD">      0.00000000      0.00000000      0.00000000</v>
   <v name="WPLASMA">      0.00000000      0.00000000      0.00000000      0.00000000      0.00000000      0.00000000      0.00000000      0.00000000      0.00000000</v>
  </separator>
  <separator name="orbital magnetization" >
   <i type="logical" name="NUCIND"> F  </i>
   <v name="MAGPOS">      0.00000000      0.00000000      0.00000000</v>
   <i type="logical" name="LNICSALL"> T  </i>
   <i type="logical" name="ORBITALMAG"> F  </i>
   <i type="logical" name="LMAGBLOCH"> F  </i>
   <i type="logical" name="LCHIMAG"> F  </i>
   <i type="logical" name="LGAUGE"> T  </i>
   <i type="int" name="MAGATOM">     0</i>
   <v name="MAGDIPOL">      0.00000000      0.00000000      0.00000000</v>
   <v name="AVECCONST">      0.00000000      0.00000000      0.00000000</v>
  </separator>
  <separator name="response functions" >
   <i type="logical" name="LADDER"> F  </i>
   <i type="logical" name="LRPAFORCE"> F  </i>
   <i type="logical" name="LFXC"> F  </i>
   <i type="logical" name="LHARTREE"> T  </i>
   <i type="int" name="IBSE">     0</i>
   <v type="int" name="KPOINT">    -1     0     0     0</v>
   <i type="logical" name="LTCTE"> F  </i>
   <i type="logical" name="LTETE"> F  </i>
   <i type="logical" name="LTRIPLET"> F  </i>
   <i type="logical" name="LFXCEPS"> F  </i>
   <i type="logical" name="LFXHEG"> F  </i>
   <i type="int" name="NATURALO">     2</i>
   <i type="logical" name="L2ORDER"> F  </i>
   <i type="logical" name="LMP2LT"> F  </i>
   <i type="logical" name="LUSEW"> F  </i>
   <i name="ENCUTGW">     -2.00000000</i>
   <i name="ENCUTGWSOFT">     -2.00000000</i>
   <i name="ENCUTLF">     -1.00000000</i>
   <i type="int" name="LMAXMP2">    -1</i>
   <i name="SCISSOR">      0.00000000</i>
   <i type="int" name="NOMEGA">     0</i>
   <i type="int" name="NOMEGAR">     0</i>
   <i type="int" name="NBANDSGW">    -1</i>
   <i type="int" name="NBANDSO">    -1</i>
   <i type="int" name="NBANDSV">    -1</i>
   <i type="int" name="NELM">   100</i>
   <i type="int" name="NELMHF">     1</i>
   <i type="int" name="DIM">     3</i>
   <i type="int" name="ANTIRES">     0</i>
   <i name="OMEGAMAX">    -30.00000000</i>
   <i name="OMEGAMIN">    -30.00000000</i>
   <i name="OMEGATL">   -200.00000000</i>
   <i type="int" name="OMEGAGRID">   140</i>
   <i name="CSHIFT">     -0.10000000</i>
   <i type="logical" name="SELFENERGY"> F  </i>
   <i type="logical" name="LSPECTRAL"> F  </i>
   <i type="logical" name="LSPECTRALGW"> F  </i>
   <i type="logical" name="LSINGLES"> F  </i>
   <i type="logical" name="LFERMIGW"> F  </i>
   <i type="logical" name="ODDONLYGW"> F  </i>
   <i type="logical" name="EVENONLYGW"> F  </i>
   <i type="int" name="NKREDLFX">     1</i>
   <i type="int" name="NKREDLFY">     1</i>
   <i type="int" name="NKREDLFZ">     1</i>
   <i type="int" name="MAXMEM">  2800</i>
   <i type="int" name="TELESCOPE">     0</i>
   <i type="int" name="TAUPAR">     1</i>
   <i type="int" name="OMEGAPAR">    -1</i>
   <i name="LAMBDA">      1.00000000</i>
  </separator>
  <separator name="External order field" >
   <i name="OFIELD_KAPPA">      0.00000000</i>
   <v name="OFIELD_K">      0.00000000      0.00000000      0.00000000</v>
   <i name="OFIELD_Q6_NEAR">      0.00000000</i>
   <i name="OFIELD_Q6_FAR">      0.00000000</i>
   <i name="OFIELD_A">      0.00000000</i>
  </separator>
 </parameters>
 <atominfo>
  <atoms>      72 </atoms>
  <types>       2 </types>
  <array name="atoms" >
   <dimension dim="1">ion</dimension>
   <field type="string">element</field>
   <field type="int">atomtype</field>
   <set>
    <rc><c>Ni</c><c>   1</c></rc>
    <rc><c>Ni</c><c>   1</c></rc>
    <rc><c>Ni</c><c>   1</c></rc>
    <rc><c>Ni</c><c>   1</c></rc>
    <rc><c>Ni</c><c>   1</c></rc>
    <rc><c>Ni</c><c>   1</c></rc>
    <rc><c>Ni</c><c>   1</c></rc>
    <rc><c>Ni</c><c>   1</c></rc>
    <rc><c>Ni</c><c>   1</c></rc>
    <rc><c>Ni</c><c>   1</c></rc>
    <rc><c>Ni</c><c>   1</c></rc>
    <rc><c>Ni</c><c>   1</c></rc>
    <rc><c>Ni</c><c>   1</c></rc>
    <rc><c>Ni</c><c>   1</c></rc>
    <rc><c>Ni</c><c>   1</c></rc>
    <rc><c>Ni</c><c>   1</c></rc>
    <rc><c>Ni</c><c>   1</c></rc>
    <rc><c>Ni</c><c>   1</c></rc>
    <rc><c>Ni</c><c>   1</c></rc>
    <rc><c>Ni</c><c>   1</c></rc>
    <rc><c>Ni</c><c>   1</c></rc>
    <rc><c>Ni</c><c>   1</c></rc>
    <rc><c>Ni</c><c>   1</c></rc>
    <rc><c>Ni</c><c>   1</c></rc>
    <rc><c>Ni</c><c>   1</c></rc>
    <rc><c>Ni</c><c>   1</c></rc>
    <rc><c>Ni</c><c>   1</c></rc>
    <rc><c>Ni</c><c>   1</c></rc>
    <rc><c>Ni</c><c>   1</c></rc>
    <rc><c>Ni</c><c>   1</c></rc>
    <rc><c>Ni</c><c>   1</c></rc>
    <rc><c>Ni</c><c>   1</c></rc>
    <rc><c>Ni</c><c>   1</c></rc>
    <rc><c>Ni</c><c>   1</c></rc>
    <rc><c>Ni</c><c>   1</c></rc>
    <rc><c>Ni</c><c>   1</c></rc>
    <rc><c>S </c><c>   2</c></rc>
    <rc><c>S </c><c>   2</c></rc>
    <rc><c>S </c><c>   2</c></rc>
    <rc><c>S </c><c>   2</c></rc>
    <rc><c>S </c><c>   2</c></rc>
    <rc><c>S </c><c>   2</c></rc>
    <rc><c>S </c><c>   2</c></rc>
    <rc><c>S </c><c>   2</c></rc>
    <rc><c>S </c><c>   2</c></rc>
    <rc><c>S </c><c>   2</c></rc>
    <rc><c>S </c><c>   2</c></rc>
    <rc><c>S </c><c>   2</c></rc>
    <rc><c>S </c><c>   2</c></rc>
    <rc><c>S </c><c>   2</c></rc>
    <rc><c>S </c><c>   2</c></rc>
    <rc><c>S </c><c>   2</c></rc>
    <rc><c>S </c><c>   2</c></rc>
    <rc><c>S </c><c>   2</c></rc>
    <rc><c>S </c><c>   2</c></rc>
    <rc><c>S </c><c>   2</c></rc>
    <rc><c>S </c><c>   2</c></rc>
    <rc><c>S </c><c>   2</c></rc>
    <rc><c>S </c><c>   2</c></rc>
    <rc><c>S </c><c>   2</c></rc>
    <rc><c>S </c><c>   2</c></rc>
    <rc><c>S </c><c>   2</c></rc>
    <rc><c>S </c><c>   2</c></rc>
    <rc><c>S </c><c>   2</c></rc>
    <rc><c>S </c><c>   2</c></rc>
    <rc><c>S </c><c>   2</c></rc>
    <rc><c>S </c><c>   2</c></rc>
    <rc><c>S </c><c>   2</c></rc>
    <rc><c>S </c><c>   2</c></rc>
    <rc><c>S </c><c>   2</c></rc>
    <rc><c>S </c><c>   2</c></rc>
    <rc><c>S </c><c>   2</c></rc>
   </set>
  </array>
  <array name="atomtypes" >
   <dimension dim="1">type</dimension>
   <field type="int">atomspertype</field>
   <field type="string">element</field>
   <field>mass</field>
   <field>valence</field>
   <field type="string">pseudopotential</field>
   <set>
    <rc><c>  36</c><c>Ni</c><c>     58.69000000</c><c>     16.00000000</c><c>  PAW_PBE Ni_pv 06Sep2000               </c></rc>
    <rc><c>  36</c><c>S </c><c>     32.06600000</c><c>      6.00000000</c><c>  PAW_PBE S 06Sep2000                   </c></rc>
   </set>
  </array>
 </atominfo>
 <structure name="initialpos" >
  <crystal>
   <varray name="basis" >
    <v>      10.07973298       0.00000000       0.00000000 </v>
    <v>       3.57329804       9.42510255       0.00000000 </v>
    <v>       0.00000000       0.00000000      20.68350356 </v>
   </varray>
   <i name="volume">   1964.98490008 </i>
   <varray name="rec_basis" >
    <v>       0.09920898      -0.03761267       0.00000000 </v>
    <v>       0.00000000       0.10609964       0.00000000 </v>
    <v>       0.00000000       0.00000000       0.04834771 </v>
   </varray>
  </crystal>
  <varray name="positions" >
   <v>       0.39705889       0.79495179       0.11816221 </v>
   <v>       0.54732740       0.64468328       0.24509923 </v>
   <v>       0.69759592       0.49441477       0.37203626 </v>
   <v>       0.83813974       0.34100931       0.47963616 </v>
   <v>       0.11381506       0.41152895       0.16047455 </v>
   <v>       0.26408357       0.26126044       0.28741157 </v>
   <v>       0.41435209       0.11099193       0.41434860 </v>
   <v>       0.10686332       0.77712227       0.44425503 </v>
   <v>       0.71793636       0.21539208       0.13503644 </v>
   <v>       0.83057123       0.02810612       0.20278689 </v>
   <v>       0.98083974       0.87783760       0.32972391 </v>
   <v>       0.36412954       0.55268617       0.10409235 </v>
   <v>       0.50762556       0.42017912       0.21156171 </v>
   <v>       0.65789407       0.26991061       0.33849873 </v>
   <v>       0.78857172       0.12306587       0.44959837 </v>
   <v>       0.07411322       0.18702480       0.12693702 </v>
   <v>       0.22438173       0.03675628       0.25387405 </v>
   <v>       0.37465024       0.88648777       0.38081107 </v>
   <v>       0.45536784       0.66548169       0.44069824 </v>
   <v>       0.89472471       0.26499944       0.05260470 </v>
   <v>       0.09110367       0.49743744       0.41093890 </v>
   <v>       0.58309192       0.88355880       0.08806128 </v>
   <v>       0.79086939       0.80360196       0.16924937 </v>
   <v>       0.94113790       0.65333345       0.29618639 </v>
   <v>       0.02582556       0.16310472       0.41691141 </v>
   <v>       0.59166980       0.59395943       0.07158105 </v>
   <v>       0.73212972       0.45988096       0.17802418 </v>
   <v>       0.88239823       0.30961245       0.30496121 </v>
   <v>       0.29861738       0.22672664       0.09339950 </v>
   <v>       0.44888589       0.07645813       0.22033653 </v>
   <v>       0.59915440       0.92618961       0.34727355 </v>
   <v>       0.01537355       0.84330380       0.13571184 </v>
   <v>       0.16564206       0.69303529       0.26264887 </v>
   <v>       0.31591057       0.54276678       0.38958589 </v>
   <v>       0.44511664       0.42423930       0.48068849 </v>
   <v>       0.77816182       0.98287147       0.07668200 </v>
   <v>       0.00083352       0.99322891       0.46996517 </v>
   <v>       0.58579929       0.40599939       0.10847175 </v>
   <v>       0.73606780       0.25573088       0.23540877 </v>
   <v>       0.88633632       0.10546237       0.36234580 </v>
   <v>       0.11323179       0.23372224       0.03670252 </v>
   <v>       0.30255546       0.02257655       0.15078409 </v>
   <v>       0.45282397       0.87230804       0.27772112 </v>
   <v>       0.59194544       0.72600934       0.38499153 </v>
   <v>       0.01931163       0.63915371       0.19309643 </v>
   <v>       0.16958015       0.48888520       0.32003346 </v>
   <v>       0.30593202       0.34944300       0.43210790 </v>
   <v>       0.88354701       0.77149301       0.07882020 </v>
   <v>       0.48531813       0.78199152       0.02800732 </v>
   <v>       0.63635413       0.69187455       0.15117717 </v>
   <v>       0.78662264       0.54160604       0.27811420 </v>
   <v>       0.93689115       0.39133753       0.40505122 </v>
   <v>       0.22878556       0.44365879       0.08340301 </v>
   <v>       0.35311030       0.30845172       0.19348951 </v>
   <v>       0.50337881       0.15818320       0.32042654 </v>
   <v>       0.63514261       0.03236734       0.42797594 </v>
   <v>       0.06986647       0.92502888       0.23580185 </v>
   <v>       0.22013498       0.77476037       0.36273888 </v>
   <v>       0.29042585       0.62462929       0.48496357 </v>
   <v>       0.91959796       0.07529739       0.10886483 </v>
   <v>       0.21355450       0.75870063       0.08866540 </v>
   <v>       0.35047896       0.64131972       0.19388260 </v>
   <v>       0.50074747       0.49105121       0.32081962 </v>
   <v>       0.65101599       0.34078269       0.44775664 </v>
   <v>       0.06723513       0.25789688       0.23619494 </v>
   <v>       0.21750365       0.10762837       0.36313196 </v>
   <v>       0.41408450       0.94207445       0.46921374 </v>
   <v>       0.92100324       0.39831028       0.12316823 </v>
   <v>       0.45877651       0.07371870       0.04664880 </v>
   <v>       0.63372279       0.02474256       0.15157025 </v>
   <v>       0.78399130       0.87447404       0.27850728 </v>
   <v>       0.96559674       0.71262451       0.39065879 </v>
  </varray>
 </structure>
 <calculation>
  <scstep>
   <time name="dav">    6.81    6.81</time>
   <time name="total">    7.08    7.09</time>
   <energy>
    <i name="alphaZ">   1893.09323658 </i>
    <i name="ewald"> 218643.57680523 </i>
    <i name="hartreedc">-340851.76070073 </i>
    <i name="XCdc">   3679.50113884 </i>
    <i name="pawpsdc"> 112729.53333415 </i>
    <i name="pawaedc">-117641.51188735 </i>
    <i name="eentropy">     -0.32659348 </i>
    <i name="bandstr">  -4547.03997830 </i>
    <i name="atom"> 136002.60505376 </i>
    <i name="e_fr_energy">   9907.67040870 </i>
    <i name="e_wo_entrp">   9907.99700218 </i>
    <i name="e_0_energy">   9907.83370544 </i>
   </energy>
  </scstep>
  <scstep>
   <time name="dav">    6.12    6.12</time>
   <time name="total">    6.12    6.12</time>
   <energy>
    <i name="e_fr_energy">    616.71098035 </i>
    <i name="e_wo_entrp">    617.50667173 </i>
    <i name="e_0_energy">    617.10882604 </i>
   </energy>
  </scstep>
  <scstep>
   <time name="dav">    6.48    6.48</time>
   <time name="total">    6.48    6.48</time>
   <energy>
    <i name="e_fr_energy">   -337.89820147 </i>
    <i name="e_wo_entrp">   -336.86594861 </i>
    <i name="e_0_energy">   -337.38207504 </i>
   </energy>
  </scstep>
  <scstep>
   <time name="dav">    6.67    6.67</time>
   <time name="total">    6.67    6.67</time>
   <energy>
    <i name="e_fr_energy">   -396.88633814 </i>
    <i name="e_wo_entrp">   -395.80642489 </i>
    <i name="e_0_energy">   -396.34638152 </i>
   </energy>
  </scstep>
  <scstep>
   <time name="dav">    7.28    7.29</time>
   <time name="total">    7.51    7.51</time>
   <energy>
    <i name="e_fr_energy">   -399.40381053 </i>
    <i name="e_wo_entrp">   -398.33250795 </i>
    <i name="e_0_energy">   -398.86815924 </i>
   </energy>
  </scstep>
  <scstep>
   <time name="dav">    6.99    6.99</time>
   <time name="total">    7.47    7.47</time>
   <energy>
    <i name="e_fr_energy">   -471.41996669 </i>
    <i name="e_wo_entrp">   -470.45561132 </i>
    <i name="e_0_energy">   -470.93778900 </i>
   </energy>
  </scstep>
  <scstep>
   <time name="dav">    6.69    6.69</time>
   <time name="total">    7.17    7.17</time>
   <energy>
    <i name="e_fr_energy">   -371.26276222 </i>
    <i name="e_wo_entrp">   -370.33109785 </i>
    <i name="e_0_energy">   -370.79693004 </i>
   </energy>
  </scstep>
  <scstep>
   <time name="dav">    7.16    7.16</time>
   <time name="total">    7.64    7.65</time>
   <energy>
    <i name="e_fr_energy">   -426.05739718 </i>
    <i name="e_wo_entrp">   -424.95614484 </i>
    <i name="e_0_energy">   -425.50677101 </i>
   </energy>
  </scstep>
  <scstep>
   <time name="dav">    7.11    7.11</time>
   <time name="total">    7.59    7.59</time>
   <energy>
    <i name="e_fr_energy">   -373.82641861 </i>
    <i name="e_wo_entrp">   -372.80580947 </i>
    <i name="e_0_energy">   -373.31611404 </i>
   </energy>
  </scstep>
  <scstep>
   <time name="dav">    7.67    7.67</time>
   <time name="total">    8.25    8.25</time>
   <energy>
    <i name="e_fr_energy">   -404.44611786 </i>
    <i name="e_wo_entrp">   -403.16103368 </i>
    <i name="e_0_energy">   -403.80357577 </i>
   </energy>
  </scstep>
  <scstep>
   <time name="dav">    7.32    7.32</time>
   <time name="total">    7.80    7.80</time>
   <energy>
    <i name="e_fr_energy">   -375.23654500 </i>
    <i name="e_wo_entrp">   -374.24051133 </i>
    <i name="e_0_energy">   -374.73852817 </i>
   </energy>
  </scstep>
  <scstep>
   <time name="dav">    7.65    7.65</time>
   <time name="total">    8.13    8.13</time>
   <energy>
    <i name="e_fr_energy">   -365.77610655 </i>
    <i name="e_wo_entrp">   -364.91731617 </i>
    <i name="e_0_energy">   -365.34671136 </i>
   </energy>
  </scstep>
  <scstep>
   <time name="dav">    7.40    7.41</time>
   <time name="total">    7.89    7.89</time>
   <energy>
    <i name="e_fr_energy">   -363.96635640 </i>
    <i name="e_wo_entrp">   -362.97091252 </i>
    <i name="e_0_energy">   -363.46863446 </i>
   </energy>
  </scstep>
  <scstep>
   <time name="dav">    7.69    7.69</time>
   <time name="total">    8.19    8.19</time>
   <energy>
    <i name="e_fr_energy">   -357.50147037 </i>
    <i name="e_wo_entrp">   -356.60963354 </i>
    <i name="e_0_energy">   -357.05555196 </i>
   </energy>
  </scstep>
  <scstep>
   <time name="dav">    7.56    7.56</time>
   <time name="total">    8.04    8.04</time>
   <energy>
    <i name="e_fr_energy">   -355.01520329 </i>
    <i name="e_wo_entrp">   -354.12075935 </i>
    <i name="e_0_energy">   -354.56798132 </i>
   </energy>
  </scstep>
  <scstep>
   <time name="dav">    7.76    7.77</time>
   <time name="total">    8.25    8.25</time>
   <energy>
    <i name="e_fr_energy">   -353.33530515 </i>
    <i name="e_wo_entrp">   -352.39949903 </i>
    <i name="e_0_energy">   -352.86740209 </i>
   </energy>
  </scstep>
  <scstep>
   <time name="dav">    7.47    7.47</time>
   <time name="total">    7.96    7.96</time>
   <energy>
    <i name="e_fr_energy">   -352.50358222 </i>
    <i name="e_wo_entrp">   -351.57999393 </i>
    <i name="e_0_energy">   -352.04178807 </i>
   </energy>
  </scstep>
  <scstep>
   <time name="dav">    7.69    7.69</time>
   <time name="total">    8.18    8.19</time>
   <energy>
    <i name="e_fr_energy">   -351.98697645 </i>
    <i name="e_wo_entrp">   -351.03014128 </i>
    <i name="e_0_energy">   -351.50855887 </i>
   </energy>
  </scstep>
  <scstep>
   <time name="dav">    7.48    7.48</time>
   <time name="total">    7.97    7.97</time>
   <energy>
    <i name="e_fr_energy">   -351.20964572 </i>
    <i name="e_wo_entrp">   -350.25397260 </i>
    <i name="e_0_energy">   -350.73180916 </i>
   </energy>
  </scstep>
  <scstep>
   <time name="dav">    7.81    7.81</time>
   <time name="total">    8.30    8.30</time>
   <energy>
    <i name="e_fr_energy">   -350.53302088 </i>
    <i name="e_wo_entrp">   -349.53461957 </i>
    <i name="e_0_energy">   -350.03382023 </i>
   </energy>
  </scstep>
  <scstep>
   <time name="dav">    7.53    7.53</time>
   <time name="total">    8.02    8.02</time>
   <energy>
    <i name="e_fr_energy">   -349.78920857 </i>
    <i name="e_wo_entrp">   -348.75773090 </i>
    <i name="e_0_energy">   -349.27346973 </i>
   </energy>
  </scstep>
  <scstep>
   <time name="dav">    7.72    7.72</time>
   <time name="total">    8.21    8.21</time>
   <energy>
    <i name="e_fr_energy">   -349.60003691 </i>
    <i name="e_wo_entrp">   -348.53979192 </i>
    <i name="e_0_energy">   -349.06991441 </i>
   </energy>
  </scstep>
  <scstep>
   <time name="dav">    7.39    7.39</time>
   <time name="total">    7.89    7.89</time>
   <energy>
    <i name="e_fr_energy">   -349.53320732 </i>
    <i name="e_wo_entrp">   -348.46614458 </i>
    <i name="e_0_energy">   -348.99967595 </i>
   </energy>
  </scstep>
  <scstep>
   <time name="dav">    7.32    7.32</time>
   <time name="total">    7.81    7.82</time>
   <energy>
    <i name="e_fr_energy">   -349.51662151 </i>
    <i name="e_wo_entrp">   -348.43395312 </i>
    <i name="e_0_energy">   -348.97528731 </i>
   </energy>
  </scstep>
  <scstep>
   <time name="dav">    6.79    6.79</time>
   <time name="total">    7.29    7.29</time>
   <energy>
    <i name="e_fr_energy">   -349.47789633 </i>
    <i name="e_wo_entrp">   -348.40671399 </i>
    <i name="e_0_energy">   -348.94230516 </i>
   </energy>
  </scstep>
  <scstep>
   <time name="dav">    6.50    6.50</time>
   <time name="total">    7.00    7.01</time>
   <energy>
    <i name="e_fr_energy">   -349.47206815 </i>
    <i name="e_wo_entrp">   -348.39535398 </i>
    <i name="e_0_energy">   -348.93371107 </i>
   </energy>
  </scstep>
  <scstep>
   <time name="dav">    6.49    6.49</time>
   <time name="total">    7.17    7.18</time>
   <energy>
    <i name="e_fr_energy">   -349.45222633 </i>
    <i name="e_wo_entrp">   -348.37977857 </i>
    <i name="e_0_energy">   -348.91600245 </i>
   </energy>
  </scstep>
  <scstep>
   <time name="dav">    7.45    7.45</time>
   <time name="total">    7.95    7.95</time>
   <energy>
    <i name="e_fr_energy">   -349.43694510 </i>
    <i name="e_wo_entrp">   -348.36939656 </i>
    <i name="e_0_energy">   -348.90317083 </i>
   </energy>
  </scstep>
  <scstep>
   <time name="dav">    7.33    7.34</time>
   <time name="total">    8.03    8.03</time>
   <energy>
    <i name="e_fr_energy">   -349.43528656 </i>
    <i name="e_wo_entrp">   -348.37216011 </i>
    <i name="e_0_energy">   -348.90372334 </i>
   </energy>
  </scstep>
  <scstep>
   <time name="dav">    7.84    7.85</time>
   <time name="total">    8.37    8.38</time>
   <energy>
    <i name="e_fr_energy">   -349.43594192 </i>
    <i name="e_wo_entrp">   -348.38006075 </i>
    <i name="e_0_energy">   -348.90800134 </i>
   </energy>
  </scstep>
  <scstep>
   <time name="dav">    7.03    7.03</time>
   <time name="total">    7.53    7.54</time>
   <energy>
    <i name="e_fr_energy">   -349.43280057 </i>
    <i name="e_wo_entrp">   -348.37549143 </i>
    <i name="e_0_energy">   -348.90414600 </i>
   </energy>
  </scstep>
  <scstep>
   <time name="dav">    7.59    7.60</time>
   <time name="total">    8.18    8.19</time>
   <energy>
    <i name="e_fr_energy">   -349.43062002 </i>
    <i name="e_wo_entrp">   -348.36939104 </i>
    <i name="e_0_energy">   -348.90000553 </i>
   </energy>
  </scstep>
  <scstep>
   <time name="dav">    6.94    6.94</time>
   <time name="total">    7.44    7.44</time>
   <energy>
    <i name="e_fr_energy">   -349.42989338 </i>
    <i name="e_wo_entrp">   -348.36673983 </i>
    <i name="e_0_energy">   -348.89831660 </i>
   </energy>
  </scstep>
  <scstep>
   <time name="dav">    6.67    6.67</time>
   <time name="total">    7.18    7.18</time>
   <energy>
    <i name="e_fr_energy">   -349.42928754 </i>
    <i name="e_wo_entrp">   -348.36795427 </i>
    <i name="e_0_energy">   -348.89862090 </i>
   </energy>
  </scstep>
  <scstep>
   <time name="dav">    5.10    5.10</time>
   <time name="total">    5.37    5.37</time>
   <energy>
    <i name="alphaZ">   1893.09323658 </i>
    <i name="ewald"> 218643.57680523 </i>
    <i name="hartreedc">-340127.82920675 </i>
    <i name="XCdc">   3649.57704837 </i>
    <i name="pawpsdc"> 138482.72925208 </i>
    <i name="pawaedc">-143467.63091574 </i>
    <i name="eentropy">     -1.06158607 </i>
    <i name="bandstr"> -15424.48899726 </i>
    <i name="atom"> 136002.60505376 </i>
    <i name="e_fr_energy">   -349.42930978 </i>
    <i name="e_wo_entrp">   -348.36772371 </i>
    <i name="e_0_energy">   -348.89851675 </i>
   </energy>
  </scstep>
  <structure>
   <crystal>
    <varray name="basis" >
     <v>      10.07973298       0.00000000       0.00000000 </v>
     <v>       3.57329804       9.42510255       0.00000000 </v>
     <v>       0.00000000       0.00000000      20.68350356 </v>
    </varray>
    <i name="volume">   1964.98490008 </i>
    <varray name="rec_basis" >
     <v>       0.09920898      -0.03761267       0.00000000 </v>
     <v>       0.00000000       0.10609964       0.00000000 </v>
     <v>       0.00000000       0.00000000       0.04834771 </v>
    </varray>
   </crystal>
   <varray name="positions" >
    <v>       0.39705889       0.79495179       0.11816221 </v>
    <v>       0.54732740       0.64468328       0.24509923 </v>
    <v>       0.69759592       0.49441477       0.37203626 </v>
    <v>       0.83813974       0.34100931       0.47963616 </v>
    <v>       0.11381506       0.41152895       0.16047455 </v>
    <v>       0.26408357       0.26126044       0.28741157 </v>
    <v>       0.41435209       0.11099193       0.41434860 </v>
    <v>       0.10686332       0.77712227       0.44425503 </v>
    <v>       0.71793636       0.21539208       0.13503644 </v>
    <v>       0.83057123       0.02810612       0.20278689 </v>
    <v>       0.98083974       0.87783760       0.32972391 </v>
    <v>       0.36412954       0.55268617       0.10409235 </v>
    <v>       0.50762556       0.42017912       0.21156171 </v>
    <v>       0.65789407       0.26991061       0.33849873 </v>
    <v>       0.78857172       0.12306587       0.44959837 </v>
    <v>       0.07411322       0.18702480       0.12693702 </v>
    <v>       0.22438173       0.03675628       0.25387405 </v>
    <v>       0.37465024       0.88648777       0.38081107 </v>
    <v>       0.45536784       0.66548169       0.44069824 </v>
    <v>       0.89472471       0.26499944       0.05260470 </v>
    <v>       0.09110367       0.49743744       0.41093890 </v>
    <v>       0.58309192       0.88355880       0.08806128 </v>
    <v>       0.79086939       0.80360196       0.16924937 </v>
    <v>       0.94113790       0.65333345       0.29618639 </v>
    <v>       0.02582556       0.16310472       0.41691141 </v>
    <v>       0.59166980       0.59395943       0.07158105 </v>
    <v>       0.73212972       0.45988096       0.17802418 </v>
    <v>       0.88239823       0.30961245       0.30496121 </v>
    <v>       0.29861738       0.22672664       0.09339950 </v>
    <v>       0.44888589       0.07645813       0.22033653 </v>
    <v>       0.59915440       0.92618961       0.34727355 </v>
    <v>       0.01537355       0.84330380       0.13571184 </v>
    <v>       0.16564206       0.69303529       0.26264887 </v>
    <v>       0.31591057       0.54276678       0.38958589 </v>
    <v>       0.44511664       0.42423930       0.48068849 </v>
    <v>       0.77816182       0.98287147       0.07668200 </v>
    <v>       0.00083352       0.99322891       0.46996517 </v>
    <v>       0.58579929       0.40599939       0.10847175 </v>
    <v>       0.73606780       0.25573088       0.23540877 </v>
    <v>       0.88633632       0.10546237       0.36234580 </v>
    <v>       0.11323179       0.23372224       0.03670252 </v>
    <v>       0.30255546       0.02257655       0.15078409 </v>
    <v>       0.45282397       0.87230804       0.27772112 </v>
    <v>       0.59194544       0.72600934       0.38499153 </v>
    <v>       0.01931163       0.63915371       0.19309643 </v>
    <v>       0.16958015       0.48888520       0.32003346 </v>
    <v>       0.30593202       0.34944300       0.43210790 </v>
    <v>       0.88354701       0.77149301       0.07882020 </v>
    <v>       0.48531813       0.78199152       0.02800732 </v>
    <v>       0.63635413       0.69187455       0.15117717 </v>
    <v>       0.78662264       0.54160604       0.27811420 </v>
    <v>       0.93689115       0.39133753       0.40505122 </v>
    <v>       0.22878556       0.44365879       0.08340301 </v>
    <v>       0.35311030       0.30845172       0.19348951 </v>
    <v>       0.50337881       0.15818320       0.32042654 </v>
    <v>       0.63514261       0.03236734       0.42797594 </v>
    <v>       0.06986647       0.92502888       0.23580185 </v>
    <v>       0.22013498       0.77476037       0.36273888 </v>
    <v>       0.29042585       0.62462929       0.48496357 </v>
    <v>       0.91959796       0.07529739       0.10886483 </v>
    <v>       0.21355450       0.75870063       0.08866540 </v>
    <v>       0.35047896       0.64131972       0.19388260 </v>
    <v>       0.50074747       0.49105121       0.32081962 </v>
    <v>       0.65101599       0.34078269       0.44775664 </v>
    <v>       0.06723513       0.25789688       0.23619494 </v>
    <v>       0.21750365       0.10762837       0.36313196 </v>
    <v>       0.41408450       0.94207445       0.46921374 </v>
    <v>       0.92100324       0.39831028       0.12316823 </v>
    <v>       0.45877651       0.07371870       0.04664880 </v>
    <v>       0.63372279       0.02474256       0.15157025 </v>
    <v>       0.78399130       0.87447404       0.27850728 </v>
    <v>       0.96559674       0.71262451       0.39065879 </v>
   </varray>
  </structure>
  <varray name="forces" >
   <v>      -0.99417698       0.35278212       2.00662536 </v>
   <v>      -0.05996994      -0.13534356       0.09862668 </v>
   <v>      -0.06781584       0.06001727       0.18080486 </v>
   <v>       0.27705887       0.04929763       1.40836713 </v>
   <v>       0.13935866       0.15413404       1.75733746 </v>
   <v>       0.00272904      -0.19385323      -0.13313850 </v>
   <v>      -0.67252736       1.89144703      -1.32018186 </v>
   <v>      -0.66029008       0.23895864       1.07920789 </v>
   <v>      -0.96963542      -0.41728220      -0.88993471 </v>
   <v>       0.37144152      -0.96793260       1.70359663 </v>
   <v>       0.41303579       0.06721328      -0.85450933 </v>
   <v>       0.31923648      -0.44341878      -0.95195177 </v>
   <v>      -0.12086516       0.15740252       0.01497139 </v>
   <v>       0.10542789       0.05250405       0.14881489 </v>
   <v>      -0.71384228      -0.09492639       0.94354373 </v>
   <v>       0.96632540      -1.48200951       3.61468089 </v>
   <v>       0.24379848      -0.02746313      -0.22869029 </v>
   <v>      -1.23183525       0.04101173      -2.36998302 </v>
   <v>       0.86722656       0.06770410       0.66495120 </v>
   <v>      -1.11627444       0.14103337      -0.98017140 </v>
   <v>      -0.69532761      -0.26233313       1.11653970 </v>
   <v>       1.37428480      -0.50655145       0.03511184 </v>
   <v>      -0.37709917      -0.57694260       1.74697722 </v>
   <v>      -0.12893616      -0.32128417      -1.35917632 </v>
   <v>       0.75549972       0.30418976       0.67544807 </v>
   <v>       0.49197234      -1.46031379      -0.85437777 </v>
   <v>      -0.16177656       0.14030052       0.56256517 </v>
   <v>       0.20598045      -0.06695782      -0.11872441 </v>
   <v>      -0.37717408      -0.77762043       1.17718817 </v>
   <v>      -0.38564088       0.10913113       0.45322220 </v>
   <v>      -0.06261751       0.00181654      -1.69186823 </v>
   <v>       0.79021634      -0.40755805       1.12395700 </v>
   <v>       0.13346014       0.00934448      -0.25526355 </v>
   <v>      -0.59262388       0.53737451      -2.50026355 </v>
   <v>       0.58734987      -0.07722640       0.88410672 </v>
   <v>      -0.21385319       0.76275572      -1.70943842 </v>
   <v>       0.67328554      -0.26842536       2.19347894 </v>
   <v>      -1.24894699       0.57635180      -1.62492304 </v>
   <v>      -0.01110209      -0.07592785       1.28516074 </v>
   <v>      -0.53487754      -0.36419466      -3.40222938 </v>
   <v>       0.50270912      -0.32235468      -4.14174514 </v>
   <v>      -0.63772721       0.08560360       0.53350921 </v>
   <v>      -0.30555066       0.19307772      -0.75888733 </v>
   <v>       1.98865521      -0.78655387       0.96738820 </v>
   <v>       0.18069706      -0.17144540       0.62199251 </v>
   <v>       0.62789414      -0.30065803      -2.57298979 </v>
   <v>      -0.31180649      -1.67611283       1.70830525 </v>
   <v>      -0.19300424      -1.99289169      -3.27369805 </v>
   <v>      -0.37918212       0.58542940      -3.89714494 </v>
   <v>       0.84927403       0.55040416       2.08103276 </v>
   <v>       0.13567755      -0.20973697       0.17732943 </v>
   <v>       1.27034821       0.86892850      -0.46300213 </v>
   <v>      -0.33957732       1.31391883      -2.65894777 </v>
   <v>       0.36673720      -0.61547662       0.88684555 </v>
   <v>      -0.07705968       0.29038296      -0.98099239 </v>
   <v>       0.81621524      -1.10775430       2.54011611 </v>
   <v>       0.23386346       0.14123622       0.12504809 </v>
   <v>       1.19118524       0.31483887      -2.01205780 </v>
   <v>      -0.14684758       0.62616429       3.47012623 </v>
   <v>       2.00047065       0.05980132      -0.89572583 </v>
   <v>      -0.98321462       0.65751823      -2.06770866 </v>
   <v>       0.48119152       0.54001786       2.94894455 </v>
   <v>      -0.08828759      -0.22105766      -0.86312940 </v>
   <v>      -1.15977507       0.47930971       0.19292042 </v>
   <v>      -0.07013001      -0.15438111       0.37246362 </v>
   <v>       0.20940548       0.08397179      -0.44866051 </v>
   <v>      -0.14364046      -0.70491554       4.00740966 </v>
   <v>      -0.50049416       2.06119533      -0.46986144 </v>
   <v>       0.85673523       0.73585544      -2.65206716 </v>
   <v>      -0.89938481       1.38896558       2.27547735 </v>
   <v>       0.11276759       0.19363126      -0.35691609 </v>
   <v>      -2.90862443       0.30588247       1.97416719 </v>
  </varray>
  <varray name="stress" >
   <v>      64.47383347      -1.40758174      -0.81002659 </v>
   <v>      -1.40758145      63.22459233      -0.87224857 </v>
   <v>      -0.81002641      -0.87224868      86.06040755 </v>
  </varray>
  <energy>
   <i name="e_fr_energy">   -349.42930978 </i>
   <i name="e_wo_entrp">   -348.89851675 </i>
   <i name="e_0_energy">     -1.06158607 </i>
  </energy>
  <time name="totalsc">  272.47  272.52</time>
  <eigenvalues>
   <array>
    <dimension dim="1">band</dimension>
    <dimension dim="2">kpoint</dimension>
    <dimension dim="3">spin</dimension>
    <field>eigene</field>
    <field>occ</field>
    <set>
     <set comment="spin 1">
      <set comment="kpoint 1">
       <r>  -63.3581    1.0000 </r>
       <r>  -63.3068    1.0000 </r>
       <r>  -63.2593    1.0000 </r>
       <r>  -63.2453    1.0000 </r>
       <r>  -63.1797    1.0000 </r>
       <r>  -63.1759    1.0000 </r>
       <r>  -63.1484    1.0000 </r>
       <r>  -63.1473    1.0000 </r>
       <r>  -63.1452    1.0000 </r>
       <r>  -63.1340    1.0000 </r>
       <r>  -63.1161    1.0000 </r>
       <r>  -63.1013    1.0000 </r>
       <r>  -63.0948    1.0000 </r>
       <r>  -63.0775    1.0000 </r>
       <r>  -63.0650    1.0000 </r>
       <r>  -63.0595    1.0000 </r>
       <r>  -63.0418    1.0000 </r>
       <r>  -63.0412    1.0000 </r>
       <r>  -63.0393    1.0000 </r>
       <r>  -63.0170    1.0000 </r>
       <r>  -63.0092    1.0000 </r>
       <r>  -62.9790    1.0000 </r>
       <r>  -62.9673    1.0000 </r>
       <r>  -62.9601    1.0000 </r>
       <r>  -62.9352    1.0000 </r>
       <r>  -62.9305    1.0000 </r>
       <r>  -62.9283    1.0000 </r>
       <r>  -62.9060    1.0000 </r>
       <r>  -62.8944    1.0000 </r>
       <r>  -62.8887    1.0000 </r>
       <r>  -62.8794    1.0000 </r>
       <r>  -62.8784    1.0000 </r>
       <r>  -62.8724    1.0000 </r>
       <r>  -62.8718    1.0000 </r>
       <r>  -62.8613    1.0000 </r>
       <r>  -62.8602    1.0000 </r>
       <r>  -62.8542    1.0000 </r>
       <r>  -62.8429    1.0000 </r>
       <r>  -62.8361    1.0000 </r>
       <r>  -62.8333    1.0000 </r>
       <r>  -62.8288    1.0000 </r>
       <r>  -62.8220    1.0000 </r>
       <r>  -62.8130    1.0000 </r>
       <r>  -62.7876    1.0000 </r>
       <r>  -62.7850    1.0000 </r>
       <r>  -62.7827    1.0000 </r>
       <r>  -62.7772    1.0000 </r>
       <r>  -62.7733    1.0000 </r>
       <r>  -62.7696    1.0000 </r>
       <r>  -62.7623    1.0000 </r>
       <r>  -62.7585    1.0000 </r>
       <r>  -62.7507    1.0000 </r>
       <r>  -62.7337    1.0000 </r>
       <r>  -62.7335    1.0000 </r>
       <r>  -62.7297    1.0000 </r>
       <r>  -62.7235    1.0000 </r>
       <r>  -62.7077    1.0000 </r>
       <r>  -62.7054    1.0000 </r>
       <r>  -62.6966    1.0000 </r>
       <r>  -62.6901    1.0000 </r>
       <r>  -62.6849    1.0000 </r>
       <r>  -62.6784    1.0000 </r>
       <r>  -62.6776    1.0000 </r>
       <r>  -62.6614    1.0000 </r>
       <r>  -62.6596    1.0000 </r>
       <r>  -62.6419    1.0000 </r>
       <r>  -62.6319    1.0000 </r>
       <r>  -62.6305    1.0000 </r>
       <r>  -62.6235    1.0000 </r>
       <r>  -62.6213    1.0000 </r>
       <r>  -62.6120    1.0000 </r>
       <r>  -62.6018    1.0000 </r>
       <r>  -62.5936    1.0000 </r>
       <r>  -62.5932    1.0000 </r>
       <r>  -62.5929    1.0000 </r>
       <r>  -62.5790    1.0000 </r>
       <r>  -62.5687    1.0000 </r>
       <r>  -62.5660    1.0000 </r>
       <r>  -62.5649    1.0000 </r>
       <r>  -62.5551    1.0000 </r>
       <r>  -62.5485    1.0000 </r>
       <r>  -62.5452    1.0000 </r>
       <r>  -62.5359    1.0000 </r>
       <r>  -62.5182    1.0000 </r>
       <r>  -62.5179    1.0000 </r>
       <r>  -62.5162    1.0000 </r>
       <r>  -62.5067    1.0000 </r>
       <r>  -62.5021    1.0000 </r>
       <r>  -62.4898    1.0000 </r>
       <r>  -62.4633    1.0000 </r>
       <r>  -62.4551    1.0000 </r>
       <r>  -62.4442    1.0000 </r>
       <r>  -62.4402    1.0000 </r>
       <r>  -62.4247    1.0000 </r>
       <r>  -62.4213    1.0000 </r>
       <r>  -62.4172    1.0000 </r>
       <r>  -62.4019    1.0000 </r>
       <r>  -62.3948    1.0000 </r>
       <r>  -62.3669    1.0000 </r>
       <r>  -62.3492    1.0000 </r>
       <r>  -62.2592    1.0000 </r>
       <r>  -62.2164    1.0000 </r>
       <r>  -62.1138    1.0000 </r>
       <r>  -61.9701    1.0000 </r>
       <r>  -61.9004    1.0000 </r>
       <r>  -61.8767    1.0000 </r>
       <r>  -61.7935    1.0000 </r>
       <r>  -61.6577    1.0000 </r>
       <r>  -14.8055    1.0000 </r>
       <r>  -14.4741    1.0000 </r>
       <r>  -14.0918    1.0000 </r>
       <r>  -14.0270    1.0000 </r>
       <r>  -13.8994    1.0000 </r>
       <r>  -13.8029    1.0000 </r>
       <r>  -13.6686    1.0000 </r>
       <r>  -13.5814    1.0000 </r>
       <r>  -13.5254    1.0000 </r>
       <r>  -13.4258    1.0000 </r>
       <r>  -13.3948    1.0000 </r>
       <r>  -13.2932    1.0000 </r>
       <r>  -13.1561    1.0000 </r>
       <r>  -13.0775    1.0000 </r>
       <r>  -13.0064    1.0000 </r>
       <r>  -12.9237    1.0000 </r>
       <r>  -12.8679    1.0000 </r>
       <r>  -12.7651    1.0000 </r>
       <r>  -12.7249    1.0000 </r>
       <r>  -12.6402    1.0000 </r>
       <r>  -12.5195    1.0000 </r>
       <r>  -12.4474    1.0000 </r>
       <r>  -12.4286    1.0000 </r>
       <r>  -12.3500    1.0000 </r>
       <r>  -12.2827    1.0000 </r>
       <r>  -12.1976    1.0000 </r>
       <r>  -12.0996    1.0000 </r>
       <r>  -12.0262    1.0000 </r>
       <r>  -11.9315    1.0000 </r>
       <r>  -11.8670    1.0000 </r>
       <r>  -11.8169    1.0000 </r>
       <r>  -11.7390    1.0000 </r>
       <r>  -11.7236    1.0000 </r>
       <r>  -11.5298    1.0000 </r>
       <r>  -11.3800    1.0000 </r>
       <r>  -11.2485    1.0000 </r>
       <r>   -6.6473    1.0000 </r>
       <r>   -6.4757    1.0000 </r>
       <r>   -6.3358    1.0000 </r>
       <r>   -6.2238    1.0000 </r>
       <r>   -6.1445    1.0000 </r>
       <r>   -6.0707    1.0000 </r>
       <r>   -5.9035    1.0000 </r>
       <r>   -5.8833    1.0000 </r>
       <r>   -5.8611    1.0000 </r>
       <r>   -5.8134    1.0000 </r>
       <r>   -5.7883    1.0000 </r>
       <r>   -5.6934    1.0000 </r>
       <r>   -5.6747    1.0000 </r>
       <r>   -5.6248    1.0000 </r>
       <r>   -5.5910    1.0000 </r>
       <r>   -5.5658    1.0000 </r>
       <r>   -5.5005    1.0000 </r>
       <r>   -5.4876    1.0000 </r>
       <r>   -5.4210    1.0000 </r>
       <r>   -5.4070    1.0000 </r>
       <r>   -5.3397    1.0000 </r>
       <r>   -5.2746    1.0000 </r>
       <r>   -5.2440    1.0000 </r>
       <r>   -5.1825    1.0000 </r>
       <r>   -5.1521    1.0000 </r>
       <r>   -5.1196    1.0000 </r>
       <r>   -5.0628    1.0000 </r>
       <r>   -4.9967    1.0000 </r>
       <r>   -4.9739    1.0000 </r>
       <r>   -4.9542    1.0000 </r>
       <r>   -4.8674    1.0000 </r>
       <r>   -4.7937    1.0000 </r>
       <r>   -4.7209    1.0000 </r>
       <r>   -4.7156    1.0000 </r>
       <r>   -4.6190    1.0000 </r>
       <r>   -4.6015    1.0000 </r>
       <r>   -4.5729    1.0000 </r>
       <r>   -4.5301    1.0000 </r>
       <r>   -4.4797    1.0000 </r>
       <r>   -4.4255    1.0000 </r>
       <r>   -4.3698    1.0000 </r>
       <r>   -4.3452    1.0000 </r>
       <r>   -4.3118    1.0000 </r>
       <r>   -4.2440    1.0000 </r>
       <r>   -4.1797    1.0000 </r>
       <r>   -4.1469    1.0000 </r>
       <r>   -4.0967    1.0000 </r>
       <r>   -4.0768    1.0000 </r>
       <r>   -4.0401    1.0000 </r>
       <r>   -3.9575    1.0000 </r>
       <r>   -3.9079    1.0000 </r>
       <r>   -3.8966    1.0000 </r>
       <r>   -3.8519    1.0000 </r>
       <r>   -3.7986    1.0000 </r>
       <r>   -3.7898    1.0000 </r>
       <r>   -3.7335    1.0000 </r>
       <r>   -3.7175    1.0000 </r>
       <r>   -3.6913    1.0000 </r>
       <r>   -3.6635    1.0000 </r>
       <r>   -3.6281    1.0000 </r>
       <r>   -3.5919    1.0000 </r>
       <r>   -3.5680    1.0000 </r>
       <r>   -3.5457    1.0000 </r>
       <r>   -3.5277    1.0000 </r>
       <r>   -3.4977    1.0000 </r>
       <r>   -3.4538    1.0000 </r>
       <r>   -3.4376    1.0000 </r>
       <r>   -3.3856    1.0000 </r>
       <r>   -3.3754    1.0000 </r>
       <r>   -3.3586    1.0000 </r>
       <r>   -3.3030    1.0000 </r>
       <r>   -3.2917    1.0000 </r>
       <r>   -3.2705    1.0000 </r>
       <r>   -3.2264    1.0000 </r>
       <r>   -3.1916    1.0000 </r>
       <r>   -3.1245    1.0000 </r>
       <r>   -3.1019    1.0000 </r>
       <r>   -3.0590    1.0000 </r>
       <r>   -3.0392    1.0000 </r>
       <r>   -3.0274    1.0000 </r>
       <r>   -2.9841    1.0000 </r>
       <r>   -2.9415    1.0000 </r>
       <r>   -2.9348    1.0000 </r>
       <r>   -2.8930    1.0000 </r>
       <r>   -2.8835    1.0000 </r>
       <r>   -2.8422    1.0000 </r>
       <r>   -2.7990    1.0000 </r>
       <r>   -2.7612    1.0000 </r>
       <r>   -2.7154    1.0000 </r>
       <r>   -2.6896    1.0000 </r>
       <r>   -2.6731    1.0000 </r>
       <r>   -2.6344    1.0000 </r>
       <r>   -2.5684    1.0000 </r>
       <r>   -2.5231    1.0000 </r>
       <r>   -2.4915    1.0000 </r>
       <r>   -2.3443    1.0000 </r>
       <r>   -2.3265    1.0000 </r>
       <r>   -2.2625    1.0000 </r>
       <r>   -2.1236    1.0000 </r>
       <r>   -2.0718    1.0000 </r>
       <r>   -2.0702    1.0000 </r>
       <r>   -2.0485    1.0000 </r>
       <r>   -2.0013    1.0000 </r>
       <r>   -1.9574    1.0000 </r>
       <r>   -1.9443    1.0000 </r>
       <r>   -1.9281    1.0000 </r>
       <r>   -1.8826    1.0000 </r>
       <r>   -1.8364    1.0000 </r>
       <r>   -1.8083    1.0000 </r>
       <r>   -1.7645    1.0000 </r>
       <r>   -1.7484    1.0000 </r>
       <r>   -1.7073    1.0000 </r>
       <r>   -1.6850    1.0000 </r>
       <r>   -1.6235    1.0000 </r>
       <r>   -1.6071    1.0000 </r>
       <r>   -1.6028    1.0000 </r>
       <r>   -1.5713    1.0000 </r>
       <r>   -1.5270    1.0000 </r>
       <r>   -1.5085    1.0000 </r>
       <r>   -1.4713    1.0000 </r>
       <r>   -1.4613    1.0000 </r>
       <r>   -1.4342    1.0000 </r>
       <r>   -1.4244    1.0000 </r>
       <r>   -1.4078    1.0000 </r>
       <r>   -1.3616    1.0000 </r>
       <r>   -1.3426    1.0000 </r>
       <r>   -1.3400    1.0000 </r>
       <r>   -1.3121    1.0000 </r>
       <r>   -1.2845    1.0000 </r>
       <r>   -1.2415    1.0000 </r>
       <r>   -1.2330    1.0000 </r>
       <r>   -1.2111    1.0000 </r>
       <r>   -1.1978    1.0000 </r>
       <r>   -1.1740    1.0000 </r>
       <r>   -1.1635    1.0000 </r>
       <r>   -1.1536    1.0000 </r>
       <r>   -1.1122    1.0000 </r>
       <r>   -1.0957    1.0000 </r>
       <r>   -1.0833    1.0000 </r>
       <r>   -1.0554    1.0000 </r>
       <r>   -1.0370    1.0000 </r>
       <r>   -1.0332    1.0000 </r>
       <r>   -0.9982    1.0000 </r>
       <r>   -0.9905    1.0000 </r>
       <r>   -0.9725    1.0000 </r>
       <r>   -0.9592    1.0000 </r>
       <r>   -0.9186    1.0000 </r>
       <r>   -0.8811    1.0000 </r>
       <r>   -0.8760    1.0000 </r>
       <r>   -0.8495    1.0000 </r>
       <r>   -0.8422    1.0000 </r>
       <r>   -0.8127    1.0000 </r>
       <r>   -0.8048    1.0000 </r>
       <r>   -0.7941    1.0000 </r>
       <r>   -0.7756    1.0000 </r>
       <r>   -0.7695    1.0000 </r>
       <r>   -0.7499    1.0000 </r>
       <r>   -0.7355    1.0000 </r>
       <r>   -0.7192    1.0000 </r>
       <r>   -0.7075    1.0000 </r>
       <r>   -0.6892    1.0000 </r>
       <r>   -0.6651    1.0000 </r>
       <r>   -0.6441    1.0000 </r>
       <r>   -0.6325    1.0000 </r>
       <r>   -0.6229    1.0000 </r>
       <r>   -0.6211    1.0000 </r>
       <r>   -0.6058    1.0000 </r>
       <r>   -0.5903    1.0000 </r>
       <r>   -0.5762    1.0000 </r>
       <r>   -0.5515    1.0000 </r>
       <r>   -0.5331    1.0000 </r>
       <r>   -0.5186    1.0000 </r>
       <r>   -0.5131    1.0000 </r>
       <r>   -0.4867    1.0000 </r>
       <r>   -0.4623    1.0000 </r>
       <r>   -0.4526    1.0000 </r>
       <r>   -0.4263    1.0000 </r>
       <r>   -0.4182    1.0000 </r>
       <r>   -0.4170    1.0000 </r>
       <r>   -0.4073    1.0000 </r>
       <r>   -0.3952    1.0000 </r>
       <r>   -0.3795    1.0000 </r>
       <r>   -0.3686    1.0000 </r>
       <r>   -0.3658    1.0000 </r>
       <r>   -0.3359    1.0000 </r>
       <r>   -0.3290    1.0000 </r>
       <r>   -0.3101    1.0000 </r>
       <r>   -0.2910    1.0000 </r>
       <r>   -0.2833    1.0000 </r>
       <r>   -0.2760    1.0000 </r>
       <r>   -0.2532    1.0000 </r>
       <r>   -0.2444    1.0000 </r>
       <r>   -0.2258    1.0000 </r>
       <r>   -0.2227    1.0000 </r>
       <r>   -0.1825    1.0000 </r>
       <r>   -0.1659    1.0000 </r>
       <r>   -0.1473    1.0000 </r>
       <r>   -0.1402    1.0000 </r>
       <r>   -0.1235    1.0000 </r>
       <r>   -0.1162    1.0000 </r>
       <r>   -0.0993    1.0000 </r>
       <r>   -0.0706    1.0000 </r>
       <r>   -0.0549    1.0000 </r>
       <r>   -0.0496    1.0000 </r>
       <r>   -0.0319    1.0000 </r>
       <r>   -0.0274    1.0000 </r>
       <r>   -0.0106    1.0000 </r>
       <r>   -0.0006    1.0000 </r>
       <r>    0.0240    1.0000 </r>
       <r>    0.0439    1.0000 </r>
       <r>    0.0502    1.0000 </r>
       <r>    0.0727    1.0000 </r>
       <r>    0.0969    1.0000 </r>
       <r>    0.1366    1.0000 </r>
       <r>    0.1439    1.0000 </r>
       <r>    0.1671    1.0000 </r>
       <r>    0.2060    1.0000 </r>
       <r>    0.2225    1.0000 </r>
       <r>    0.2330    1.0000 </r>
       <r>    0.2823    1.0000 </r>
       <r>    0.3130    1.0000 </r>
       <r>    0.3692    1.0000 </r>
       <r>    0.4001    1.0000 </r>
       <r>    0.4106    1.0000 </r>
       <r>    0.4419    1.0000 </r>
       <r>    0.4649    1.0000 </r>
       <r>    0.4988    1.0000 </r>
       <r>    0.5133    1.0000 </r>
       <r>    0.5567    1.0000 </r>
       <r>    0.5669    1.0000 </r>
       <r>    0.6089    1.0000 </r>
       <r>    0.6511    1.0000 </r>
       <r>    0.7029    1.0000 </r>
       <r>    0.7201    1.0000 </r>
       <r>    0.7527    1.0000 </r>
       <r>    0.8079    1.0000 </r>
       <r>    0.8413    1.0000 </r>
       <r>    0.8563    1.0000 </r>
       <r>    0.8815    1.0000 </r>
       <r>    0.9061    0.9999 </r>
       <r>    0.9522    0.9998 </r>
       <r>    1.0262    0.9988 </r>
       <r>    1.0549    0.9977 </r>
       <r>    1.0828    0.9958 </r>
       <r>    1.1174    0.9916 </r>
       <r>    1.2275    0.9465 </r>
       <r>    1.2371    0.9388 </r>
       <r>    1.2876    0.8825 </r>
       <r>    1.3244    0.8230 </r>
       <r>    1.3590    0.7524 </r>
       <r>    1.3958    0.6636 </r>
       <r>    1.4574    0.4946 </r>
       <r>    1.4931    0.3952 </r>
       <r>    1.5089    0.3528 </r>
       <r>    1.5485    0.2553 </r>
       <r>    1.5717    0.2056 </r>
       <r>    1.6168    0.1270 </r>
       <r>    1.6466    0.0883 </r>
       <r>    1.6958    0.0446 </r>
       <r>    1.7172    0.0321 </r>
       <r>    1.8071    0.0065 </r>
       <r>    1.8235    0.0046 </r>
       <r>    1.8666    0.0018 </r>
       <r>    1.8936    0.0010 </r>
       <r>    1.9383    0.0003 </r>
       <r>    2.0158    0.0000 </r>
       <r>    2.0373    0.0000 </r>
       <r>    2.0700    0.0000 </r>
       <r>    2.0966    0.0000 </r>
       <r>    2.1254    0.0000 </r>
       <r>    2.1811    0.0000 </r>
       <r>    2.2417    0.0000 </r>
       <r>    2.2654    0.0000 </r>
       <r>    2.2838    0.0000 </r>
       <r>    2.3244    0.0000 </r>
       <r>    2.3586    0.0000 </r>
       <r>    2.4429    0.0000 </r>
       <r>    2.4887    0.0000 </r>
       <r>    2.5023    0.0000 </r>
       <r>    2.5319    0.0000 </r>
       <r>    2.5806    0.0000 </r>
       <r>    2.6341    0.0000 </r>
       <r>    2.6631    0.0000 </r>
       <r>    2.7482    0.0000 </r>
       <r>    2.8016    0.0000 </r>
       <r>    2.8573    0.0000 </r>
       <r>    2.9463    0.0000 </r>
       <r>    3.0974    0.0000 </r>
       <r>    3.8940    0.0000 </r>
       <r>    3.9984    0.0000 </r>
       <r>    4.4791    0.0000 </r>
       <r>    4.6502    0.0000 </r>
       <r>    4.8007    0.0000 </r>
       <r>    4.8973    0.0000 </r>
       <r>    5.0560    0.0000 </r>
       <r>    5.1553    0.0000 </r>
       <r>    5.3645    0.0000 </r>
       <r>    5.4258    0.0000 </r>
       <r>    5.6014    0.0000 </r>
       <r>    5.6192    0.0000 </r>
       <r>    5.7053    0.0000 </r>
       <r>    5.7342    0.0000 </r>
       <r>    5.7901    0.0000 </r>
       <r>    5.8861    0.0000 </r>
       <r>    5.9425    0.0000 </r>
       <r>    6.0911    0.0000 </r>
       <r>    6.1976    0.0000 </r>
       <r>    6.2407    0.0000 </r>
       <r>    6.2890    0.0000 </r>
       <r>    6.3064    0.0000 </r>
       <r>    6.4120    0.0000 </r>
       <r>    6.4739    0.0000 </r>
       <r>    6.5156    0.0000 </r>
       <r>    6.5853    0.0000 </r>
       <r>    6.6801    0.0000 </r>
       <r>    6.7512    0.0000 </r>
       <r>    6.8568    0.0000 </r>
       <r>    6.9259    0.0000 </r>
       <r>    6.9421    0.0000 </r>
       <r>    6.9635    0.0000 </r>
       <r>    7.0524    0.0000 </r>
       <r>    7.0795    0.0000 </r>
       <r>    7.1004    0.0000 </r>
       <r>    7.1617    0.0000 </r>
       <r>    7.2277    0.0000 </r>
       <r>    7.2409    0.0000 </r>
       <r>    7.2746    0.0000 </r>
       <r>    7.3200    0.0000 </r>
       <r>    7.4114    0.0000 </r>
       <r>    7.4274    0.0000 </r>
       <r>    7.4737    0.0000 </r>
       <r>    7.5773    0.0000 </r>
      </set>
     </set>
    </set>
   </array>
  </eigenvalues>
  <separator name="orbital magnetization" >
   <v name="MAGDIPOLOUT">      0.00000000      0.00000000      0.00000000</v>
  </separator>
  <dos>
   <i name="efermi">      1.45549710 </i>
   <total>
    <array>
     <dimension dim="1">gridpoints</dimension>
     <dimension dim="2">spin</dimension>
     <field>energy</field>
     <field>total</field>
     <field>integrated</field>
     <set>
      <set comment="spin 1">
       <r>   -66.9049     0.0000     0.0000 </r>
       <r>   -66.6448     0.0000     0.0000 </r>
       <r>   -66.3847     0.0000     0.0000 </r>
       <r>   -66.1246     0.0000     0.0000 </r>
       <r>   -65.8645     0.0000     0.0000 </r>
       <r>   -65.6044     0.0000     0.0000 </r>
       <r>   -65.3443     0.0000     0.0000 </r>
       <r>   -65.0842     0.0000     0.0000 </r>
       <r>   -64.8241     0.0000     0.0000 </r>
       <r>   -64.5640     0.0000     0.0000 </r>
       <r>   -64.3039     0.0000     0.0000 </r>
       <r>   -64.0438     0.0000     0.0000 </r>
       <r>   -63.7837     0.0145     0.0038 </r>
       <r>   -63.5236     2.1077     0.5520 </r>
       <r>   -63.2635    33.7200     9.3224 </r>
       <r>   -63.0034   130.1300    43.1688 </r>
       <r>   -62.7433   235.1148   104.3212 </r>
       <r>   -62.4832   250.5931   169.4996 </r>
       <r>   -62.2231   118.0285   200.1984 </r>
       <r>   -61.9630    30.3166   208.0836 </r>
       <r>   -61.7029    21.9121   213.7829 </r>
       <r>   -61.4428     7.9655   215.8547 </r>
       <r>   -61.1827     0.5557   215.9992 </r>
       <r>   -60.9226     0.0031   216.0000 </r>
       <r>   -60.6625     0.0000   216.0000 </r>
       <r>   -60.4024     0.0000   216.0000 </r>
       <r>   -60.1423     0.0000   216.0000 </r>
       <r>   -59.8823     0.0000   216.0000 </r>
       <r>   -59.6222     0.0000   216.0000 </r>
       <r>   -59.3621     0.0000   216.0000 </r>
       <r>   -59.1020     0.0000   216.0000 </r>
       <r>   -58.8419     0.0000   216.0000 </r>
       <r>   -58.5818     0.0000   216.0000 </r>
       <r>   -58.3217     0.0000   216.0000 </r>
       <r>   -58.0616     0.0000   216.0000 </r>
       <r>   -57.8015     0.0000   216.0000 </r>
       <r>   -57.5414     0.0000   216.0000 </r>
       <r>   -57.2813     0.0000   216.0000 </r>
       <r>   -57.0212     0.0000   216.0000 </r>
       <r>   -56.7611     0.0000   216.0000 </r>
       <r>   -56.5010     0.0000   216.0000 </r>
       <r>   -56.2409     0.0000   216.0000 </r>
       <r>   -55.9808     0.0000   216.0000 </r>
       <r>   -55.7207     0.0000   216.0000 </r>
       <r>   -55.4606     0.0000   216.0000 </r>
       <r>   -55.2005     0.0000   216.0000 </r>
       <r>   -54.9404     0.0000   216.0000 </r>
       <r>   -54.6803     0.0000   216.0000 </r>
       <r>   -54.4202     0.0000   216.0000 </r>
       <r>   -54.1601     0.0000   216.0000 </r>
       <r>   -53.9000     0.0000   216.0000 </r>
       <r>   -53.6399     0.0000   216.0000 </r>
       <r>   -53.3798     0.0000   216.0000 </r>
       <r>   -53.1197     0.0000   216.0000 </r>
       <r>   -52.8597     0.0000   216.0000 </r>
       <r>   -52.5996     0.0000   216.0000 </r>
       <r>   -52.3395     0.0000   216.0000 </r>
       <r>   -52.0794     0.0000   216.0000 </r>
       <r>   -51.8193     0.0000   216.0000 </r>
       <r>   -51.5592     0.0000   216.0000 </r>
       <r>   -51.2991     0.0000   216.0000 </r>
       <r>   -51.0390     0.0000   216.0000 </r>
       <r>   -50.7789     0.0000   216.0000 </r>
       <r>   -50.5188     0.0000   216.0000 </r>
       <r>   -50.2587     0.0000   216.0000 </r>
       <r>   -49.9986     0.0000   216.0000 </r>
       <r>   -49.7385     0.0000   216.0000 </r>
       <r>   -49.4784     0.0000   216.0000 </r>
       <r>   -49.2183     0.0000   216.0000 </r>
       <r>   -48.9582     0.0000   216.0000 </r>
       <r>   -48.6981     0.0000   216.0000 </r>
       <r>   -48.4380     0.0000   216.0000 </r>
       <r>   -48.1779     0.0000   216.0000 </r>
       <r>   -47.9178     0.0000   216.0000 </r>
       <r>   -47.6577     0.0000   216.0000 </r>
       <r>   -47.3976     0.0000   216.0000 </r>
       <r>   -47.1375     0.0000   216.0000 </r>
       <r>   -46.8774     0.0000   216.0000 </r>
       <r>   -46.6173     0.0000   216.0000 </r>
       <r>   -46.3572     0.0000   216.0000 </r>
       <r>   -46.0971     0.0000   216.0000 </r>
       <r>   -45.8371     0.0000   216.0000 </r>
       <r>   -45.5770     0.0000   216.0000 </r>
       <r>   -45.3169     0.0000   216.0000 </r>
       <r>   -45.0568     0.0000   216.0000 </r>
       <r>   -44.7967     0.0000   216.0000 </r>
       <r>   -44.5366     0.0000   216.0000 </r>
       <r>   -44.2765     0.0000   216.0000 </r>
       <r>   -44.0164     0.0000   216.0000 </r>
       <r>   -43.7563     0.0000   216.0000 </r>
       <r>   -43.4962     0.0000   216.0000 </r>
       <r>   -43.2361     0.0000   216.0000 </r>
       <r>   -42.9760     0.0000   216.0000 </r>
       <r>   -42.7159     0.0000   216.0000 </r>
       <r>   -42.4558     0.0000   216.0000 </r>
       <r>   -42.1957     0.0000   216.0000 </r>
       <r>   -41.9356     0.0000   216.0000 </r>
       <r>   -41.6755     0.0000   216.0000 </r>
       <r>   -41.4154     0.0000   216.0000 </r>
       <r>   -41.1553     0.0000   216.0000 </r>
       <r>   -40.8952     0.0000   216.0000 </r>
       <r>   -40.6351     0.0000   216.0000 </r>
       <r>   -40.3750     0.0000   216.0000 </r>
       <r>   -40.1149     0.0000   216.0000 </r>
       <r>   -39.8548     0.0000   216.0000 </r>
       <r>   -39.5947     0.0000   216.0000 </r>
       <r>   -39.3346     0.0000   216.0000 </r>
       <r>   -39.0745     0.0000   216.0000 </r>
       <r>   -38.8145     0.0000   216.0000 </r>
       <r>   -38.5544     0.0000   216.0000 </r>
       <r>   -38.2943     0.0000   216.0000 </r>
       <r>   -38.0342     0.0000   216.0000 </r>
       <r>   -37.7741     0.0000   216.0000 </r>
       <r>   -37.5140     0.0000   216.0000 </r>
       <r>   -37.2539     0.0000   216.0000 </r>
       <r>   -36.9938     0.0000   216.0000 </r>
       <r>   -36.7337     0.0000   216.0000 </r>
       <r>   -36.4736     0.0000   216.0000 </r>
       <r>   -36.2135     0.0000   216.0000 </r>
       <r>   -35.9534     0.0000   216.0000 </r>
       <r>   -35.6933     0.0000   216.0000 </r>
       <r>   -35.4332     0.0000   216.0000 </r>
       <r>   -35.1731     0.0000   216.0000 </r>
       <r>   -34.9130     0.0000   216.0000 </r>
       <r>   -34.6529     0.0000   216.0000 </r>
       <r>   -34.3928     0.0000   216.0000 </r>
       <r>   -34.1327     0.0000   216.0000 </r>
       <r>   -33.8726     0.0000   216.0000 </r>
       <r>   -33.6125     0.0000   216.0000 </r>
       <r>   -33.3524     0.0000   216.0000 </r>
       <r>   -33.0923     0.0000   216.0000 </r>
       <r>   -32.8322     0.0000   216.0000 </r>
       <r>   -32.5721     0.0000   216.0000 </r>
       <r>   -32.3120     0.0000   216.0000 </r>
       <r>   -32.0519     0.0000   216.0000 </r>
       <r>   -31.7919     0.0000   216.0000 </r>
       <r>   -31.5318     0.0000   216.0000 </r>
       <r>   -31.2717     0.0000   216.0000 </r>
       <r>   -31.0116     0.0000   216.0000 </r>
       <r>   -30.7515     0.0000   216.0000 </r>
       <r>   -30.4914     0.0000   216.0000 </r>
       <r>   -30.2313     0.0000   216.0000 </r>
       <r>   -29.9712     0.0000   216.0000 </r>
       <r>   -29.7111     0.0000   216.0000 </r>
       <r>   -29.4510     0.0000   216.0000 </r>
       <r>   -29.1909     0.0000   216.0000 </r>
       <r>   -28.9308     0.0000   216.0000 </r>
       <r>   -28.6707     0.0000   216.0000 </r>
       <r>   -28.4106     0.0000   216.0000 </r>
       <r>   -28.1505     0.0000   216.0000 </r>
       <r>   -27.8904     0.0000   216.0000 </r>
       <r>   -27.6303     0.0000   216.0000 </r>
       <r>   -27.3702     0.0000   216.0000 </r>
       <r>   -27.1101     0.0000   216.0000 </r>
       <r>   -26.8500     0.0000   216.0000 </r>
       <r>   -26.5899     0.0000   216.0000 </r>
       <r>   -26.3298     0.0000   216.0000 </r>
       <r>   -26.0697     0.0000   216.0000 </r>
       <r>   -25.8096     0.0000   216.0000 </r>
       <r>   -25.5495     0.0000   216.0000 </r>
       <r>   -25.2894     0.0000   216.0000 </r>
       <r>   -25.0293     0.0000   216.0000 </r>
       <r>   -24.7693     0.0000   216.0000 </r>
       <r>   -24.5092     0.0000   216.0000 </r>
       <r>   -24.2491     0.0000   216.0000 </r>
       <r>   -23.9890     0.0000   216.0000 </r>
       <r>   -23.7289     0.0000   216.0000 </r>
       <r>   -23.4688     0.0000   216.0000 </r>
       <r>   -23.2087     0.0000   216.0000 </r>
       <r>   -22.9486     0.0000   216.0000 </r>
       <r>   -22.6885     0.0000   216.0000 </r>
       <r>   -22.4284     0.0000   216.0000 </r>
       <r>   -22.1683     0.0000   216.0000 </r>
       <r>   -21.9082     0.0000   216.0000 </r>
       <r>   -21.6481     0.0000   216.0000 </r>
       <r>   -21.3880     0.0000   216.0000 </r>
       <r>   -21.1279     0.0000   216.0000 </r>
       <r>   -20.8678     0.0000   216.0000 </r>
       <r>   -20.6077     0.0000   216.0000 </r>
       <r>   -20.3476     0.0000   216.0000 </r>
       <r>   -20.0875     0.0000   216.0000 </r>
       <r>   -19.8274     0.0000   216.0000 </r>
       <r>   -19.5673     0.0000   216.0000 </r>
       <r>   -19.3072     0.0000   216.0000 </r>
       <r>   -19.0471     0.0000   216.0000 </r>
       <r>   -18.7870     0.0000   216.0000 </r>
       <r>   -18.5269     0.0000   216.0000 </r>
       <r>   -18.2668     0.0000   216.0000 </r>
       <r>   -18.0067     0.0000   216.0000 </r>
       <r>   -17.7467     0.0000   216.0000 </r>
       <r>   -17.4866     0.0000   216.0000 </r>
       <r>   -17.2265     0.0000   216.0000 </r>
       <r>   -16.9664     0.0000   216.0000 </r>
       <r>   -16.7063     0.0000   216.0000 </r>
       <r>   -16.4462     0.0000   216.0000 </r>
       <r>   -16.1861     0.0000   216.0000 </r>
       <r>   -15.9260     0.0000   216.0000 </r>
       <r>   -15.6659     0.0000   216.0000 </r>
       <r>   -15.4058     0.0001   216.0000 </r>
       <r>   -15.1457     0.0620   216.0162 </r>
       <r>   -14.8856     2.1477   216.5748 </r>
       <r>   -14.6255     5.7932   218.0816 </r>
       <r>   -14.3654     5.9415   219.6269 </r>
       <r>   -14.1053     7.8737   221.6749 </r>
       <r>   -13.8452    16.9602   226.0861 </r>
       <r>   -13.5851    20.5277   231.4253 </r>
       <r>   -13.3250    24.6029   237.8245 </r>
       <r>   -13.0649    22.3092   243.6270 </r>
       <r>   -12.8048    25.9710   250.3820 </r>
       <r>   -12.5447    26.0509   257.1577 </r>
       <r>   -12.2846    28.1882   264.4894 </r>
       <r>   -12.0245    25.3820   271.0911 </r>
       <r>   -11.7644    27.4589   278.2331 </r>
       <r>   -11.5043    19.6136   283.3345 </r>
       <r>   -11.2442    12.7168   286.6421 </r>
       <r>   -10.9841     4.9636   287.9331 </r>
       <r>   -10.7241     0.2562   287.9998 </r>
       <r>   -10.4640     0.0008   288.0000 </r>
       <r>   -10.2039     0.0000   288.0000 </r>
       <r>    -9.9438     0.0000   288.0000 </r>
       <r>    -9.6837     0.0000   288.0000 </r>
       <r>    -9.4236     0.0000   288.0000 </r>
       <r>    -9.1635     0.0000   288.0000 </r>
       <r>    -8.9034     0.0000   288.0000 </r>
       <r>    -8.6433     0.0000   288.0000 </r>
       <r>    -8.3832     0.0000   288.0000 </r>
       <r>    -8.1231     0.0000   288.0000 </r>
       <r>    -7.8630     0.0000   288.0000 </r>
       <r>    -7.6029     0.0000   288.0000 </r>
       <r>    -7.3428     0.0000   288.0000 </r>
       <r>    -7.0827     0.0081   288.0021 </r>
       <r>    -6.8226     0.8762   288.2300 </r>
       <r>    -6.5625     7.2657   290.1198 </r>
       <r>    -6.3024    14.5575   293.9061 </r>
       <r>    -6.0423    21.2903   299.4437 </r>
       <r>    -5.7822    34.2870   308.3616 </r>
       <r>    -5.5221    46.4446   320.4416 </r>
       <r>    -5.2620    45.0971   332.1712 </r>
       <r>    -5.0019    43.2015   343.4078 </r>
       <r>    -4.7418    38.7327   353.4820 </r>
       <r>    -4.4817    42.8338   364.6229 </r>
       <r>    -4.2216    43.8302   376.0230 </r>
       <r>    -3.9615    45.4517   387.8448 </r>
       <r>    -3.7014    56.4161   402.5184 </r>
       <r>    -3.4414    67.9825   420.2004 </r>
       <r>    -3.1813    64.3000   436.9246 </r>
       <r>    -2.9212    62.2661   453.1198 </r>
       <r>    -2.6611    57.6892   468.1245 </r>
       <r>    -2.4010    39.2746   478.3397 </r>
       <r>    -2.1409    32.7466   486.8570 </r>
       <r>    -1.8808    53.1794   500.6888 </r>
       <r>    -1.6207    64.4330   517.4476 </r>
       <r>    -1.3606    80.3819   538.3546 </r>
       <r>    -1.1005    95.1888   563.1129 </r>
       <r>    -0.8404   105.8365   590.6405 </r>
       <r>    -0.5803   125.6747   623.3281 </r>
       <r>    -0.3202   137.1473   658.9996 </r>
       <r>    -0.0601   130.9562   693.0608 </r>
       <r>     0.2000   102.7562   719.7873 </r>
       <r>     0.4601    71.5160   738.3883 </r>
       <r>     0.7202    62.9110   754.7513 </r>
       <r>     0.9803    55.6837   769.2344 </r>
       <r>     1.2404    46.4649   781.3197 </r>
       <r>     1.5005    50.3130   794.4059 </r>
       <r>     1.7606    52.0920   807.9549 </r>
       <r>     2.0207    49.0708   820.7180 </r>
       <r>     2.2808    51.1125   834.0122 </r>
       <r>     2.5409    47.9432   846.4821 </r>
       <r>     2.8010    38.5064   856.4974 </r>
       <r>     3.0611    21.6497   862.1284 </r>
       <r>     3.3212     6.7229   863.8770 </r>
       <r>     3.5812     0.5865   864.0296 </r>
       <r>     3.8413     3.6410   864.9766 </r>
       <r>     4.1014     9.3139   867.3991 </r>
       <r>     4.3615     3.9937   868.4379 </r>
       <r>     4.6216     9.0263   870.7856 </r>
       <r>     4.8817    14.3253   874.5115 </r>
       <r>     5.1418    15.1113   878.4419 </r>
       <r>     5.4019    14.9064   882.3190 </r>
       <r>     5.6620    23.1346   888.3362 </r>
       <r>     5.9221    28.2922   895.6949 </r>
       <r>     6.1822    23.9924   901.9353 </r>
       <r>     6.4423    31.6570   910.1692 </r>
       <r>     6.7024    28.8634   917.6764 </r>
       <r>     6.9625    32.9283   926.2410 </r>
       <r>     7.2226    44.1871   937.7339 </r>
       <r>     7.4827    38.1518   947.6570 </r>
       <r>     7.7428    15.3589   951.6518 </r>
       <r>     8.0029     1.3277   951.9971 </r>
       <r>     8.2630     0.0111   952.0000 </r>
       <r>     8.5231     0.0000   952.0000 </r>
       <r>     8.7832     0.0000   952.0000 </r>
       <r>     9.0433     0.0000   952.0000 </r>
       <r>     9.3034     0.0000   952.0000 </r>
       <r>     9.5635     0.0000   952.0000 </r>
       <r>     9.8236     0.0000   952.0000 </r>
       <r>    10.0837     0.0000   952.0000 </r>
       <r>    10.3438     0.0000   952.0000 </r>
       <r>    10.6038     0.0000   952.0000 </r>
       <r>    10.8639     0.0000   952.0000 </r>
       <r>    11.1240     0.0000   952.0000 </r>
      </set>
     </set>
    </array>
   </total>
  </dos>
 </calculation>
 <structure name="finalpos" >
  <crystal>
   <varray name="basis" >
    <v>      10.07973298       0.00000000       0.00000000 </v>
    <v>       3.57329804       9.42510255       0.00000000 </v>
    <v>       0.00000000       0.00000000      20.68350356 </v>
   </varray>
   <i name="volume">   1964.98490008 </i>
   <varray name="rec_basis" >
    <v>       0.09920898      -0.03761267       0.00000000 </v>
    <v>       0.00000000       0.10609964       0.00000000 </v>
    <v>       0.00000000       0.00000000       0.04834771 </v>
   </varray>
  </crystal>
  <varray name="positions" >
   <v>       0.39705889       0.79495179       0.11816221 </v>
   <v>       0.54732740       0.64468328       0.24509923 </v>
   <v>       0.69759592       0.49441477       0.37203626 </v>
   <v>       0.83813974       0.34100931       0.47963616 </v>
   <v>       0.11381506       0.41152895       0.16047455 </v>
   <v>       0.26408357       0.26126044       0.28741157 </v>
   <v>       0.41435209       0.11099193       0.41434860 </v>
   <v>       0.10686332       0.77712227       0.44425503 </v>
   <v>       0.71793636       0.21539208       0.13503644 </v>
   <v>       0.83057123       0.02810612       0.20278689 </v>
   <v>       0.98083974       0.87783760       0.32972391 </v>
   <v>       0.36412954       0.55268617       0.10409235 </v>
   <v>       0.50762556       0.42017912       0.21156171 </v>
   <v>       0.65789407       0.26991061       0.33849873 </v>
   <v>       0.78857172       0.12306587       0.44959837 </v>
   <v>       0.07411322       0.18702480       0.12693702 </v>
   <v>       0.22438173       0.03675628       0.25387405 </v>
   <v>       0.37465024       0.88648777       0.38081107 </v>
   <v>       0.45536784       0.66548169       0.44069824 </v>
   <v>       0.89472471       0.26499944       0.05260470 </v>
   <v>       0.09110367       0.49743744       0.41093890 </v>
   <v>       0.58309192       0.88355880       0.08806128 </v>
   <v>       0.79086939       0.80360196       0.16924937 </v>
   <v>       0.94113790       0.65333345       0.29618639 </v>
   <v>       0.02582556       0.16310472       0.41691141 </v>
   <v>       0.59166980       0.59395943       0.07158105 </v>
   <v>       0.73212972       0.45988096       0.17802418 </v>
   <v>       0.88239823       0.30961245       0.30496121 </v>
   <v>       0.29861738       0.22672664       0.09339950 </v>
   <v>       0.44888589       0.07645813       0.22033653 </v>
   <v>       0.59915440       0.92618961       0.34727355 </v>
   <v>       0.01537355       0.84330380       0.13571184 </v>
   <v>       0.16564206       0.69303529       0.26264887 </v>
   <v>       0.31591057       0.54276678       0.38958589 </v>
   <v>       0.44511664       0.42423930       0.48068849 </v>
   <v>       0.77816182       0.98287147       0.07668200 </v>
   <v>       0.00083352       0.99322891       0.46996517 </v>
   <v>       0.58579929       0.40599939       0.10847175 </v>
   <v>       0.73606780       0.25573088       0.23540877 </v>
   <v>       0.88633632       0.10546237       0.36234580 </v>
   <v>       0.11323179       0.23372224       0.03670252 </v>
   <v>       0.30255546       0.02257655       0.15078409 </v>
   <v>       0.45282397       0.87230804       0.27772112 </v>
   <v>       0.59194544       0.72600934       0.38499153 </v>
   <v>       0.01931163       0.63915371       0.19309643 </v>
   <v>       0.16958015       0.48888520       0.32003346 </v>
   <v>       0.30593202       0.34944300       0.43210790 </v>
   <v>       0.88354701       0.77149301       0.07882020 </v>
   <v>       0.48531813       0.78199152       0.02800732 </v>
   <v>       0.63635413       0.69187455       0.15117717 </v>
   <v>       0.78662264       0.54160604       0.27811420 </v>
   <v>       0.93689115       0.39133753       0.40505122 </v>
   <v>       0.22878556       0.44365879       0.08340301 </v>
   <v>       0.35311030       0.30845172       0.19348951 </v>
   <v>       0.50337881       0.15818320       0.32042654 </v>
   <v>       0.63514261       0.03236734       0.42797594 </v>
   <v>       0.06986647       0.92502888       0.23580185 </v>
   <v>       0.22013498       0.77476037       0.36273888 </v>
   <v>       0.29042585       0.62462929       0.48496357 </v>
   <v>       0.91959796       0.07529739       0.10886483 </v>
   <v>       0.21355450       0.75870063       0.08866540 </v>
   <v>       0.35047896       0.64131972       0.19388260 </v>
   <v>       0.50074747       0.49105121       0.32081962 </v>
   <v>       0.65101599       0.34078269       0.44775664 </v>
   <v>       0.06723513       0.25789688       0.23619494 </v>
   <v>       0.21750365       0.10762837       0.36313196 </v>
   <v>       0.41408450       0.94207445       0.46921374 </v>
   <v>       0.92100324       0.39831028       0.12316823 </v>
   <v>       0.45877651       0.07371870       0.04664880 </v>
   <v>       0.63372279       0.02474256       0.15157025 </v>
   <v>       0.78399130       0.87447404       0.27850728 </v>
   <v>       0.96559674       0.71262451       0.39065879 </v>
  </varray>
 </structure>
</modeling>
