  72  72   0   0
  0.2705198E+02  0.1007973E-08  0.1007973E-08  0.2050201E-08  0.5000000E-15
  1.000000000000000E-004
  CAR 
 "Millerite NiS"                         
     11.07529688    -66.82468345  301      1.49125718      1.00000000
    -66.825  0.0000E+00  0.0000E+00
    -66.565  0.0000E+00  0.0000E+00
    -66.305  0.0000E+00  0.0000E+00
    -66.046  0.0000E+00  0.0000E+00
    -65.786  0.0000E+00  0.0000E+00
    -65.526  0.0000E+00  0.0000E+00
    -65.267  0.0000E+00  0.0000E+00
    -65.007  0.0000E+00  0.0000E+00
    -64.747  0.0000E+00  0.0000E+00
    -64.488  0.0000E+00  0.0000E+00
    -64.228  0.1062E-09  0.2757E-10
    -63.968  0.6146E-05  0.1596E-05
    -63.709  0.1504E-01  0.3908E-02
    -63.449  0.2079E+01  0.5438E+00
    -63.189  0.3290E+02  0.9087E+01
    -62.930  0.1367E+03  0.4459E+02
    -62.670  0.2572E+03  0.1114E+03
    -62.410  0.2806E+03  0.1842E+03
    -62.151  0.9792E+02  0.2097E+03
    -61.891  0.1808E+02  0.2143E+03
    -61.631  0.6069E+01  0.2159E+03
    -61.372  0.2890E+00  0.2160E+03
    -61.112  0.8108E-03  0.2160E+03
    -60.852  0.1011E-06  0.2160E+03
    -60.593  0.4943E-12  0.2160E+03
    -60.333  0.0000E+00  0.2160E+03
    -60.073  0.0000E+00  0.2160E+03
    -59.814  0.0000E+00  0.2160E+03
    -59.554  0.0000E+00  0.2160E+03
    -59.294  0.0000E+00  0.2160E+03
    -59.035  0.0000E+00  0.2160E+03
    -58.775  0.0000E+00  0.2160E+03
    -58.515  0.0000E+00  0.2160E+03
    -58.256  0.0000E+00  0.2160E+03
    -57.996  0.0000E+00  0.2160E+03
    -57.736  0.0000E+00  0.2160E+03
    -57.477  0.0000E+00  0.2160E+03
    -57.217  0.0000E+00  0.2160E+03
    -56.957  0.0000E+00  0.2160E+03
    -56.698  0.0000E+00  0.2160E+03
    -56.438  0.0000E+00  0.2160E+03
    -56.178  0.0000E+00  0.2160E+03
    -55.919  0.0000E+00  0.2160E+03
    -55.659  0.0000E+00  0.2160E+03
    -55.399  0.0000E+00  0.2160E+03
    -55.140  0.0000E+00  0.2160E+03
    -54.880  0.0000E+00  0.2160E+03
    -54.620  0.0000E+00  0.2160E+03
    -54.361  0.0000E+00  0.2160E+03
    -54.101  0.0000E+00  0.2160E+03
    -53.841  0.0000E+00  0.2160E+03
    -53.582  0.0000E+00  0.2160E+03
    -53.322  0.0000E+00  0.2160E+03
    -53.062  0.0000E+00  0.2160E+03
    -52.803  0.0000E+00  0.2160E+03
    -52.543  0.0000E+00  0.2160E+03
    -52.283  0.0000E+00  0.2160E+03
    -52.024  0.0000E+00  0.2160E+03
    -51.764  0.0000E+00  0.2160E+03
    -51.504  0.0000E+00  0.2160E+03
    -51.245  0.0000E+00  0.2160E+03
    -50.985  0.0000E+00  0.2160E+03
    -50.725  0.0000E+00  0.2160E+03
    -50.466  0.0000E+00  0.2160E+03
    -50.206  0.0000E+00  0.2160E+03
    -49.946  0.0000E+00  0.2160E+03
    -49.687  0.0000E+00  0.2160E+03
    -49.427  0.0000E+00  0.2160E+03
    -49.167  0.0000E+00  0.2160E+03
    -48.908  0.0000E+00  0.2160E+03
    -48.648  0.0000E+00  0.2160E+03
    -48.388  0.0000E+00  0.2160E+03
    -48.129  0.0000E+00  0.2160E+03
    -47.869  0.0000E+00  0.2160E+03
    -47.609  0.0000E+00  0.2160E+03
    -47.350  0.0000E+00  0.2160E+03
    -47.090  0.0000E+00  0.2160E+03
    -46.830  0.0000E+00  0.2160E+03
    -46.571  0.0000E+00  0.2160E+03
    -46.311  0.0000E+00  0.2160E+03
    -46.051  0.0000E+00  0.2160E+03
    -45.792  0.0000E+00  0.2160E+03
    -45.532  0.0000E+00  0.2160E+03
    -45.272  0.0000E+00  0.2160E+03
    -45.013  0.0000E+00  0.2160E+03
    -44.753  0.0000E+00  0.2160E+03
    -44.493  0.0000E+00  0.2160E+03
    -44.234  0.0000E+00  0.2160E+03
    -43.974  0.0000E+00  0.2160E+03
    -43.714  0.0000E+00  0.2160E+03
    -43.455  0.0000E+00  0.2160E+03
    -43.195  0.0000E+00  0.2160E+03
    -42.935  0.0000E+00  0.2160E+03
    -42.676  0.0000E+00  0.2160E+03
    -42.416  0.0000E+00  0.2160E+03
    -42.156  0.0000E+00  0.2160E+03
    -41.897  0.0000E+00  0.2160E+03
    -41.637  0.0000E+00  0.2160E+03
    -41.377  0.0000E+00  0.2160E+03
    -41.118  0.0000E+00  0.2160E+03
    -40.858  0.0000E+00  0.2160E+03
    -40.598  0.0000E+00  0.2160E+03
    -40.339  0.0000E+00  0.2160E+03
    -40.079  0.0000E+00  0.2160E+03
    -39.819  0.0000E+00  0.2160E+03
    -39.560  0.0000E+00  0.2160E+03
    -39.300  0.0000E+00  0.2160E+03
    -39.040  0.0000E+00  0.2160E+03
    -38.781  0.0000E+00  0.2160E+03
    -38.521  0.0000E+00  0.2160E+03
    -38.261  0.0000E+00  0.2160E+03
    -38.002  0.0000E+00  0.2160E+03
    -37.742  0.0000E+00  0.2160E+03
    -37.482  0.0000E+00  0.2160E+03
    -37.223  0.0000E+00  0.2160E+03
    -36.963  0.0000E+00  0.2160E+03
    -36.703  0.0000E+00  0.2160E+03
    -36.444  0.0000E+00  0.2160E+03
    -36.184  0.0000E+00  0.2160E+03
    -35.924  0.0000E+00  0.2160E+03
    -35.665  0.0000E+00  0.2160E+03
    -35.405  0.0000E+00  0.2160E+03
    -35.145  0.0000E+00  0.2160E+03
    -34.886  0.0000E+00  0.2160E+03
    -34.626  0.0000E+00  0.2160E+03
    -34.366  0.0000E+00  0.2160E+03
    -34.107  0.0000E+00  0.2160E+03
    -33.847  0.0000E+00  0.2160E+03
    -33.587  0.0000E+00  0.2160E+03
    -33.328  0.0000E+00  0.2160E+03
    -33.068  0.0000E+00  0.2160E+03
    -32.808  0.0000E+00  0.2160E+03
    -32.549  0.0000E+00  0.2160E+03
    -32.289  0.0000E+00  0.2160E+03
    -32.029  0.0000E+00  0.2160E+03
    -31.770  0.0000E+00  0.2160E+03
    -31.510  0.0000E+00  0.2160E+03
    -31.250  0.0000E+00  0.2160E+03
    -30.991  0.0000E+00  0.2160E+03
    -30.731  0.0000E+00  0.2160E+03
    -30.471  0.0000E+00  0.2160E+03
    -30.212  0.0000E+00  0.2160E+03
    -29.952  0.0000E+00  0.2160E+03
    -29.692  0.0000E+00  0.2160E+03
    -29.433  0.0000E+00  0.2160E+03
    -29.173  0.0000E+00  0.2160E+03
    -28.913  0.0000E+00  0.2160E+03
    -28.654  0.0000E+00  0.2160E+03
    -28.394  0.0000E+00  0.2160E+03
    -28.134  0.0000E+00  0.2160E+03
    -27.875  0.0000E+00  0.2160E+03
    -27.615  0.0000E+00  0.2160E+03
    -27.355  0.0000E+00  0.2160E+03
    -27.096  0.0000E+00  0.2160E+03
    -26.836  0.0000E+00  0.2160E+03
    -26.576  0.0000E+00  0.2160E+03
    -26.317  0.0000E+00  0.2160E+03
    -26.057  0.0000E+00  0.2160E+03
    -25.797  0.0000E+00  0.2160E+03
    -25.538  0.0000E+00  0.2160E+03
    -25.278  0.0000E+00  0.2160E+03
    -25.018  0.0000E+00  0.2160E+03
    -24.759  0.0000E+00  0.2160E+03
    -24.499  0.0000E+00  0.2160E+03
    -24.239  0.0000E+00  0.2160E+03
    -23.980  0.0000E+00  0.2160E+03
    -23.720  0.0000E+00  0.2160E+03
    -23.460  0.0000E+00  0.2160E+03
    -23.201  0.0000E+00  0.2160E+03
    -22.941  0.0000E+00  0.2160E+03
    -22.681  0.0000E+00  0.2160E+03
    -22.422  0.0000E+00  0.2160E+03
    -22.162  0.0000E+00  0.2160E+03
    -21.902  0.0000E+00  0.2160E+03
    -21.643  0.0000E+00  0.2160E+03
    -21.383  0.0000E+00  0.2160E+03
    -21.123  0.0000E+00  0.2160E+03
    -20.864  0.0000E+00  0.2160E+03
    -20.604  0.0000E+00  0.2160E+03
    -20.344  0.0000E+00  0.2160E+03
    -20.085  0.0000E+00  0.2160E+03
    -19.825  0.0000E+00  0.2160E+03
    -19.565  0.0000E+00  0.2160E+03
    -19.306  0.0000E+00  0.2160E+03
    -19.046  0.0000E+00  0.2160E+03
    -18.786  0.0000E+00  0.2160E+03
    -18.527  0.0000E+00  0.2160E+03
    -18.267  0.0000E+00  0.2160E+03
    -18.007  0.0000E+00  0.2160E+03
    -17.748  0.0000E+00  0.2160E+03
    -17.488  0.0000E+00  0.2160E+03
    -17.228  0.0000E+00  0.2160E+03
    -16.969  0.0000E+00  0.2160E+03
    -16.709  0.0000E+00  0.2160E+03
    -16.449  0.0000E+00  0.2160E+03
    -16.190  0.1241E-11  0.2160E+03
    -15.930  0.1955E-06  0.2160E+03
    -15.670  0.1168E-02  0.2160E+03
    -15.411  0.2902E+00  0.2161E+03
    -15.151  0.3744E+01  0.2170E+03
    -14.891  0.3731E+01  0.2180E+03
    -14.632  0.4072E+01  0.2191E+03
    -14.372  0.6409E+01  0.2207E+03
    -14.112  0.8079E+01  0.2228E+03
    -13.853  0.1023E+02  0.2255E+03
    -13.593  0.1494E+02  0.2294E+03
    -13.333  0.1963E+02  0.2345E+03
    -13.074  0.2422E+02  0.2408E+03
    -12.814  0.2507E+02  0.2473E+03
    -12.554  0.2552E+02  0.2539E+03
    -12.295  0.3361E+02  0.2626E+03
    -12.035  0.3593E+02  0.2719E+03
    -11.775  0.3308E+02  0.2805E+03
    -11.516  0.2251E+02  0.2864E+03
    -11.256  0.6021E+01  0.2879E+03
    -10.996  0.2086E+00  0.2880E+03
    -10.737  0.4069E-03  0.2880E+03
    -10.477  0.3356E-07  0.2880E+03
    -10.217  0.1077E-12  0.2880E+03
     -9.958  0.0000E+00  0.2880E+03
     -9.698  0.0000E+00  0.2880E+03
     -9.438  0.0000E+00  0.2880E+03
     -9.179  0.0000E+00  0.2880E+03
     -8.919  0.0000E+00  0.2880E+03
     -8.659  0.0000E+00  0.2880E+03
     -8.400  0.0000E+00  0.2880E+03
     -8.140  0.0000E+00  0.2880E+03
     -7.880  0.0000E+00  0.2880E+03
     -7.621  0.4518E-11  0.2880E+03
     -7.361  0.5229E-06  0.2880E+03
     -7.101  0.2360E-02  0.2880E+03
     -6.842  0.4862E+00  0.2881E+03
     -6.582  0.6723E+01  0.2899E+03
     -6.322  0.1347E+02  0.2934E+03
     -6.063  0.1955E+02  0.2984E+03
     -5.803  0.3075E+02  0.3064E+03
     -5.543  0.4145E+02  0.3172E+03
     -5.284  0.4677E+02  0.3293E+03
     -5.024  0.4083E+02  0.3399E+03
     -4.764  0.3959E+02  0.3502E+03
     -4.505  0.3855E+02  0.3602E+03
     -4.245  0.4551E+02  0.3720E+03
     -3.985  0.4518E+02  0.3838E+03
     -3.726  0.5595E+02  0.3983E+03
     -3.466  0.6653E+02  0.4156E+03
     -3.206  0.6894E+02  0.4335E+03
     -2.947  0.6432E+02  0.4502E+03
     -2.687  0.5939E+02  0.4656E+03
     -2.427  0.5449E+02  0.4798E+03
     -2.168  0.4326E+02  0.4910E+03
     -1.908  0.4221E+02  0.5019E+03
     -1.648  0.4995E+02  0.5149E+03
     -1.389  0.6954E+02  0.5330E+03
     -1.129  0.8480E+02  0.5550E+03
     -0.869  0.1077E+03  0.5830E+03
     -0.610  0.1270E+03  0.6159E+03
     -0.350  0.1403E+03  0.6524E+03
     -0.090  0.1399E+03  0.6887E+03
      0.169  0.1164E+03  0.7189E+03
      0.429  0.7269E+02  0.7378E+03
      0.689  0.6077E+02  0.7536E+03
      0.948  0.5397E+02  0.7676E+03
      1.208  0.4465E+02  0.7792E+03
      1.468  0.4517E+02  0.7909E+03
      1.727  0.4816E+02  0.8034E+03
      1.987  0.5345E+02  0.8173E+03
      2.247  0.5366E+02  0.8312E+03
      2.506  0.4970E+02  0.8441E+03
      2.766  0.4019E+02  0.8546E+03
      3.026  0.2895E+02  0.8621E+03
      3.285  0.7217E+01  0.8640E+03
      3.545  0.1882E+00  0.8640E+03
      3.805  0.2929E-03  0.8640E+03
      4.064  0.3591E-02  0.8640E+03
      4.324  0.6885E+00  0.8642E+03
      4.584  0.9000E+01  0.8665E+03
      4.843  0.1478E+02  0.8704E+03
      5.103  0.1226E+02  0.8735E+03
      5.363  0.1606E+02  0.8777E+03
      5.622  0.1850E+02  0.8825E+03
      5.882  0.2588E+02  0.8892E+03
      6.142  0.2965E+02  0.8969E+03
      6.401  0.2986E+02  0.9047E+03
      6.661  0.2861E+02  0.9121E+03
      6.921  0.3526E+02  0.9213E+03
      7.180  0.4231E+02  0.9323E+03
      7.440  0.4634E+02  0.9443E+03
      7.700  0.2695E+02  0.9513E+03
      7.959  0.2730E+01  0.9520E+03
      8.219  0.2194E-01  0.9520E+03
      8.479  0.8937E-05  0.9520E+03
      8.738  0.1508E-09  0.9520E+03
      8.998  0.0000E+00  0.9520E+03
      9.258  0.0000E+00  0.9520E+03
      9.517  0.0000E+00  0.9520E+03
      9.777  0.0000E+00  0.9520E+03
     10.037  0.0000E+00  0.9520E+03
     10.296  0.0000E+00  0.9520E+03
     10.556  0.0000E+00  0.9520E+03
     10.816  0.0000E+00  0.9520E+03
     11.075  0.0000E+00  0.9520E+03
