"Millerite NiS"                         
           1
    10.079733    0.000000    0.000000
     3.573298    9.425103    0.000000
     0.000000    0.000000   20.502010
   Ty   Ty
  36  36
Direct configuration=     1
   0.37433215  0.75136220  0.09475350
   0.52460066  0.60109368  0.22281424
   0.67486918  0.45082517  0.35087497
   0.76194262  0.34135385  0.46363150
   0.55582684  0.16977570  0.07227247
   0.75775499  0.03460603  0.13744041
   0.05829201  0.73406900  0.39356188
   0.90802350  0.88433751  0.26550115
   0.14117783  0.31784985  0.18012733
   0.29144634  0.16758134  0.30818806
   0.44210300  0.02378282  0.42094042
   0.98861483  0.46981621  0.07925668
   0.99370112  0.12868976  0.39501129
   0.57498055  0.55812614  0.04845182
   0.70940298  0.41629137  0.15514541
   0.85967149  0.26602286  0.28320614
   0.09282582  0.69953520  0.19783232
   0.24309433  0.54926669  0.32589305
   0.37937608  0.41342651  0.43679647
   0.02360839  0.71804891  0.08873640
   0.32598014  0.13304754  0.11245850
   0.47624865  0.98277903  0.24051923
   0.62651717  0.83251052  0.36857997
   0.74568649  0.70253007  0.46110601
   0.03869482  0.36992710  0.42742351
   0.61459473  0.78771338  0.08037259
   0.74910482  0.64079553  0.18897982
   0.89937333  0.49052701  0.31704056
   0.08005787  0.08725348  0.14652150
   0.13252766  0.92403936  0.23166673
   0.28279617  0.77377084  0.35972747
   0.44284667  0.65126229  0.46769542
   0.28224360  0.53450644  0.05537454
   0.36568198  0.35755170  0.14629291
   0.51595050  0.20728318  0.27435364
   0.66255278  0.06771342  0.38872208
   0.06382158  0.26208477  0.34109873
   0.76328455  0.56262179  0.08497726
   0.91355306  0.41235328  0.21303799
   0.14670739  0.84586562  0.12766417
   0.29697590  0.69559711  0.25572491
   0.44724441  0.54532860  0.38378564
   0.54745841  0.43620250  0.49217279
   0.35206012  0.30119835  0.05017260
   0.53013023  0.12910945  0.17035108
   0.68039874  0.97884094  0.29841182
   0.80814433  0.85158844  0.41462859
   0.40523247  0.93566510  0.06356241
   0.52796422  0.79794212  0.17114421
   0.67823274  0.64767361  0.29920494
   0.82850125  0.49740510  0.42726567
   0.72122428  0.23632068  0.10128785
   0.91138706  0.08118595  0.21383112
   0.06165557  0.93091744  0.34189185
   0.22322036  0.74551248  0.45203680
   0.14454139  0.51469829  0.12845730
   0.29480990  0.36442978  0.25651803
   0.44507841  0.21416127  0.38457876
   0.07646906  0.57689373  0.01327635
   0.37980553  0.65311302  0.00678471
   0.47740939  0.51206696  0.12806073
   0.62767790  0.36179845  0.25612147
   0.77794641  0.21152993  0.38418220
   0.97488399  0.23188548  0.48261374
   0.01110074  0.64504227  0.29880838
   0.15964970  0.50691677  0.41390386
   0.68104129  0.95743230  0.05956513
   0.86083223  0.79531079  0.17074765
   0.10305925  0.24600638  0.08975507
   0.24425506  0.07855462  0.21343456
   0.39452358  0.92828611  0.34149529
   0.53104961  0.81414637  0.45930940
