
54 atoms
2 atom types
   0.0000000000    9.5784100000 xlo xhi
   0.0000000000    8.2951463879 ylo yhi
   0.0000000000   19.4178400000 zlo zhi
  -4.7892050000    0.0000000000    0.0000000000 xy xz yz

Atoms # atomic

     1      1    1.7973757009    4.4923822472    1.4933701510
     2      1    1.7973757009    4.4923822472    4.6326501496
     3      1    1.7973757009    4.4923822472    7.7719301482
     4      1   -2.9918292943    7.2574310404    2.5397968107
     5      1   -2.9918292943    7.2574310404    5.6790768093
     6      1   -2.9918292943    7.2574310404    8.8183568079
     7      1    6.5865807105    1.7273334457    0.4469434719
     8      1    6.5865807105    1.7273334457    3.5862234705
     9      1    6.5865807105    1.7273334457    6.7255034885
    10      1    3.0627123971    2.3007548006    1.4933701510
    11      1    3.0627123971    2.3007548006    4.6326501496
    12      1    3.0627123971    2.3007548006    7.7719301482
    13      1   -1.7264925981    5.0658035938    2.5397968107
    14      1   -1.7264925981    5.0658035938    5.6790768093
    15      1   -1.7264925981    5.0658035938    8.8183568079
    16      1    3.0627124067    7.8308523870    0.4469434719
    17      1    3.0627124067    7.8308523870    3.5862234705
    18      1    3.0627124067    7.8308523870    6.7255034885
    19      1    4.3280490933    4.4923822472    1.4933701510
    20      1    4.3280490933    4.4923822472    4.6326501496
    21      1    4.3280490933    4.4923822472    7.7719301482
    22      1   -0.4611559019    7.2574310404    2.5397968107
    23      1   -0.4611559019    7.2574310404    5.6790768093
    24      1   -0.4611559019    7.2574310404    8.8183568079
    25      1   -0.4611558971    1.7273334457    0.4469434719
    26      1   -0.4611558971    1.7273334457    3.5862234705
    27      1   -0.4611558971    1.7273334457    6.7255034885
    28      2    4.6739446353    2.8315943986    0.0000000000
    29      2    4.6739446353    2.8315943986    3.1392799986
    30      2    4.6739446353    2.8315943986    6.2785599972
    31      2    4.6739446353    2.8315943986    9.4178399958
    32      2   -0.1152603600    5.5966431918    4.1857066583
    33      2   -0.1152603600    5.5966431918    7.3249866763
    34      2    9.4631496448    0.0665455971    2.0928533389
    35      2    9.4631496448    0.0665455971    5.2321333374
    36      2    9.4631496448    0.0665455971    8.3714133360
    37      2    3.0627123971    5.6223304979    3.1392799986
    38      2    3.0627123971    5.6223304979    6.2785599972
    39      2    3.0627123971    5.6223304979    9.4178399958
    40      2    3.0627124019    0.0922329032    1.0464266597
    41      2    3.0627124019    0.0922329032    4.1857066583
    42      2    3.0627124019    0.0922329032    7.3249866763
    43      2    7.8519174067    2.8572816964    2.0928533389
    44      2    7.8519174067    2.8572816964    5.2321333374
    45      2    7.8519174067    2.8572816964    8.3714133360
    46      2    1.4514801590    2.8315943986    0.0000000000
    47      2    1.4514801590    2.8315943986    3.1392799986
    48      2    1.4514801590    2.8315943986    6.2785599972
    49      2    1.4514801590    2.8315943986    9.4178399958
    50      2    6.2406851638    5.5966431918    4.1857066583
    51      2    6.2406851638    5.5966431918    7.3249866763
    52      2    6.2406851685    0.0665455971    2.0928533389
    53      2    6.2406851685    0.0665455971    5.2321333374
    54      2    6.2406851685    0.0665455971    8.3714133360
