 vasp.5.4.4.18Apr17-6-g9f103f2a35 (build Aug 13 2019 17:33:20) gamma-only       
  
 executed on             LinuxIFC date 2020.05.12  10:19:15
 running on   12 total cores
 distrk:  each k-point on   12 cores,    1 groups
 distr:  one band on NCORES_PER_BAND=   6 cores,    2 groups


--------------------------------------------------------------------------------------------------------


 INCAR:
 POTCAR:    PAW_PBE Ni_pv 06Sep2000               
 POTCAR:    PAW_PBE S 06Sep2000                   
 POTCAR:    PAW_PBE Ni_pv 06Sep2000               
   VRHFIN =Ni:                                                                  
   LEXCH  = PE                                                                  
   EATOM  =  3501.1230 eV,  257.3253 Ry                                         
                                                                                
   TITEL  = PAW_PBE Ni_pv 06Sep2000                                             
   LULTRA =        F    use ultrasoft PP ?                                      
   IUNSCR =        1    unscreen: 0-lin 1-nonlin 2-no                           
   RPACOR =    1.500    partial core radius                                     
   POMASS =   58.690; ZVAL   =   16.000    mass and valenz                      
   RCORE  =    2.000    outmost cutoff radius                                   
   RWIGS  =    2.000; RWIGS  =    1.058    wigner-seitz radius (au A)           
   ENMAX  =  367.986; ENMIN  =  275.989 eV                                      
   RCLOC  =    1.301    cutoff for local pot                                    
   LCOR   =        T    correct aug charges                                     
   LPAW   =        T    paw PP                                                  
   EAUG   =  703.443                                                            
   DEXC   =    0.000                                                            
   RMAX   =    2.041    core radius for proj-oper                               
   RAUG   =    1.300    factor for augmentation sphere                          
   RDEP   =    2.103    radius for radial grids                                 
   RDEPT  =    1.618    core radius for aug-charge                              
                                                                                
   Atomic configuration                                                         
    8 entries                                                                   
     n  l   j            E        occ.                                          
     1  0  0.50     -8206.4253   2.0000                                         
     2  0  0.50      -976.1748   2.0000                                         
     2  1  1.50      -839.0571   6.0000                                         
     3  0  0.50      -105.9991   2.0000                                         
     3  1  1.50       -66.4603   6.0000                                         
     3  2  2.50        -4.6458   9.0000                                         
     4  0  0.50        -4.4926   1.0000                                         
     4  3  2.50        -1.3606   0.0000                                         
   Description                                                                  
     l       E           TYP  RCUT    TYP  RCUT                                 
     1    -66.4602962     23  1.700                                             
     1     -1.3605826     23  1.700                                             
     2     -4.6457867     23  2.000                                             
     2     -6.0063693     23  2.000                                             
     0     -4.4925576     23  1.900                                             
     0     16.3626226     23  1.900                                             
  local pseudopotential read in
  partial core-charges read in
  partial kinetic energy density read in
  atomic valenz-charges read in
  non local Contribution for L=           1  read in
    real space projection operators read in
  non local Contribution for L=           1  read in
    real space projection operators read in
  non local Contribution for L=           2  read in
    real space projection operators read in
  non local Contribution for L=           2  read in
    real space projection operators read in
  non local Contribution for L=           0  read in
    real space projection operators read in
  non local Contribution for L=           0  read in
    real space projection operators read in
    PAW grid and wavefunctions read in
 
   number of l-projection  operators is LMAX  =           6
   number of lm-projection operators is LMMAX =          18
 
 POTCAR:    PAW_PBE S 06Sep2000                   
   VRHFIN =S : s2p4                                                             
   LEXCH  = PE                                                                  
   EATOM  =   276.8230 eV,   20.3459 Ry                                         
                                                                                
   TITEL  = PAW_PBE S 06Sep2000                                                 
   LULTRA =        F    use ultrasoft PP ?                                      
   IUNSCR =        1    unscreen: 0-lin 1-nonlin 2-no                           
   RPACOR =    1.500    partial core radius                                     
   POMASS =   32.066; ZVAL   =    6.000    mass and valenz                      
   RCORE  =    1.900    outmost cutoff radius                                   
   RWIGS  =    2.200; RWIGS  =    1.164    wigner-seitz radius (au A)           
   ENMAX  =  258.689; ENMIN  =  194.016 eV                                      
   ICORE  =        2    local potential                                         
   LCOR   =        T    correct aug charges                                     
   LPAW   =        T    paw PP                                                  
   EAUG   =  335.092                                                            
   DEXC   =    0.000                                                            
   RMAX   =    1.942    core radius for proj-oper                               
   RAUG   =    1.300    factor for augmentation sphere                          
   RDEP   =    1.954    radius for radial grids                                 
   RDEPT  =    1.744    core radius for aug-charge                              
                                                                                
   Atomic configuration                                                         
    6 entries                                                                   
     n  l   j            E        occ.                                          
     1  0  0.50     -2405.8406   2.0000                                         
     2  0  0.50      -211.7007   2.0000                                         
     2  1  1.50      -156.4958   6.0000                                         
     3  0  0.50       -17.2562   2.0000                                         
     3  1  0.50        -7.0085   4.0000                                         
     3  2  1.50        -6.8029   0.0000                                         
   Description                                                                  
     l       E           TYP  RCUT    TYP  RCUT                                 
     0    -17.2561641     23  1.900                                             
     0    -15.8743224     23  1.900                                             
     1     -7.0085400     23  1.900                                             
     1     -2.7779785     23  1.900                                             
     2     -6.8029130     23  1.900                                             
  local pseudopotential read in
  partial core-charges read in
  partial kinetic energy density read in
  atomic valenz-charges read in
  non local Contribution for L=           0  read in
    real space projection operators read in
  non local Contribution for L=           0  read in
    real space projection operators read in
  non local Contribution for L=           1  read in
    real space projection operators read in
  non local Contribution for L=           1  read in
    real space projection operators read in
    PAW grid and wavefunctions read in
 
   number of l-projection  operators is LMAX  =           4
   number of lm-projection operators is LMMAX =           8
 
 Optimization of the real space projectors (new method)

 maximal supplied QI-value         = 18.90
 optimisation between [QCUT,QGAM] = [ 10.77, 21.73] = [ 32.49,132.25] Ry 
 Optimized for a Real-space Cutoff    1.38 Angstroem

   l    n(q)    QCUT    max X(q) W(low)/X(q) W(high)/X(q)  e(spline) 
   1      8    10.771     2.836    0.40E-04    0.29E-04    0.12E-06
   1      8    10.771     4.023    0.10E-03    0.48E-04    0.29E-06
   2      8    10.771    73.368    0.42E-03    0.97E-04    0.44E-06
   2      8    10.771    69.010    0.42E-03    0.99E-04    0.45E-06
   0      9    10.771    54.797    0.10E-03    0.56E-04    0.74E-07
   0      9    10.771    24.266    0.89E-04    0.49E-04    0.67E-07
 Optimization of the real space projectors (new method)

 maximal supplied QI-value         = 19.84
 optimisation between [QCUT,QGAM] = [ 10.71, 21.63] = [ 32.15,130.99] Ry 
 Optimized for a Real-space Cutoff    1.19 Angstroem

   l    n(q)    QCUT    max X(q) W(low)/X(q) W(high)/X(q)  e(spline) 
   0      8    10.715   187.594    0.41E-03    0.53E-04    0.66E-07
   0      8    10.715   164.243    0.41E-03    0.53E-04    0.65E-07
   1      7    10.715    67.533    0.19E-03    0.59E-03    0.68E-07
   1      7    10.715    50.729    0.19E-03    0.58E-03    0.67E-07
  PAW_PBE Ni_pv 06Sep2000               :
 energy of atom  1       EATOM=-3501.1230
 kinetic energy error for atom=    0.0925 (will be added to EATOM!!)
  PAW_PBE S 06Sep2000                   :
 energy of atom  2       EATOM= -276.8230
 kinetic energy error for atom=    0.0033 (will be added to EATOM!!)
 
 
 POSCAR: Type_048 Type_148                       
  positions in cartesian coordinates
  No initial velocities read in
 exchange correlation table for  LEXCH =        8
   RHO(1)=    0.500       N(1)  =     2000
   RHO(2)=  100.500       N(2)  =     4000
 


--------------------------------------------------------------------------------------------------------


 ion  position               nearest neighbor table
   1  0.256  0.016  0.152-  74 2.25  64 2.26  81 2.26  53 2.36  93 2.36   5 2.38
   2  0.256  0.016  0.481-  75 2.25  65 2.26  82 2.26  54 2.36  94 2.36  10 2.53   6 2.53
   3  0.006  0.266  0.317-  61 2.25  67 2.26  71 2.26  55 2.36  59 2.36   7 2.53  23 2.53
   4  0.014  0.262  0.638-  56 2.11  68 2.14  72 2.15  60 2.20   8 2.33  24 2.48
   5  0.285  0.024  0.071-  90 2.02  49 2.16  93 2.19  81 2.35   1 2.38  78 2.42
   6  0.256  0.016  0.394-  79 2.25  61 2.26  82 2.26  50 2.36  94 2.36   2 2.53  10 2.53
   7  0.006  0.266  0.230-  64 2.25  71 2.26  62 2.26  59 2.36  51 2.36   3 2.53  23 2.53
   8  0.006  0.266  0.558-  65 2.25  72 2.26  63 2.26   4 2.33  60 2.36  52 2.36  24 2.53
   9  0.165  0.223  0.113-  64 2.10  57 2.14  49 2.14  78 2.18  53 2.40
  10  0.190  0.215  0.438-  58 2.25  65 2.26  61 2.26  54 2.36  50 2.36   2 2.53   6 2.53
  11  0.440  0.465  0.273-  83 2.25  51 2.26  55 2.26  62 2.36  67 2.36  19 2.53  15 2.53
  12  0.440  0.465  0.602-  56 2.11  68 2.14  84 2.25  52 2.26  63 2.36  16 2.48  20 2.53
  13  0.756  0.016  0.152-  86 2.25  53 2.26  93 2.26  64 2.36  81 2.36  17 2.46  21 2.50
  14  0.756  0.016  0.481-  87 2.25  54 2.26  94 2.26  65 2.36  82 2.36  22 2.53  18 2.53
  15  0.506  0.266  0.317-  50 2.25  55 2.26  59 2.26  67 2.36  71 2.36  19 2.53  11 2.53
  16  0.514  0.262  0.638-  68 2.11  56 2.14  60 2.15  72 2.20  20 2.33  12 2.48
  17  0.701  0.034  0.069-  90 2.03  93 2.13  49 2.14  78 2.23  13 2.46  21 2.51  81 2.63
  18  0.756  0.016  0.394-  91 2.25  50 2.26  94 2.26  61 2.36  82 2.36  14 2.53  22 2.53
  19  0.506  0.266  0.230-  53 2.25  59 2.26  51 2.26  71 2.36  62 2.36  15 2.53  11 2.53
  20  0.506  0.266  0.558-  54 2.25  60 2.26  52 2.26  16 2.33  72 2.36  63 2.36  12 2.53
  21  0.680  0.222  0.116-  53 2.10  78 2.17  69 2.18  49 2.22  64 2.28  41 2.39  13 2.50  17 2.51

  22  0.690  0.215  0.438-  70 2.25  54 2.26  50 2.26  65 2.36  61 2.36  14 2.53  18 2.53
  23  0.940  0.465  0.273-  95 2.25  62 2.26  67 2.26  51 2.36  55 2.36   7 2.53   3 2.53
  24  0.940  0.465  0.602-  68 2.11  56 2.14  96 2.25  63 2.26  52 2.36   4 2.48   8 2.53
  25  0.256  0.516  0.152-  51 2.25  88 2.26  57 2.26  76 2.36  69 2.36
  26  0.256  0.516  0.481-  52 2.25  89 2.26  58 2.26  77 2.36  70 2.36  34 2.53  30 2.53
  27  0.006  0.766  0.317-  85 2.25  91 2.26  95 2.26  79 2.36  83 2.36  31 2.53  47 2.53
  28  0.014  0.762  0.638-  80 2.11  92 2.14  96 2.15  84 2.20  32 2.33  48 2.48
  29  0.329  0.370  0.065-  69 2.03  66 2.04  49 2.10  57 2.14
  30  0.256  0.516  0.394-  55 2.25  85 2.26  58 2.26  73 2.36  70 2.36  26 2.53  34 2.53
  31  0.006  0.766  0.230-  88 2.25  95 2.26  86 2.26  83 2.36  74 2.36  33 2.39  27 2.53  47 2.53

  32  0.006  0.766  0.558-  89 2.25  96 2.26  87 2.26  28 2.33  84 2.36  75 2.36  48 2.53
  33  0.189  0.798  0.160-  81 2.07  76 2.07  74 2.18  88 2.21  31 2.39
  34  0.190  0.715  0.438-  82 2.25  89 2.26  85 2.26  77 2.36  73 2.36  26 2.53  30 2.53
  35  0.440  0.965  0.273-  59 2.25  74 2.26  79 2.26  86 2.36  91 2.36  43 2.53  39 2.53
  36  0.440  0.965  0.602-  80 2.11  92 2.14  60 2.25  75 2.26  87 2.36  40 2.48  44 2.53
  37  0.756  0.516  0.152-  62 2.25  76 2.26  69 2.26  88 2.36  57 2.36
  38  0.756  0.516  0.481-  63 2.25  77 2.26  70 2.26  89 2.36  58 2.36  46 2.53  42 2.53
  39  0.506  0.766  0.317-  73 2.25  79 2.26  83 2.26  91 2.36  95 2.36  43 2.53  35 2.53
  40  0.514  0.762  0.638-  92 2.11  80 2.14  84 2.15  96 2.20  44 2.33  36 2.48
  41  0.826  0.354  0.066-  66 2.03  57 2.09  69 2.13  78 2.18  21 2.39
  42  0.756  0.516  0.394-  67 2.25  73 2.26  70 2.26  85 2.36  58 2.36  38 2.53  46 2.53
  43  0.506  0.766  0.230-  76 2.25  83 2.26  74 2.26  95 2.36  86 2.36  45 2.38  39 2.53  35 2.53

  44  0.506  0.766  0.558-  77 2.25  84 2.26  75 2.26  40 2.33  96 2.36  87 2.36  36 2.53
  45  0.691  0.797  0.161-  88 2.06  93 2.09  86 2.17  76 2.21  43 2.38
  46  0.690  0.715  0.438-  94 2.25  77 2.26  73 2.26  89 2.36  85 2.36  38 2.53  42 2.53
  47  0.940  0.965  0.273-  71 2.25  86 2.26  91 2.26  74 2.36  79 2.36  31 2.53  27 2.53
  48  0.940  0.965  0.602-  92 2.11  80 2.14  72 2.25  87 2.26  75 2.36  28 2.48  32 2.53
  49  0.433  0.182  0.067-  29 2.10  17 2.14   9 2.14   5 2.16  21 2.22  90 2.65
  50  0.468  0.167  0.382-  15 2.25  18 2.26  22 2.26   6 2.36  10 2.36
  51  0.218  0.417  0.218-  25 2.25  11 2.26  19 2.26  23 2.36   7 2.36
  52  0.218  0.417  0.547-  26 2.25  12 2.26  20 2.26  24 2.36   8 2.36
  53  0.468  0.167  0.164-  21 2.10  19 2.25  13 2.26   1 2.36   9 2.40
  54  0.468  0.167  0.493-  20 2.25  22 2.26  14 2.26  10 2.36   2 2.36
  55  0.218  0.417  0.329-  30 2.25  15 2.26  11 2.26   3 2.36  23 2.36
  56  0.218  0.391  0.642-   4 2.11  12 2.11  24 2.14  16 2.14  60 2.77
  57  0.053  0.414  0.109-  41 2.09   9 2.14  29 2.14  25 2.26  37 2.36
  58  0.053  0.414  0.438-  10 2.25  26 2.26  30 2.26  38 2.36  42 2.36
  59  0.303  0.164  0.273-  35 2.25  19 2.26  15 2.26   7 2.36   3 2.36
  60  0.303  0.164  0.602-  16 2.15   4 2.20  36 2.25  20 2.26   8 2.36  56 2.77
  61  0.968  0.167  0.382-   3 2.25   6 2.26  10 2.26  18 2.36  22 2.36
  62  0.718  0.417  0.218-  37 2.25  23 2.26   7 2.26  11 2.36  19 2.36
  63  0.718  0.417  0.547-  38 2.25  24 2.26   8 2.26  12 2.36  20 2.36
  64  0.968  0.167  0.164-   9 2.10   7 2.25   1 2.26  21 2.28  13 2.36
  65  0.968  0.167  0.493-   8 2.25  10 2.26   2 2.26  22 2.36  14 2.36
  66  0.575  0.390  0.022-  41 2.03  29 2.04  69 2.56
  67  0.718  0.417  0.329-  42 2.25   3 2.26  23 2.26  15 2.36  11 2.36
  68  0.718  0.391  0.642-  16 2.11  24 2.11  12 2.14   4 2.14  72 2.77
  69  0.553  0.414  0.109-  29 2.03  41 2.13  21 2.18  37 2.26  25 2.36  66 2.56
  70  0.553  0.414  0.438-  22 2.25  38 2.26  42 2.26  26 2.36  30 2.36
  71  0.803  0.164  0.273-  47 2.25   7 2.26   3 2.26  19 2.36  15 2.36
  72  0.803  0.164  0.602-   4 2.15  16 2.20  48 2.25   8 2.26  20 2.36  68 2.77
  73  0.468  0.667  0.382-  39 2.25  42 2.26  46 2.26  30 2.36  34 2.36
  74  0.218  0.917  0.218-  33 2.18   1 2.25  35 2.26  43 2.26  47 2.36  31 2.36
  75  0.218  0.917  0.547-   2 2.25  36 2.26  44 2.26  48 2.36  32 2.36
  76  0.468  0.667  0.164-  33 2.07  45 2.21  43 2.25  37 2.26  25 2.36
  77  0.468  0.667  0.493-  44 2.25  46 2.26  38 2.26  34 2.36  26 2.36
  78  0.937  0.159  0.067-  21 2.17  41 2.18   9 2.18  17 2.23   5 2.42
  79  0.218  0.917  0.329-   6 2.25  39 2.26  35 2.26  27 2.36  47 2.36
  80  0.218  0.891  0.642-  28 2.11  36 2.11  48 2.14  40 2.14  84 2.77
  81  0.053  0.914  0.109-  33 2.07   1 2.26   5 2.35  13 2.36  17 2.63
  82  0.053  0.914  0.438-  34 2.25   2 2.26   6 2.26  14 2.36  18 2.36
  83  0.303  0.664  0.273-  11 2.25  43 2.26  39 2.26  31 2.36  27 2.36
  84  0.303  0.664  0.602-  40 2.15  28 2.20  12 2.25  44 2.26  32 2.36  80 2.77
  85  0.968  0.667  0.382-  27 2.25  30 2.26  34 2.26  42 2.36  46 2.36
  86  0.718  0.917  0.218-  45 2.17  13 2.25  47 2.26  31 2.26  35 2.36  43 2.36
  87  0.718  0.917  0.547-  14 2.25  48 2.26  32 2.26  36 2.36  44 2.36
  88  0.968  0.667  0.164-  45 2.06  33 2.21  31 2.25  25 2.26  37 2.36
  89  0.968  0.667  0.493-  32 2.25  34 2.26  26 2.26  46 2.36  38 2.36
  90  0.509  0.975  0.021-   5 2.02  17 2.03  93 2.65  49 2.65
  91  0.718  0.917  0.329-  18 2.25  27 2.26  47 2.26  39 2.36  35 2.36
  92  0.718  0.891  0.642-  40 2.11  48 2.11  36 2.14  28 2.14  96 2.77
  93  0.553  0.914  0.109-  45 2.09  17 2.13   5 2.19  13 2.26   1 2.36  90 2.65
  94  0.553  0.914  0.438-  46 2.25  14 2.26  18 2.26   2 2.36   6 2.36
  95  0.803  0.664  0.273-  23 2.25  31 2.26  27 2.26  43 2.36  39 2.36
  96  0.803  0.664  0.602-  28 2.15  40 2.20  24 2.25  32 2.26  44 2.36  92 2.77
 
  LATTYP: Found a simple monoclinic cell.
 ALAT       =    13.8711386352
 B/A-ratio  =     2.1019774055
 C/A-ratio  =     1.3233367991
 COS(beta)  =    -0.9620914447
  
  Lattice vectors:
  
 A1 = (  -8.3714133957, -11.0601955134,   0.0000000000)
 A2 = (   0.0000000000,   0.0000000000, -29.1568200000)
 A3 = (  14.6499733957,  11.0601955134,   0.0000000000)


Analysis of symmetry for initial positions (statically):
=====================================================================
 Subroutine PRICEL returns:
 Original cell was already a primitive cell.
 

 Routine SETGRP: Setting up the symmetry group for a 
 simple monoclinic supercell.


 Subroutine GETGRP returns: Found  1 space group operations
 (whereof  1 operations were pure point group operations)
 out of a pool of  4 trial point group operations.


The static configuration has the point symmetry C_1 .


Analysis of symmetry for dynamics (positions and initial velocities):
=====================================================================
 Subroutine PRICEL returns:
 Original cell was already a primitive cell.
 

 Routine SETGRP: Setting up the symmetry group for a 
 simple monoclinic supercell.


 Subroutine GETGRP returns: Found  1 space group operations
 (whereof  1 operations were pure point group operations)
 out of a pool of  4 trial point group operations.


The dynamic configuration has the point symmetry C_1 .


 Subroutine INISYM returns: Found  1 space group operations
 (whereof  1 operations are pure point group operations),
 and found     1 'primitive' translations

 
 
 KPOINTS: gamma-point-only calculation. no periodi

Automatic generation of k-mesh.
Space group operators:
 irot       det(A)        alpha          n_x          n_y          n_z        tau_x        tau_y        tau_z
    1     1.000000     0.000000     1.000000     0.000000     0.000000     0.000000     0.000000     0.000000
 
 Subroutine IBZKPT returns following result:
 ===========================================
 
 Found      1 irreducible k-points:
 
 Following reciprocal coordinates:
            Coordinates               Weight
  0.000000  0.000000  0.000000      1.000000
 
 Following cartesian coordinates:
            Coordinates               Weight
  0.000000  0.000000  0.000000      1.000000
 


--------------------------------------------------------------------------------------------------------




 Dimension of arrays:
   k-points           NKPTS =      1   k-points in BZ     NKDIM =      1   number of bands    NBANDS=    634
   number of dos      NEDOS =    301   number of ions     NIONS =     96
   non local maximal  LDIM  =      6   non local SUM 2l+1 LMDIM =     18
   total plane-waves  NPLWV = 345600
   max r-space proj   IRMAX =   1932   max aug-charges    IRDMAX=   5576
   dimension x,y,z NGX =    36 NGY =   60 NGZ =  160
   dimension x,y,z NGXF=    72 NGYF=  120 NGZF=  320
   support grid    NGXF=    72 NGYF=  120 NGZF=  320
   ions per type =              48  48
   NGX,Y,Z   is equivalent  to a cutoff of   9.53,  8.86,  9.12 a.u.
   NGXF,Y,Z  is equivalent  to a cutoff of  19.06, 17.72, 18.25 a.u.

 SYSTEM =  "Millerite NiS"                         
 POSCAR =  Type_048 Type_148                       

 Startparameter for this run:
   NWRITE =      2    write-flag & timer
   PREC   = normal    normal or accurate (medium, high low for compatibility)
   ISTART =      0    job   : 0-new  1-cont  2-samecut
   ICHARG =      2    charge: 1-file 2-atom 10-const
   ISPIN  =      1    spin polarized calculation?
   LNONCOLLINEAR =      F non collinear calculations
   LSORBIT =      F    spin-orbit coupling
   INIWAV =      1    electr: 0-lowe 1-rand  2-diag
   LASPH  =      F    aspherical Exc in radial PAW
   METAGGA=      F    non-selfconsistent MetaGGA calc.

 Electronic Relaxation 1
   ENCUT  =  450.0 eV  33.07 Ry    5.75 a.u.  10.86 19.47 50.43*2*pi/ulx,y,z
   ENINI  =  450.0     initial cutoff
   ENAUG  =  703.4 eV  augmentation charge cutoff
   NELM   =    100;   NELMIN=  2; NELMDL= -5     # of ELM steps 
   EDIFF  = 0.1E-03   stopping-criterion for ELM
   LREAL  =      T    real-space projection
   NLSPLINE    = F    spline interpolate recip. space projectors
   LCOMPAT=      F    compatible to vasp.4.4
   GGA_COMPAT  = T    GGA compatible to vasp.4.4-vasp.4.6
   LMAXPAW     = -100 max onsite density
   LMAXMIX     =    2 max onsite mixed and CHGCAR
   VOSKOWN=      0    Vosko Wilk Nusair interpolation
   ROPT   =   -0.00050  -0.00050
 Ionic relaxation
   EDIFFG = 0.1E-02   stopping-criterion for IOM
   NSW    =      0    number of steps for IOM
   NBLOCK =      1;   KBLOCK =      1    inner block; outer block 
   IBRION =     -1    ionic relax: 0-MD 1-quasi-New 2-CG
   NFREE  =      0    steps in history (QN), initial steepest desc. (CG)
   ISIF   =      2    stress and relaxation
   IWAVPR =     10    prediction:  0-non 1-charg 2-wave 3-comb
   ISYM   =      2    0-nonsym 1-usesym 2-fastsym
   LCORR  =      T    Harris-Foulkes like correction to forces

   POTIM  = 0.5000    time-step for ionic-motion
   TEIN   =    0.0    initial temperature
   TEBEG  =    0.0;   TEEND  =   0.0 temperature during run
   SMASS  =  -3.00    Nose mass-parameter (am)
   estimated Nose-frequenzy (Omega)   =  0.10E-29 period in steps =****** mass=  -0.901E-27a.u.
   SCALEE = 1.0000    scale energy and forces
   NPACO  =    256;   APACO  = 16.0  distance and # of slots for P.C.
   PSTRESS=    0.0 pullay stress

  Mass of Ions in am
   POMASS =  58.69 32.07
  Ionic Valenz
   ZVAL   =  16.00  6.00
  Atomic Wigner-Seitz radii
   RWIGS  =  -1.00 -1.00
  virtual crystal weights 
   VCA    =   1.00  1.00
   NELECT =    1056.0000    total number of electrons
   NUPDOWN=      -1.0000    fix difference up-down

 DOS related values:
   EMIN   =  10.00;   EMAX   =-10.00  energy-range for DOS
   EFERMI =   0.00
   ISMEAR =     0;   SIGMA  =   0.20  broadening in eV -4-tet -1-fermi 0-gaus

 Electronic relaxation 2 (details)
   IALGO  =     38    algorithm
   LDIAG  =      T    sub-space diagonalisation (order eigenvalues)
   LSUBROT=      F    optimize rotation matrix (better conditioning)
   TURBO    =      0    0=normal 1=particle mesh
   IRESTART =      0    0=no restart 2=restart with 2 vectors
   NREBOOT  =      0    no. of reboots
   NMIN     =      0    reboot dimension
   EREF     =   0.00    reference energy to select bands
   IMIX   =      4    mixing-type and parameters
     AMIX     =   0.40;   BMIX     =  1.00
     AMIX_MAG =   1.60;   BMIX_MAG =  1.00
     AMIN     =   0.10
     WC   =   100.;   INIMIX=   1;  MIXPRE=   1;  MAXMIX= -45

 Intra band minimization:
   WEIMIN = 0.0000     energy-eigenvalue tresh-hold
   EBREAK =  0.39E-07  absolut break condition
   DEPER  =   0.30     relativ break condition  

   TIME   =   0.40     timestep for ELM

  volume/ion in A,a.u.               =      21.09       142.33
  Fermi-wavevector in a.u.,A,eV,Ry     =   1.317777  2.490237 23.626996  1.736535
  Thomas-Fermi vector in A             =   2.447794
 
 Write flags
   LWAVE        =      F    write WAVECAR
   LDOWNSAMPLE  =      F    k-point downsampling of WAVECAR
   LCHARG       =      F    write CHGCAR
   LVTOT        =      F    write LOCPOT, total local potential
   LVHAR        =      F    write LOCPOT, Hartree potential only
   LELF         =      F    write electronic localiz. function (ELF)
   LORBIT       =      0    0 simple, 1 ext, 2 COOP (PROOUT), +10 PAW based schemes


 Dipole corrections
   LMONO  =      F    monopole corrections only (constant potential shift)
   LDIPOL =      F    correct potential (dipole corrections)
   IDIPOL =      0    1-x, 2-y, 3-z, 4-all directions 
   EPSILON=  1.0000000 bulk dielectric constant

 Exchange correlation treatment:
   GGA     =    --    GGA type
   LEXCH   =     8    internal setting for exchange type
   VOSKOWN=      0    Vosko Wilk Nusair interpolation
   LHFCALC =     F    Hartree Fock is set to
   LHFONE  =     F    Hartree Fock one center treatment
   AEXX    =    0.0000 exact exchange contribution

 Linear response parameters
   LEPSILON=     F    determine dielectric tensor
   LRPA    =     F    only Hartree local field effects (RPA)
   LNABLA  =     F    use nabla operator in PAW spheres
   LVEL    =     F    velocity operator in full k-point grid
   LINTERFAST=   F  fast interpolation
   KINTER  =     0    interpolate to denser k-point grid
   CSHIFT  =0.1000    complex shift for real part using Kramers Kronig
   OMEGAMAX=  -1.0    maximum frequency
   DEG_THRESHOLD= 0.2000000E-02 threshold for treating states as degnerate
   RTIME   =   -0.100 relaxation time in fs
  (WPLASMAI=    0.000 imaginary part of plasma frequency in eV, 0.658/RTIME)
   DFIELD  = 0.0000000 0.0000000 0.0000000 field for delta impulse in time
 
 Orbital magnetization related:
   ORBITALMAG=     F  switch on orbital magnetization
   LCHIMAG   =     F  perturbation theory with respect to B field
   DQ        =  0.001000  dq finite difference perturbation B field
   LLRAUG    =     F  two centre corrections for induced B field



--------------------------------------------------------------------------------------------------------


 Static calculation
 charge density and potential will be updated during run
 non-spin polarized calculation
 Variant of blocked Davidson
 Davidson routine will perform the subspace rotation
 perform sub-space diagonalisation
    after iterative eigenvector-optimisation
 modified Broyden-mixing scheme, WC =      100.0
 initial mixing is a Kerker type mixing with AMIX =  0.4000 and BMIX =      1.0000
 Hartree-type preconditioning will be used
 using additional bands          106
 real space projection scheme for non local part
 use partial core corrections
 calculate Harris-corrections to forces 
   (improved forces if not selfconsistent)
 use gradient corrections 
 use of overlap-Matrix (Vanderbilt PP)
 Gauss-broadening in eV      SIGMA  =   0.20


--------------------------------------------------------------------------------------------------------


  energy-cutoff  :      450.00
  volume of cell :     2024.71
      direct lattice vectors                 reciprocal lattice vectors
     6.278560000  0.000000000  0.000000000     0.159272190 -0.030138106  0.000000000
     2.092853396 11.060195513  0.000000000     0.000000000  0.090414315  0.000000000
     0.000000000  0.000000000 29.156820000     0.000000000  0.000000000  0.034297293

  length of vectors
     6.278560000 11.256463038 29.156820000     0.162098538  0.090414315  0.034297293


 
 k-points in units of 2pi/SCALE and weight: gamma-point-only calculation. no periodi
   0.00000000  0.00000000  0.00000000       1.000
 
 k-points in reciprocal lattice and weights: gamma-point-only calculation. no periodi
   0.00000000  0.00000000  0.00000000       1.000
 
 position of ions in fractional coordinates (direct lattice) 
   0.25630944  0.01645859  0.15239349
   0.25630944  0.01645859  0.48090702
   0.00630944  0.26645858  0.31665025
   0.01444390  0.26163493  0.63810276
   0.28497418  0.02383901  0.07105149
   0.25630944  0.01645859  0.39411177
   0.00630944  0.26645858  0.22985501
   0.00630944  0.26645858  0.55836854
   0.16513012  0.22303993  0.11349573
   0.19025794  0.21461308  0.43750940
   0.44025794  0.46461308  0.27325263
   0.44025794  0.46461308  0.60176617
   0.75630944  0.01645859  0.15239349
   0.75630944  0.01645859  0.48090702
   0.50630944  0.26645858  0.31665025
   0.51444390  0.26163493  0.63810276
   0.70143823  0.03398272  0.06900998
   0.75630944  0.01645859  0.39411177
   0.50630944  0.26645858  0.22985501
   0.50630944  0.26645858  0.55836854
   0.67993211  0.22151101  0.11646023
   0.69025794  0.21461308  0.43750940
   0.94025794  0.46461308  0.27325263
   0.94025794  0.46461308  0.60176617
   0.25630944  0.51645859  0.15239349
   0.25630944  0.51645859  0.48090702
   0.00630944  0.76645858  0.31665025
   0.01444390  0.76163493  0.63810276
   0.32915972  0.37030483  0.06490220
   0.25630944  0.51645859  0.39411177
   0.00630944  0.76645858  0.22985501
   0.00630944  0.76645858  0.55836854
   0.18918456  0.79778886  0.16039297
   0.19025794  0.71461308  0.43750940
   0.44025794  0.96461308  0.27325263
   0.44025794  0.96461308  0.60176617
   0.75630944  0.51645859  0.15239349
   0.75630944  0.51645859  0.48090702
   0.50630944  0.76645858  0.31665025
   0.51444390  0.76163493  0.63810276
   0.82591357  0.35436451  0.06636289
   0.75630944  0.51645859  0.39411177
   0.50630944  0.76645858  0.22985501
   0.50630944  0.76645858  0.55836854
   0.69126466  0.79715386  0.16088670
   0.69025794  0.71461308  0.43750940
   0.94025794  0.96461308  0.27325263
   0.94025794  0.96461308  0.60176617
   0.43320878  0.18197120  0.06695281
   0.46840410  0.16661759  0.38224849
   0.21840410  0.41661758  0.21799173
   0.21840410  0.41661758  0.54650526
   0.46840410  0.16661759  0.16425677
   0.46840410  0.16661759  0.49277030
   0.21840410  0.41661758  0.32851354
   0.21785611  0.39074163  0.64217401
   0.05251161  0.41429508  0.10899586
   0.05251161  0.41429508  0.43750940
   0.30251160  0.16429509  0.27325263
   0.30251160  0.16429509  0.60176617
   0.96840410  0.16661759  0.38224849
   0.71840410  0.41661758  0.21799173
   0.71840410  0.41661758  0.54650526
   0.96840410  0.16661759  0.16425677
   0.96840410  0.16661759  0.49277030
   0.57500410  0.39026788  0.02174566
   0.71840410  0.41661758  0.32851354
   0.71785611  0.39074163  0.64217401
   0.55251161  0.41429508  0.10899586
   0.55251161  0.41429508  0.43750940
   0.80251160  0.16429509  0.27325263
   0.80251160  0.16429509  0.60176617
   0.46840411  0.66661759  0.38224849
   0.21840411  0.91661758  0.21799173
   0.21840411  0.91661758  0.54650526
   0.46840411  0.66661759  0.16425677
   0.46840411  0.66661759  0.49277030
   0.93729594  0.15943474  0.06746521
   0.21840411  0.91661758  0.32851354
   0.21785611  0.89074163  0.64217401
   0.05251161  0.91429508  0.10899586
   0.05251161  0.91429508  0.43750940
   0.30251161  0.66429509  0.27325263
   0.30251161  0.66429509  0.60176617
   0.96840411  0.66661759  0.38224849
   0.71840411  0.91661758  0.21799173
   0.71840411  0.91661758  0.54650526
   0.96840411  0.66661759  0.16425677
   0.96840411  0.66661759  0.49277030
   0.50911220  0.97457396  0.02133499
   0.71840411  0.91661758  0.32851354
   0.71785611  0.89074163  0.64217401
   0.55251161  0.91429508  0.10899586
   0.55251161  0.91429508  0.43750940
   0.80251161  0.66429509  0.27325263
   0.80251161  0.66429509  0.60176617
 
 position of ions in cartesian coordinates  (Angst):
   1.64369960  0.18203523  4.44330947
   1.64369960  0.18203523 14.02171945
   0.59727294  2.94708402  9.23251446
   0.63825042  2.89373346 18.60504729
   1.83911905  0.26366409  2.07163537
   1.64369960  0.18203523 11.49104605
   0.59727294  2.94708402  6.70184107
   0.59727294  2.94708402 16.28025107
   1.50356925  2.46686523  3.30917452
   1.64369960  2.37366268 12.75638277
   3.73655294  5.13871148  7.96717775
   3.73655294  5.13871148 17.54558776
   4.78297960  0.18203523  4.44330947
   4.78297960  0.18203523 14.02171945
   3.73655294  2.94708402  9.23251446
   3.77753042  2.89373346 18.60504729
   4.47514285  0.37585557  2.01211146
   4.78297960  0.18203523 11.49104605
   3.73655294  2.94708402  6.70184107
   3.73655294  2.94708402 16.28025107
   4.73258459  2.44995507  3.39560997
   4.78297960  2.37366268 12.75638277
   6.87583294  5.13871148  7.96717775
   6.87583294  5.13871148 17.54558776
   2.69012630  5.71213299  4.44330947
   2.69012630  5.71213299 14.02171945
   1.64369963  8.47718178  9.23251446
   1.68467711  8.42383122 18.60504729
   2.84164279  4.09564382  1.89234187
   2.69012630  5.71213299 11.49104605
   1.64369963  8.47718178  6.70184107
   1.64369963  8.47718178 16.28025107
   2.85746171  8.82370078  4.67654903
   2.69012630  7.90376044 12.75638277
   4.78297964 10.66880924  7.96717775
   4.78297964 10.66880924 17.54558776
   5.82940630  5.71213299  4.44330947
   5.82940630  5.71213299 14.02171945
   4.78297963  8.47718178  9.23251446
   4.82395711  8.42383122 18.60504729
   5.92718090  3.91934081  1.93493073
   5.82940630  5.71213299 11.49104605
   4.78297963  8.47718178  6.70184107
   4.78297963  8.47718178 16.28025107
   6.00847280  8.81667756  4.69094451
   5.82940630  7.90376044 12.75638277
   7.92225964 10.66880924  7.96717775
   7.92225964 10.66880924 17.54558776
   3.10076636  2.01263710  1.95213107
   3.28960946  1.84282308 11.14515053
   2.24318279  4.60787188  6.35594552
   2.24318279  4.60787188 15.93435552
   3.28960946  1.84282308  4.78920499
   3.28960946  1.84282308 14.36761500
   2.24318279  4.60787188  9.57841001
   2.18558761  4.32167882 18.72375200
   1.19675613  4.58218457  3.17797276
   1.19675613  4.58218457 12.75638277
   2.24318279  1.81713577  7.96717775
   2.24318279  1.81713577 17.54558776
   6.42888946  1.84282308 11.14515053
   5.38246279  4.60787188  6.35594552
   5.38246279  4.60787188 15.93435552
   6.42888946  1.84282308  4.78920499
   6.42888946  1.84282308 14.36761500
   4.42697120  4.31643909  0.63403421
   5.38246279  4.60787188  9.57841001
   5.32486761  4.32167882 18.72375200
   4.33603613  4.58218457  3.17797276
   4.33603613  4.58218457 12.75638277
   5.38246279  1.81713577  7.96717775
   5.38246279  1.81713577 17.54558776
   4.33603616  7.37292083 11.14515053
   3.28960949 10.13796963  6.35594552
   3.28960949 10.13796963 15.93435552
   4.33603616  7.37292083  4.78920499
   4.33603616  7.37292083 14.36761500
   6.21854235  1.76337940  1.96707109
   3.28960949 10.13796963  9.57841001
   3.23201431  9.85177658 18.72375200
   2.24318282 10.11228233  3.17797276
   2.24318282 10.11228233 12.75638277
   3.28960949  7.34723353  7.96717775
   3.28960949  7.34723353 17.54558776
   7.47531616  7.37292083 11.14515053
   6.42888949 10.13796963  6.35594552
   6.42888949 10.13796963 15.93435552
   7.47531616  7.37292083  4.78920499
   7.47531616  7.37292083 14.36761500
   5.23613192 10.77897850  0.62206032
   6.42888949 10.13796963  9.57841001
   6.37129431  9.85177658 18.72375200
   5.38246282 10.11228233  3.17797276
   5.38246282 10.11228233 12.75638277
   6.42888949  7.34723353  7.96717775
   6.42888949  7.34723353 17.54558776
 


--------------------------------------------------------------------------------------------------------


 use parallel FFT for orbitals z direction half grid
 k-point  1 :   0.0000 0.0000 0.0000  plane waves:   21935

 maximum and minimum number of plane-waves per node :      3657     3654

 maximum number of plane-waves:     21935
 maximum index in each direction: 
   IXMAX=   10   IYMAX=   19   IZMAX=   50
   IXMIN=  -10   IYMIN=  -19   IZMIN=    0


 real space projection operators:
  total allocation   :      15873.56 KBytes
  max/ min on nodes  :       2658.47       2622.44


 parallel 3D FFT for wavefunctions:
    minimum data exchange during FFTs selected (reduces bandwidth)
 parallel 3D FFT for charge:
    minimum data exchange during FFTs selected (reduces bandwidth)


 total amount of memory used by VASP MPI-rank0    76726. kBytes
=======================================================================

   base      :      30000. kBytes
   nonlr-proj:       3266. kBytes
   fftplans  :       8997. kBytes
   grid      :      15269. kBytes
   one-center:        124. kBytes
   wavefun   :      19070. kBytes
 
     INWAV:  cpu time    0.0000: real time    0.0000
 Broyden mixing: mesh for mixing (old mesh)
   NGX = 21   NGY = 39   NGZ =101
  (NGX  = 72   NGY  =120   NGZ  =320)
  gives a total of  82719 points

 initial charge density was supplied:
 charge density of overlapping atoms calculated
 number of electron    1056.0000000 magnetization 
 keeping initial charge density in first step


--------------------------------------------------------------------------------------------------------


 Maximum index for non-local projection operator          324
 Maximum index for augmentation-charges          496 (set IRDMAX)


--------------------------------------------------------------------------------------------------------


 First call to EWALD:  gamma=   0.140
 Maximum number of real-space cells 5x 3x 1
 Maximum number of reciprocal cells 2x 2x 6

    FEWALD:  cpu time    0.0415: real time    0.0416


--------------------------------------- Iteration      1(   1)  ---------------------------------------


    POTLOK:  cpu time    0.3933: real time    0.3933
    SETDIJ:  cpu time    0.0232: real time    0.0232
     EDDAV:  cpu time   10.3894: real time   10.3915
       DOS:  cpu time    0.0018: real time    0.0017
    --------------------------------------------
      LOOP:  cpu time   10.8077: real time   10.8098

 eigenvalue-minimisations  :  1500
 total energy-change (2. order) : 0.1474685E+05  (-0.6819044E+05)
 number of electron    1056.0000000 magnetization 
 augmentation part     1056.0000000 magnetization 

 Free energy of the ion-electron system (eV)
  ---------------------------------------------------
  alpha Z        PSCENC =      3266.22189490
  Ewald energy   TEWEN  =    360028.12229253
  -Hartree energ DENC   =   -525951.98458651
  -exchange      EXHF   =         0.00000000
  -V(xc)+E(xc)   XCENC  =      4902.00930457
  PAW double counting   =    150306.04444553  -156855.34918313
  entropy T*S    EENTRO =        -0.51688602
  eigenvalues    EBANDS =     -2284.50484344
  atomic energy  EATOM  =    181336.80673834
  Solvation  Ediel_sol  =         0.00000000
  ---------------------------------------------------
  free energy    TOTEN  =     14746.84917677 eV

  energy without entropy =    14747.36606280  energy(sigma->0) =    14747.10761978


--------------------------------------------------------------------------------------------------------




--------------------------------------- Iteration      1(   2)  ---------------------------------------


     EDDAV:  cpu time    9.5711: real time    9.5735
       DOS:  cpu time    0.0014: real time    0.0014
    --------------------------------------------
      LOOP:  cpu time    9.5725: real time    9.5748

 eigenvalue-minimisations  :  1292
 total energy-change (2. order) :-0.1354547E+05  (-0.1308860E+05)
 number of electron    1056.0000000 magnetization 
 augmentation part     1056.0000000 magnetization 

 Free energy of the ion-electron system (eV)
  ---------------------------------------------------
  alpha Z        PSCENC =      3266.22189490
  Ewald energy   TEWEN  =    360028.12229253
  -Hartree energ DENC   =   -525951.98458651
  -exchange      EXHF   =         0.00000000
  -V(xc)+E(xc)   XCENC  =      4902.00930457
  PAW double counting   =    150306.04444553  -156855.34918313
  entropy T*S    EENTRO =        -0.74455792
  eigenvalues    EBANDS =    -15829.74372453
  atomic energy  EATOM  =    181336.80673834
  Solvation  Ediel_sol  =         0.00000000
  ---------------------------------------------------
  free energy    TOTEN  =      1201.38262379 eV

  energy without entropy =     1202.12718171  energy(sigma->0) =     1201.75490275


--------------------------------------------------------------------------------------------------------




--------------------------------------- Iteration      1(   3)  ---------------------------------------


     EDDAV:  cpu time   10.2633: real time   10.2660
       DOS:  cpu time    0.0014: real time    0.0014
    --------------------------------------------
      LOOP:  cpu time   10.2647: real time   10.2674

 eigenvalue-minimisations  :  1430
 total energy-change (2. order) :-0.1606416E+04  (-0.1488469E+04)
 number of electron    1056.0000000 magnetization 
 augmentation part     1056.0000000 magnetization 

 Free energy of the ion-electron system (eV)
  ---------------------------------------------------
  alpha Z        PSCENC =      3266.22189490
  Ewald energy   TEWEN  =    360028.12229253
  -Hartree energ DENC   =   -525951.98458651
  -exchange      EXHF   =         0.00000000
  -V(xc)+E(xc)   XCENC  =      4902.00930457
  PAW double counting   =    150306.04444553  -156855.34918313
  entropy T*S    EENTRO =        -0.80813517
  eigenvalues    EBANDS =    -17436.09633504
  atomic energy  EATOM  =    181336.80673834
  Solvation  Ediel_sol  =         0.00000000
  ---------------------------------------------------
  free energy    TOTEN  =      -405.03356397 eV

  energy without entropy =     -404.22542880  energy(sigma->0) =     -404.62949639


--------------------------------------------------------------------------------------------------------




--------------------------------------- Iteration      1(   4)  ---------------------------------------


     EDDAV:  cpu time   10.6586: real time   10.6611
       DOS:  cpu time    0.0014: real time    0.0014
    --------------------------------------------
      LOOP:  cpu time   10.6600: real time   10.6625

 eigenvalue-minimisations  :  1496
 total energy-change (2. order) :-0.1319842E+03  (-0.1292209E+03)
 number of electron    1056.0000000 magnetization 
 augmentation part     1056.0000000 magnetization 

 Free energy of the ion-electron system (eV)
  ---------------------------------------------------
  alpha Z        PSCENC =      3266.22189490
  Ewald energy   TEWEN  =    360028.12229253
  -Hartree energ DENC   =   -525951.98458651
  -exchange      EXHF   =         0.00000000
  -V(xc)+E(xc)   XCENC  =      4902.00930457
  PAW double counting   =    150306.04444553  -156855.34918313
  entropy T*S    EENTRO =        -0.79661511
  eigenvalues    EBANDS =    -17568.09208722
  atomic energy  EATOM  =    181336.80673834
  Solvation  Ediel_sol  =         0.00000000
  ---------------------------------------------------
  free energy    TOTEN  =      -537.01779609 eV

  energy without entropy =     -536.22118098  energy(sigma->0) =     -536.61948854


--------------------------------------------------------------------------------------------------------




--------------------------------------- Iteration      1(   5)  ---------------------------------------


     EDDAV:  cpu time   11.2797: real time   11.2821
       DOS:  cpu time    0.0013: real time    0.0013
    CHARGE:  cpu time    0.2914: real time    0.2914
    MIXING:  cpu time    0.0085: real time    0.0085
    --------------------------------------------
      LOOP:  cpu time   11.5809: real time   11.5833

 eigenvalue-minimisations  :  1592
 total energy-change (2. order) :-0.4852400E+01  (-0.4836609E+01)
 number of electron    1056.0000369 magnetization 
 augmentation part      383.2164604 magnetization 

 Broyden mixing:
  rms(total) = 0.10251E+02    rms(broyden)= 0.10232E+02
  rms(prec ) = 0.10500E+02
  weight for this iteration     100.00

 Free energy of the ion-electron system (eV)
  ---------------------------------------------------
  alpha Z        PSCENC =      3266.22189490
  Ewald energy   TEWEN  =    360028.12229253
  -Hartree energ DENC   =   -525951.98458651
  -exchange      EXHF   =         0.00000000
  -V(xc)+E(xc)   XCENC  =      4902.00930457
  PAW double counting   =    150306.04444553  -156855.34918313
  entropy T*S    EENTRO =        -0.80067541
  eigenvalues    EBANDS =    -17572.94042643
  atomic energy  EATOM  =    181336.80673834
  Solvation  Ediel_sol  =         0.00000000
  ---------------------------------------------------
  free energy    TOTEN  =      -541.87019560 eV

  energy without entropy =     -541.06952019  energy(sigma->0) =     -541.46985790


--------------------------------------------------------------------------------------------------------




--------------------------------------- Iteration      1(   6)  ---------------------------------------


    POTLOK:  cpu time    0.2767: real time    0.2769
    SETDIJ:  cpu time    0.0233: real time    0.0233
     EDDAV:  cpu time   11.6752: real time   11.6773
       DOS:  cpu time    0.0015: real time    0.0015
    CHARGE:  cpu time    0.2749: real time    0.2749
    MIXING:  cpu time    0.0093: real time    0.0093
    --------------------------------------------
      LOOP:  cpu time   12.2608: real time   12.2631

 eigenvalue-minimisations  :  1696
 total energy-change (2. order) :-0.2323216E+03  (-0.1175886E+03)
 number of electron    1056.0000452 magnetization 
 augmentation part      443.3693350 magnetization 

 Broyden mixing:
  rms(total) = 0.22728E+02    rms(broyden)= 0.22721E+02
  rms(prec ) = 0.26121E+02
  weight for this iteration     100.00

 eigenvalues of (default mixing * dielectric matrix)
  average eigenvalue GAMMA=   0.1541
  0.1541

 Free energy of the ion-electron system (eV)
  ---------------------------------------------------
  alpha Z        PSCENC =      3266.22189490
  Ewald energy   TEWEN  =    360028.12229253
  -Hartree energ DENC   =   -521781.27539023
  -exchange      EXHF   =         0.00000000
  -V(xc)+E(xc)   XCENC  =      4803.40766727
  PAW double counting   =    155065.89356302  -161307.71136196
  entropy T*S    EENTRO =        -0.88384759
  eigenvalues    EBANDS =    -22184.77339537
  atomic energy  EATOM  =    181336.80673834
  Solvation  Ediel_sol  =         0.00000000
  ---------------------------------------------------
  free energy    TOTEN  =      -774.19183908 eV

  energy without entropy =     -773.30799149  energy(sigma->0) =     -773.74991529


--------------------------------------------------------------------------------------------------------




--------------------------------------- Iteration      1(   7)  ---------------------------------------


    POTLOK:  cpu time    0.3512: real time    0.3515
    SETDIJ:  cpu time    0.0478: real time    0.0478
     EDDAV:  cpu time   11.4440: real time   11.4464
       DOS:  cpu time    0.0014: real time    0.0014
    CHARGE:  cpu time    0.2771: real time    0.2771
    MIXING:  cpu time    0.0093: real time    0.0093
    --------------------------------------------
      LOOP:  cpu time   12.1309: real time   12.1335

 eigenvalue-minimisations  :  1630
 total energy-change (2. order) : 0.1218838E+03  (-0.3572320E+02)
 number of electron    1056.0000336 magnetization 
 augmentation part      453.3558797 magnetization 

 Broyden mixing:
  rms(total) = 0.15782E+02    rms(broyden)= 0.15779E+02
  rms(prec ) = 0.18318E+02
  weight for this iteration     100.00

 eigenvalues of (default mixing * dielectric matrix)
  average eigenvalue GAMMA=   0.1784
  0.1784  0.1784

 Free energy of the ion-electron system (eV)
  ---------------------------------------------------
  alpha Z        PSCENC =      3266.22189490
  Ewald energy   TEWEN  =    360028.12229253
  -Hartree energ DENC   =   -523089.98565293
  -exchange      EXHF   =         0.00000000
  -V(xc)+E(xc)   XCENC  =      4815.85633198
  PAW double counting   =    157789.20396632  -164106.52314247
  entropy T*S    EENTRO =        -0.81442681
  eigenvalues    EBANDS =    -20691.19599338
  atomic energy  EATOM  =    181336.80673834
  Solvation  Ediel_sol  =         0.00000000
  ---------------------------------------------------
  free energy    TOTEN  =      -652.30799150 eV

  energy without entropy =     -651.49356469  energy(sigma->0) =     -651.90077810


--------------------------------------------------------------------------------------------------------




--------------------------------------- Iteration      1(   8)  ---------------------------------------


    POTLOK:  cpu time    0.2715: real time    0.2718
    SETDIJ:  cpu time    0.0229: real time    0.0229
     EDDAV:  cpu time   12.0281: real time   12.0304
       DOS:  cpu time    0.0014: real time    0.0014
    CHARGE:  cpu time    0.2781: real time    0.2781
    MIXING:  cpu time    0.0099: real time    0.0099
    --------------------------------------------
      LOOP:  cpu time   12.6120: real time   12.6146

 eigenvalue-minimisations  :  1734
 total energy-change (2. order) : 0.3610680E+02  (-0.1939941E+02)
 number of electron    1056.0000389 magnetization 
 augmentation part      438.6205345 magnetization 

 Broyden mixing:
  rms(total) = 0.13229E+02    rms(broyden)= 0.13225E+02
  rms(prec ) = 0.16818E+02
  weight for this iteration     100.00

 eigenvalues of (default mixing * dielectric matrix)
  average eigenvalue GAMMA=   0.2321
  0.3013  0.3013  0.0938

 Free energy of the ion-electron system (eV)
  ---------------------------------------------------
  alpha Z        PSCENC =      3266.22189490
  Ewald energy   TEWEN  =    360028.12229253
  -Hartree energ DENC   =   -523839.03170401
  -exchange      EXHF   =         0.00000000
  -V(xc)+E(xc)   XCENC  =      4835.45833029
  PAW double counting   =    161385.82914014  -167808.91859156
  entropy T*S    EENTRO =        -1.33844145
  eigenvalues    EBANDS =    -19819.35084795
  atomic energy  EATOM  =    181336.80673834
  Solvation  Ediel_sol  =         0.00000000
  ---------------------------------------------------
  free energy    TOTEN  =      -616.20118875 eV

  energy without entropy =     -614.86274730  energy(sigma->0) =     -615.53196802


--------------------------------------------------------------------------------------------------------




--------------------------------------- Iteration      1(   9)  ---------------------------------------


    POTLOK:  cpu time    0.2747: real time    0.2748
    SETDIJ:  cpu time    0.0230: real time    0.0230
     EDDAV:  cpu time   11.9834: real time   11.9851
       DOS:  cpu time    0.0014: real time    0.0014
    CHARGE:  cpu time    0.2790: real time    0.2790
    MIXING:  cpu time    0.0097: real time    0.0097
    --------------------------------------------
      LOOP:  cpu time   12.5711: real time   12.5730

 eigenvalue-minimisations  :  1736
 total energy-change (2. order) : 0.6576928E+02  (-0.1863675E+02)
 number of electron    1056.0000377 magnetization 
 augmentation part      426.3629416 magnetization 

 Broyden mixing:
  rms(total) = 0.12868E+02    rms(broyden)= 0.12861E+02
  rms(prec ) = 0.14293E+02
  weight for this iteration     100.00

 eigenvalues of (default mixing * dielectric matrix)
  average eigenvalue GAMMA=   0.3328
  0.5505  0.5505  0.1458  0.0844

 Free energy of the ion-electron system (eV)
  ---------------------------------------------------
  alpha Z        PSCENC =      3266.22189490
  Ewald energy   TEWEN  =    360028.12229253
  -Hartree energ DENC   =   -523814.81757146
  -exchange      EXHF   =         0.00000000
  -V(xc)+E(xc)   XCENC  =      4850.29953764
  PAW double counting   =    164829.62996238  -171334.98997499
  entropy T*S    EENTRO =        -1.14774760
  eigenvalues    EBANDS =    -19710.55704363
  atomic energy  EATOM  =    181336.80673834
  Solvation  Ediel_sol  =         0.00000000
  ---------------------------------------------------
  free energy    TOTEN  =      -550.43191188 eV

  energy without entropy =     -549.28416428  energy(sigma->0) =     -549.85803808


--------------------------------------------------------------------------------------------------------




--------------------------------------- Iteration      1(  10)  ---------------------------------------


    POTLOK:  cpu time    0.2707: real time    0.2707
    SETDIJ:  cpu time    0.0238: real time    0.0238
     EDDAV:  cpu time   12.6703: real time   12.6723
       DOS:  cpu time    0.0014: real time    0.0014
    CHARGE:  cpu time    0.2846: real time    0.2847
    MIXING:  cpu time    0.0105: real time    0.0105
    --------------------------------------------
      LOOP:  cpu time   13.2612: real time   13.2634

 eigenvalue-minimisations  :  1816
 total energy-change (2. order) :-0.4079872E+02  (-0.3773550E+02)
 number of electron    1056.0000368 magnetization 
 augmentation part      412.3376931 magnetization 

 Broyden mixing:
  rms(total) = 0.13720E+02    rms(broyden)= 0.13717E+02
  rms(prec ) = 0.14711E+02
  weight for this iteration     100.00

 eigenvalues of (default mixing * dielectric matrix)
  average eigenvalue GAMMA=   0.3365
  0.6395  0.6395  0.0910  0.1564  0.1564

 Free energy of the ion-electron system (eV)
  ---------------------------------------------------
  alpha Z        PSCENC =      3266.22189490
  Ewald energy   TEWEN  =    360028.12229253
  -Hartree energ DENC   =   -524701.84697655
  -exchange      EXHF   =         0.00000000
  -V(xc)+E(xc)   XCENC  =      4864.21749776
  PAW double counting   =    171625.70472687  -178231.70034142
  entropy T*S    EENTRO =        -0.95239652
  eigenvalues    EBANDS =    -18777.80406958
  atomic energy  EATOM  =    181336.80673834
  Solvation  Ediel_sol  =         0.00000000
  ---------------------------------------------------
  free energy    TOTEN  =      -591.23063367 eV

  energy without entropy =     -590.27823715  energy(sigma->0) =     -590.75443541


--------------------------------------------------------------------------------------------------------




--------------------------------------- Iteration      1(  11)  ---------------------------------------


    POTLOK:  cpu time    0.2723: real time    0.2724
    SETDIJ:  cpu time    0.0229: real time    0.0229
     EDDAV:  cpu time   11.9556: real time   11.9583
       DOS:  cpu time    0.0014: real time    0.0014
    CHARGE:  cpu time    0.2790: real time    0.2790
    MIXING:  cpu time    0.0106: real time    0.0106
    --------------------------------------------
      LOOP:  cpu time   12.5418: real time   12.5447

 eigenvalue-minimisations  :  1744
 total energy-change (2. order) : 0.6079755E+02  (-0.1241830E+02)
 number of electron    1056.0000309 magnetization 
 augmentation part      410.8666456 magnetization 

 Broyden mixing:
  rms(total) = 0.83910E+01    rms(broyden)= 0.83871E+01
  rms(prec ) = 0.11374E+02
  weight for this iteration     100.00

 eigenvalues of (default mixing * dielectric matrix)
  average eigenvalue GAMMA=   0.4345
  1.4282  0.3903  0.3903  0.0864  0.1558  0.1558

 Free energy of the ion-electron system (eV)
  ---------------------------------------------------
  alpha Z        PSCENC =      3266.22189490
  Ewald energy   TEWEN  =    360028.12229253
  -Hartree energ DENC   =   -524655.41994458
  -exchange      EXHF   =         0.00000000
  -V(xc)+E(xc)   XCENC  =      4865.70339445
  PAW double counting   =    175491.26645908  -182132.05136058
  entropy T*S    EENTRO =        -1.74312590
  eigenvalues    EBANDS =    -18729.33943293
  atomic energy  EATOM  =    181336.80673834
  Solvation  Ediel_sol  =         0.00000000
  ---------------------------------------------------
  free energy    TOTEN  =      -530.43308468 eV

  energy without entropy =     -528.68995878  energy(sigma->0) =     -529.56152173


--------------------------------------------------------------------------------------------------------




--------------------------------------- Iteration      1(  12)  ---------------------------------------


    POTLOK:  cpu time    0.2702: real time    0.2705
    SETDIJ:  cpu time    0.0228: real time    0.0228
     EDDAV:  cpu time   12.4773: real time   12.4793
       DOS:  cpu time    0.0015: real time    0.0015
    CHARGE:  cpu time    0.2801: real time    0.2802
    MIXING:  cpu time    0.0106: real time    0.0106
    --------------------------------------------
      LOOP:  cpu time   13.0626: real time   13.0649

 eigenvalue-minimisations  :  1848
 total energy-change (2. order) :-0.4382993E+02  (-0.2299305E+02)
 number of electron    1056.0000174 magnetization 
 augmentation part      403.7356911 magnetization 

 Broyden mixing:
  rms(total) = 0.13256E+02    rms(broyden)= 0.13251E+02
  rms(prec ) = 0.15694E+02
  weight for this iteration     100.00

 eigenvalues of (default mixing * dielectric matrix)
  average eigenvalue GAMMA=   0.4378
  1.7307  0.4171  0.4171  0.1548  0.1548  0.0861  0.1040

 Free energy of the ion-electron system (eV)
  ---------------------------------------------------
  alpha Z        PSCENC =      3266.22189490
  Ewald energy   TEWEN  =    360028.12229253
  -Hartree energ DENC   =   -525225.66798763
  -exchange      EXHF   =         0.00000000
  -V(xc)+E(xc)   XCENC  =      4863.28050899
  PAW double counting   =    180811.65808988  -187482.45531507
  entropy T*S    EENTRO =        -2.03666445
  eigenvalues    EBANDS =    -18170.19256890
  atomic energy  EATOM  =    181336.80673834
  Solvation  Ediel_sol  =         0.00000000
  ---------------------------------------------------
  free energy    TOTEN  =      -574.26301140 eV

  energy without entropy =     -572.22634695  energy(sigma->0) =     -573.24467917


--------------------------------------------------------------------------------------------------------




--------------------------------------- Iteration      1(  13)  ---------------------------------------


    POTLOK:  cpu time    0.3176: real time    0.3176
    SETDIJ:  cpu time    0.0476: real time    0.0476
     EDDAV:  cpu time   12.1690: real time   12.1739
       DOS:  cpu time    0.0018: real time    0.0018
    CHARGE:  cpu time    0.2875: real time    0.2875
    MIXING:  cpu time    0.0111: real time    0.0111
    --------------------------------------------
      LOOP:  cpu time   12.8345: real time   12.8395

 eigenvalue-minimisations  :  1752
 total energy-change (2. order) : 0.5520039E+02  (-0.1010661E+02)
 number of electron    1056.0000352 magnetization 
 augmentation part      412.6780205 magnetization 

 Broyden mixing:
  rms(total) = 0.93314E+01    rms(broyden)= 0.93270E+01
  rms(prec ) = 0.10232E+02
  weight for this iteration     100.00

 eigenvalues of (default mixing * dielectric matrix)
  average eigenvalue GAMMA=   0.4591
  2.1013  0.4411  0.4411  0.1688  0.1688  0.1533  0.0871  0.1114

 Free energy of the ion-electron system (eV)
  ---------------------------------------------------
  alpha Z        PSCENC =      3266.22189490
  Ewald energy   TEWEN  =    360028.12229253
  -Hartree energ DENC   =   -524793.32578273
  -exchange      EXHF   =         0.00000000
  -V(xc)+E(xc)   XCENC  =      4861.25588794
  PAW double counting   =    183535.43515543  -190223.71450754
  entropy T*S    EENTRO =        -1.44805226
  eigenvalues    EBANDS =    -18528.41624402
  atomic energy  EATOM  =    181336.80673834
  Solvation  Ediel_sol  =         0.00000000
  ---------------------------------------------------
  free energy    TOTEN  =      -519.06261740 eV

  energy without entropy =     -517.61456514  energy(sigma->0) =     -518.33859127


--------------------------------------------------------------------------------------------------------




--------------------------------------- Iteration      1(  14)  ---------------------------------------


    POTLOK:  cpu time    0.2728: real time    0.2728
    SETDIJ:  cpu time    0.0228: real time    0.0228
     EDDAV:  cpu time   12.3000: real time   12.3029
       DOS:  cpu time    0.0014: real time    0.0014
    CHARGE:  cpu time    0.2869: real time    0.2870
    MIXING:  cpu time    0.0115: real time    0.0115
    --------------------------------------------
      LOOP:  cpu time   12.8954: real time   12.8985

 eigenvalue-minimisations  :  1800
 total energy-change (2. order) : 0.1445805E+02  (-0.8863508E+01)
 number of electron    1056.0000344 magnetization 
 augmentation part      417.1060317 magnetization 

 Broyden mixing:
  rms(total) = 0.73792E+01    rms(broyden)= 0.73754E+01
  rms(prec ) = 0.86193E+01
  weight for this iteration     100.00

 eigenvalues of (default mixing * dielectric matrix)
  average eigenvalue GAMMA=   0.4244
  2.0671  0.4343  0.4343  0.1886  0.1886  0.1854  0.1331  0.0861  0.1020

 Free energy of the ion-electron system (eV)
  ---------------------------------------------------
  alpha Z        PSCENC =      3266.22189490
  Ewald energy   TEWEN  =    360028.12229253
  -Hartree energ DENC   =   -524637.62601122
  -exchange      EXHF   =         0.00000000
  -V(xc)+E(xc)   XCENC  =      4859.50119951
  PAW double counting   =    186271.52711693  -192971.49834734
  entropy T*S    EENTRO =        -1.43566914
  eigenvalues    EBANDS =    -18656.22377845
  atomic energy  EATOM  =    181336.80673834
  Solvation  Ediel_sol  =         0.00000000
  ---------------------------------------------------
  free energy    TOTEN  =      -504.60456394 eV

  energy without entropy =     -503.16889480  energy(sigma->0) =     -503.88672937


--------------------------------------------------------------------------------------------------------




--------------------------------------- Iteration      1(  15)  ---------------------------------------


    POTLOK:  cpu time    0.2728: real time    0.2728
    SETDIJ:  cpu time    0.0228: real time    0.0228
     EDDAV:  cpu time   11.9176: real time   11.9198
       DOS:  cpu time    0.0014: real time    0.0014
    CHARGE:  cpu time    0.2833: real time    0.2833
    MIXING:  cpu time    0.0120: real time    0.0120
    --------------------------------------------
      LOOP:  cpu time   12.5098: real time   12.5121

 eigenvalue-minimisations  :  1728
 total energy-change (2. order) : 0.1419793E+02  (-0.6247754E+01)
 number of electron    1056.0000367 magnetization 
 augmentation part      419.2057045 magnetization 

 Broyden mixing:
  rms(total) = 0.40405E+01    rms(broyden)= 0.40369E+01
  rms(prec ) = 0.44410E+01
  weight for this iteration     100.00

 eigenvalues of (default mixing * dielectric matrix)
  average eigenvalue GAMMA=   0.3931
  1.8947  0.4285  0.4285  0.2635  0.2635  0.1620  0.1620  0.0866  0.1210  0.1210

 Free energy of the ion-electron system (eV)
  ---------------------------------------------------
  alpha Z        PSCENC =      3266.22189490
  Ewald energy   TEWEN  =    360028.12229253
  -Hartree energ DENC   =   -524619.83238654
  -exchange      EXHF   =         0.00000000
  -V(xc)+E(xc)   XCENC  =      4860.20702573
  PAW double counting   =    186017.50403336  -192715.62162179
  entropy T*S    EENTRO =        -1.13845487
  eigenvalues    EBANDS =    -18662.67616011
  atomic energy  EATOM  =    181336.80673834
  Solvation  Ediel_sol  =         0.00000000
  ---------------------------------------------------
  free energy    TOTEN  =      -490.40663843 eV

  energy without entropy =     -489.26818356  energy(sigma->0) =     -489.83741100


--------------------------------------------------------------------------------------------------------




--------------------------------------- Iteration      1(  16)  ---------------------------------------


    POTLOK:  cpu time    0.3624: real time    0.3624
    SETDIJ:  cpu time    0.0484: real time    0.0484
     EDDAV:  cpu time   11.4098: real time   11.4124
       DOS:  cpu time    0.0015: real time    0.0014
    CHARGE:  cpu time    0.2896: real time    0.2897
    MIXING:  cpu time    0.0131: real time    0.0131
    --------------------------------------------
      LOOP:  cpu time   12.1248: real time   12.1275

 eigenvalue-minimisations  :  1640
 total energy-change (2. order) : 0.7056105E+01  (-0.2358024E+01)
 number of electron    1056.0000358 magnetization 
 augmentation part      417.5622504 magnetization 

 Broyden mixing:
  rms(total) = 0.28516E+01    rms(broyden)= 0.28490E+01
  rms(prec ) = 0.31273E+01
  weight for this iteration     100.00

 eigenvalues of (default mixing * dielectric matrix)
  average eigenvalue GAMMA=   0.3837
  1.7546  0.4584  0.4584  0.3648  0.3648  0.1706  0.1706  0.0865  0.1408  0.1408
  0.1101

 Free energy of the ion-electron system (eV)
  ---------------------------------------------------
  alpha Z        PSCENC =      3266.22189490
  Ewald energy   TEWEN  =    360028.12229253
  -Hartree energ DENC   =   -524701.31831484
  -exchange      EXHF   =         0.00000000
  -V(xc)+E(xc)   XCENC  =      4862.39558878
  PAW double counting   =    184782.45630110  -191475.37254483
  entropy T*S    EENTRO =        -0.85182507
  eigenvalues    EBANDS =    -18581.81066400
  atomic energy  EATOM  =    181336.80673834
  Solvation  Ediel_sol  =         0.00000000
  ---------------------------------------------------
  free energy    TOTEN  =      -483.35053309 eV

  energy without entropy =     -482.49870801  energy(sigma->0) =     -482.92462055


--------------------------------------------------------------------------------------------------------




--------------------------------------- Iteration      1(  17)  ---------------------------------------


    POTLOK:  cpu time    0.2804: real time    0.2805
    SETDIJ:  cpu time    0.0250: real time    0.0250
     EDDAV:  cpu time   11.7738: real time   11.7762
       DOS:  cpu time    0.0015: real time    0.0015
    CHARGE:  cpu time    0.2930: real time    0.2930
    MIXING:  cpu time    0.0136: real time    0.0136
    --------------------------------------------
      LOOP:  cpu time   12.3872: real time   12.3897

 eigenvalue-minimisations  :  1712
 total energy-change (2. order) : 0.1470720E+01  (-0.9041288E+00)
 number of electron    1056.0000372 magnetization 
 augmentation part      416.0206020 magnetization 

 Broyden mixing:
  rms(total) = 0.24509E+01    rms(broyden)= 0.24497E+01
  rms(prec ) = 0.26225E+01
  weight for this iteration     100.00

 eigenvalues of (default mixing * dielectric matrix)
  average eigenvalue GAMMA=   0.3884
  1.7463  0.5522  0.5522  0.3860  0.3860  0.1881  0.1881  0.1667  0.1667  0.0865
  0.1268  0.1150

 Free energy of the ion-electron system (eV)
  ---------------------------------------------------
  alpha Z        PSCENC =      3266.22189490
  Ewald energy   TEWEN  =    360028.12229253
  -Hartree energ DENC   =   -524721.16537213
  -exchange      EXHF   =         0.00000000
  -V(xc)+E(xc)   XCENC  =      4863.74756459
  PAW double counting   =    183841.78839447  -190529.20486166
  entropy T*S    EENTRO =        -0.88487080
  eigenvalues    EBANDS =    -18567.31159347
  atomic energy  EATOM  =    181336.80673834
  Solvation  Ediel_sol  =         0.00000000
  ---------------------------------------------------
  free energy    TOTEN  =      -481.87981323 eV

  energy without entropy =     -480.99494242  energy(sigma->0) =     -481.43737782


--------------------------------------------------------------------------------------------------------




--------------------------------------- Iteration      1(  18)  ---------------------------------------


    POTLOK:  cpu time    0.2750: real time    0.2750
    SETDIJ:  cpu time    0.0229: real time    0.0229
     EDDAV:  cpu time   11.6319: real time   11.6339
       DOS:  cpu time    0.0015: real time    0.0015
    CHARGE:  cpu time    0.2919: real time    0.2919
    MIXING:  cpu time    0.0136: real time    0.0136
    --------------------------------------------
      LOOP:  cpu time   12.2369: real time   12.2389

 eigenvalue-minimisations  :  1688
 total energy-change (2. order) : 0.4458080E+00  (-0.4033981E+00)
 number of electron    1056.0000356 magnetization 
 augmentation part      415.5703565 magnetization 

 Broyden mixing:
  rms(total) = 0.23208E+01    rms(broyden)= 0.23197E+01
  rms(prec ) = 0.25142E+01
  weight for this iteration     100.00

 eigenvalues of (default mixing * dielectric matrix)
  average eigenvalue GAMMA=   0.4180
  1.7242  0.8248  0.8248  0.3940  0.3940  0.2639  0.1739  0.1739  0.1793  0.0865
  0.1550  0.1268  0.1134

 Free energy of the ion-electron system (eV)
  ---------------------------------------------------
  alpha Z        PSCENC =      3266.22189490
  Ewald energy   TEWEN  =    360028.12229253
  -Hartree energ DENC   =   -524727.95918769
  -exchange      EXHF   =         0.00000000
  -V(xc)+E(xc)   XCENC  =      4863.94864274
  PAW double counting   =    183438.72556828  -190121.69062610
  entropy T*S    EENTRO =        -1.03134836
  eigenvalues    EBANDS =    -18564.57797985
  atomic energy  EATOM  =    181336.80673834
  Solvation  Ediel_sol  =         0.00000000
  ---------------------------------------------------
  free energy    TOTEN  =      -481.43400521 eV

  energy without entropy =     -480.40265685  energy(sigma->0) =     -480.91833103


--------------------------------------------------------------------------------------------------------




--------------------------------------- Iteration      1(  19)  ---------------------------------------


    POTLOK:  cpu time    0.2759: real time    0.2759
    SETDIJ:  cpu time    0.0229: real time    0.0229
     EDDAV:  cpu time   11.9932: real time   11.9950
       DOS:  cpu time    0.0015: real time    0.0014
    CHARGE:  cpu time    0.5387: real time    0.5387
    MIXING:  cpu time    0.0154: real time    0.0154
    --------------------------------------------
      LOOP:  cpu time   12.8475: real time   12.8494

 eigenvalue-minimisations  :  1752
 total energy-change (2. order) : 0.1323223E+01  (-0.3027385E+00)
 number of electron    1056.0000380 magnetization 
 augmentation part      415.3841518 magnetization 

 Broyden mixing:
  rms(total) = 0.18029E+01    rms(broyden)= 0.18018E+01
  rms(prec ) = 0.18842E+01
  weight for this iteration     100.00

 eigenvalues of (default mixing * dielectric matrix)
  average eigenvalue GAMMA=   0.4571
  1.8024  1.0882  1.0882  0.4076  0.4076  0.3138  0.3138  0.1747  0.1747  0.0865
  0.1130  0.1296  0.1498  0.1498

 Free energy of the ion-electron system (eV)
  ---------------------------------------------------
  alpha Z        PSCENC =      3266.22189490
  Ewald energy   TEWEN  =    360028.12229253
  -Hartree energ DENC   =   -524712.30264714
  -exchange      EXHF   =         0.00000000
  -V(xc)+E(xc)   XCENC  =      4864.09941726
  PAW double counting   =    182508.92153335  -189181.30109059
  entropy T*S    EENTRO =        -1.16489241
  eigenvalues    EBANDS =    -18589.51402859
  atomic energy  EATOM  =    181336.80673834
  Solvation  Ediel_sol  =         0.00000000
  ---------------------------------------------------
  free energy    TOTEN  =      -480.11078233 eV

  energy without entropy =     -478.94588992  energy(sigma->0) =     -479.52833613


--------------------------------------------------------------------------------------------------------




--------------------------------------- Iteration      1(  20)  ---------------------------------------


    POTLOK:  cpu time    0.2772: real time    0.2773
    SETDIJ:  cpu time    0.0229: real time    0.0229
     EDDAV:  cpu time   11.9577: real time   11.9596
       DOS:  cpu time    0.0015: real time    0.0015
    CHARGE:  cpu time    0.2868: real time    0.2869
    MIXING:  cpu time    0.0147: real time    0.0147
    --------------------------------------------
      LOOP:  cpu time   12.5607: real time   12.5628

 eigenvalue-minimisations  :  1728
 total energy-change (2. order) : 0.9358756E-01  (-0.3317350E+00)
 number of electron    1056.0000353 magnetization 
 augmentation part      415.5558296 magnetization 

 Broyden mixing:
  rms(total) = 0.15766E+01    rms(broyden)= 0.15752E+01
  rms(prec ) = 0.16918E+01
  weight for this iteration     100.00

 eigenvalues of (default mixing * dielectric matrix)
  average eigenvalue GAMMA=   0.4713
  1.8341  1.2696  1.2696  0.4094  0.4094  0.3628  0.3628  0.1763  0.1763  0.0865
  0.1635  0.1635  0.1130  0.1286  0.1434

 Free energy of the ion-electron system (eV)
  ---------------------------------------------------
  alpha Z        PSCENC =      3266.22189490
  Ewald energy   TEWEN  =    360028.12229253
  -Hartree energ DENC   =   -524700.11984869
  -exchange      EXHF   =         0.00000000
  -V(xc)+E(xc)   XCENC  =      4863.59511542
  PAW double counting   =    181830.03485606  -188491.02710188
  entropy T*S    EENTRO =        -1.29720521
  eigenvalues    EBANDS =    -18612.35393625
  atomic energy  EATOM  =    181336.80673834
  Solvation  Ediel_sol  =         0.00000000
  ---------------------------------------------------
  free energy    TOTEN  =      -480.01719477 eV

  energy without entropy =     -478.71998957  energy(sigma->0) =     -479.36859217


--------------------------------------------------------------------------------------------------------




--------------------------------------- Iteration      1(  21)  ---------------------------------------


    POTLOK:  cpu time    0.2792: real time    0.2792
    SETDIJ:  cpu time    0.0229: real time    0.0229
     EDDAV:  cpu time   11.7535: real time   11.7553
       DOS:  cpu time    0.0015: real time    0.0014
    CHARGE:  cpu time    0.2867: real time    0.2868
    MIXING:  cpu time    0.0154: real time    0.0154
    --------------------------------------------
      LOOP:  cpu time   12.3592: real time   12.3611

 eigenvalue-minimisations  :  1712
 total energy-change (2. order) : 0.7038855E+00  (-0.1776974E+00)
 number of electron    1056.0000379 magnetization 
 augmentation part      415.7382698 magnetization 

 Broyden mixing:
  rms(total) = 0.10318E+01    rms(broyden)= 0.10308E+01
  rms(prec ) = 0.11454E+01
  weight for this iteration     100.00

 eigenvalues of (default mixing * dielectric matrix)
  average eigenvalue GAMMA=   0.4809
  1.7935  1.3946  1.3946  0.4436  0.4436  0.3974  0.3974  0.2660  0.1752  0.1752
  0.0865  0.1908  0.1130  0.1287  0.1473  0.1473

 Free energy of the ion-electron system (eV)
  ---------------------------------------------------
  alpha Z        PSCENC =      3266.22189490
  Ewald energy   TEWEN  =    360028.12229253
  -Hartree energ DENC   =   -524707.74991680
  -exchange      EXHF   =         0.00000000
  -V(xc)+E(xc)   XCENC  =      4863.26099071
  PAW double counting   =    181108.84772329  -187758.40138532
  entropy T*S    EENTRO =        -1.35370337
  eigenvalues    EBANDS =    -18615.06794355
  atomic energy  EATOM  =    181336.80673834
  Solvation  Ediel_sol  =         0.00000000
  ---------------------------------------------------
  free energy    TOTEN  =      -479.31330926 eV

  energy without entropy =     -477.95960589  energy(sigma->0) =     -478.63645757


--------------------------------------------------------------------------------------------------------




--------------------------------------- Iteration      1(  22)  ---------------------------------------


    POTLOK:  cpu time    0.2803: real time    0.2803
    SETDIJ:  cpu time    0.0232: real time    0.0232
     EDDAV:  cpu time   11.1823: real time   11.1842
       DOS:  cpu time    0.0015: real time    0.0015
    CHARGE:  cpu time    0.2863: real time    0.2863
    MIXING:  cpu time    0.0158: real time    0.0158
    --------------------------------------------
      LOOP:  cpu time   11.7894: real time   11.7913

 eigenvalue-minimisations  :  1608
 total energy-change (2. order) : 0.4824445E-01  (-0.1619260E+00)
 number of electron    1056.0000369 magnetization 
 augmentation part      415.7262656 magnetization 

 Broyden mixing:
  rms(total) = 0.84579E+00    rms(broyden)= 0.84498E+00
  rms(prec ) = 0.88921E+00
  weight for this iteration     100.00

 eigenvalues of (default mixing * dielectric matrix)
  average eigenvalue GAMMA=   0.4996
  1.7601  1.4846  1.4846  0.6396  0.6396  0.3959  0.3959  0.3124  0.2426  0.1756
  0.1756  0.0865  0.1596  0.1596  0.1130  0.1387  0.1298

 Free energy of the ion-electron system (eV)
  ---------------------------------------------------
  alpha Z        PSCENC =      3266.22189490
  Ewald energy   TEWEN  =    360028.12229253
  -Hartree energ DENC   =   -524730.38190881
  -exchange      EXHF   =         0.00000000
  -V(xc)+E(xc)   XCENC  =      4863.03057551
  PAW double counting   =    180520.38667867  -187160.92205968
  entropy T*S    EENTRO =        -1.22668745
  eigenvalues    EBANDS =    -18601.30258883
  atomic energy  EATOM  =    181336.80673834
  Solvation  Ediel_sol  =         0.00000000
  ---------------------------------------------------
  free energy    TOTEN  =      -479.26506481 eV

  energy without entropy =     -478.03837736  energy(sigma->0) =     -478.65172108


--------------------------------------------------------------------------------------------------------




--------------------------------------- Iteration      1(  23)  ---------------------------------------


    POTLOK:  cpu time    0.2768: real time    0.2768
    SETDIJ:  cpu time    0.0228: real time    0.0229
     EDDAV:  cpu time   11.6409: real time   11.6426
       DOS:  cpu time    0.0017: real time    0.0017
    CHARGE:  cpu time    0.4404: real time    0.4404
    MIXING:  cpu time    0.0165: real time    0.0166
    --------------------------------------------
      LOOP:  cpu time   12.3992: real time   12.4009

 eigenvalue-minimisations  :  1688
 total energy-change (2. order) : 0.5598373E-01  (-0.9716440E-01)
 number of electron    1056.0000381 magnetization 
 augmentation part      416.0647980 magnetization 

 Broyden mixing:
  rms(total) = 0.76661E+00    rms(broyden)= 0.76570E+00
  rms(prec ) = 0.80143E+00
  weight for this iteration     100.00

 eigenvalues of (default mixing * dielectric matrix)
  average eigenvalue GAMMA=   0.4970
  1.7770  1.4824  1.4824  0.7443  0.7443  0.3979  0.3979  0.2975  0.2975  0.1760
  0.1760  0.0865  0.1913  0.1587  0.1587  0.1129  0.1323  0.1328

 Free energy of the ion-electron system (eV)
  ---------------------------------------------------
  alpha Z        PSCENC =      3266.22189490
  Ewald energy   TEWEN  =    360028.12229253
  -Hartree energ DENC   =   -524709.08278441
  -exchange      EXHF   =         0.00000000
  -V(xc)+E(xc)   XCENC  =      4862.68401828
  PAW double counting   =    179953.29715275  -186584.45630436
  entropy T*S    EENTRO =        -1.31069067
  eigenvalues    EBANDS =    -18631.49139844
  atomic energy  EATOM  =    181336.80673834
  Solvation  Ediel_sol  =         0.00000000
  ---------------------------------------------------
  free energy    TOTEN  =      -479.20908108 eV

  energy without entropy =     -477.89839041  energy(sigma->0) =     -478.55373574


[...]
   -.422E+02 -.523E+03 0.197E+04   0.414E+02 0.524E+03 -.197E+04   0.873E+00 -.121E+01 0.114E+00   0.167E-01 -.327E-01 0.821E+00
   -.283E+02 -.673E+03 -.590E+04   0.282E+02 0.678E+03 0.589E+04   0.226E+00 -.415E+01 -.333E+00   0.938E-02 -.215E+00 -.928E+00
   -.220E+02 -.395E+03 0.523E+04   0.201E+02 0.394E+03 -.523E+04   0.205E+01 0.988E+00 -.212E+01   0.163E-01 -.424E-01 0.123E+01
   -.413E+02 0.258E+03 -.337E+04   0.405E+02 -.258E+03 0.337E+04   0.983E+00 0.456E+00 -.759E+00   0.707E-02 -.805E-01 -.145E+01
   -.414E+02 0.310E+03 0.370E+03   0.405E+02 -.310E+03 -.370E+03   0.986E+00 0.695E+00 -.707E+00   0.279E-01 -.140E-01 0.172E+00
   -.126E+02 0.456E+03 -.732E+04   0.128E+02 -.457E+03 0.732E+04   -.140E+00 0.100E+01 0.574E+00   -.594E-03 -.418E-02 -.473E+00
   0.238E+03 -.113E+04 0.699E+04   -.239E+03 0.113E+04 -.699E+04   -.149E+01 -.311E+01 0.543E+01   0.123E+00 -.163E+00 0.683E+00
   -.412E+02 0.265E+03 -.469E+03   0.404E+02 -.265E+03 0.469E+03   0.950E+00 0.454E+00 0.113E+01   0.233E-02 0.532E-01 -.982E+00
   0.879E+01 0.555E+03 0.309E+04   -.933E+01 -.558E+03 -.309E+04   0.101E+00 0.239E+01 0.550E+00   0.113E+00 0.324E-01 0.148E+01
   -.371E+02 0.275E+03 -.418E+04   0.360E+02 -.276E+03 0.418E+04   0.118E+01 0.827E+00 0.215E+01   0.970E-02 0.341E-01 -.126E+01
   -.478E+01 0.614E+03 0.568E+04   0.245E+01 -.614E+03 -.569E+04   0.196E+01 -.446E+00 0.378E+01   0.780E-01 0.238E+00 0.100E+01
   -.411E+02 -.507E+03 -.193E+04   0.404E+02 0.508E+03 0.193E+04   0.894E+00 -.124E+01 0.860E-01   0.611E-02 -.730E-01 -.146E+01
   -.380E+02 -.565E+03 0.175E+04   0.377E+02 0.566E+03 -.175E+04   0.570E+00 -.128E+01 -.507E+00   -.433E-01 -.656E-01 0.783E+00
   -.283E+02 -.672E+03 -.590E+04   0.282E+02 0.676E+03 0.590E+04   0.219E+00 -.414E+01 -.327E+00   0.155E-02 0.309E+00 -.899E+00
   -.510E+02 -.399E+03 0.524E+04   0.495E+02 0.398E+03 -.524E+04   0.142E+01 0.555E+00 -.196E+01   -.560E-01 -.113E+00 0.121E+01
   -.413E+02 0.258E+03 -.337E+04   0.405E+02 -.258E+03 0.337E+04   0.985E+00 0.456E+00 -.765E+00   0.177E-01 -.742E-01 -.145E+01
   -.407E+02 0.310E+03 0.370E+03   0.398E+02 -.310E+03 -.369E+03   0.972E+00 0.720E+00 -.745E+00   -.154E-03 -.191E-02 0.169E+00
   -.127E+02 0.456E+03 -.732E+04   0.128E+02 -.457E+03 0.732E+04   -.142E+00 0.100E+01 0.575E+00   0.633E-02 -.186E-02 -.464E+00
   -.271E+03 -.105E+04 0.703E+04   0.270E+03 0.105E+04 -.703E+04   0.198E+01 -.549E+00 0.711E+01   -.119E+00 -.114E+00 0.694E+00
   -.413E+02 0.265E+03 -.469E+03   0.404E+02 -.265E+03 0.469E+03   0.962E+00 0.453E+00 0.113E+01   0.888E-02 0.610E-01 -.968E+00
   0.207E+02 0.556E+03 0.309E+04   -.209E+02 -.559E+03 -.309E+04   0.284E-01 0.227E+01 0.556E+00   -.172E+00 0.387E-01 0.154E+01
   -.371E+02 0.275E+03 -.418E+04   0.360E+02 -.276E+03 0.418E+04   0.118E+01 0.830E+00 0.216E+01   0.131E-01 0.385E-01 -.127E+01
   -.279E+02 0.623E+03 0.566E+04   0.269E+02 -.624E+03 -.566E+04   0.460E+00 0.151E+01 0.130E+01   -.423E-01 0.205E+00 0.103E+01
   -.411E+02 -.507E+03 -.193E+04   0.404E+02 0.508E+03 0.193E+04   0.893E+00 -.124E+01 0.889E-01   0.119E-01 -.777E-01 -.145E+01
   -.407E+02 -.565E+03 0.176E+04   0.403E+02 0.566E+03 -.176E+04   0.529E+00 -.127E+01 -.540E+00   0.362E-01 -.108E+00 0.805E+00
   -.283E+02 -.672E+03 -.590E+04   0.282E+02 0.676E+03 0.590E+04   0.220E+00 -.414E+01 -.325E+00   0.147E-01 0.311E+00 -.897E+00
   0.109E+02 -.601E+02 0.275E+04   -.105E+02 0.627E+02 -.276E+04   -.657E+00 -.206E+01 0.428E+01   -.393E-01 -.110E+00 0.277E+00
   0.398E+02 -.899E+02 -.103E+03   -.404E+02 0.910E+02 0.101E+03   0.511E+00 -.130E+01 0.259E+01   0.202E-02 -.464E-01 -.287E+00
   0.402E+02 -.148E+03 0.139E+04   -.410E+02 0.149E+03 -.140E+04   0.676E+00 -.161E+01 0.304E+01   0.987E-02 -.351E-01 0.491E+00
   0.391E+02 -.988E+02 -.152E+04   -.399E+02 0.100E+03 0.151E+04   0.768E+00 -.136E+01 0.219E+01   -.746E-02 -.126E+00 -.399E+00
   0.775E+02 -.995E+02 0.146E+04   -.781E+02 0.101E+03 -.146E+04   -.174E+00 -.184E+01 -.117E+01   -.268E-01 -.279E-01 0.415E+00
   0.399E+02 -.818E+02 -.134E+04   -.405E+02 0.828E+02 0.135E+04   0.456E+00 -.131E+01 -.250E+01   -.181E-02 0.563E-01 -.462E+00
   0.396E+02 -.870E+02 0.890E+02   -.404E+02 0.883E+02 -.868E+02   0.643E+00 -.150E+01 -.268E+01   0.191E-01 -.242E-01 0.198E-01
   0.102E+00 -.195E+03 -.281E+04   -.437E+00 0.198E+03 0.282E+04   0.368E+00 -.234E+01 -.437E+01   -.373E-01 0.130E-01 -.215E+00
   0.202E+02 -.476E+03 0.218E+04   -.207E+02 0.478E+03 -.218E+04   0.798E+00 -.156E+00 0.817E+00   0.461E-01 -.252E-01 0.377E+00
   0.395E+02 0.166E+03 -.719E+03   -.404E+02 -.168E+03 0.720E+03   0.726E+00 0.272E+01 0.494E-01   0.468E-02 0.130E-01 -.515E+00
   0.399E+02 0.136E+03 0.689E+03   -.408E+02 -.138E+03 -.690E+03   0.737E+00 0.245E+01 -.136E+00   0.126E-02 0.158E-01 0.312E+00
   0.364E+02 0.238E+03 -.219E+04   -.366E+02 -.241E+03 0.219E+04   0.931E-01 0.204E+01 -.116E+00   -.238E-01 0.367E-01 -.411E+00
   0.397E+02 -.899E+02 -.103E+03   -.404E+02 0.910E+02 0.101E+03   0.506E+00 -.130E+01 0.258E+01   0.172E-01 -.522E-01 -.278E+00
   0.387E+02 -.150E+03 0.139E+04   -.393E+02 0.151E+03 -.139E+04   0.475E+00 -.147E+01 0.279E+01   -.211E-01 -.492E-01 0.506E+00
   0.391E+02 -.988E+02 -.152E+04   -.399E+02 0.100E+03 0.151E+04   0.765E+00 -.136E+01 0.217E+01   0.146E-01 -.126E+00 -.397E+00
   0.406E+02 -.751E+02 0.146E+04   -.409E+02 0.770E+02 -.146E+04   -.406E+00 -.215E+01 -.100E+01   0.124E-01 -.601E-01 0.447E+00
   0.399E+02 -.818E+02 -.134E+04   -.405E+02 0.828E+02 0.135E+04   0.453E+00 -.132E+01 -.250E+01   0.156E-01 0.563E-01 -.460E+00
   -.141E+02 -.368E+03 0.273E+04   0.145E+02 0.368E+03 -.274E+04   -.209E+00 0.550E+00 0.198E+01   -.365E-01 0.949E-02 0.466E-01
   0.396E+02 -.871E+02 0.888E+02   -.404E+02 0.883E+02 -.866E+02   0.602E+00 -.141E+01 -.267E+01   -.553E-02 -.252E-01 0.216E-01
   0.256E-01 -.195E+03 -.281E+04   -.432E+00 0.198E+03 0.282E+04   0.366E+00 -.234E+01 -.437E+01   0.379E-01 0.146E-01 -.215E+00
   0.119E+02 -.480E+03 0.212E+04   -.112E+02 0.482E+03 -.212E+04   0.371E+00 -.376E+00 -.401E+00   -.544E-01 -.841E-01 0.377E+00
   0.395E+02 0.166E+03 -.719E+03   -.404E+02 -.168E+03 0.720E+03   0.724E+00 0.272E+01 0.419E-01   0.211E-02 0.164E-01 -.517E+00
   0.391E+02 0.136E+03 0.688E+03   -.399E+02 -.138E+03 -.689E+03   0.711E+00 0.247E+01 -.689E-01   -.185E-02 0.232E-01 0.317E+00
   0.363E+02 0.238E+03 -.219E+04   -.366E+02 -.241E+03 0.219E+04   0.943E-01 0.204E+01 -.115E+00   0.334E-01 0.389E-01 -.409E+00
   0.397E+02 -.760E+02 -.101E+03   -.404E+02 0.772E+02 0.993E+02   0.566E+00 -.138E+01 0.261E+01   0.882E-02 -.215E-01 -.322E+00
   0.201E+02 -.176E+03 0.121E+04   -.202E+02 0.179E+03 -.121E+04   -.145E+00 -.270E+01 0.982E+00   0.164E-02 0.662E-01 0.438E+00
   0.391E+02 -.985E+02 -.152E+04   -.399E+02 0.997E+02 0.152E+04   0.764E+00 -.135E+01 0.220E+01   -.582E-04 0.456E-01 -.435E+00
   0.857E+01 0.221E+03 0.205E+04   -.937E+01 -.221E+03 -.205E+04   0.217E+01 -.131E+01 0.283E+01   -.110E+00 0.133E-01 0.445E+00
   0.398E+02 -.795E+02 -.134E+04   -.405E+02 0.806E+02 0.135E+04   0.504E+00 -.131E+01 -.252E+01   0.578E-02 -.582E-02 -.547E+00
   -.651E+02 0.133E+03 0.279E+04   0.653E+02 -.133E+03 -.280E+04   0.265E+00 0.396E+00 0.269E+01   0.445E-01 -.151E+00 0.257E+00
   0.394E+02 -.831E+02 0.551E+02   -.404E+02 0.845E+02 -.532E+02   0.978E+00 -.166E+01 -.230E+01   -.319E-03 -.650E-01 0.254E-01
   0.665E-01 -.193E+03 -.281E+04   -.437E+00 0.197E+03 0.282E+04   0.370E+00 -.233E+01 -.436E+01   -.235E-03 0.147E+00 -.166E+00
   0.849E+02 0.441E+03 0.260E+04   -.872E+02 -.445E+03 -.260E+04   0.163E+01 0.523E+01 0.214E+01   0.111E+00 0.556E-01 0.259E+00
   0.395E+02 0.167E+03 -.725E+03   -.404E+02 -.169E+03 0.725E+03   0.725E+00 0.278E+01 -.186E-01   0.132E-01 0.519E-01 -.558E+00
   0.388E+02 0.222E+03 0.703E+03   -.398E+02 -.224E+03 -.703E+03   0.855E+00 0.273E+01 0.654E-01   -.114E-01 0.624E-01 0.370E+00
   0.364E+02 0.239E+03 -.219E+04   -.366E+02 -.241E+03 0.219E+04   0.951E-01 0.203E+01 -.914E-01   -.271E-02 -.939E-01 -.377E+00
   0.397E+02 -.760E+02 -.101E+03   -.404E+02 0.772E+02 0.993E+02   0.549E+00 -.140E+01 0.261E+01   0.134E-01 -.141E-01 -.337E+00
   0.162E+02 -.178E+03 0.120E+04   -.164E+02 0.181E+03 -.121E+04   -.104E+00 -.266E+01 0.928E+00   0.133E-01 0.102E+00 0.546E+00
   0.391E+02 -.985E+02 -.152E+04   -.399E+02 0.997E+02 0.152E+04   0.761E+00 -.135E+01 0.219E+01   0.246E-02 0.403E-01 -.430E+00
   0.284E+01 0.224E+03 0.205E+04   -.383E+01 -.225E+03 -.206E+04   0.224E+01 -.820E+00 0.247E+01   0.114E+00 -.191E-01 0.449E+00
   0.399E+02 -.795E+02 -.134E+04   -.405E+02 0.806E+02 0.135E+04   0.486E+00 -.131E+01 -.253E+01   0.593E-03 -.631E-02 -.544E+00
   0.353E+01 0.427E+03 0.278E+04   -.349E+01 -.430E+03 -.278E+04   0.156E+00 0.580E+00 0.207E+01   -.786E-01 -.143E-01 0.187E+00
   0.393E+02 -.831E+02 0.548E+02   -.403E+02 0.845E+02 -.530E+02   0.967E+00 -.165E+01 -.227E+01   0.163E-01 -.706E-01 0.263E-01
   0.588E-01 -.193E+03 -.281E+04   -.432E+00 0.197E+03 0.282E+04   0.370E+00 -.233E+01 -.436E+01   0.235E-02 0.143E+00 -.166E+00
   0.343E+02 0.557E+03 0.246E+04   -.353E+02 -.564E+03 -.246E+04   0.370E+00 0.635E+01 0.125E+01   -.137E+00 0.113E+00 0.215E+00
   0.396E+02 0.167E+03 -.725E+03   -.404E+02 -.169E+03 0.726E+03   0.722E+00 0.277E+01 0.694E-02   -.445E-02 0.485E-01 -.556E+00
   0.384E+02 0.222E+03 0.702E+03   -.394E+02 -.224E+03 -.702E+03   0.863E+00 0.279E+01 -.439E-01   0.180E-01 0.660E-01 0.391E+00
   0.363E+02 0.239E+03 -.219E+04   -.366E+02 -.241E+03 0.219E+04   0.957E-01 0.203E+01 -.920E-01   0.547E-02 -.103E+00 -.377E+00
 -----------------------------------------------------------------------------------------------
   -.568E+02 0.136E+02 -.332E+02   0.995E-13 0.489E-11 0.227E-11   0.569E+02 -.129E+02 0.407E+02   -.971E-01 -.627E+00 -.741E+01
 
 
 POSITION                                       TOTAL-FORCE (eV/Angst)
 -----------------------------------------------------------------------------------
      1.64370      0.18204      4.44331         0.077187      0.502959      0.518786
      1.64370      0.18204     14.02172         0.115712      0.129101     -0.347422
      0.59727      2.94708      9.23251         0.055449      0.151715     -0.368131
      0.63825      2.89373     18.60505         0.033772     -0.614480     -0.094069
      1.83912      0.26366      2.07164        -2.308999      0.441997      1.115673
      1.64370      0.18204     11.49105         0.090343      0.143314      0.341485
      0.59727      2.94708      6.70184         0.123089      0.061857      0.583327
      0.59727      2.94708     16.28025         0.085514      0.242291     -1.035679
      1.50357      2.46687      3.30917         0.874139     -1.057720      1.078280
      1.64370      2.37366     12.75638         0.171765     -0.349255     -0.015597
      3.73655      5.13871      7.96718         0.160850     -0.408921      0.062203
      3.73655      5.13871     17.54559         0.080000      0.006181     -2.114649
      4.78298      0.18204      4.44331         0.373270      0.424916      0.180529
      4.78298      0.18204     14.02172         0.114073      0.127812     -0.347699
      3.73655      2.94708      9.23251         0.060541      0.151930     -0.372924
      3.77753      2.89373     18.60505         0.033421     -0.616027     -0.090007
      4.47514      0.37586      2.01211         2.336686      0.323201      0.872775
      4.78298      0.18204     11.49105         0.085460      0.146586      0.336353
      3.73655      2.94708      6.70184         0.068625      0.059057      0.569235
      3.73655      2.94708     16.28025         0.085000      0.242264     -1.034770
      4.73258      2.44996      3.39561        -0.247049     -1.398042      1.109324
      4.78298      2.37366     12.75638         0.172809     -0.346752     -0.016592
      6.87583      5.13871      7.96718         0.161651     -0.383446      0.091105
      6.87583      5.13871     17.54559         0.080350      0.007955     -2.113940
      2.69013      5.71213      4.44331         0.196543     -0.052992      0.377689
      2.69013      5.71213     14.02172         0.106646      0.122428     -0.357147
      1.64370      8.47718      9.23251         0.097657      0.131874     -0.286460
      1.68468      8.42383     18.60505         0.031580     -0.619635     -0.090556
      2.84164      4.09564      1.89234        -2.239571      0.626376     -0.801082
      2.69013      5.71213     11.49105         0.106386      0.146246      0.334484
      1.64370      8.47718      6.70184        -0.332121     -0.409032      1.426506
      1.64370      8.47718     16.28025         0.092354      0.242547     -1.036566
      2.85746      8.82370      4.67655        -0.298999     -0.326012     -0.136532
      2.69013      7.90376     12.75638         0.168601     -0.358803      0.000070
      4.78298     10.66881      7.96718         0.160112     -0.283397      0.096025
      4.78298     10.66881     17.54559         0.080720      0.004603     -2.115894
      5.82941      5.71213      4.44331        -0.059546      0.040853      0.494530
      5.82941      5.71213     14.02172         0.107639      0.121671     -0.358391
      4.78298      8.47718      9.23251         0.084500      0.148836     -0.269162
      4.82396      8.42383     18.60505         0.030718     -0.619326     -0.089635
      5.92718      3.91934      1.93493         1.264623      0.227085     -0.974192
      5.82941      5.71213     11.49105         0.106180      0.150821      0.326482
      4.78298      8.47718      6.70184        -0.414597     -0.445965      1.357519
      4.78298      8.47718     16.28025         0.091771      0.241912     -1.035762
      6.00847      8.81668      4.69094        -0.542491      0.076559     -0.182405
      5.82941      7.90376     12.75638         0.174548     -0.359503      0.002227
      7.92226     10.66881      7.96718         0.164778     -0.289761      0.124871
      7.92226     10.66881     17.54559         0.080914      0.005019     -2.115774
      3.10077      2.01264      1.95213        -0.272890      0.375159     -1.412164
      3.28961      1.84282     11.14515        -0.119071     -0.267021      0.400874
      2.24318      4.60787      6.35595        -0.073132     -0.137981      0.107873
      2.24318      4.60787     15.93436        -0.079735     -0.076282     -0.268271
      3.28961      1.84282      4.78920        -0.844111     -0.582760      1.133598
      3.28961      1.84282     14.36761        -0.118911     -0.213567     -0.402609
      2.24318      4.60787      9.57841        -0.134115     -0.270930     -0.443974
      2.18559      4.32168     18.72375        -0.004826      1.280445      3.825716
      1.19676      4.58218      3.17797         0.307552      1.625901      0.774862
      1.19676      4.58218     12.75638        -0.139389      0.524857      0.020756
      2.24318      1.81714      7.96718        -0.156015      0.433916     -0.057342
      2.24318      1.81714     17.54559        -0.117660     -0.819659     -0.015856
      6.42889      1.84282     11.14515        -0.113481     -0.265590      0.403879
      5.38246      4.60787      6.35595        -0.199983     -0.130800      0.087374
      5.38246      4.60787     15.93436        -0.079033     -0.076327     -0.267846
      6.42889      1.84282      4.78920        -0.675259     -0.222808      1.519449
      6.42889      1.84282     14.36761        -0.117831     -0.212619     -0.402592
      4.42697      4.31644      0.63403         0.122232      1.040356     -3.039598
      5.38246      4.60787      9.57841        -0.132393     -0.259470     -0.441537
      5.32487      4.32168     18.72375        -0.003008      1.279686      3.826826
      4.33604      4.58218      3.17797         1.048765      1.709661      2.083442
      4.33604      4.58218     12.75638        -0.143406      0.529161      0.019448
      5.38246      1.81714      7.96718        -0.132255      0.428904     -0.087238
      5.38246      1.81714     17.54559        -0.116841     -0.819562     -0.015559
      4.33604      7.37292     11.14515        -0.142798     -0.242995      0.379709
      3.28961     10.13797      6.35595        -0.236784      0.493862      0.575917
      3.28961     10.13797     15.93436        -0.083921     -0.075958     -0.266555
      4.33604      7.37292      4.78920         1.251176     -1.263565     -0.353743
      4.33604      7.37292     14.36761        -0.118826     -0.210697     -0.405298
      6.21854      1.76338      1.96707         0.500797     -0.529995     -2.714161
      3.28961     10.13797      9.57841         0.004646     -0.275919     -0.389683
      3.23201      9.85178     18.72375        -0.000868      1.284521      3.827779
      2.24318     10.11228      3.17797        -0.495643      0.872633     -1.117772
      2.24318     10.11228     12.75638        -0.129359      0.529532      0.000790
      3.28961      7.34723      7.96718        -0.113380      0.569904      0.085642
      3.28961      7.34723     17.54559        -0.119406     -0.820163     -0.010464
      7.47532      7.37292     11.14515        -0.145090     -0.239322      0.385780
      6.42889     10.13797      6.35595        -0.257487      0.519124      0.623902
      6.42889     10.13797     15.93436        -0.082726     -0.076415     -0.267520
      7.47532      7.37292      4.78920         1.365947     -1.155156     -0.542133
      7.47532      7.37292     14.36761        -0.119741     -0.208296     -0.405912
      5.23613     10.77898      0.62206         0.115616     -1.839465     -3.915043
      6.42889     10.13797      9.57841         0.004243     -0.263738     -0.401315
      6.37129      9.85178     18.72375        -0.001500      1.284103      3.828407
      5.38246     10.11228      3.17797        -0.697363      0.000217      0.060922
      5.38246     10.11228     12.75638        -0.131761      0.538978      0.001814
      6.42889      7.34723      7.96718        -0.093506      0.546463      0.081420
      6.42889      7.34723     17.54559        -0.120076     -0.821224     -0.010438
 -----------------------------------------------------------------------------------
    total drift:                                0.018183      0.013828      0.107287


--------------------------------------------------------------------------------------------------------



  FREE ENERGIE OF THE ION-ELECTRON SYSTEM (eV)
  ---------------------------------------------------
  free  energy   TOTEN  =      -478.96947728 eV

  energy  without entropy=     -477.69196182  energy(sigma->0) =     -478.33071955
 


--------------------------------------------------------------------------------------------------------


    POTLOK:  cpu time    0.3057: real time    0.3058


--------------------------------------------------------------------------------------------------------


     LOOP+:  cpu time  478.5899: real time  478.6909
    4ORBIT:  cpu time    0.0000: real time    0.0000

 total amount of memory used by VASP MPI-rank0    76726. kBytes
=======================================================================

   base      :      30000. kBytes
   nonlr-proj:       3266. kBytes
   fftplans  :       8997. kBytes
   grid      :      15269. kBytes
   one-center:        124. kBytes
   wavefun   :      19070. kBytes
 
  
  
 General timing and accounting informations for this job:
 ========================================================
  
                  Total CPU time used (sec):      482.096
                            User time (sec):      481.530
                          System time (sec):        0.567
                         Elapsed time (sec):      482.441
  
                   Maximum memory used (kb):      210668.
                   Average memory used (kb):           0.
  
                          Minor page faults:       175728
                          Major page faults:            0
                 Voluntary context switches:          224
