  96  96   0   0
  0.2657162E+02  0.1125646E-08  0.1125646E-08  0.2251996E-08  0.5000000E-15
  1.000000000000000E-004
  CAR 
 "Millerite NiS"                         
     11.37998012    -66.61757392  301      1.59745089      1.00000000
    -66.618  0.0000E+00  0.0000E+00
    -66.358  0.0000E+00  0.0000E+00
    -66.098  0.0000E+00  0.0000E+00
    -65.838  0.0000E+00  0.0000E+00
    -65.578  0.0000E+00  0.0000E+00
    -65.318  0.0000E+00  0.0000E+00
    -65.058  0.0000E+00  0.0000E+00
    -64.798  0.0000E+00  0.0000E+00
    -64.538  0.0000E+00  0.0000E+00
    -64.278  0.0000E+00  0.0000E+00
    -64.018  0.1321E-09  0.3435E-10
    -63.758  0.8764E-05  0.2279E-05
    -63.498  0.2559E-01  0.6656E-02
    -63.238  0.4171E+01  0.1091E+01
    -62.978  0.6121E+02  0.1701E+02
    -62.718  0.1838E+03  0.6480E+02
    -62.458  0.3309E+03  0.1508E+03
    -62.198  0.3386E+03  0.2389E+03
    -61.938  0.1355E+03  0.2741E+03
    -61.678  0.4737E+02  0.2864E+03
    -61.418  0.6099E+01  0.2880E+03
    -61.158  0.6402E-01  0.2880E+03
    -60.898  0.3351E-04  0.2880E+03
    -60.638  0.7308E-09  0.2880E+03
    -60.378  0.0000E+00  0.2880E+03
    -60.118  0.0000E+00  0.2880E+03
    -59.858  0.0000E+00  0.2880E+03
    -59.598  0.0000E+00  0.2880E+03
    -59.338  0.0000E+00  0.2880E+03
    -59.078  0.0000E+00  0.2880E+03
    -58.818  0.0000E+00  0.2880E+03
    -58.558  0.0000E+00  0.2880E+03
    -58.298  0.0000E+00  0.2880E+03
    -58.038  0.0000E+00  0.2880E+03
    -57.778  0.0000E+00  0.2880E+03
    -57.518  0.0000E+00  0.2880E+03
    -57.258  0.0000E+00  0.2880E+03
    -56.998  0.0000E+00  0.2880E+03
    -56.738  0.0000E+00  0.2880E+03
    -56.478  0.0000E+00  0.2880E+03
    -56.218  0.0000E+00  0.2880E+03
    -55.958  0.0000E+00  0.2880E+03
    -55.698  0.0000E+00  0.2880E+03
    -55.438  0.0000E+00  0.2880E+03
    -55.178  0.0000E+00  0.2880E+03
    -54.918  0.0000E+00  0.2880E+03
    -54.658  0.0000E+00  0.2880E+03
    -54.398  0.0000E+00  0.2880E+03
    -54.138  0.0000E+00  0.2880E+03
    -53.878  0.0000E+00  0.2880E+03
    -53.618  0.0000E+00  0.2880E+03
    -53.358  0.0000E+00  0.2880E+03
    -53.098  0.0000E+00  0.2880E+03
    -52.838  0.0000E+00  0.2880E+03
    -52.578  0.0000E+00  0.2880E+03
    -52.318  0.0000E+00  0.2880E+03
    -52.058  0.0000E+00  0.2880E+03
    -51.798  0.0000E+00  0.2880E+03
    -51.538  0.0000E+00  0.2880E+03
    -51.278  0.0000E+00  0.2880E+03
    -51.018  0.0000E+00  0.2880E+03
    -50.758  0.0000E+00  0.2880E+03
    -50.498  0.0000E+00  0.2880E+03
    -50.238  0.0000E+00  0.2880E+03
    -49.978  0.0000E+00  0.2880E+03
    -49.718  0.0000E+00  0.2880E+03
    -49.458  0.0000E+00  0.2880E+03
    -49.198  0.0000E+00  0.2880E+03
    -48.938  0.0000E+00  0.2880E+03
    -48.678  0.0000E+00  0.2880E+03
    -48.418  0.0000E+00  0.2880E+03
    -48.158  0.0000E+00  0.2880E+03
    -47.898  0.0000E+00  0.2880E+03
    -47.638  0.0000E+00  0.2880E+03
    -47.378  0.0000E+00  0.2880E+03
    -47.118  0.0000E+00  0.2880E+03
    -46.858  0.0000E+00  0.2880E+03
    -46.598  0.0000E+00  0.2880E+03
    -46.338  0.0000E+00  0.2880E+03
    -46.078  0.0000E+00  0.2880E+03
    -45.818  0.0000E+00  0.2880E+03
    -45.558  0.0000E+00  0.2880E+03
    -45.298  0.0000E+00  0.2880E+03
    -45.038  0.0000E+00  0.2880E+03
    -44.778  0.0000E+00  0.2880E+03
    -44.518  0.0000E+00  0.2880E+03
    -44.258  0.0000E+00  0.2880E+03
    -43.998  0.0000E+00  0.2880E+03
    -43.738  0.0000E+00  0.2880E+03
    -43.478  0.0000E+00  0.2880E+03
    -43.218  0.0000E+00  0.2880E+03
    -42.958  0.0000E+00  0.2880E+03
    -42.698  0.0000E+00  0.2880E+03
    -42.438  0.0000E+00  0.2880E+03
    -42.178  0.0000E+00  0.2880E+03
    -41.918  0.0000E+00  0.2880E+03
    -41.658  0.0000E+00  0.2880E+03
    -41.398  0.0000E+00  0.2880E+03
    -41.138  0.0000E+00  0.2880E+03
    -40.878  0.0000E+00  0.2880E+03
    -40.618  0.0000E+00  0.2880E+03
    -40.358  0.0000E+00  0.2880E+03
    -40.098  0.0000E+00  0.2880E+03
    -39.838  0.0000E+00  0.2880E+03
    -39.578  0.0000E+00  0.2880E+03
    -39.318  0.0000E+00  0.2880E+03
    -39.058  0.0000E+00  0.2880E+03
    -38.798  0.0000E+00  0.2880E+03
    -38.538  0.0000E+00  0.2880E+03
    -38.278  0.0000E+00  0.2880E+03
    -38.018  0.0000E+00  0.2880E+03
    -37.758  0.0000E+00  0.2880E+03
    -37.498  0.0000E+00  0.2880E+03
    -37.238  0.0000E+00  0.2880E+03
    -36.979  0.0000E+00  0.2880E+03
    -36.719  0.0000E+00  0.2880E+03
    -36.459  0.0000E+00  0.2880E+03
    -36.199  0.0000E+00  0.2880E+03
    -35.939  0.0000E+00  0.2880E+03
    -35.679  0.0000E+00  0.2880E+03
    -35.419  0.0000E+00  0.2880E+03
    -35.159  0.0000E+00  0.2880E+03
    -34.899  0.0000E+00  0.2880E+03
    -34.639  0.0000E+00  0.2880E+03
    -34.379  0.0000E+00  0.2880E+03
    -34.119  0.0000E+00  0.2880E+03
    -33.859  0.0000E+00  0.2880E+03
    -33.599  0.0000E+00  0.2880E+03
    -33.339  0.0000E+00  0.2880E+03
    -33.079  0.0000E+00  0.2880E+03
    -32.819  0.0000E+00  0.2880E+03
    -32.559  0.0000E+00  0.2880E+03
    -32.299  0.0000E+00  0.2880E+03
    -32.039  0.0000E+00  0.2880E+03
    -31.779  0.0000E+00  0.2880E+03
    -31.519  0.0000E+00  0.2880E+03
    -31.259  0.0000E+00  0.2880E+03
    -30.999  0.0000E+00  0.2880E+03
    -30.739  0.0000E+00  0.2880E+03
    -30.479  0.0000E+00  0.2880E+03
    -30.219  0.0000E+00  0.2880E+03
    -29.959  0.0000E+00  0.2880E+03
    -29.699  0.0000E+00  0.2880E+03
    -29.439  0.0000E+00  0.2880E+03
    -29.179  0.0000E+00  0.2880E+03
    -28.919  0.0000E+00  0.2880E+03
    -28.659  0.0000E+00  0.2880E+03
    -28.399  0.0000E+00  0.2880E+03
    -28.139  0.0000E+00  0.2880E+03
    -27.879  0.0000E+00  0.2880E+03
    -27.619  0.0000E+00  0.2880E+03
    -27.359  0.0000E+00  0.2880E+03
    -27.099  0.0000E+00  0.2880E+03
    -26.839  0.0000E+00  0.2880E+03
    -26.579  0.0000E+00  0.2880E+03
    -26.319  0.0000E+00  0.2880E+03
    -26.059  0.0000E+00  0.2880E+03
    -25.799  0.0000E+00  0.2880E+03
    -25.539  0.0000E+00  0.2880E+03
    -25.279  0.0000E+00  0.2880E+03
    -25.019  0.0000E+00  0.2880E+03
    -24.759  0.0000E+00  0.2880E+03
    -24.499  0.0000E+00  0.2880E+03
    -24.239  0.0000E+00  0.2880E+03
    -23.979  0.0000E+00  0.2880E+03
    -23.719  0.0000E+00  0.2880E+03
    -23.459  0.0000E+00  0.2880E+03
    -23.199  0.0000E+00  0.2880E+03
    -22.939  0.0000E+00  0.2880E+03
    -22.679  0.0000E+00  0.2880E+03
    -22.419  0.0000E+00  0.2880E+03
    -22.159  0.0000E+00  0.2880E+03
    -21.899  0.0000E+00  0.2880E+03
    -21.639  0.0000E+00  0.2880E+03
    -21.379  0.0000E+00  0.2880E+03
    -21.119  0.0000E+00  0.2880E+03
    -20.859  0.0000E+00  0.2880E+03
    -20.599  0.0000E+00  0.2880E+03
    -20.339  0.0000E+00  0.2880E+03
    -20.079  0.0000E+00  0.2880E+03
    -19.819  0.0000E+00  0.2880E+03
    -19.559  0.0000E+00  0.2880E+03
    -19.299  0.0000E+00  0.2880E+03
    -19.039  0.0000E+00  0.2880E+03
    -18.779  0.0000E+00  0.2880E+03
    -18.519  0.0000E+00  0.2880E+03
    -18.259  0.0000E+00  0.2880E+03
    -17.999  0.0000E+00  0.2880E+03
    -17.739  0.0000E+00  0.2880E+03
    -17.479  0.0000E+00  0.2880E+03
    -17.219  0.0000E+00  0.2880E+03
    -16.959  0.0000E+00  0.2880E+03
    -16.699  0.0000E+00  0.2880E+03
    -16.439  0.0000E+00  0.2880E+03
    -16.179  0.0000E+00  0.2880E+03
    -15.919  0.0000E+00  0.2880E+03
    -15.659  0.0000E+00  0.2880E+03
    -15.399  0.6513E-10  0.2880E+03
    -15.139  0.3844E-05  0.2880E+03
    -14.879  0.8740E-02  0.2880E+03
    -14.619  0.8945E+00  0.2882E+03
    -14.359  0.6551E+01  0.2899E+03
    -14.099  0.7179E+01  0.2918E+03
    -13.839  0.6645E+01  0.2935E+03
    -13.579  0.2059E+02  0.2989E+03
    -13.319  0.2931E+02  0.3065E+03
    -13.059  0.2938E+02  0.3141E+03
    -12.799  0.2355E+02  0.3203E+03
    -12.539  0.4132E+02  0.3310E+03
    -12.279  0.5358E+02  0.3449E+03
    -12.019  0.4126E+02  0.3557E+03
    -11.759  0.4404E+02  0.3671E+03
    -11.499  0.3900E+02  0.3773E+03
    -11.239  0.1920E+02  0.3822E+03
    -10.979  0.6250E+01  0.3839E+03
    -10.719  0.4797E+00  0.3840E+03
    -10.459  0.2601E-02  0.3840E+03
    -10.199  0.6196E-06  0.3840E+03
     -9.939  0.5626E-11  0.3840E+03
     -9.679  0.0000E+00  0.3840E+03
     -9.419  0.0000E+00  0.3840E+03
     -9.159  0.0000E+00  0.3840E+03
     -8.899  0.0000E+00  0.3840E+03
     -8.639  0.0000E+00  0.3840E+03
     -8.379  0.0000E+00  0.3840E+03
     -8.119  0.0000E+00  0.3840E+03
     -7.859  0.0000E+00  0.3840E+03
     -7.599  0.6832E-14  0.3840E+03
     -7.339  0.3663E-08  0.3840E+03
     -7.079  0.7230E-04  0.3840E+03
     -6.819  0.5665E-01  0.3840E+03
     -6.559  0.2195E+01  0.3846E+03
     -6.299  0.9381E+01  0.3870E+03
     -6.039  0.2189E+02  0.3927E+03
     -5.779  0.3170E+02  0.4010E+03
     -5.519  0.2877E+02  0.4084E+03
     -5.259  0.4282E+02  0.4196E+03
     -5.000  0.6312E+02  0.4360E+03
     -4.740  0.6397E+02  0.4526E+03
     -4.480  0.5484E+02  0.4669E+03
     -4.220  0.6026E+02  0.4825E+03
     -3.960  0.6718E+02  0.5000E+03
     -3.700  0.6696E+02  0.5174E+03
     -3.440  0.7789E+02  0.5377E+03
     -3.180  0.8800E+02  0.5605E+03
     -2.920  0.8338E+02  0.5822E+03
     -2.660  0.8158E+02  0.6034E+03
     -2.400  0.8627E+02  0.6259E+03
     -2.140  0.7690E+02  0.6459E+03
     -1.880  0.5314E+02  0.6597E+03
     -1.620  0.6151E+02  0.6757E+03
     -1.360  0.8538E+02  0.6979E+03
     -1.100  0.9448E+02  0.7224E+03
     -0.840  0.1195E+03  0.7535E+03
     -0.580  0.1469E+03  0.7917E+03
     -0.320  0.1628E+03  0.8340E+03
     -0.060  0.1819E+03  0.8813E+03
      0.200  0.1719E+03  0.9260E+03
      0.460  0.1383E+03  0.9620E+03
      0.720  0.1012E+03  0.9883E+03
      0.980  0.8397E+02  0.1010E+04
      1.240  0.7939E+02  0.1031E+04
      1.500  0.7244E+02  0.1050E+04
      1.760  0.6100E+02  0.1065E+04
      2.020  0.5421E+02  0.1080E+04
      2.280  0.6424E+02  0.1096E+04
      2.540  0.6948E+02  0.1114E+04
      2.800  0.6023E+02  0.1130E+04
      3.060  0.4672E+02  0.1142E+04
      3.320  0.2680E+02  0.1149E+04
      3.580  0.1089E+02  0.1152E+04
      3.840  0.5261E+01  0.1153E+04
      4.100  0.2642E+01  0.1154E+04
      4.360  0.3866E+00  0.1154E+04
      4.620  0.6405E+01  0.1156E+04
      4.880  0.2019E+02  0.1161E+04
      5.140  0.1919E+02  0.1166E+04
      5.400  0.2174E+02  0.1172E+04
      5.660  0.2058E+02  0.1177E+04
      5.920  0.2877E+02  0.1184E+04
      6.180  0.3124E+02  0.1193E+04
      6.440  0.3205E+02  0.1201E+04
      6.700  0.3435E+02  0.1210E+04
      6.960  0.4373E+02  0.1221E+04
      7.220  0.4950E+02  0.1234E+04
      7.480  0.5288E+02  0.1248E+04
      7.740  0.5368E+02  0.1262E+04
      8.000  0.2203E+02  0.1268E+04
      8.260  0.1830E+01  0.1268E+04
      8.520  0.1364E-01  0.1268E+04
      8.780  0.5484E-05  0.1268E+04
      9.040  0.9363E-10  0.1268E+04
      9.300  0.0000E+00  0.1268E+04
      9.560  0.0000E+00  0.1268E+04
      9.820  0.0000E+00  0.1268E+04
     10.080  0.0000E+00  0.1268E+04
     10.340  0.0000E+00  0.1268E+04
     10.600  0.0000E+00  0.1268E+04
     10.860  0.0000E+00  0.1268E+04
     11.120  0.0000E+00  0.1268E+04
     11.380  0.0000E+00  0.1268E+04
