"Millerite NiS"                         
           1
     9.425103    3.573298    0.000000
     0.000000   10.079733    0.000000
     0.000000    0.000000   20.493879
   Ni   S 
    36    36
Direct configuration=     1
   0.37433214  0.75136221  0.09439438
   0.52460065  0.60109369  0.22250591
   0.67486916  0.45082518  0.35061745
   0.82513768  0.30055667  0.47872899
   0.60748647  0.18487455  0.00898668
   0.75775498  0.03460604  0.13709822
   0.05829200  0.73406901  0.39332130
   0.90802349  0.88433752  0.26520976
   0.14117782  0.31784986  0.17980207
   0.29144633  0.16758135  0.30791361
   0.44171484  0.01731284  0.43602514
   0.99090930  0.46811838  0.05169053
   0.00993999  0.11575435  0.41103331
   0.55913445  0.56655989  0.02669870
   0.70940297  0.41629138  0.15481024
   0.85967148  0.26602287  0.28292178
   0.09282580  0.69953521  0.19751409
   0.24309432  0.54926670  0.32562562
   0.39336283  0.39899818  0.45373716
   0.94255729  0.84980372  0.06940255
   0.32598013  0.13304755  0.11210639
   0.47624864  0.98277904  0.24021793
   0.62651716  0.83251053  0.36832947
   0.77678567  0.68224201  0.49644101
   0.04964184  0.34025851  0.44488115
   0.59883630  0.79106405  0.06054654
   0.74910481  0.64079554  0.18865808
   0.89937332  0.49052702  0.31676961
   0.98225914  0.07430788  0.10325038
   0.13252765  0.92403937  0.23136192
   0.28279616  0.77377085  0.35947346
   0.43306467  0.62350234  0.48758500
   0.21541346  0.50782022  0.01784269
   0.36568197  0.35755171  0.14595423
   0.51595048  0.20728320  0.27406577
   0.66621900  0.05701468  0.40217731
   0.06382157  0.26208478  0.34083733
   0.21409008  0.11181627  0.46894887
   0.76328454  0.56262180  0.08461425
   0.91355306  0.41235329  0.21272579
   0.14670738  0.84586563  0.12731810
   0.29697589  0.69559712  0.25542964
   0.44724440  0.54532861  0.38354118
   0.59751292  0.39506010  0.51165271
   0.37986171  0.27937798  0.04191041
   0.53013022  0.12910946  0.17002195
   0.68039873  0.97884095  0.29813349
   0.83066724  0.82857244  0.42624502
   0.37769570  0.94821065  0.04270385
   0.52796421  0.79794213  0.17081538
   0.67823273  0.64767362  0.29892692
   0.82850124  0.49740511  0.42703846
   0.76111854  0.23145447  0.08540769
   0.91138705  0.08118596  0.21351923
   0.06165556  0.93091745  0.34163077
   0.21192408  0.78064894  0.46974231
   0.14454138  0.51469830  0.12811154
   0.29480989  0.36442979  0.25622308
   0.44507840  0.21416128  0.38433461
   0.99427286  0.66496682  0.00000000
   0.47740938  0.51206697  0.12771482
   0.62767789  0.36179846  0.25582636
   0.77794640  0.21152994  0.38393790
   0.92821491  0.06126143  0.51204943
   0.01110073  0.64504229  0.29853020
   0.16136924  0.49477377  0.42664174
   0.71056370  0.94557931  0.04230713
   0.86083222  0.79531080  0.17041866
   0.09398654  0.22882314  0.08501097
   0.24425505  0.07855463  0.21312251
   0.39452357  0.92828611  0.34123405
   0.54479208  0.77801760  0.46934559
