 vasp.6.1.0 28Jan20 (build Mar 31 2020 17:42:31) gamma-only                     
  
 executed on             LinuxIFC date 2020.04.13  04:14:49
 running on   48 total cores
 distrk:  each k-point on   48 cores,    1 groups
 distr:  one band on NCORE=   6 cores,    8 groups


--------------------------------------------------------------------------------------------------------


 INCAR:
 POTCAR:    PAW_PBE Ni_pv 06Sep2000               
 POTCAR:    PAW_PBE S 06Sep2000                   
 POTCAR:    PAW_PBE Ni_pv 06Sep2000               
   VRHFIN =Ni:                                                                                      
   LEXCH  = PE                                                                                      
   EATOM  =  3501.1230 eV,  257.3253 Ry                                                             
                                                                                                    
   TITEL  = PAW_PBE Ni_pv 06Sep2000                                                                 
   LULTRA =        F    use ultrasoft PP ?                                                          
   IUNSCR =        1    unscreen: 0-lin 1-nonlin 2-no                                               
   RPACOR =    1.500    partial core radius                                                         
   POMASS =   58.690; ZVAL   =   16.000    mass and valenz                                          
   RCORE  =    2.000    outmost cutoff radius                                                       
   RWIGS  =    2.000; RWIGS  =    1.058    wigner-seitz radius (au A)                               
   ENMAX  =  367.986; ENMIN  =  275.989 eV                                                          
   RCLOC  =    1.301    cutoff for local pot                                                        
   LCOR   =        T    correct aug charges                                                         
   LPAW   =        T    paw PP                                                                      
   EAUG   =  703.443                                                                                
   DEXC   =    0.000                                                                                
   RMAX   =    2.041    core radius for proj-oper                                                   
   RAUG   =    1.300    factor for augmentation sphere                                              
   RDEP   =    2.103    radius for radial grids                                                     
   RDEPT  =    1.618    core radius for aug-charge                                                  
                                                                                                    
   Atomic configuration                                                                             
    8 entries                                                                                       
     n  l   j            E        occ.                                                              
     1  0  0.50     -8206.4253   2.0000                                                             
     2  0  0.50      -976.1748   2.0000                                                             
     2  1  1.50      -839.0571   6.0000                                                             
     3  0  0.50      -105.9991   2.0000                                                             
     3  1  1.50       -66.4603   6.0000                                                             
     3  2  2.50        -4.6458   9.0000                                                             
     4  0  0.50        -4.4926   1.0000                                                             
     4  3  2.50        -1.3606   0.0000                                                             
   Description                                                                                      
     l       E           TYP  RCUT    TYP  RCUT                                                     
     1    -66.4602962     23  1.700                                                                 
     1     -1.3605826     23  1.700                                                                 
     2     -4.6457867     23  2.000                                                                 
     2     -6.0063693     23  2.000                                                                 
     0     -4.4925576     23  1.900                                                                 
     0     16.3626226     23  1.900                                                                 
  local pseudopotential read in
  partial core-charges read in
  partial kinetic energy density read in
  atomic valenz-charges read in
  non local Contribution for L=           1  read in
    real space projection operators read in
  non local Contribution for L=           1  read in
    real space projection operators read in
  non local Contribution for L=           2  read in
    real space projection operators read in
  non local Contribution for L=           2  read in
    real space projection operators read in
  non local Contribution for L=           0  read in
    real space projection operators read in
  non local Contribution for L=           0  read in
    real space projection operators read in
    PAW grid and wavefunctions read in
 
   number of l-projection  operators is LMAX  =           6
   number of lm-projection operators is LMMAX =          18
 
 POTCAR:    PAW_PBE S 06Sep2000                   
   VRHFIN =S : s2p4                                                                                 
   LEXCH  = PE                                                                                      
   EATOM  =   276.8230 eV,   20.3459 Ry                                                             
                                                                                                    
   TITEL  = PAW_PBE S 06Sep2000                                                                     
   LULTRA =        F    use ultrasoft PP ?                                                          
   IUNSCR =        1    unscreen: 0-lin 1-nonlin 2-no                                               
   RPACOR =    1.500    partial core radius                                                         
   POMASS =   32.066; ZVAL   =    6.000    mass and valenz                                          
   RCORE  =    1.900    outmost cutoff radius                                                       
   RWIGS  =    2.200; RWIGS  =    1.164    wigner-seitz radius (au A)                               
   ENMAX  =  258.689; ENMIN  =  194.016 eV                                                          
   ICORE  =        2    local potential                                                             
   LCOR   =        T    correct aug charges                                                         
   LPAW   =        T    paw PP                                                                      
   EAUG   =  335.092                                                                                
   DEXC   =    0.000                                                                                
   RMAX   =    1.942    core radius for proj-oper                                                   
   RAUG   =    1.300    factor for augmentation sphere                                              
   RDEP   =    1.954    radius for radial grids                                                     
   RDEPT  =    1.744    core radius for aug-charge                                                  
                                                                                                    
   Atomic configuration                                                                             
    6 entries                                                                                       
     n  l   j            E        occ.                                                              
     1  0  0.50     -2405.8406   2.0000                                                             
     2  0  0.50      -211.7007   2.0000                                                             
     2  1  1.50      -156.4958   6.0000                                                             
     3  0  0.50       -17.2562   2.0000                                                             
     3  1  0.50        -7.0085   4.0000                                                             
     3  2  1.50        -6.8029   0.0000                                                             
   Description                                                                                      
     l       E           TYP  RCUT    TYP  RCUT                                                     
     0    -17.2561641     23  1.900                                                                 
     0    -15.8743224     23  1.900                                                                 
     1     -7.0085400     23  1.900                                                                 
     1     -2.7779785     23  1.900                                                                 
     2     -6.8029130     23  1.900                                                                 
  local pseudopotential read in
  partial core-charges read in
  partial kinetic energy density read in
  atomic valenz-charges read in
  non local Contribution for L=           0  read in
    real space projection operators read in
  non local Contribution for L=           0  read in
    real space projection operators read in
  non local Contribution for L=           1  read in
    real space projection operators read in
  non local Contribution for L=           1  read in
    real space projection operators read in
    PAW grid and wavefunctions read in
 
   number of l-projection  operators is LMAX  =           4
   number of lm-projection operators is LMMAX =           8
 
 Optimization of the real space projectors (new method)

 maximal supplied QI-value         = 18.90
 optimisation between [QCUT,QGAM] = [ 10.77, 21.73] = [ 32.49,132.25] Ry 
 Optimized for a Real-space Cutoff    1.38 Angstroem

   l    n(q)    QCUT    max X(q) W(low)/X(q) W(high)/X(q)  e(spline) 
   1      8    10.771     2.836    0.40E-04    0.29E-04    0.12E-06
   1      8    10.771     4.023    0.10E-03    0.48E-04    0.29E-06
   2      8    10.771    73.368    0.42E-03    0.97E-04    0.44E-06
   2      8    10.771    69.010    0.42E-03    0.99E-04    0.45E-06
   0      9    10.771    54.797    0.10E-03    0.56E-04    0.74E-07
   0      9    10.771    24.266    0.89E-04    0.49E-04    0.67E-07
 Optimization of the real space projectors (new method)

 maximal supplied QI-value         = 19.84
 optimisation between [QCUT,QGAM] = [ 10.71, 21.63] = [ 32.15,130.99] Ry 
 Optimized for a Real-space Cutoff    1.19 Angstroem

   l    n(q)    QCUT    max X(q) W(low)/X(q) W(high)/X(q)  e(spline) 
   0      8    10.715   187.594    0.41E-03    0.53E-04    0.66E-07
   0      8    10.715   164.243    0.41E-03    0.53E-04    0.65E-07
   1      7    10.715    67.533    0.19E-03    0.59E-03    0.68E-07
   1      7    10.715    50.729    0.19E-03    0.58E-03    0.67E-07
  PAW_PBE Ni_pv 06Sep2000               :
 energy of atom  1       EATOM=-3501.1230
 kinetic energy error for atom=    0.0925 (will be added to EATOM!!)
  PAW_PBE S 06Sep2000                   :
 energy of atom  2       EATOM= -276.8230
 kinetic energy error for atom=    0.0033 (will be added to EATOM!!)
 
 
 POSCAR: Structure 35 made from 02-1-6.xsd file
  positions in direct lattice
  No initial velocities read in
 exchange correlation table for  LEXCH =        8
   RHO(1)=    0.500       N(1)  =     2000
   RHO(2)=  100.500       N(2)  =     4000
 


--------------------------------------------------------------------------------------------------------


 ion  position               nearest neighbor table
   1  0.580  0.074  0.349-  43 2.25  64 2.26  50 2.26  61 2.36  51 2.36  26 2.53  14 2.53
   2  0.763  0.165  0.227-  44 2.25  61 2.26  51 2.26  52 2.36  62 2.36  15 2.53  27 2.53
   3  0.398  0.983  0.472-  63 2.26  64 2.36  50 2.36  25 2.53  13 2.53
   4  0.035  0.802  0.268-  45 2.25  55 2.26  68 2.26  65 2.36  53 2.36  29 2.53  20 2.53
   5  0.217  0.893  0.146-  46 2.25  53 2.26  65 2.26  66 2.36  54 2.36  30 2.53  17 2.53
   6  0.399  0.984  0.024-  47 2.25  54 2.26  66 2.26  31 2.53
   7  0.671  0.620  0.512-  67 2.36  56 2.36  32 2.53  18 2.53
   8  0.853  0.711  0.390-  48 2.25  56 2.26  67 2.26  68 2.36  55 2.36  33 2.53  19 2.53
   9  0.126  0.347  0.431-  37 2.25  72 2.26  57 2.36  69 2.36  24 2.53  34 2.53
  10  0.308  0.438  0.309-  38 2.25  57 2.26  69 2.26  58 2.36  70 2.36  35 2.53  21 2.53
  11  0.490  0.529  0.187-  39 2.25  58 2.26  70 2.26  59 2.36  71 2.36  36 2.53  22 2.53
  12  0.672  0.620  0.065-  40 2.25  59 2.26  71 2.26  60 2.36  23 2.53
  13  0.230  0.031  0.407-  55 2.25  63 2.26  37 2.26  64 2.36  38 2.36   3 2.53  25 2.53
  14  0.412  0.122  0.285-  53 2.25  38 2.26  64 2.26  61 2.36  39 2.36  26 2.53   1 2.53
  15  0.595  0.214  0.163-  54 2.25  61 2.26  39 2.26  62 2.36  40 2.36   2 2.53  27 2.53
  16  0.777  0.305  0.041-  62 2.26  40 2.26  28 2.53
  17  0.049  0.941  0.081-  60 2.25  41 2.26  65 2.26  42 2.36  66 2.36  30 2.53   5 2.53
  18  0.503  0.668  0.448-  57 2.25  43 2.36  67 2.36   7 2.53  32 2.53
  19  0.685  0.759  0.326-  58 2.25  43 2.26  67 2.26  68 2.36  44 2.36  33 2.53   8 2.53
  20  0.867  0.850  0.203-  59 2.25  68 2.26  44 2.26  41 2.36  65 2.36   4 2.53  29 2.53
  21  0.140  0.486  0.244-  52 2.25  45 2.26  69 2.26  70 2.36  46 2.36  10 2.53  35 2.53
  22  0.322  0.577  0.122-  49 2.25  46 2.26  70 2.26  47 2.36  71 2.36  36 2.53  11 2.53
  23  0.504  0.668  0.000-  47 2.26  71 2.26  12 2.53
  24  0.958  0.395  0.366-  51 2.25  48 2.26  72 2.26  45 2.36  69 2.36  34 2.53   9 2.53
  25  0.398  0.248  0.472-  37 2.26  38 2.36  50 2.36   3 2.53  13 2.53
  26  0.580  0.339  0.349-  67 2.25  38 2.26  50 2.26  39 2.36  51 2.36   1 2.53  14 2.53
  27  0.763  0.430  0.227-  68 2.25  39 2.26  51 2.26  52 2.36  40 2.36  15 2.53   2 2.53
  28  0.945  0.521  0.105-  65 2.25  40 2.26  52 2.26  49 2.36  16 2.53
  29  0.035  0.066  0.268-  69 2.25  44 2.26  55 2.26  41 2.36  53 2.36   4 2.53  20 2.53
  30  0.217  0.157  0.146-  70 2.25  53 2.26  41 2.26  42 2.36  54 2.36   5 2.53  17 2.53
  31  0.399  0.248  0.024-  71 2.25  54 2.26  42 2.26   6 2.53
  32  0.671  0.884  0.512-  43 2.36  56 2.36   7 2.53  18 2.53
  33  0.853  0.975  0.390-  72 2.25  56 2.26  43 2.26  44 2.36  55 2.36   8 2.53  19 2.53
  34  0.126  0.611  0.431-  63 2.25  48 2.26  57 2.36  45 2.36  24 2.53   9 2.53
  35  0.308  0.702  0.309-  64 2.25  57 2.26  45 2.26  58 2.36  46 2.36  10 2.53  21 2.53
  36  0.490  0.793  0.187-  61 2.25  58 2.26  46 2.26  59 2.36  47 2.36  11 2.53  22 2.53
  37  0.184  0.177  0.481-   9 2.25  25 2.26  13 2.26
  38  0.367  0.268  0.359-  10 2.25  26 2.26  14 2.26  25 2.36  13 2.36
  39  0.549  0.359  0.237-  11 2.25  15 2.26  27 2.26  26 2.36  14 2.36
  40  0.731  0.450  0.114-  12 2.25  16 2.26  28 2.26  27 2.36  15 2.36
  41  0.003  0.086  0.155-  30 2.26  17 2.26  29 2.36  20 2.36
  42  0.185  0.177  0.033-  31 2.26  30 2.36  17 2.36
  43  0.639  0.904  0.399-   1 2.25  33 2.26  19 2.26  32 2.36  18 2.36
  44  0.821  0.995  0.277-   2 2.25  29 2.26  20 2.26  33 2.36  19 2.36
  45  0.094  0.631  0.318-   4 2.25  21 2.26  35 2.26  24 2.36  34 2.36
  46  0.276  0.722  0.196-   5 2.25  22 2.26  36 2.26  21 2.36  35 2.36
  47  0.458  0.814  0.074-   6 2.25  23 2.26  22 2.36  36 2.36
  48  0.912  0.540  0.440-   8 2.25  24 2.26  34 2.26
  49  0.127  0.480  0.074-  22 2.25  28 2.36
  50  0.580  0.206  0.441-   1 2.26  26 2.26   3 2.36  25 2.36
  51  0.763  0.298  0.319-  24 2.25  27 2.26   2 2.26  26 2.36   1 2.36
  52  0.945  0.389  0.197-  21 2.25  28 2.26  27 2.36   2 2.36
  53  0.217  0.025  0.237-  14 2.25   5 2.26  30 2.26   4 2.36  29 2.36
  54  0.399  0.116  0.115-  15 2.25   6 2.26  31 2.26  30 2.36   5 2.36
  55  0.035  0.934  0.359-  13 2.25   4 2.26  29 2.26   8 2.36  33 2.36
  56  0.853  0.843  0.481-  33 2.26   8 2.26  32 2.36   7 2.36
  57  0.308  0.570  0.400-  18 2.25  10 2.26  35 2.26   9 2.36  34 2.36
  58  0.490  0.661  0.278-  19 2.25  36 2.26  11 2.26  10 2.36  35 2.36
  59  0.672  0.752  0.156-  20 2.25  12 2.26  36 2.36  11 2.36
  60  0.854  0.843  0.034-  17 2.25  12 2.36
  61  0.549  0.022  0.237-  36 2.25  15 2.26   2 2.26   1 2.36  14 2.36
  62  0.731  0.113  0.114-  16 2.26  15 2.36   2 2.36
  63  0.184  0.840  0.481-  34 2.25   3 2.26  13 2.26
  64  0.367  0.931  0.359-  35 2.25   1 2.26  14 2.26   3 2.36  13 2.36
  65  0.003  0.750  0.155-  28 2.25   5 2.26  17 2.26   4 2.36  20 2.36
  66  0.185  0.841  0.033-   6 2.26   5 2.36  17 2.36
  67  0.639  0.568  0.399-  26 2.25   8 2.26  19 2.26   7 2.36  18 2.36
  68  0.821  0.659  0.277-  27 2.25   4 2.26  20 2.26   8 2.36  19 2.36
  69  0.094  0.295  0.318-  29 2.25  21 2.26  10 2.26   9 2.36  24 2.36
  70  0.276  0.386  0.196-  30 2.25  22 2.26  11 2.26  21 2.36  10 2.36
  71  0.458  0.477  0.074-  31 2.25  12 2.26  23 2.26  22 2.36  11 2.36
  72  0.912  0.204  0.440-  33 2.25  24 2.26   9 2.26
 
  Warning from LATTYP: Monoclinic adjustment (A1->A3, A2->A1, A3->A2)!
  LATTYP: Found a base centered orthorhombic cell.
 ALAT       =     9.5784100000
 B/A-ratio  =     2.1722506661
 C/A-ratio  =     2.1403095979
  
  Lattice vectors:
  
 A1 = (  10.4033537511,  -4.7892050000,   0.0000000000)
 A2 = ( -10.4033537511,  -4.7892050000,   0.0000000000)
 A3 = (   0.0000000000,   0.0000000000, -20.5007628560)


Analysis of symmetry for initial positions (statically):
=====================================================================
 Subroutine PRICEL returns:
 Original cell was already a primitive cell.
 

 Routine SETGRP: Setting up the symmetry group for a 
 base centered orthorhombic supercell.


 Subroutine GETGRP returns: Found  1 space group operations
 (whereof  1 operations were pure point group operations)
 out of a pool of  8 trial point group operations.


The static configuration has the point symmetry C_1 .


Analysis of symmetry for dynamics (positions and initial velocities):
=====================================================================
 Subroutine PRICEL returns:
 Original cell was already a primitive cell.
 

 Routine SETGRP: Setting up the symmetry group for a 
 base centered orthorhombic supercell.


 Subroutine GETGRP returns: Found  1 space group operations
 (whereof  1 operations were pure point group operations)
 out of a pool of  8 trial point group operations.


The dynamic configuration has the point symmetry C_1 .


 Subroutine INISYM returns: Found  1 space group operations
 (whereof  1 operations are pure point group operations),
 and found     1 'primitive' translations


----------------------------------------------------------------------------------------

                                     Primitive cell                                     

  volume of cell :    2042.8516

  direct lattice vectors                    reciprocal lattice vectors
    10.403353751 -4.789205000  0.000000000     0.096122849  0.000000000  0.000000000
     0.000000000  9.578410000  0.000000000     0.048061424  0.104401461  0.000000000
     0.000000000  0.000000000 20.500762856     0.000000000  0.000000000  0.048778673

  length of vectors
    11.452783670  9.578410000 20.500762856     0.096122849  0.114932874  0.048778673

  position of ions in fractional coordinates (direct lattice)
     0.580446796  0.074375138  0.349415127
     0.762560812  0.165432146  0.227316517
     0.398332781  0.983318131  0.471513737
     0.035189473  0.801746477  0.268016054
     0.217303488  0.892803484  0.145917444
     0.399417503  0.983860492  0.023818834
     0.670961443  0.619632462  0.512213274
     0.853075458  0.710689469  0.390114664
     0.125704120  0.347003800  0.430814200
     0.307818135  0.438060808  0.308715591
     0.489932150  0.529117815  0.186616981
     0.672046165  0.620174823  0.064518371
     0.230358012  0.031433746  0.406995366
     0.412472027  0.122490754  0.284896756
     0.594586043  0.213547761  0.162798147
     0.776700058  0.304604769  0.040699537
     0.049328719  0.940919100  0.081399073
     0.502986674  0.667748077  0.447694903
     0.685100689  0.758805085  0.325596293
     0.867214704  0.849862092  0.203497683
     0.139843366  0.486176423  0.244197220
     0.321957381  0.577233431  0.122098610
     0.504071396  0.668290438  0.000000000
     0.957729351  0.395119416  0.366295830
     0.398332781  0.247524131  0.471513737
     0.580446796  0.338581138  0.349415127
     0.762560812  0.429638146  0.227316517
     0.944674827  0.520695154  0.105217907
     0.035189473  0.065952477  0.268016054
     0.217303488  0.157009484  0.145917444
     0.399417503  0.248066492  0.023818834
     0.670961443  0.883838462  0.512213274
     0.853075458  0.974895469  0.390114664
     0.125704120  0.611209800  0.430814200
     0.307818135  0.702266808  0.308715591
     0.489932150  0.793323815  0.186616981
     0.184411117  0.176675299  0.480705402
     0.366525132  0.267732306  0.358606792
     0.548639147  0.358789314  0.236508182
     0.730753162  0.449846321  0.114409572
     0.003381824  0.086160652  0.155109109
     0.185495839  0.177217660  0.033010499
     0.639153794  0.904046637  0.399306329
     0.821267809  0.995103645  0.277207719
     0.093896470  0.631417975  0.317907255
     0.276010485  0.722474983  0.195808645
     0.458124501  0.813531990  0.073710035
     0.911782455  0.540360968  0.440005865
     0.126759941  0.479634711  0.074466233
     0.580417896  0.206463688  0.440762063
     0.762531911  0.297520696  0.318663453
     0.944645926  0.388577703  0.196564843
     0.217274588  0.024892034  0.237264379
     0.399388603  0.115949042  0.115165769
     0.035160573  0.933835026  0.359362989
     0.853046557  0.842778019  0.481461599
     0.307789234  0.570149357  0.400062526
     0.489903249  0.661206365  0.277963916
     0.672017264  0.752263372  0.155865306
     0.854131279  0.843320380  0.033766696
     0.548639147  0.022359314  0.236508182
     0.730753162  0.113416321  0.114409572
     0.184411117  0.840245299  0.480705402
     0.366525132  0.931302306  0.358606792
     0.003381824  0.749730652  0.155109109
     0.185495839  0.840787660  0.033010499
     0.639153794  0.567616637  0.399306329
     0.821267809  0.658673645  0.277207719
     0.093896470  0.294987975  0.317907255
     0.276010485  0.386044983  0.195808645
     0.458124501  0.477101990  0.073710035
     0.911782455  0.203930968  0.440005865

  ion indices of the primitive-cell ions
   primitive index   ion index
                 1           1
                 2           2
                 3           3
                 4           4
                 5           5
                 6           6
                 7           7
                 8           8
                 9           9
                10          10
                11          11
                12          12
                13          13
                14          14
                15          15
                16          16
                17          17
                18          18
                19          19
                20          20
                21          21
                22          22
                23          23
                24          24
                25          25
                26          26
                27          27
                28          28
                29          29
                30          30
                31          31
                32          32
                33          33
                34          34
                35          35
                36          36
                37          37
                38          38
                39          39
                40          40
                41          41
                42          42
                43          43
                44          44
                45          45
                46          46
                47          47
                48          48
                49          49
                50          50
                51          51
                52          52
                53          53
                54          54
                55          55
                56          56
                57          57
                58          58
                59          59
                60          60
                61          61
                62          62
                63          63
                64          64
                65          65
                66          66
                67          67
                68          68
                69          69
                70          70
                71          71
                72          72

----------------------------------------------------------------------------------------

 
 
 KPOINTS: gamma-point-only calculation. no periodi

Automatic generation of k-mesh.
Space group operators:
 irot       det(A)        alpha          n_x          n_y          n_z        tau_x        tau_y        tau_z
    1     1.000000     0.000000     1.000000     0.000000     0.000000     0.000000     0.000000     0.000000
 
 Subroutine IBZKPT returns following result:
 ===========================================
 
 Found      1 irreducible k-points:
 
 Following reciprocal coordinates:
            Coordinates               Weight
  0.000000  0.000000  0.000000      1.000000
 
 Following cartesian coordinates:
            Coordinates               Weight
  0.000000  0.000000  0.000000      1.000000
 


--------------------------------------------------------------------------------------------------------




 Dimension of arrays:
   k-points           NKPTS =      1   k-points in BZ     NKDIM =      1   number of bands    NBANDS=    480
   number of dos      NEDOS =    301   number of ions     NIONS =     72
   non local maximal  LDIM  =      6   non local SUM 2l+1 LMDIM =     18
   total plane-waves  NPLWV = 324000
   max r-space proj   IRMAX =   1799   max aug-charges    IRDMAX=   5196
   dimension x,y,z NGX =    60 NGY =   50 NGZ =  108
   dimension x,y,z NGXF=   120 NGYF=  100 NGZF=  216
   support grid    NGXF=   120 NGYF=  100 NGZF=  216
   ions per type =              36  36
   NGX,Y,Z   is equivalent  to a cutoff of   8.71,  8.68,  8.76 a.u.
   NGXF,Y,Z  is equivalent  to a cutoff of  17.42, 17.36, 17.52 a.u.

 SYSTEM =  "Millerite NiS"                         
 POSCAR =  Structure 35 made from 02-1-6.xsd file  

 Startparameter for this run:
   NWRITE =      2    write-flag & timer
   PREC   = normal    normal or accurate (medium, high low for compatibility)
   ISTART =      0    job   : 0-new  1-cont  2-samecut
   ICHARG =      2    charge: 1-file 2-atom 10-const
   ISPIN  =      1    spin polarized calculation?
   LNONCOLLINEAR =      F non collinear calculations
   LSORBIT =      F    spin-orbit coupling
   INIWAV =      1    electr: 0-lowe 1-rand  2-diag
   LASPH  =      F    aspherical Exc in radial PAW
   METAGGA=      F    non-selfconsistent MetaGGA calc.

 Electronic Relaxation 1
   ENCUT  =  450.0 eV  33.07 Ry    5.75 a.u.  19.81 16.57 35.46*2*pi/ulx,y,z
   ENINI  =  450.0     initial cutoff
   ENAUG  =  703.4 eV  augmentation charge cutoff
   NELM   =    100;   NELMIN=  2; NELMDL= -5     # of ELM steps 
   EDIFF  = 0.1E-03   stopping-criterion for ELM
   LREAL  =      T    real-space projection
   NLSPLINE    = F    spline interpolate recip. space projectors
   LCOMPAT=      F    compatible to vasp.4.4
   GGA_COMPAT  = T    GGA compatible to vasp.4.4-vasp.4.6
   LMAXPAW     = -100 max onsite density
   LMAXMIX     =    2 max onsite mixed and CHGCAR
   VOSKOWN=      0    Vosko Wilk Nusair interpolation
   ROPT   =   -0.00050  -0.00050
 Ionic relaxation
   EDIFFG = 0.1E-02   stopping-criterion for IOM
   NSW    =      0    number of steps for IOM
   NBLOCK =      1;   KBLOCK =      1    inner block; outer block 
   IBRION =     -1    ionic relax: 0-MD 1-quasi-New 2-CG
   NFREE  =      0    steps in history (QN), initial steepest desc. (CG)
   ISIF   =      2    stress and relaxation
   IWAVPR =     10    prediction:  0-non 1-charg 2-wave 3-comb
   ISYM   =      2    0-nonsym 1-usesym 2-fastsym
   LCORR  =      T    Harris-Foulkes like correction to forces

   POTIM  = 0.5000    time-step for ionic-motion
   TEIN   =    0.0    initial temperature
   TEBEG  =    0.0;   TEEND  =   0.0 temperature during run
   SMASS  =  -3.00    Nose mass-parameter (am)
   estimated Nose-frequenzy (Omega)   =  0.10E-29 period in steps = 0.13E+47 mass=  -0.300E-26a.u.
   SCALEE = 1.0000    scale energy and forces
   NPACO  =    256;   APACO  = 16.0  distance and # of slots for P.C.
   PSTRESS=    0.0 pullay stress

  Mass of Ions in am
   POMASS =  58.69 32.07
  Ionic Valenz
   ZVAL   =  16.00  6.00
  Atomic Wigner-Seitz radii
   RWIGS  =  -1.00 -1.00
  virtual crystal weights 
   VCA    =   1.00  1.00
   NELECT =     792.0000    total number of electrons
   NUPDOWN=      -1.0000    fix difference up-down

 DOS related values:
   EMIN   =  10.00;   EMAX   =-10.00  energy-range for DOS
   EFERMI =   0.00
   ISMEAR =     0;   SIGMA  =   0.20  broadening in eV -4-tet -1-fermi 0-gaus

 Electronic relaxation 2 (details)
   IALGO  =     38    algorithm
   LDIAG  =      T    sub-space diagonalisation (order eigenvalues)
   LSUBROT=      F    optimize rotation matrix (better conditioning)
   TURBO    =      0    0=normal 1=particle mesh
   IRESTART =      0    0=no restart 2=restart with 2 vectors
   NREBOOT  =      0    no. of reboots
   NMIN     =      0    reboot dimension
   EREF     =   0.00    reference energy to select bands
   IMIX   =      4    mixing-type and parameters
     AMIX     =   0.40;   BMIX     =  1.00
     AMIX_MAG =   1.60;   BMIX_MAG =  1.00
     AMIN     =   0.10
     WC   =   100.;   INIMIX=   1;  MIXPRE=   1;  MAXMIX= -45

 Intra band minimization:
   WEIMIN = 0.0000     energy-eigenvalue tresh-hold
   EBREAK =  0.52E-07  absolut break condition
   DEPER  =   0.30     relativ break condition  

   TIME   =   0.40     timestep for ELM

  volume/ion in A,a.u.               =      28.37       191.47
  Fermi-wavevector in a.u.,A,eV,Ry     =   1.193725  2.255813 19.388021  1.424979
  Thomas-Fermi vector in A             =   2.329732
 
 Write flags
   LWAVE        =      F    write WAVECAR
   LDOWNSAMPLE  =      F    k-point downsampling of WAVECAR
   LCHARG       =      F    write CHGCAR
   LVTOT        =      F    write LOCPOT, total local potential
   LVHAR        =      F    write LOCPOT, Hartree potential only
   LELF         =      F    write electronic localiz. function (ELF)
   LORBIT       =      0    0 simple, 1 ext, 2 COOP (PROOUT), +10 PAW based schemes


 Dipole corrections
   LMONO  =      F    monopole corrections only (constant potential shift)
   LDIPOL =      F    correct potential (dipole corrections)
   IDIPOL =      0    1-x, 2-y, 3-z, 4-all directions 
   EPSILON=  1.0000000 bulk dielectric constant

 Exchange correlation treatment:
   GGA     =    --    GGA type
   LEXCH   =     8    internal setting for exchange type
   VOSKOWN=      0    Vosko Wilk Nusair interpolation
   LHFCALC =     F    Hartree Fock is set to
   LHFONE  =     F    Hartree Fock one center treatment
   AEXX    =    0.0000 exact exchange contribution

 Linear response parameters
   LEPSILON=     F    determine dielectric tensor
   LRPA    =     F    only Hartree local field effects (RPA)
   LNABLA  =     F    use nabla operator in PAW spheres
   LVEL    =     F    velocity operator in full k-point grid
   LINTERFAST=   F  fast interpolation
   KINTER  =     0    interpolate to denser k-point grid
   CSHIFT  =0.1000    complex shift for real part using Kramers Kronig
   OMEGAMAX=  -1.0    maximum frequency
   DEG_THRESHOLD= 0.2000000E-02 threshold for treating states as degnerate
   RTIME   =   -0.100 relaxation time in fs
  (WPLASMAI=    0.000 imaginary part of plasma frequency in eV, 0.658/RTIME)
   DFIELD  = 0.0000000 0.0000000 0.0000000 field for delta impulse in time
 
 Orbital magnetization related:
   ORBITALMAG=     F  switch on orbital magnetization
   LCHIMAG   =     F  perturbation theory with respect to B field
   DQ        =  0.001000  dq finite difference perturbation B field
   LLRAUG    =     F  two centre corrections for induced B field



--------------------------------------------------------------------------------------------------------


 Static calculation
 charge density and potential will be updated during run
 non-spin polarized calculation
 Variant of blocked Davidson
 Davidson routine will perform the subspace rotation
 perform sub-space diagonalisation
    after iterative eigenvector-optimisation
 modified Broyden-mixing scheme, WC =      100.0
 initial mixing is a Kerker type mixing with AMIX =  0.4000 and BMIX =      1.0000
 Hartree-type preconditioning will be used
 using additional bands           84
 real space projection scheme for non local part
 use partial core corrections
 calculate Harris-corrections to forces 
   (improved forces if not selfconsistent)
 use gradient corrections 
 use of overlap-Matrix (Vanderbilt PP)
 Gauss-broadening in eV      SIGMA  =   0.20


--------------------------------------------------------------------------------------------------------


  energy-cutoff  :      450.00
  volume of cell :     2042.85
      direct lattice vectors                 reciprocal lattice vectors
    10.403353751 -4.789205000  0.000000000     0.096122849  0.000000000  0.000000000
     0.000000000  9.578410000  0.000000000     0.048061424  0.104401461  0.000000000
     0.000000000  0.000000000 20.500762856     0.000000000  0.000000000  0.048778673

  length of vectors
    11.452783670  9.578410000 20.500762856     0.096122849  0.114932874  0.048778673


 
 k-points in units of 2pi/SCALE and weight: gamma-point-only calculation. no periodi
   0.00000000  0.00000000  0.00000000       1.000
 
 k-points in reciprocal lattice and weights: gamma-point-only calculation. no periodi
   0.00000000  0.00000000  0.00000000       1.000
 
 position of ions in fractional coordinates (direct lattice) 
   0.58044680  0.07437514  0.34941513
   0.76256081  0.16543215  0.22731652
   0.39833278  0.98331813  0.47151374
   0.03518947  0.80174648  0.26801605
   0.21730349  0.89280348  0.14591744
   0.39941750  0.98386049  0.02381883
   0.67096144  0.61963246  0.51221327
   0.85307546  0.71068947  0.39011466
   0.12570412  0.34700380  0.43081420
   0.30781813  0.43806081  0.30871559
   0.48993215  0.52911781  0.18661698
   0.67204616  0.62017482  0.06451837
   0.23035801  0.03143375  0.40699537
   0.41247203  0.12249075  0.28489676
   0.59458604  0.21354776  0.16279815
   0.77670006  0.30460477  0.04069954
   0.04932872  0.94091910  0.08139907
   0.50298667  0.66774808  0.44769490
   0.68510069  0.75880508  0.32559629
   0.86721470  0.84986209  0.20349768
   0.13984337  0.48617642  0.24419722
   0.32195738  0.57723343  0.12209861
   0.50407140  0.66829044  0.00000000
   0.95772935  0.39511942  0.36629583
   0.39833278  0.24752413  0.47151374
   0.58044680  0.33858114  0.34941513
   0.76256081  0.42963815  0.22731652
   0.94467483  0.52069515  0.10521791
   0.03518947  0.06595248  0.26801605
   0.21730349  0.15700948  0.14591744
   0.39941750  0.24806649  0.02381883
   0.67096144  0.88383846  0.51221327
   0.85307546  0.97489547  0.39011466
   0.12570412  0.61120980  0.43081420
   0.30781813  0.70226681  0.30871559
   0.48993215  0.79332382  0.18661698
   0.18441112  0.17667530  0.48070540
   0.36652513  0.26773231  0.35860679
   0.54863915  0.35878931  0.23650818
   0.73075316  0.44984632  0.11440957
   0.00338182  0.08616065  0.15510911
   0.18549584  0.17721766  0.03301050
   0.63915379  0.90404664  0.39930633
   0.82126781  0.99510365  0.27720772
   0.09389647  0.63141797  0.31790726
   0.27601049  0.72247498  0.19580864
   0.45812450  0.81353199  0.07371003
   0.91178246  0.54036097  0.44000587
   0.12675994  0.47963471  0.07446623
   0.58041790  0.20646369  0.44076206
   0.76253191  0.29752070  0.31866345
   0.94464593  0.38857770  0.19656484
   0.21727459  0.02489203  0.23726438
   0.39938860  0.11594904  0.11516577
   0.03516057  0.93383503  0.35936299
   0.85304656  0.84277802  0.48146160
   0.30778923  0.57014936  0.40006253
   0.48990325  0.66120636  0.27796392
   0.67201726  0.75226337  0.15586531
   0.85413128  0.84332038  0.03376670
   0.54863915  0.02235931  0.23650818
   0.73075316  0.11341632  0.11440957
   0.18441112  0.84024530  0.48070540
   0.36652513  0.93130231  0.35860679
   0.00338182  0.74973065  0.15510911
   0.18549584  0.84078766  0.03301050
   0.63915379  0.56761664  0.39930633
   0.82126781  0.65867365  0.27720772
   0.09389647  0.29498797  0.31790726
   0.27601049  0.38604498  0.19580864
   0.45812450  0.47710199  0.07371003
   0.91178246  0.20393097  0.44000587
 
 position of ions in cartesian coordinates  (Angst):
   6.03859335 -2.06748313  7.16327666
   7.93318988 -2.06748313  4.66016201
   4.14399683  7.51092687  9.66639131
   0.36608854  7.51092687  5.49453356
   2.26068506  7.51092687  2.99141892
   4.15528158  7.51092687  0.48830427
   6.98024924  2.72172187 10.50076286
   8.87484577  2.72172187  7.99764821
   1.30774443  2.72172187  8.83201975
   3.20234095  2.72172187  6.32890512
   5.09693747  2.72172187  3.82579047
   6.99153399  2.72172187  1.32267582
   2.39649589 -0.80214644  8.34371548
   4.29109241 -0.80214643  5.84060083
   6.18568894 -0.80214644  3.33748621
   8.08028546 -0.80214644  0.83437156
   0.51318411  8.77626357  1.66874309
   5.23274830  3.98705856  9.17808704
   7.12734482  3.98705857  6.67497239
   9.02194134  3.98705856  4.17185774
   1.45484001  3.98705856  5.00622930
   3.34943653  3.98705857  2.50311465
   5.24403305  3.98705856  0.00000000
   9.96359724 -0.80214643  7.50934395
   4.14399683  0.46319027  9.66639131
   6.03859335  0.46319026  7.16327666
   7.93318988  0.46319026  4.66016201
   9.82778641  0.46319027  2.15704736
   0.36608854  0.46319027  5.49453356
   2.26068506  0.46319026  2.99141892
   4.15528158  0.46319027  0.48830427
   6.98024924  5.25239527 10.50076286
   8.87484577  5.25239526  7.99764821
   1.30774443  5.25239526  8.83201975
   3.20234095  5.25239527  6.32890512
   5.09693747  5.25239526  3.82579047
   1.91849409  0.80908581  9.85482745
   3.81309061  0.80908580  7.35171280
   5.70768713  0.80908581  4.84859815
   7.60228365  0.80908580  2.34548350
   0.03518231  0.80908580  3.17985506
   1.92977883  0.80908581  0.67674041
   6.64934302  5.59829080  8.18608436
   8.54393954  5.59829081  5.68296971
   0.97683819  5.59829080  6.51734124
   2.87143471  5.59829081  4.01422660
   4.76603125  5.59829080  1.51111195
   9.48559542  0.80908581  9.02045589
   1.31872851  3.98705857  1.52661458
   6.03829270 -0.80214644  9.03595853
   7.93288922 -0.80214643  6.53284388
   9.82748574 -0.80214644  4.02972923
   2.26038440 -0.80214644  4.86410077
   4.15498092 -0.80214643  2.36098612
   0.36578788  8.77626356  7.36721542
   8.87454510  3.98705857  9.87033007
   3.20204028  3.98705856  8.20158697
   5.09663680  3.98705857  5.69847232
   6.99123332  3.98705856  3.19535768
   8.88582985  3.98705857  0.69224303
   5.70768713 -2.41337867  4.84859815
   7.60228365 -2.41337867  2.34548350
   1.91849409  7.16503133  9.85482745
   3.81309061  7.16503133  7.35171280
   0.03518231  7.16503133  3.17985506
   1.92977883  7.16503133  0.67674041
   6.64934302  2.37582633  8.18608436
   8.54393954  2.37582633  5.68296971
   0.97683819  2.37582633  6.51734124
   2.87143471  2.37582633  4.01422660
   4.76603125  2.37582632  1.51111195
   9.48559542 -2.41337867  9.02045589
 


--------------------------------------------------------------------------------------------------------


 use parallel FFT for orbitals z direction half grid
 k-point   1 :   0.0000 0.0000 0.0000  plane waves:   22147

 maximum and minimum number of plane-waves per node :      3693     3689

 maximum number of plane-waves:     22147
 maximum index in each direction: 
   IXMAX=   19   IYMAX=   16   IZMAX=   35
   IXMIN=  -19   IYMIN=  -16   IZMIN=    0


 real space projection operators:
  total allocation   :      11039.77 KBytes
  max/ min on nodes  :       1847.02       1831.66


 parallel 3D FFT for wavefunctions:
    minimum data exchange during FFTs selected (reduces bandwidth)
 parallel 3D FFT for charge:
    minimum data exchange during FFTs selected (reduces bandwidth)


 total amount of memory used by VASP MPI-rank0    45103. kBytes
=======================================================================

   base      :      30000. kBytes
   nonlr-proj:       2268. kBytes
   fftplans  :       3298. kBytes
   grid      :       5820. kBytes
   one-center:         93. kBytes
   wavefun   :       3624. kBytes
 
     INWAV:  cpu time    0.0000: real time    0.0000
 Broyden mixing: mesh for mixing (old mesh)
   NGX = 39   NGY = 33   NGZ = 71
  (NGX  =120   NGY  =100   NGZ  =216)
  gives a total of  91377 points

 initial charge density was supplied:
 charge density of overlapping atoms calculated
 number of electron     792.0000000 magnetization 
 keeping initial charge density in first step


--------------------------------------------------------------------------------------------------------


 Maximum index for non-local projection operator          299
 Maximum index for augmentation-charges          328 (set IRDMAX)


--------------------------------------------------------------------------------------------------------


 First call to EWALD:  gamma=   0.140
 Maximum number of real-space cells 3x 4x 2
 Maximum number of reciprocal cells 3x 2x 4

    FEWALD:  cpu time    0.0029: real time    0.0029


--------------------------------------- Iteration      1(   1)  ---------------------------------------


    POTLOK:  cpu time    0.0532: real time    0.0564
    SETDIJ:  cpu time    0.0052: real time    0.0070
     EDDAV:  cpu time    2.2573: real time    2.2652
       DOS:  cpu time    0.0009: real time    0.0009
    --------------------------------------------
      LOOP:  cpu time    2.3166: real time    2.3295

 eigenvalue-minimisations  :  1184
 total energy-change (2. order) : 0.9582133E+04  (-0.5077854E+05)
 number of electron     792.0000000 magnetization 
 augmentation part      792.0000000 magnetization 

 Free energy of the ion-electron system (eV)
  ---------------------------------------------------
  alpha Z        PSCENC =      1820.93486007
  Ewald energy   TEWEN  =    163831.58398477
  -Hartree energ DENC   =   -286149.01501636
  -exchange      EXHF   =         0.00000000
  -V(xc)+E(xc)   XCENC  =      3649.43517705
  PAW double counting   =    112729.53333415  -117641.51188735
  entropy T*S    EENTRO =        -0.43020403
  eigenvalues    EBANDS =     -4661.00203711
  atomic energy  EATOM  =    136002.60505376
  Solvation  Ediel_sol  =         0.00000000
  ---------------------------------------------------
  free energy    TOTEN  =      9582.13326494 eV

  energy without entropy =     9582.56346897  energy(sigma->0) =     9582.34836696


--------------------------------------------------------------------------------------------------------




--------------------------------------- Iteration      1(   2)  ---------------------------------------


     EDDAV:  cpu time    1.9679: real time    1.9764
       DOS:  cpu time    0.0006: real time    0.0006
    --------------------------------------------
      LOOP:  cpu time    1.9685: real time    1.9770

 eigenvalue-minimisations  :  1016
 total energy-change (2. order) :-0.8992595E+04  (-0.8671672E+04)
 number of electron     792.0000000 magnetization 
 augmentation part      792.0000000 magnetization 

 Free energy of the ion-electron system (eV)
  ---------------------------------------------------
  alpha Z        PSCENC =      1820.93486007
  Ewald energy   TEWEN  =    163831.58398477
  -Hartree energ DENC   =   -286149.01501636
  -exchange      EXHF   =         0.00000000
  -V(xc)+E(xc)   XCENC  =      3649.43517705
  PAW double counting   =    112729.53333415  -117641.51188735
  entropy T*S    EENTRO =        -0.84013322
  eigenvalues    EBANDS =    -13653.18687260
  atomic energy  EATOM  =    136002.60505376
  Solvation  Ediel_sol  =         0.00000000
  ---------------------------------------------------
  free energy    TOTEN  =       589.53850026 eV

  energy without entropy =      590.37863349  energy(sigma->0) =      589.95856688


--------------------------------------------------------------------------------------------------------




--------------------------------------- Iteration      1(   3)  ---------------------------------------


     EDDAV:  cpu time    2.1140: real time    2.1195
       DOS:  cpu time    0.0006: real time    0.0006
    --------------------------------------------
      LOOP:  cpu time    2.1146: real time    2.1201

 eigenvalue-minimisations  :  1112
 total energy-change (2. order) :-0.9310640E+03  (-0.8773044E+03)
 number of electron     792.0000000 magnetization 
 augmentation part      792.0000000 magnetization 

 Free energy of the ion-electron system (eV)
  ---------------------------------------------------
  alpha Z        PSCENC =      1820.93486007
  Ewald energy   TEWEN  =    163831.58398477
  -Hartree energ DENC   =   -286149.01501636
  -exchange      EXHF   =         0.00000000
  -V(xc)+E(xc)   XCENC  =      3649.43517705
  PAW double counting   =    112729.53333415  -117641.51188735
  entropy T*S    EENTRO =        -1.32620493
  eigenvalues    EBANDS =    -14583.76485018
  atomic energy  EATOM  =    136002.60505376
  Solvation  Ediel_sol  =         0.00000000
  ---------------------------------------------------
  free energy    TOTEN  =      -341.52554903 eV

  energy without entropy =     -340.19934410  energy(sigma->0) =     -340.86244656


--------------------------------------------------------------------------------------------------------




--------------------------------------- Iteration      1(   4)  ---------------------------------------


     EDDAV:  cpu time    2.1512: real time    2.1587
       DOS:  cpu time    0.0006: real time    0.0006
    --------------------------------------------
      LOOP:  cpu time    2.1518: real time    2.1592

 eigenvalue-minimisations  :  1112
 total energy-change (2. order) :-0.5923982E+02  (-0.5845719E+02)
 number of electron     792.0000000 magnetization 
 augmentation part      792.0000000 magnetization 

 Free energy of the ion-electron system (eV)
  ---------------------------------------------------
  alpha Z        PSCENC =      1820.93486007
  Ewald energy   TEWEN  =    163831.58398477
  -Hartree energ DENC   =   -286149.01501636
  -exchange      EXHF   =         0.00000000
  -V(xc)+E(xc)   XCENC  =      3649.43517705
  PAW double counting   =    112729.53333415  -117641.51188735
  entropy T*S    EENTRO =        -1.40200455
  eigenvalues    EBANDS =    -14642.92886558
  atomic energy  EATOM  =    136002.60505376
  Solvation  Ediel_sol  =         0.00000000
  ---------------------------------------------------
  free energy    TOTEN  =      -400.76536405 eV

  energy without entropy =     -399.36335950  energy(sigma->0) =     -400.06436177


--------------------------------------------------------------------------------------------------------




--------------------------------------- Iteration      1(   5)  ---------------------------------------


     EDDAV:  cpu time    2.2838: real time    2.2913
       DOS:  cpu time    0.0006: real time    0.0006
    CHARGE:  cpu time    0.0445: real time    0.0446
    MIXING:  cpu time    0.0028: real time    0.0030
    --------------------------------------------
      LOOP:  cpu time    2.3317: real time    2.3396

 eigenvalue-minimisations  :  1232
 total energy-change (2. order) :-0.2266083E+01  (-0.2262962E+01)
 number of electron     792.0000129 magnetization 
 augmentation part      285.9078831 magnetization 

 Broyden mixing:
  rms(total) = 0.82295E+01    rms(broyden)= 0.82133E+01
  rms(prec ) = 0.86676E+01
  weight for this iteration     100.00

 Free energy of the ion-electron system (eV)
  ---------------------------------------------------
  alpha Z        PSCENC =      1820.93486007
  Ewald energy   TEWEN  =    163831.58398477
  -Hartree energ DENC   =   -286149.01501636
  -exchange      EXHF   =         0.00000000
  -V(xc)+E(xc)   XCENC  =      3649.43517705
  PAW double counting   =    112729.53333415  -117641.51188735
  entropy T*S    EENTRO =        -1.40179947
  eigenvalues    EBANDS =    -14645.19515387
  atomic energy  EATOM  =    136002.60505376
  Solvation  Ediel_sol  =         0.00000000
  ---------------------------------------------------
  free energy    TOTEN  =      -403.03144725 eV

  energy without entropy =     -401.62964779  energy(sigma->0) =     -402.33054752


--------------------------------------------------------------------------------------------------------




--------------------------------------- Iteration      1(   6)  ---------------------------------------


    POTLOK:  cpu time    0.0475: real time    0.0476
    SETDIJ:  cpu time    0.0046: real time    0.0065
     EDDAV:  cpu time    2.1831: real time    2.1883
       DOS:  cpu time    0.0006: real time    0.0006
    CHARGE:  cpu time    0.0385: real time    0.0386
    MIXING:  cpu time    0.0023: real time    0.0023
    --------------------------------------------
      LOOP:  cpu time    2.2766: real time    2.2839

 eigenvalue-minimisations  :  1152
 total energy-change (2. order) :-0.9194309E+02  (-0.9906316E+02)
 number of electron     792.0000114 magnetization 
 augmentation part      354.4120002 magnetization 

 Broyden mixing:
  rms(total) = 0.16269E+02    rms(broyden)= 0.16266E+02
  rms(prec ) = 0.16933E+02
  weight for this iteration     100.00

 eigenvalues of (default mixing * dielectric matrix)
  average eigenvalue GAMMA=   0.2188
  0.2188

 Free energy of the ion-electron system (eV)
  ---------------------------------------------------
  alpha Z        PSCENC =      1820.93486007
  Ewald energy   TEWEN  =    163831.58398477
  -Hartree energ DENC   =   -283407.92830135
  -exchange      EXHF   =         0.00000000
  -V(xc)+E(xc)   XCENC  =      3571.86508638
  PAW double counting   =    114353.16660710  -119023.32132335
  entropy T*S    EENTRO =        -0.88302382
  eigenvalues    EBANDS =    -17642.99747590
  atomic energy  EATOM  =    136002.60505376
  Solvation  Ediel_sol  =         0.00000000
  ---------------------------------------------------
  free energy    TOTEN  =      -494.97453235 eV

  energy without entropy =     -494.09150854  energy(sigma->0) =     -494.53302045


--------------------------------------------------------------------------------------------------------




--------------------------------------- Iteration      1(   7)  ---------------------------------------


    POTLOK:  cpu time    0.0470: real time    0.0471
    SETDIJ:  cpu time    0.0050: real time    0.0050
     EDDAV:  cpu time    2.1608: real time    2.1675
       DOS:  cpu time    0.0041: real time    0.0042
    CHARGE:  cpu time    0.0442: real time    0.0445
    MIXING:  cpu time    0.0041: real time    0.0041
    --------------------------------------------
      LOOP:  cpu time    2.2651: real time    2.2722

 eigenvalue-minimisations  :  1136
 total energy-change (2. order) : 0.1210835E+03  (-0.1750294E+02)
 number of electron     792.0000113 magnetization 
 augmentation part      332.9438389 magnetization 

 Broyden mixing:
  rms(total) = 0.65391E+01    rms(broyden)= 0.65379E+01
  rms(prec ) = 0.68832E+01
  weight for this iteration     100.00

 eigenvalues of (default mixing * dielectric matrix)
  average eigenvalue GAMMA=   0.5085
  0.5085  0.5085

 Free energy of the ion-electron system (eV)
  ---------------------------------------------------
  alpha Z        PSCENC =      1820.93486007
  Ewald energy   TEWEN  =    163831.58398477
  -Hartree energ DENC   =   -284634.02718853
  -exchange      EXHF   =         0.00000000
  -V(xc)+E(xc)   XCENC  =      3601.30819734
  PAW double counting   =    118437.07111599  -123252.42251839
  entropy T*S    EENTRO =        -0.94441500
  eigenvalues    EBANDS =    -16180.00014923
  atomic energy  EATOM  =    136002.60505376
  Solvation  Ediel_sol  =         0.00000000
  ---------------------------------------------------
  free energy    TOTEN  =      -373.89105922 eV

  energy without entropy =     -372.94664422  energy(sigma->0) =     -373.41885172


--------------------------------------------------------------------------------------------------------




--------------------------------------- Iteration      1(   8)  ---------------------------------------


    POTLOK:  cpu time    0.0530: real time    0.0552
    SETDIJ:  cpu time    0.0052: real time    0.0070
     EDDAV:  cpu time    2.4642: real time    2.4701
       DOS:  cpu time    0.0007: real time    0.0007
    CHARGE:  cpu time    0.0392: real time    0.0393
    MIXING:  cpu time    0.0020: real time    0.0020
    --------------------------------------------
      LOOP:  cpu time    2.5642: real time    2.5742

 eigenvalue-minimisations  :  1336
 total energy-change (2. order) :-0.5977880E+02  (-0.1702489E+02)
 number of electron     792.0000083 magnetization 
 augmentation part      304.4350271 magnetization 

 Broyden mixing:
  rms(total) = 0.15876E+02    rms(broyden)= 0.15873E+02
  rms(prec ) = 0.19975E+02
  weight for this iteration     100.00

 eigenvalues of (default mixing * dielectric matrix)
  average eigenvalue GAMMA=   0.3880
  0.6113  0.4726  0.0799

 Free energy of the ion-electron system (eV)
  ---------------------------------------------------
  alpha Z        PSCENC =      1820.93486007
  Ewald energy   TEWEN  =    163831.58398477
  -Hartree energ DENC   =   -285239.90965253
  -exchange      EXHF   =         0.00000000
  -V(xc)+E(xc)   XCENC  =      3623.18451586
  PAW double counting   =    123815.57437744  -128738.68151631
  entropy T*S    EENTRO =        -0.80472344
  eigenvalues    EBANDS =    -15548.15676145
  atomic energy  EATOM  =    136002.60505376
  Solvation  Ediel_sol  =         0.00000000
  ---------------------------------------------------
  free energy    TOTEN  =      -433.66986184 eV

  energy without entropy =     -432.86513840  energy(sigma->0) =     -433.26750012


--------------------------------------------------------------------------------------------------------




--------------------------------------- Iteration      1(   9)  ---------------------------------------


    POTLOK:  cpu time    0.0474: real time    0.0489
    SETDIJ:  cpu time    0.0064: real time    0.0065
     EDDAV:  cpu time    2.2311: real time    2.2364
       DOS:  cpu time    0.0006: real time    0.0006
    CHARGE:  cpu time    0.0390: real time    0.0391
    MIXING:  cpu time    0.0020: real time    0.0020
    --------------------------------------------
      LOOP:  cpu time    2.3265: real time    2.3334

 eigenvalue-minimisations  :  1184
 total energy-change (2. order) : 0.5908000E+02  (-0.1452022E+02)
 number of electron     792.0000070 magnetization 
 augmentation part      307.6173751 magnetization 

 Broyden mixing:
  rms(total) = 0.70729E+01    rms(broyden)= 0.70648E+01
  rms(prec ) = 0.79115E+01
  weight for this iteration     100.00

 eigenvalues of (default mixing * dielectric matrix)
  average eigenvalue GAMMA=   0.3900
  0.8778  0.3623  0.2509  0.0688

 Free energy of the ion-electron system (eV)
  ---------------------------------------------------
  alpha Z        PSCENC =      1820.93486007
  Ewald energy   TEWEN  =    163831.58398477
  -Hartree energ DENC   =   -285385.29036581
  -exchange      EXHF   =         0.00000000
  -V(xc)+E(xc)   XCENC  =      3623.39887626
  PAW double counting   =    124899.21854360  -129833.40880875
  entropy T*S    EENTRO =        -1.21308472
  eigenvalues    EBANDS =    -15332.41892187
  atomic energy  EATOM  =    136002.60505376
  Solvation  Ediel_sol  =         0.00000000
  ---------------------------------------------------
  free energy    TOTEN  =      -374.58986269 eV

  energy without entropy =     -373.37677797  energy(sigma->0) =     -373.98332033


--------------------------------------------------------------------------------------------------------




--------------------------------------- Iteration      1(  10)  ---------------------------------------


    POTLOK:  cpu time    0.0462: real time    0.0464
    SETDIJ:  cpu time    0.0049: real time    0.0049
     EDDAV:  cpu time    2.4491: real time    2.4550
       DOS:  cpu time    0.0006: real time    0.0006
    CHARGE:  cpu time    0.0387: real time    0.0388
    MIXING:  cpu time    0.0021: real time    0.0021
    --------------------------------------------
      LOOP:  cpu time    2.5417: real time    2.5479

 eigenvalue-minimisations  :  1328
 total energy-change (2. order) : 0.3855395E+01  (-0.8594991E+01)
 number of electron     792.0000158 magnetization 
 augmentation part      307.6877094 magnetization 

 Broyden mixing:
  rms(total) = 0.55379E+01    rms(broyden)= 0.55321E+01
  rms(prec ) = 0.60943E+01
  weight for this iteration     100.00

 eigenvalues of (default mixing * dielectric matrix)
  average eigenvalue GAMMA=   0.4804
  1.4319  0.3861  0.3861  0.1223  0.0755

 Free energy of the ion-electron system (eV)
  ---------------------------------------------------
  alpha Z        PSCENC =      1820.93486007
  Ewald energy   TEWEN  =    163831.58398477
  -Hartree energ DENC   =   -285417.80675805
  -exchange      EXHF   =         0.00000000
  -V(xc)+E(xc)   XCENC  =      3622.86004499
  PAW double counting   =    126488.53436710  -131437.00641124
  entropy T*S    EENTRO =        -1.25755108
  eigenvalues    EBANDS =    -15281.18205756
  atomic energy  EATOM  =    136002.60505376
  Solvation  Ediel_sol  =         0.00000000
  ---------------------------------------------------
  free energy    TOTEN  =      -370.73446724 eV

  energy without entropy =     -369.47691616  energy(sigma->0) =     -370.10569170


--------------------------------------------------------------------------------------------------------




--------------------------------------- Iteration      1(  11)  ---------------------------------------


    POTLOK:  cpu time    0.0470: real time    0.0471
    SETDIJ:  cpu time    0.0049: real time    0.0049
     EDDAV:  cpu time    2.3978: real time    2.4047
       DOS:  cpu time    0.0007: real time    0.0007
    CHARGE:  cpu time    0.0386: real time    0.0387
    MIXING:  cpu time    0.0024: real time    0.0024
    --------------------------------------------
      LOOP:  cpu time    2.4914: real time    2.4985

 eigenvalue-minimisations  :  1288
 total energy-change (2. order) :-0.3572137E+01  (-0.4353372E+01)
 number of electron     792.0000094 magnetization 
 augmentation part      309.3949845 magnetization 

 Broyden mixing:
  rms(total) = 0.75636E+01    rms(broyden)= 0.75618E+01
  rms(prec ) = 0.87262E+01
  weight for this iteration     100.00

 eigenvalues of (default mixing * dielectric matrix)
  average eigenvalue GAMMA=   0.4949
  1.8227  0.4100  0.4100  0.1280  0.1280  0.0706

 Free energy of the ion-electron system (eV)
  ---------------------------------------------------
  alpha Z        PSCENC =      1820.93486007
  Ewald energy   TEWEN  =    163831.58398477
  -Hartree energ DENC   =   -285387.59076615
  -exchange      EXHF   =         0.00000000
  -V(xc)+E(xc)   XCENC  =      3621.06232572
  PAW double counting   =    129095.86768581  -134064.24176471
  entropy T*S    EENTRO =        -0.92672721
  eigenvalues    EBANDS =    -15293.60125593
  atomic energy  EATOM  =    136002.60505376
  Solvation  Ediel_sol  =         0.00000000
  ---------------------------------------------------
  free energy    TOTEN  =      -374.30660389 eV

  energy without entropy =     -373.37987668  energy(sigma->0) =     -373.84324029


--------------------------------------------------------------------------------------------------------




--------------------------------------- Iteration      1(  12)  ---------------------------------------


    POTLOK:  cpu time    0.0467: real time    0.0484
    SETDIJ:  cpu time    0.0048: real time    0.0067
     EDDAV:  cpu time    2.4291: real time    2.4349
       DOS:  cpu time    0.0005: real time    0.0005
    CHARGE:  cpu time    0.0393: real time    0.0393
    MIXING:  cpu time    0.0022: real time    0.0022
    --------------------------------------------
      LOOP:  cpu time    2.5225: real time    2.5320

 eigenvalue-minimisations  :  1312
 total energy-change (2. order) : 0.1433025E+02  (-0.1342363E+01)
 number of electron     792.0000135 magnetization 
 augmentation part      312.4870364 magnetization 

 Broyden mixing:
  rms(total) = 0.30481E+01    rms(broyden)= 0.30470E+01
  rms(prec ) = 0.35329E+01
  weight for this iteration     100.00

 eigenvalues of (default mixing * dielectric matrix)
  average eigenvalue GAMMA=   0.4735
  1.8316  0.4134  0.4134  0.3379  0.0717  0.1231  0.1231

 Free energy of the ion-electron system (eV)
  ---------------------------------------------------
  alpha Z        PSCENC =      1820.93486007
  Ewald energy   TEWEN  =    163831.58398477
  -Hartree energ DENC   =   -285371.50090567
  -exchange      EXHF   =         0.00000000
  -V(xc)+E(xc)   XCENC  =      3619.35096815
  PAW double counting   =    130762.64685770  -135741.78600437
  entropy T*S    EENTRO =        -1.04568428
  eigenvalues    EBANDS =    -15282.76548166
  atomic energy  EATOM  =    136002.60505376
  Solvation  Ediel_sol  =         0.00000000
  ---------------------------------------------------
  free energy    TOTEN  =      -359.97635154 eV

  energy without entropy =     -358.93066726  energy(sigma->0) =     -359.45350940


--------------------------------------------------------------------------------------------------------




--------------------------------------- Iteration      1(  13)  ---------------------------------------


    POTLOK:  cpu time    0.0472: real time    0.0473
    SETDIJ:  cpu time    0.0048: real time    0.0048
     EDDAV:  cpu time    2.4251: real time    2.4336
       DOS:  cpu time    0.0007: real time    0.0007
    CHARGE:  cpu time    0.0396: real time    0.0397
    MIXING:  cpu time    0.0026: real time    0.0026
    --------------------------------------------
      LOOP:  cpu time    2.5199: real time    2.5287

 eigenvalue-minimisations  :  1288
 total energy-change (2. order) :-0.5709714E+01  (-0.1636722E+01)
 number of electron     792.0000129 magnetization 
 augmentation part      309.4412988 magnetization 

 Broyden mixing:
  rms(total) = 0.82846E+01    rms(broyden)= 0.82830E+01
  rms(prec ) = 0.97244E+01
  weight for this iteration     100.00

 eigenvalues of (default mixing * dielectric matrix)
  average eigenvalue GAMMA=   0.4563
  1.9160  0.4759  0.4367  0.4367  0.1365  0.0713  0.0886  0.0886

 Free energy of the ion-electron system (eV)
  ---------------------------------------------------
  alpha Z        PSCENC =      1820.93486007
  Ewald energy   TEWEN  =    163831.58398477
  -Hartree energ DENC   =   -285341.94014443
  -exchange      EXHF   =         0.00000000
  -V(xc)+E(xc)   XCENC  =      3620.37831393
  PAW double counting   =    130965.21115982  -135949.91290283
  entropy T*S    EENTRO =        -1.26175131
  eigenvalues    EBANDS =    -15313.28463936
  atomic energy  EATOM  =    136002.60505376
  Solvation  Ediel_sol  =         0.00000000
  ---------------------------------------------------
  free energy    TOTEN  =      -365.68606559 eV

  energy without entropy =     -364.42431428  energy(sigma->0) =     -365.05518993


--------------------------------------------------------------------------------------------------------




--------------------------------------- Iteration      1(  14)  ---------------------------------------


    POTLOK:  cpu time    0.0473: real time    0.0494
    SETDIJ:  cpu time    0.0043: real time    0.0061
     EDDAV:  cpu time    2.4062: real time    2.4120
       DOS:  cpu time    0.0007: real time    0.0007
    CHARGE:  cpu time    0.0392: real time    0.0393
    MIXING:  cpu time    0.0025: real time    0.0025
    --------------------------------------------
      LOOP:  cpu time    2.5002: real time    2.5100

 eigenvalue-minimisations  :  1296
 total energy-change (2. order) : 0.6357326E+01  (-0.2019256E+01)
 number of electron     792.0000132 magnetization 
 augmentation part      312.8979453 magnetization 

 Broyden mixing:
  rms(total) = 0.30906E+01    rms(broyden)= 0.30882E+01
  rms(prec ) = 0.35490E+01
  weight for this iteration     100.00

 eigenvalues of (default mixing * dielectric matrix)
  average eigenvalue GAMMA=   0.4396
  1.9419  0.5250  0.4548  0.4548  0.1915  0.1270  0.1270  0.0725  0.0619

 Free energy of the ion-electron system (eV)
  ---------------------------------------------------
  alpha Z        PSCENC =      1820.93486007
  Ewald energy   TEWEN  =    163831.58398477
  -Hartree energ DENC   =   -285370.86012079
  -exchange      EXHF   =         0.00000000
  -V(xc)+E(xc)   XCENC  =      3619.56372779
  PAW double counting   =    131326.55971135  -136312.66186063
  entropy T*S    EENTRO =        -1.03968865
  eigenvalues    EBANDS =    -15276.01440680
  atomic energy  EATOM  =    136002.60505376
  Solvation  Ediel_sol  =         0.00000000
  ---------------------------------------------------
  free energy    TOTEN  =      -359.32873914 eV

  energy without entropy =     -358.28905049  energy(sigma->0) =     -358.80889482


--------------------------------------------------------------------------------------------------------




--------------------------------------- Iteration      1(  15)  ---------------------------------------


    POTLOK:  cpu time    0.0474: real time    0.0475
    SETDIJ:  cpu time    0.0048: real time    0.0048
     EDDAV:  cpu time    2.2950: real time    2.3004
       DOS:  cpu time    0.0006: real time    0.0006
    CHARGE:  cpu time    0.0391: real time    0.0392
    MIXING:  cpu time    0.0026: real time    0.0026
    --------------------------------------------
      LOOP:  cpu time    2.3894: real time    2.3951

 eigenvalue-minimisations  :  1224
 total energy-change (2. order) : 0.2922981E+01  (-0.6917536E+00)
 number of electron     792.0000131 magnetization 
 augmentation part      313.0143930 magnetization 

 Broyden mixing:
  rms(total) = 0.22998E+01    rms(broyden)= 0.22963E+01
  rms(prec ) = 0.25948E+01
  weight for this iteration     100.00

 eigenvalues of (default mixing * dielectric matrix)
  average eigenvalue GAMMA=   0.4446
  1.9341  0.5947  0.5947  0.4036  0.4036  0.1345  0.1345  0.1064  0.0736  0.0657

 Free energy of the ion-electron system (eV)
  ---------------------------------------------------
  alpha Z        PSCENC =      1820.93486007
  Ewald energy   TEWEN  =    163831.58398477
  -Hartree energ DENC   =   -285360.15539149
  -exchange      EXHF   =         0.00000000
  -V(xc)+E(xc)   XCENC  =      3619.75057206
  PAW double counting   =    131351.18635380  -136338.66136922
  entropy T*S    EENTRO =        -0.96010428
  eigenvalues    EBANDS =    -15282.68971786
  atomic energy  EATOM  =    136002.60505376
  Solvation  Ediel_sol  =         0.00000000
  ---------------------------------------------------
  free energy    TOTEN  =      -356.40575840 eV

  energy without entropy =     -355.44565412  energy(sigma->0) =     -355.92570626


--------------------------------------------------------------------------------------------------------




--------------------------------------- Iteration      1(  16)  ---------------------------------------


    POTLOK:  cpu time    0.0472: real time    0.0473
    SETDIJ:  cpu time    0.0050: real time    0.0050
     EDDAV:  cpu time    2.3073: real time    2.3128
       DOS:  cpu time    0.0011: real time    0.0011
    CHARGE:  cpu time    0.0391: real time    0.0392
    MIXING:  cpu time    0.0027: real time    0.0027
    --------------------------------------------
      LOOP:  cpu time    2.4024: real time    2.4081

 eigenvalue-minimisations  :  1232
 total energy-change (2. order) : 0.8257604E+00  (-0.3880880E+00)
 number of electron     792.0000128 magnetization 
 augmentation part      312.5300015 magnetization 

 Broyden mixing:
  rms(total) = 0.21647E+01    rms(broyden)= 0.21632E+01
  rms(prec ) = 0.24990E+01
  weight for this iteration     100.00

 eigenvalues of (default mixing * dielectric matrix)
  average eigenvalue GAMMA=   0.4376
  1.9385  0.7036  0.7036  0.4076  0.4076  0.1461  0.1461  0.1112  0.1112  0.0730
  0.0646

 Free energy of the ion-electron system (eV)
  ---------------------------------------------------
  alpha Z        PSCENC =      1820.93486007
  Ewald energy   TEWEN  =    163831.58398477
  -Hartree energ DENC   =   -285387.12126113
  -exchange      EXHF   =         0.00000000
  -V(xc)+E(xc)   XCENC  =      3619.97179558
  PAW double counting   =    131216.50799503  -136202.56564477
  entropy T*S    EENTRO =        -0.99834332
  eigenvalues    EBANDS =    -15256.49843800
  atomic energy  EATOM  =    136002.60505376
  Solvation  Ediel_sol  =         0.00000000
  ---------------------------------------------------
  free energy    TOTEN  =      -355.57999803 eV

  energy without entropy =     -354.58165471  energy(sigma->0) =     -355.08082637


--------------------------------------------------------------------------------------------------------




--------------------------------------- Iteration      1(  17)  ---------------------------------------


    POTLOK:  cpu time    0.0471: real time    0.0472
    SETDIJ:  cpu time    0.0049: real time    0.0049
     EDDAV:  cpu time    2.4186: real time    2.4244
       DOS:  cpu time    0.0006: real time    0.0006
    CHARGE:  cpu time    0.0391: real time    0.0392
    MIXING:  cpu time    0.0028: real time    0.0028
    --------------------------------------------
      LOOP:  cpu time    2.5131: real time    2.5191

 eigenvalue-minimisations  :  1304
 total energy-change (2. order) : 0.1480574E+01  (-0.1861807E+00)
 number of electron     792.0000125 magnetization 
 augmentation part      312.4223350 magnetization 

 Broyden mixing:
  rms(total) = 0.16417E+01    rms(broyden)= 0.16407E+01
  rms(prec ) = 0.18984E+01
  weight for this iteration     100.00

 eigenvalues of (default mixing * dielectric matrix)
  average eigenvalue GAMMA=   0.4524
  1.9580  0.8126  0.8126  0.4148  0.4148  0.3652  0.1506  0.1267  0.1267  0.1087
  0.0732  0.0650

 Free energy of the ion-electron system (eV)
  ---------------------------------------------------
  alpha Z        PSCENC =      1820.93486007
  Ewald energy   TEWEN  =    163831.58398477
  -Hartree energ DENC   =   -285396.41590429
  -exchange      EXHF   =         0.00000000
  -V(xc)+E(xc)   XCENC  =      3620.21264818
  PAW double counting   =    131151.80835613  -136137.39591880
  entropy T*S    EENTRO =        -0.97503857
  eigenvalues    EBANDS =    -15246.45746521
  atomic energy  EATOM  =    136002.60505376
  Solvation  Ediel_sol  =         0.00000000
  ---------------------------------------------------
  free energy    TOTEN  =      -354.09942398 eV

  energy without entropy =     -353.12438541  energy(sigma->0) =     -353.61190469


--------------------------------------------------------------------------------------------------------




--------------------------------------- Iteration      1(  18)  ---------------------------------------


    POTLOK:  cpu time    0.0470: real time    0.0471
    SETDIJ:  cpu time    0.0049: real time    0.0049
     EDDAV:  cpu time    2.4954: real time    2.5030
       DOS:  cpu time    0.0006: real time    0.0006
    CHARGE:  cpu time    0.0388: real time    0.0389
    MIXING:  cpu time    0.0031: real time    0.0031
    --------------------------------------------
      LOOP:  cpu time    2.5898: real time    2.5976

 eigenvalue-minimisations  :  1352
 total energy-change (2. order) : 0.3188987E+00  (-0.1394640E+00)
 number of electron     792.0000130 magnetization 
 augmentation part      312.4299430 magnetization 

 Broyden mixing:
  rms(total) = 0.17745E+01    rms(broyden)= 0.17734E+01
  rms(prec ) = 0.20502E+01
  weight for this iteration     100.00

 eigenvalues of (default mixing * dielectric matrix)
  average eigenvalue GAMMA=   0.4591
  1.9782  0.9634  0.9634  0.4278  0.4278  0.4227  0.1705  0.1313  0.1313  0.0649
  0.0732  0.1069  0.1069

 Free energy of the ion-electron system (eV)
  ---------------------------------------------------
  alpha Z        PSCENC =      1820.93486007
  Ewald energy   TEWEN  =    163831.58398477
  -Hartree energ DENC   =   -285397.76334956
  -exchange      EXHF   =         0.00000000
  -V(xc)+E(xc)   XCENC  =      3620.24059712
  PAW double counting   =    131120.90974962  -136105.03820994
  entropy T*S    EENTRO =        -1.03669125
  eigenvalues    EBANDS =    -15246.21651988
  atomic energy  EATOM  =    136002.60505376
  Solvation  Ediel_sol  =         0.00000000
  ---------------------------------------------------
  free energy    TOTEN  =      -353.78052529 eV

  energy without entropy =     -352.74383404  energy(sigma->0) =     -353.26217966


--------------------------------------------------------------------------------------------------------




--------------------------------------- Iteration      1(  19)  ---------------------------------------


    POTLOK:  cpu time    0.0469: real time    0.0489
    SETDIJ:  cpu time    0.0048: real time    0.0066
     EDDAV:  cpu time    2.4316: real time    2.4374
       DOS:  cpu time    0.0007: real time    0.0007
    CHARGE:  cpu time    0.0390: real time    0.0391
    MIXING:  cpu time    0.0029: real time    0.0029
    --------------------------------------------
      LOOP:  cpu time    2.5259: real time    2.5356

 eigenvalue-minimisations  :  1312
 total energy-change (2. order) : 0.7674747E+00  (-0.1451763E+00)
 number of electron     792.0000129 magnetization 
 augmentation part      312.7735264 magnetization 

 Broyden mixing:
  rms(total) = 0.13118E+01    rms(broyden)= 0.13107E+01
  rms(prec ) = 0.15591E+01
  weight for this iteration     100.00

 eigenvalues of (default mixing * dielectric matrix)
  average eigenvalue GAMMA=   0.4769
  1.9591  1.1319  1.1319  0.4465  0.4465  0.4630  0.3355  0.1442  0.1442  0.0650
  0.0732  0.1163  0.1163  0.1025

 Free energy of the ion-electron system (eV)
  ---------------------------------------------------
  alpha Z        PSCENC =      1820.93486007
  Ewald energy   TEWEN  =    163831.58398477
  -Hartree energ DENC   =   -285398.36162407
  -exchange      EXHF   =         0.00000000
  -V(xc)+E(xc)   XCENC  =      3620.13156427
  PAW double counting   =    131072.40231375  -136054.57818846
  entropy T*S    EENTRO =        -1.01707429
  eigenvalues    EBANDS =    -15246.71394040
  atomic energy  EATOM  =    136002.60505376
  Solvation  Ediel_sol  =         0.00000000
  ---------------------------------------------------
  free energy    TOTEN  =      -353.01305061 eV

  energy without entropy =     -351.99597633  energy(sigma->0) =     -352.50451347


--------------------------------------------------------------------------------------------------------




--------------------------------------- Iteration      1(  20)  ---------------------------------------


    POTLOK:  cpu time    0.0473: real time    0.0475
    SETDIJ:  cpu time    0.0049: real time    0.0049
     EDDAV:  cpu time    2.4413: real time    2.4471
       DOS:  cpu time    0.0009: real time    0.0009
    CHARGE:  cpu time    0.0391: real time    0.0392
    MIXING:  cpu time    0.0030: real time    0.0030
    --------------------------------------------
      LOOP:  cpu time    2.5365: real time    2.5425

 eigenvalue-minimisations  :  1320
 total energy-change (2. order) : 0.4344752E+00  (-0.5107348E-01)
 number of electron     792.0000126 magnetization 
 augmentation part      312.5530005 magnetization 

 Broyden mixing:
  rms(total) = 0.11564E+01    rms(broyden)= 0.11561E+01
  rms(prec ) = 0.13309E+01
  weight for this iteration     100.00

 eigenvalues of (default mixing * dielectric matrix)
  average eigenvalue GAMMA=   0.5038
  1.9814  1.3889  1.3889  0.4873  0.4873  0.4489  0.4489  0.1605  0.1605  0.0650
  0.0732  0.1237  0.1237  0.1093  0.1091

 Free energy of the ion-electron system (eV)
  ---------------------------------------------------
  alpha Z        PSCENC =      1820.93486007
  Ewald energy   TEWEN  =    163831.58398477
  -Hartree energ DENC   =   -285407.23926521
  -exchange      EXHF   =         0.00000000
  -V(xc)+E(xc)   XCENC  =      3620.27303770
  PAW double counting   =    130937.84285191  -135918.02594502
  entropy T*S    EENTRO =        -1.03968244
  eigenvalues    EBANDS =    -15239.51347093
  atomic energy  EATOM  =    136002.60505376
  Solvation  Ediel_sol  =         0.00000000
  ---------------------------------------------------
  free energy    TOTEN  =      -352.57857539 eV

  energy without entropy =     -351.53889296  energy(sigma->0) =     -352.05873418


--------------------------------------------------------------------------------------------------------




--------------------------------------- Iteration      1(  21)  ---------------------------------------


    POTLOK:  cpu time    0.0473: real time    0.0474
    SETDIJ:  cpu time    0.0049: real time    0.0049
     EDDAV:  cpu time    2.5261: real time    2.5346
       DOS:  cpu time    0.0007: real time    0.0007
    CHARGE:  cpu time    0.0450: real time    0.0451
    MIXING:  cpu time    0.0035: real time    0.0035
    --------------------------------------------
      LOOP:  cpu time    2.6274: real time    2.6362

 eigenvalue-minimisations  :  1352
 total energy-change (2. order) : 0.3627407E+00  (-0.5624640E-01)
 number of electron     792.0000122 magnetization 
 augmentation part      312.4758453 magnetization 

 Broyden mixing:
  rms(total) = 0.90215E+00    rms(broyden)= 0.90137E+00
  rms(prec ) = 0.10472E+01
  weight for this iteration     100.00

 eigenvalues of (default mixing * dielectric matrix)
  average eigenvalue GAMMA=   0.5249
  2.0228  1.5320  1.5320  0.6207  0.6207  0.4185  0.4185  0.3314  0.0650  0.0732
  0.1589  0.1355  0.1355  0.1148  0.1148  0.1041

 Free energy of the ion-electron system (eV)
  ---------------------------------------------------
  alpha Z        PSCENC =      1820.93486007
  Ewald energy   TEWEN  =    163831.58398477
  -Hartree energ DENC   =   -285420.33489216
  -exchange      EXHF   =         0.00000000
  -V(xc)+E(xc)   XCENC  =      3620.25335685
  PAW double counting   =    130816.79480084  -135794.23387775
  entropy T*S    EENTRO =        -1.09704191
  eigenvalues    EBANDS =    -15228.72207911
  atomic energy  EATOM  =    136002.60505376
  Solvation  Ediel_sol  =         0.00000000
  ---------------------------------------------------
  free energy    TOTEN  =      -352.21583466 eV

  energy without entropy =     -351.11879275  energy(sigma->0) =     -351.66731370


--------------------------------------------------------------------------------------------------------




--------------------------------------- Iteration      1(  22)  ---------------------------------------


    POTLOK:  cpu time    0.0477: real time    0.0500
    SETDIJ:  cpu time    0.0046: real time    0.0065
[...]
    FORCOR:  cpu time    0.0597: real time    0.0600
    FORHAR:  cpu time    0.0250: real time    0.0251
    MIXING:  cpu time    0.0068: real time    0.0068
    OFIELD:  cpu time    0.0001: real time    0.0001

  FORCE on cell =-STRESS in cart. coord.  units (eV):
  Direction    XX          YY          ZZ          XY          YZ          ZX
  --------------------------------------------------------------------------------------
  Alpha Z  1820.93486  1820.93486  1820.93486
  Ewald  210482.55909211637.12430************   510.39076   -50.72367  -601.49713
  Hartree247555.13357248879.18392************   457.17475   -41.31966  -422.31510
  E(xc)   -5024.83478 -5025.75852 -5028.58782     0.04625    -0.01558    -0.75064
  Local  ************************456324.53437  -965.49476    92.15913   989.71991
  n-local  -682.25812  -695.34443  -696.36162    -0.26893    -0.05574    -1.85791
  augment  5777.91473  5803.78899  5796.91457    -0.33756     0.02618    13.71832
  Kinetic 10950.89730 10984.52608 10982.17735    -1.93901     0.26281    37.44717
  Fock        0.00000     0.00000     0.00000     0.00000     0.00000     0.00000
  -------------------------------------------------------------------------------------
  Total     -36.61681   -27.03363   -29.22118    -0.42849     0.33346    14.46462
  in kB     -28.71800   -21.20206   -22.91773    -0.33606     0.26153    11.34438
  external pressure =      -24.28 kB  Pullay stress =        0.00 kB


 VOLUME and BASIS-vectors are now :
 -----------------------------------------------------------------------------
  energy-cutoff  :      450.00
  volume of cell :     2042.85
      direct lattice vectors                 reciprocal lattice vectors
    10.403353751 -4.789205000  0.000000000     0.096122849  0.000000000  0.000000000
     0.000000000  9.578410000  0.000000000     0.048061424  0.104401461  0.000000000
     0.000000000  0.000000000 20.500762856     0.000000000  0.000000000  0.048778673

  length of vectors
    11.452783670  9.578410000 20.500762856     0.096122849  0.114932874  0.048778673


 FORCES acting on ions
    electron-ion (+dipol)            ewald-force                    non-local-force                 convergence-correction
 -----------------------------------------------------------------------------------------------
   -.386E+03 0.390E+03 -.211E+04   0.385E+03 -.391E+03 0.211E+04   0.112E+00 0.733E+00 -.152E+01   0.568E-02 0.265E-01 -.928E-01
   -.454E+03 0.502E+03 0.996E+03   0.456E+03 -.502E+03 -.998E+03   -.875E+00 0.872E+00 0.140E+01   0.243E-02 0.170E-01 -.539E-01
   -.179E+03 0.475E+03 -.459E+04   0.173E+03 -.470E+03 0.459E+04   0.555E+01 -.434E+01 0.257E+01   -.248E-01 0.171E-01 -.326E-01
   -.179E+03 0.458E+03 -.201E+03   0.179E+03 -.459E+03 0.203E+03   0.625E+00 0.654E+00 -.107E+01   0.107E-02 -.855E-02 -.454E-01
   -.114E+03 0.496E+03 0.249E+04   0.113E+03 -.498E+03 -.249E+04   0.792E+00 0.154E+01 0.107E+01   0.138E-01 -.483E-02 -.118E-01
   -.264E+03 0.348E+03 0.453E+04   0.257E+03 -.347E+03 -.453E+04   0.588E+01 -.149E+01 -.528E+01   0.967E-02 0.186E-02 0.221E-01
   -.158E+03 0.747E+03 -.475E+04   0.158E+03 -.735E+03 0.474E+04   0.641E+00 -.111E+02 0.831E+01   0.584E-01 -.643E-01 0.286E-01
   -.350E+03 0.569E+03 -.300E+04   0.351E+03 -.572E+03 0.300E+04   -.120E+01 0.275E+01 -.227E+01   0.393E-01 -.167E-01 -.922E-01
   0.224E+02 0.270E+03 -.410E+04   -.240E+02 -.274E+03 0.410E+04   0.136E+01 0.319E+01 -.178E+01   -.250E-01 -.866E-02 -.592E-01
   -.145E+03 0.430E+03 -.114E+04   0.144E+03 -.431E+03 0.114E+04   0.708E+00 0.950E+00 -.112E+01   -.342E-01 0.281E-02 -.944E-01
   -.281E+03 0.356E+03 0.161E+04   0.282E+03 -.356E+03 -.161E+04   -.859E+00 0.177E+00 -.136E+01   -.110E-01 -.637E-02 -.339E-01
   -.532E+03 -.182E+02 0.403E+04   0.536E+03 0.223E+02 -.403E+04   -.275E+01 -.360E+01 -.718E+00   -.109E-01 -.392E-02 0.134E-01
   0.557E+03 -.335E+01 -.301E+04   -.561E+03 0.339E+01 0.301E+04   0.300E+01 0.184E-01 -.290E+01   -.231E-01 -.114E-02 -.674E-01
   0.359E+03 0.110E+02 -.146E+03   -.361E+03 -.111E+02 0.147E+03   0.171E+01 0.361E-01 -.279E+00   0.497E-02 0.319E-02 -.645E-01
   0.143E+03 0.154E+03 0.262E+04   -.143E+03 -.156E+03 -.263E+04   0.251E+00 0.173E+01 0.117E+01   0.148E-01 -.219E-02 -.219E-01
   -.242E+03 0.428E+03 0.462E+04   0.242E+03 -.429E+03 -.460E+04   -.506E+00 0.608E+00 -.155E+02   -.152E-01 -.813E-02 0.327E-01
   0.617E+03 -.207E+03 0.426E+04   -.620E+03 0.207E+03 -.427E+04   0.221E+01 -.460E+00 0.347E+01   0.598E-02 0.191E-02 0.136E-01
   0.644E+03 -.260E+01 -.380E+04   -.643E+03 0.255E+01 0.380E+04   -.579E+00 0.311E-01 0.522E+00   -.330E-01 0.384E-02 -.853E-01
   0.328E+03 -.283E+02 -.980E+03   -.329E+03 0.283E+02 0.980E+03   0.102E+01 -.179E-01 0.318E+00   0.331E-01 -.219E-02 -.121E+00
   0.425E+03 -.177E+03 0.189E+04   -.426E+03 0.178E+03 -.189E+04   0.179E+01 -.759E+00 0.907E+00   -.843E-02 0.399E-02 -.294E-01
   0.561E+03 0.730E+02 0.933E+03   -.564E+03 -.729E+02 -.933E+03   0.263E+01 -.321E-01 0.516E-01   0.688E-02 -.645E-02 -.406E-01
   0.625E+03 -.500E+01 0.348E+04   -.629E+03 0.638E+01 -.349E+04   0.396E+01 -.102E+01 0.215E+01   -.613E-02 -.608E-02 -.839E-03
   -.141E+02 -.273E+03 0.471E+04   0.153E+02 0.272E+03 -.469E+04   -.155E+01 0.471E+00 -.150E+02   -.105E-02 -.507E-03 0.341E-01
   0.527E+03 0.190E+02 -.227E+04   -.530E+03 -.190E+02 0.227E+04   0.226E+01 -.216E-01 -.318E+01   0.827E-02 -.710E-02 -.721E-01
   -.176E+03 -.474E+03 -.459E+04   0.170E+03 0.469E+03 0.459E+04   0.545E+01 0.416E+01 0.257E+01   -.308E-01 -.283E-01 -.365E-01
   -.374E+03 -.370E+03 -.213E+04   0.373E+03 0.371E+03 0.214E+04   0.271E+00 -.652E+00 -.166E+01   0.736E-02 -.245E-01 -.979E-01
   -.362E+03 -.322E+03 0.770E+03   0.363E+03 0.322E+03 -.769E+03   -.789E+00 -.210E+00 -.104E+01   -.275E-02 -.182E-01 -.463E-01
   -.342E+03 0.136E+03 0.362E+04   0.344E+03 -.139E+03 -.361E+04   -.175E+01 0.288E+01 -.204E+01   -.987E-02 -.171E-01 0.115E-01
   -.139E+03 -.553E+03 -.110E+03   0.139E+03 0.553E+03 0.110E+03   0.630E+00 -.954E+00 0.526E-01   0.270E-02 0.155E-01 -.469E-01
   0.412E+02 -.603E+03 0.252E+04   -.426E+02 0.605E+03 -.252E+04   0.143E+01 -.163E+01 0.113E+01   0.104E-01 0.829E-02 -.506E-02
   -.109E+03 -.242E+03 0.456E+04   0.101E+03 0.240E+03 -.455E+04   0.611E+01 0.245E+01 -.535E+01   0.100E-01 -.113E-01 0.241E-01
   -.159E+03 -.749E+03 -.474E+04   0.159E+03 0.738E+03 0.473E+04   0.656E+00 0.110E+02 0.822E+01   0.561E-01 0.712E-01 0.308E-01
   -.350E+03 -.587E+03 -.297E+04   0.351E+03 0.590E+03 0.298E+04   -.121E+01 -.277E+01 -.214E+01   0.419E-01 0.173E-01 -.908E-01
   0.184E+02 -.264E+03 -.411E+04   -.200E+02 0.268E+03 0.411E+04   0.133E+01 -.316E+01 -.186E+01   -.232E-01 -.177E-02 -.578E-01
   -.171E+03 -.425E+03 -.114E+04   0.171E+03 0.426E+03 0.115E+04   0.500E+00 -.987E+00 -.953E+00   -.319E-01 -.823E-02 -.911E-01
   -.439E+03 -.467E+03 0.176E+04   0.440E+03 0.467E+03 -.176E+04   -.710E+00 -.724E+00 -.993E-01   -.856E-02 -.506E-02 -.363E-01
   0.220E+03 -.533E+02 -.182E+04   -.222E+03 0.523E+02 0.182E+04   0.344E+01 0.142E+01 -.376E+01   -.138E-01 0.487E-03 -.118E-01
   0.102E+03 -.147E+03 -.792E+03   -.103E+03 0.149E+03 0.792E+03   0.184E+01 -.243E+01 0.567E+00   -.858E-02 -.160E-02 -.382E-01
   0.610E+02 -.135E+03 0.243E+03   -.623E+02 0.137E+03 -.244E+03   0.137E+01 -.211E+01 0.880E+00   0.340E-02 -.417E-02 -.216E-01
   -.155E+02 -.840E+02 0.124E+04   0.139E+02 0.863E+02 -.124E+04   0.216E+01 -.261E+01 -.584E+00   -.587E-02 -.652E-02 0.169E-02
   0.217E+03 -.376E+03 0.108E+04   -.220E+03 0.382E+03 -.108E+04   0.286E+01 -.616E+01 0.248E+01   -.941E-03 0.588E-02 -.211E-02
   0.266E+03 -.265E+03 0.178E+04   -.268E+03 0.269E+03 -.178E+04   0.216E+01 -.387E+01 0.350E+01   0.447E-02 0.146E-02 0.821E-02
   0.665E+02 -.200E+03 -.110E+04   -.676E+02 0.202E+03 0.110E+04   0.684E+00 -.187E+01 0.174E+01   0.197E-01 0.269E-01 -.526E-01
   0.702E+02 -.182E+03 -.350E+02   -.722E+02 0.185E+03 0.347E+02   0.192E+01 -.237E+01 0.247E+00   0.182E-02 0.435E-02 -.248E-01
   0.124E+03 -.119E+03 -.458E+03   -.126E+03 0.121E+03 0.458E+03   0.163E+01 -.236E+01 0.230E+00   0.301E-02 -.755E-02 -.288E-01
   0.122E+03 -.117E+03 0.607E+03   -.123E+03 0.119E+03 -.608E+03   0.153E+01 -.214E+01 0.976E+00   -.580E-02 -.810E-02 -.908E-02
   -.133E+03 -.117E+03 0.146E+04   0.134E+03 0.119E+03 -.146E+04   -.104E+01 -.225E+01 -.534E+00   -.245E-02 0.118E-02 -.270E-03
   0.147E+03 0.673E+02 -.165E+04   -.149E+03 -.683E+02 0.166E+04   0.300E+01 0.802E+00 -.340E+01   0.585E-02 -.501E-02 -.201E-01
   0.151E+03 0.125E+03 0.160E+04   -.152E+03 -.127E+03 -.160E+04   0.470E+00 0.242E+01 0.297E+01   0.623E-02 -.124E-02 0.930E-02
   -.353E+03 0.155E+01 -.166E+04   0.358E+03 -.151E+01 0.166E+04   -.647E+01 -.277E-01 -.244E+01   0.771E-02 -.247E-02 -.246E-01
   -.150E+03 0.140E+02 -.650E+03   0.152E+03 -.140E+02 0.652E+03   -.128E+01 -.147E+00 -.172E+01   0.213E-02 0.410E-03 -.315E-01
   -.107E+03 0.153E+03 0.659E+03   0.108E+03 -.155E+03 -.660E+03   -.161E+01 0.224E+01 0.136E+01   -.485E-03 -.288E-02 -.520E-02
   -.760E+02 -.116E+02 0.941E+02   0.777E+02 0.116E+02 -.929E+02   -.174E+01 0.703E-01 -.148E+01   0.236E-02 0.137E-02 -.165E-01
   -.119E+03 0.201E+02 0.106E+04   0.121E+03 -.202E+02 -.106E+04   -.101E+01 0.262E+00 -.217E+01   0.630E-02 -.203E-02 -.266E-02
   -.104E+03 -.633E+01 -.984E+03   0.105E+03 0.628E+01 0.985E+03   -.999E+00 0.565E-01 -.880E+00   0.352E-02 0.966E-03 -.231E-01
   -.354E+03 -.126E+01 -.181E+04   0.360E+03 0.133E+01 0.181E+04   -.701E+01 -.709E-01 -.229E+01   0.331E-01 0.673E-03 -.155E-01
   -.629E+02 0.467E+00 -.133E+04   0.642E+02 -.483E+00 0.133E+04   -.137E+01 0.202E-01 -.802E-01   -.416E-01 -.242E-02 -.502E-01
   -.118E+03 -.102E+02 -.234E+03   0.119E+03 0.102E+02 0.236E+03   -.137E+01 0.144E+00 -.214E+01   -.791E-02 -.419E-02 -.319E-01
   -.168E+03 -.164E+03 0.940E+03   0.169E+03 0.166E+03 -.941E+03   -.922E+00 -.251E+01 0.106E+01   -.402E-04 -.280E-02 -.881E-02
   0.120E+02 -.170E+03 0.170E+04   -.131E+02 0.173E+03 -.170E+04   0.169E+00 -.355E+01 0.322E+01   -.615E-02 -.290E-03 0.763E-02
   0.330E+02 0.160E+03 0.280E+03   -.345E+02 -.162E+03 -.281E+03   0.138E+01 0.230E+01 0.717E+00   0.587E-02 0.948E-02 -.208E-01
   -.153E+03 0.303E+03 0.136E+04   0.152E+03 -.308E+03 -.136E+04   0.265E+00 0.560E+01 0.140E+01   -.240E-02 0.751E-02 0.181E-02
   0.219E+03 0.526E+02 -.182E+04   -.221E+03 -.516E+02 0.182E+04   0.349E+01 -.146E+01 -.371E+01   -.746E-02 0.391E-02 -.953E-02
   0.959E+02 0.147E+03 -.791E+03   -.978E+02 -.149E+03 0.790E+03   0.195E+01 0.252E+01 0.337E+00   -.738E-02 0.310E-02 -.336E-01
   0.121E+03 0.167E+03 0.957E+03   -.122E+03 -.170E+03 -.958E+03   0.139E+01 0.235E+01 0.941E+00   0.439E-03 -.244E-02 -.210E-02
   0.193E+03 0.225E+03 0.181E+04   -.195E+03 -.228E+03 -.181E+04   0.237E+01 0.383E+01 0.316E+01   0.897E-02 -.137E-02 0.702E-02
   0.687E+02 0.197E+03 -.111E+04   -.698E+02 -.199E+03 0.111E+04   0.688E+00 0.203E+01 0.179E+01   0.211E-01 -.268E-01 -.556E-01
   0.747E+02 0.154E+03 -.841E+02   -.763E+02 -.156E+03 0.836E+02   0.158E+01 0.212E+01 0.406E+00   -.370E-03 -.397E-02 -.232E-01
   0.135E+03 0.128E+03 -.438E+03   -.137E+03 -.130E+03 0.437E+03   0.170E+01 0.239E+01 0.255E+00   0.419E-02 0.623E-02 -.261E-01
   0.173E+03 0.124E+03 0.617E+03   -.175E+03 -.126E+03 -.618E+03   0.180E+01 0.212E+01 0.863E+00   -.144E-02 0.783E-02 -.787E-02
   0.870E+02 0.936E+02 0.144E+04   -.890E+02 -.961E+02 -.144E+04   0.248E+01 0.288E+01 -.829E+00   0.530E-03 0.311E-02 0.618E-02
   0.147E+03 -.649E+02 -.165E+04   -.149E+03 0.660E+02 0.165E+04   0.300E+01 -.853E+00 -.342E+01   0.105E-01 0.545E-02 -.195E-01
 -----------------------------------------------------------------------------------------------
   -.587E+02 0.901E+00 0.354E+02   0.117E-11 -.284E-12 0.455E-11   0.586E+02 -.828E+00 -.335E+02   0.716E-01 -.664E-01 -.189E+01
 
 
 POSITION                                       TOTAL-FORCE (eV/Angst)
 -----------------------------------------------------------------------------------
      6.03859     -2.06748      7.16328        -0.272487      0.104322      0.114648
      7.93319     -2.06748      4.66016         0.371220      0.367851     -0.336533
      4.14400      7.51093      9.66639        -0.293256      0.139508     -1.096220
      0.36609      7.51093      5.49453        -0.021088      0.007199      0.125756
      2.26069      7.51093      2.99142         0.064146      0.015132     -0.366751
      4.15528      7.51093      0.48830        -1.210494     -0.369225      1.631703
      6.98025      2.72172     10.50076         0.648747      0.853280     -1.815363
      8.87485      2.72172      7.99765         0.000194     -0.221010      0.350453
      1.30774      2.72172      8.83202        -0.298004     -0.740198     -0.398871
      3.20234      2.72172      6.32891        -0.090351     -0.110958      0.052612
      5.09694      2.72172      3.82579         0.170760      0.196232      0.073503
      6.99153      2.72172      1.32268         0.738888      0.508194      0.776922
      2.39650     -0.80215      8.34372        -0.255667      0.057400      0.190963
      4.29109     -0.80215      5.84060         0.140430     -0.050201      0.113886
      6.18569     -0.80215      3.33749         0.289328     -0.311553     -0.281452
      8.08029     -0.80215      0.83437        -0.356366     -0.212928      2.176641
      0.51318      8.77626      1.66874        -0.020571     -0.045452     -0.768056
      5.23275      3.98706      9.17809         0.454393     -0.016946     -0.680306
      7.12734      3.98706      6.67497        -0.077519     -0.021370      0.178452
      9.02194      3.98706      4.17186         0.304656      0.020949      0.078768
      1.45484      3.98706      5.00623         0.006225      0.058337      0.195337
      3.34944      3.98706      2.50311        -0.350670      0.350907     -0.547403
      5.24403      3.98706      0.00000        -0.283009      0.149656      2.155635
      9.96360     -0.80215      7.50934        -0.048988     -0.023521      0.610679
      4.14400      0.46319      9.66639        -0.306060     -0.158578     -1.110660
      6.03859      0.46319      7.16328        -0.304797     -0.061435      0.149400
      7.93319      0.46319      4.66016         0.294137     -0.187837      0.146295
      9.82779      0.46319      2.15705         0.559625     -0.862077      0.826541
      0.36609      0.46319      5.49453         0.011897     -0.166293     -0.079371
      2.26069      0.46319      2.99142         0.037714     -0.006940     -0.306846
      4.15528      0.46319      0.48830        -1.107604      0.107061      1.569686
      6.98025      5.25240     10.50076         0.659260     -0.858992     -1.817057
      8.87485      5.25240      7.99765        -0.016740      0.230047      0.327160
      1.30774      5.25240      8.83202        -0.289748      0.772626     -0.404483
      3.20234      5.25240      6.32891        -0.088548      0.029658      0.044736
      5.09694      5.25240      3.82579         0.193378     -0.247810     -0.194386
      1.91849      0.80909      9.85483         1.047110      0.426244      0.006195
      3.81309      0.80909      7.35171         0.040527     -0.234583     -0.014259
      5.70769      0.80909      4.84860         0.064158     -0.051481     -0.231372
      7.60228      0.80909      2.34548         0.525973     -0.337566     -1.429162
      0.03518      0.80909      3.17986        -0.178029     -0.233932      0.250496
      1.92978      0.80909      0.67674         0.154805     -0.340074      0.655037
      6.64934      5.59829      8.18608        -0.371929     -0.112927      0.904858
      8.54394      5.59829      5.68297        -0.025179     -0.074304     -0.085057
      0.97684      5.59829      6.51734         0.041615     -0.301380     -0.244463
      2.87143      5.59829      4.01423        -0.028078     -0.144368      0.000034
      4.76603      5.59829      1.51111         0.146666     -0.437764     -1.445382
      9.48560      0.80909      9.02046         0.757920     -0.230148     -0.118213
      1.31873      3.98706      1.52661        -0.480175      0.856403     -0.578280
      6.03829     -0.80215      9.03596        -0.799533      0.010800      1.433815
      7.93289     -0.80215      6.53284         0.027792     -0.124637      0.063901
      9.82749     -0.80215      4.02973        -0.345362      0.119073     -0.298539
      2.26038     -0.80215      4.86410         0.036293      0.054489     -0.231250
      4.15498     -0.80215      2.36099         0.446496      0.066863     -1.061114
      0.36579      8.77626      7.36722         0.044154      0.013260      0.111257
      8.87455      3.98706      9.87033        -1.233192      0.000495      1.212602
      3.20204      3.98706      8.20159        -0.060155      0.002534      1.627600
      5.09664      3.98706      5.69847        -0.119840      0.097798     -0.052274
      6.99123      3.98706      3.19536        -0.117414     -0.118530     -0.489614
      8.88583      3.98706      0.69224        -0.911403     -0.624998     -0.010184
      5.70769     -2.41338      4.84860        -0.084303      0.110820     -0.109147
      7.60228     -2.41338      2.34548        -0.243230      1.033779     -0.516869
      1.91849      7.16503      9.85483         1.031016     -0.427653      0.017818
      3.81309      7.16503      7.35171         0.066669      0.190225     -0.030007
      0.03518      7.16503      3.17986         0.030069      0.042014     -0.306270
      1.92978      7.16503      0.67674         0.349961      0.310491      0.588000
      6.64934      2.37583      8.18608        -0.377069      0.138732      0.893994
      8.54394      2.37583      5.68297        -0.087604      0.128206     -0.100551
      0.97684      2.37583      6.51734         0.071355      0.289272     -0.263624
      2.87143      2.37583      4.01423        -0.026523      0.050003     -0.163171
      4.76603      2.37583      1.51111         0.565434      0.331445     -1.543027
      9.48560     -2.41338      9.02046         0.787972      0.226364     -0.129796
 -----------------------------------------------------------------------------------
    total drift:                               -0.040836      0.006994     -0.012262


--------------------------------------------------------------------------------------------------------



  FREE ENERGIE OF THE ION-ELECTRON SYSTEM (eV)
  ---------------------------------------------------
  free  energy   TOTEN  =      -351.74998335 eV

  energy  without entropy=     -350.58689564  energy(sigma->0) =     -351.16843950
 


--------------------------------------------------------------------------------------------------------


    POTLOK:  cpu time    0.0526: real time    0.0529


--------------------------------------------------------------------------------------------------------


     LOOP+:  cpu time  108.5756: real time  108.9457
    4ORBIT:  cpu time    0.0000: real time    0.0000

 total amount of memory used by VASP MPI-rank0    45103. kBytes
=======================================================================

   base      :      30000. kBytes
   nonlr-proj:       2268. kBytes
   fftplans  :       3298. kBytes
   grid      :       5820. kBytes
   one-center:         93. kBytes
   wavefun   :       3624. kBytes
 
  
  
 General timing and accounting informations for this job:
 ========================================================
  
                  Total CPU time used (sec):      110.646
                            User time (sec):      109.983
                          System time (sec):        0.663
                         Elapsed time (sec):      111.577
  
                   Maximum memory used (kb):      229348.
                   Average memory used (kb):           0.
  
                          Minor page faults:        82933
                          Major page faults:            0
                 Voluntary context switches:         1051
