       N       E                     dE             d eps       ncg     rms          rms(c)
DAV:   1     0.106463756721E+05    0.10646E+05   -0.55072E+05  1240   0.164E+03
DAV:   2     0.681478068231E+03   -0.99649E+04   -0.96282E+04  1088   0.530E+02
DAV:   3    -0.367049682079E+03   -0.10485E+04   -0.98256E+03  1176   0.184E+02
DAV:   4    -0.437365228508E+03   -0.70316E+02   -0.69443E+02  1216   0.419E+01
DAV:   5    -0.440056357228E+03   -0.26911E+01   -0.26875E+01  1328   0.872E+00    0.859E+01
DAV:   6    -0.534871628866E+03   -0.94815E+02   -0.10569E+03  1232   0.118E+02    0.167E+02
DAV:   7    -0.408839118741E+03    0.12603E+03   -0.18842E+02  1224   0.629E+01    0.680E+01
DAV:   8    -0.534309135346E+03   -0.12547E+03   -0.15526E+02  1328   0.973E+01    0.181E+02
DAV:   9    -0.412962642806E+03    0.12135E+03   -0.19353E+02  1328   0.521E+01    0.820E+01
DAV:  10    -0.405470672901E+03    0.74920E+01   -0.79149E+01  1440   0.410E+01    0.561E+01
DAV:  11    -0.410076300790E+03   -0.46056E+01   -0.47186E+01  1384   0.387E+01    0.794E+01
DAV:  12    -0.394755356727E+03    0.15321E+02   -0.19613E+01  1416   0.201E+01    0.346E+01
DAV:  13    -0.408788635013E+03   -0.14033E+02   -0.22725E+01  1392   0.324E+01    0.107E+02
DAV:  14    -0.392369785931E+03    0.16419E+02   -0.21848E+01  1408   0.158E+01    0.287E+01
DAV:  15    -0.390591291075E+03    0.17785E+01   -0.73828E+00  1416   0.170E+01    0.251E+01
DAV:  16    -0.388792484524E+03    0.17988E+01   -0.33080E+00  1272   0.115E+01    0.202E+01
DAV:  17    -0.387819065733E+03    0.97342E+00   -0.16455E+00  1464   0.812E+00    0.182E+01
DAV:  18    -0.387247654264E+03    0.57141E+00   -0.17450E+00  1392   0.770E+00    0.167E+01
DAV:  19    -0.386724033995E+03    0.52362E+00   -0.12027E+00  1408   0.655E+00    0.147E+01
DAV:  20    -0.386136154708E+03    0.58788E+00   -0.57726E-01  1416   0.500E+00    0.105E+01
DAV:  21    -0.385786111026E+03    0.35004E+00   -0.73418E-01  1472   0.427E+00    0.900E+00
DAV:  22    -0.385742644152E+03    0.43467E-01   -0.58388E-01  1280   0.447E+00    0.777E+00
DAV:  23    -0.385616453290E+03    0.12619E+00   -0.14812E-01  1400   0.202E+00    0.607E+00
DAV:  24    -0.385561738637E+03    0.54715E-01   -0.13890E-01  1424   0.216E+00    0.530E+00
DAV:  25    -0.385532486333E+03    0.29252E-01   -0.15146E-01  1464   0.227E+00    0.491E+00
DAV:  26    -0.385492111546E+03    0.40375E-01   -0.14529E-01  1424   0.224E+00    0.420E+00
DAV:  27    -0.385444022882E+03    0.48089E-01   -0.14787E-01  1392   0.228E+00    0.206E+00
DAV:  28    -0.385457766695E+03   -0.13744E-01   -0.76987E-02  1432   0.177E+00    0.243E+00
DAV:  29    -0.385438839949E+03    0.18927E-01   -0.47164E-02  1344   0.147E+00    0.148E+00
DAV:  30    -0.385441821784E+03   -0.29818E-02   -0.19823E-02  1416   0.851E-01    0.163E+00
DAV:  31    -0.385435008333E+03    0.68135E-02   -0.13060E-02  1312   0.698E-01    0.112E+00
DAV:  32    -0.385434053090E+03    0.95524E-03   -0.94945E-03  1392   0.626E-01    0.102E+00
DAV:  33    -0.385432618096E+03    0.14350E-02   -0.10783E-02  1432   0.537E-01    0.838E-01
DAV:  34    -0.385432070329E+03    0.54777E-03   -0.34469E-03  1392   0.377E-01    0.665E-01
DAV:  35    -0.385431336794E+03    0.73354E-03   -0.14650E-03  1168   0.237E-01    0.507E-01
DAV:  36    -0.385431199750E+03    0.13704E-03   -0.79588E-04  1064   0.204E-01    0.422E-01
DAV:  37    -0.385431465534E+03   -0.26578E-03   -0.67858E-04  1032   0.170E-01    0.403E-01
DAV:  38    -0.385431379895E+03    0.85639E-04   -0.45240E-04   920   0.140E-01
   1 F= -.38543138E+03 E0= -.38482850E+03  d E =-.120576E+01
