 vasp.6.1.0 28Jan20 (build Mar 31 2020 17:42:31) gamma-only                     
  
 executed on             LinuxIFC date 2020.04.12  17:08:56
 running on   48 total cores
 distrk:  each k-point on   48 cores,    1 groups
 distr:  one band on NCORE=   6 cores,    8 groups


--------------------------------------------------------------------------------------------------------


 INCAR:
 POTCAR:    PAW_PBE Ni_pv 06Sep2000               
 POTCAR:    PAW_PBE S 06Sep2000                   
 POTCAR:    PAW_PBE Ni_pv 06Sep2000               
   VRHFIN =Ni:                                                                                      
   LEXCH  = PE                                                                                      
   EATOM  =  3501.1230 eV,  257.3253 Ry                                                             
                                                                                                    
   TITEL  = PAW_PBE Ni_pv 06Sep2000                                                                 
   LULTRA =        F    use ultrasoft PP ?                                                          
   IUNSCR =        1    unscreen: 0-lin 1-nonlin 2-no                                               
   RPACOR =    1.500    partial core radius                                                         
   POMASS =   58.690; ZVAL   =   16.000    mass and valenz                                          
   RCORE  =    2.000    outmost cutoff radius                                                       
   RWIGS  =    2.000; RWIGS  =    1.058    wigner-seitz radius (au A)                               
   ENMAX  =  367.986; ENMIN  =  275.989 eV                                                          
   RCLOC  =    1.301    cutoff for local pot                                                        
   LCOR   =        T    correct aug charges                                                         
   LPAW   =        T    paw PP                                                                      
   EAUG   =  703.443                                                                                
   DEXC   =    0.000                                                                                
   RMAX   =    2.041    core radius for proj-oper                                                   
   RAUG   =    1.300    factor for augmentation sphere                                              
   RDEP   =    2.103    radius for radial grids                                                     
   RDEPT  =    1.618    core radius for aug-charge                                                  
                                                                                                    
   Atomic configuration                                                                             
    8 entries                                                                                       
     n  l   j            E        occ.                                                              
     1  0  0.50     -8206.4253   2.0000                                                             
     2  0  0.50      -976.1748   2.0000                                                             
     2  1  1.50      -839.0571   6.0000                                                             
     3  0  0.50      -105.9991   2.0000                                                             
     3  1  1.50       -66.4603   6.0000                                                             
     3  2  2.50        -4.6458   9.0000                                                             
     4  0  0.50        -4.4926   1.0000                                                             
     4  3  2.50        -1.3606   0.0000                                                             
   Description                                                                                      
     l       E           TYP  RCUT    TYP  RCUT                                                     
     1    -66.4602962     23  1.700                                                                 
     1     -1.3605826     23  1.700                                                                 
     2     -4.6457867     23  2.000                                                                 
     2     -6.0063693     23  2.000                                                                 
     0     -4.4925576     23  1.900                                                                 
     0     16.3626226     23  1.900                                                                 
  local pseudopotential read in
  partial core-charges read in
  partial kinetic energy density read in
  atomic valenz-charges read in
  non local Contribution for L=           1  read in
    real space projection operators read in
  non local Contribution for L=           1  read in
    real space projection operators read in
  non local Contribution for L=           2  read in
    real space projection operators read in
  non local Contribution for L=           2  read in
    real space projection operators read in
  non local Contribution for L=           0  read in
    real space projection operators read in
  non local Contribution for L=           0  read in
    real space projection operators read in
    PAW grid and wavefunctions read in
 
   number of l-projection  operators is LMAX  =           6
   number of lm-projection operators is LMMAX =          18
 
 POTCAR:    PAW_PBE S 06Sep2000                   
   VRHFIN =S : s2p4                                                                                 
   LEXCH  = PE                                                                                      
   EATOM  =   276.8230 eV,   20.3459 Ry                                                             
                                                                                                    
   TITEL  = PAW_PBE S 06Sep2000                                                                     
   LULTRA =        F    use ultrasoft PP ?                                                          
   IUNSCR =        1    unscreen: 0-lin 1-nonlin 2-no                                               
   RPACOR =    1.500    partial core radius                                                         
   POMASS =   32.066; ZVAL   =    6.000    mass and valenz                                          
   RCORE  =    1.900    outmost cutoff radius                                                       
   RWIGS  =    2.200; RWIGS  =    1.164    wigner-seitz radius (au A)                               
   ENMAX  =  258.689; ENMIN  =  194.016 eV                                                          
   ICORE  =        2    local potential                                                             
   LCOR   =        T    correct aug charges                                                         
   LPAW   =        T    paw PP                                                                      
   EAUG   =  335.092                                                                                
   DEXC   =    0.000                                                                                
   RMAX   =    1.942    core radius for proj-oper                                                   
   RAUG   =    1.300    factor for augmentation sphere                                              
   RDEP   =    1.954    radius for radial grids                                                     
   RDEPT  =    1.744    core radius for aug-charge                                                  
                                                                                                    
   Atomic configuration                                                                             
    6 entries                                                                                       
     n  l   j            E        occ.                                                              
     1  0  0.50     -2405.8406   2.0000                                                             
     2  0  0.50      -211.7007   2.0000                                                             
     2  1  1.50      -156.4958   6.0000                                                             
     3  0  0.50       -17.2562   2.0000                                                             
     3  1  0.50        -7.0085   4.0000                                                             
     3  2  1.50        -6.8029   0.0000                                                             
   Description                                                                                      
     l       E           TYP  RCUT    TYP  RCUT                                                     
     0    -17.2561641     23  1.900                                                                 
     0    -15.8743224     23  1.900                                                                 
     1     -7.0085400     23  1.900                                                                 
     1     -2.7779785     23  1.900                                                                 
     2     -6.8029130     23  1.900                                                                 
  local pseudopotential read in
  partial core-charges read in
  partial kinetic energy density read in
  atomic valenz-charges read in
  non local Contribution for L=           0  read in
    real space projection operators read in
  non local Contribution for L=           0  read in
    real space projection operators read in
  non local Contribution for L=           1  read in
    real space projection operators read in
  non local Contribution for L=           1  read in
    real space projection operators read in
    PAW grid and wavefunctions read in
 
   number of l-projection  operators is LMAX  =           4
   number of lm-projection operators is LMMAX =           8
 
 Optimization of the real space projectors (new method)

 maximal supplied QI-value         = 18.90
 optimisation between [QCUT,QGAM] = [ 10.77, 21.73] = [ 32.49,132.25] Ry 
 Optimized for a Real-space Cutoff    1.38 Angstroem

   l    n(q)    QCUT    max X(q) W(low)/X(q) W(high)/X(q)  e(spline) 
   1      8    10.771     2.836    0.40E-04    0.29E-04    0.12E-06
   1      8    10.771     4.023    0.10E-03    0.48E-04    0.29E-06
   2      8    10.771    73.368    0.42E-03    0.97E-04    0.44E-06
   2      8    10.771    69.010    0.42E-03    0.99E-04    0.45E-06
   0      9    10.771    54.797    0.10E-03    0.56E-04    0.74E-07
   0      9    10.771    24.266    0.89E-04    0.49E-04    0.67E-07
 Optimization of the real space projectors (new method)

 maximal supplied QI-value         = 19.84
 optimisation between [QCUT,QGAM] = [ 10.71, 21.63] = [ 32.15,130.99] Ry 
 Optimized for a Real-space Cutoff    1.19 Angstroem

   l    n(q)    QCUT    max X(q) W(low)/X(q) W(high)/X(q)  e(spline) 
   0      8    10.715   187.594    0.41E-03    0.53E-04    0.66E-07
   0      8    10.715   164.243    0.41E-03    0.53E-04    0.65E-07
   1      7    10.715    67.533    0.19E-03    0.59E-03    0.68E-07
   1      7    10.715    50.729    0.19E-03    0.58E-03    0.67E-07
  PAW_PBE Ni_pv 06Sep2000               :
 energy of atom  1       EATOM=-3501.1230
 kinetic energy error for atom=    0.0925 (will be added to EATOM!!)
  PAW_PBE S 06Sep2000                   :
 energy of atom  2       EATOM= -276.8230
 kinetic energy error for atom=    0.0033 (will be added to EATOM!!)
 
 
 POSCAR: Structure 10 made from -211-7.xsd file
  positions in direct lattice
  No initial velocities read in
 exchange correlation table for  LEXCH =        8
   RHO(1)=    0.500       N(1)  =     2000
   RHO(2)=  100.500       N(2)  =     4000
 


--------------------------------------------------------------------------------------------------------


 ion  position               nearest neighbor table
   1  0.247  0.945  0.000-  41 2.25  49 2.36  61 2.36
   2  0.397  0.795  0.127-  42 2.25  49 2.26  61 2.26  50 2.36  62 2.36  14 2.53  27 2.53
   3  0.547  0.645  0.254-  43 2.25  62 2.26  50 2.26  63 2.36  51 2.36  28 2.53  15 2.53
   4  0.698  0.494  0.381-  44 2.25  51 2.26  63 2.26  52 2.36  64 2.36  16 2.53  29 2.53
   5  0.848  0.344  0.508-  64 2.26  52 2.26  17 2.53  26 2.53
   6  0.114  0.412  0.169-  45 2.25  68 2.26  53 2.26  65 2.36  54 2.36  30 2.53  18 2.53
   7  0.264  0.261  0.296-  46 2.25  65 2.26  54 2.26  55 2.36  66 2.36  19 2.53  31 2.53
   8  0.414  0.111  0.423-  47 2.25  55 2.26  66 2.26  56 2.36  67 2.36  32 2.53  20 2.53
   9  0.964  0.562  0.042-  48 2.25  53 2.36  68 2.36
  10  0.131  0.728  0.465-  37 2.25  72 2.26  58 2.26  59 2.36  22 2.53  36 2.53
  11  0.680  0.178  0.085-  38 2.25  69 2.26  70 2.36  60 2.36  23 2.53
  12  0.831  0.028  0.212-  39 2.25  60 2.26  70 2.26  57 2.36  71 2.36  24 2.53  34 2.53
  13  0.981  0.878  0.338-  40 2.25  57 2.26  71 2.26  58 2.36  72 2.36  35 2.53  25 2.53
  14  0.357  0.570  0.093-  53 2.25  61 2.26  62 2.36  38 2.36   2 2.53  27 2.53
  15  0.508  0.420  0.220-  54 2.25  62 2.26  38 2.26  39 2.36  63 2.36  28 2.53   3 2.53
  16  0.658  0.270  0.347-  55 2.25  63 2.26  39 2.26  64 2.36  40 2.36   4 2.53  29 2.53
  17  0.808  0.120  0.474-  56 2.25  40 2.26  64 2.26  37 2.36   5 2.53  26 2.53
  18  0.074  0.187  0.136-  60 2.25  68 2.26  41 2.26  42 2.36  65 2.36   6 2.53  30 2.53
  19  0.224  0.037  0.263-  57 2.25  42 2.26  65 2.26  66 2.36  43 2.36   7 2.53  31 2.53
  20  0.375  0.886  0.390-  58 2.25  66 2.26  43 2.26  44 2.36  67 2.36  32 2.53   8 2.53
  21  0.525  0.736  0.517-  59 2.25  67 2.26  44 2.26  33 2.53
  22  0.091  0.503  0.432-  52 2.25  72 2.26  46 2.26  47 2.36  36 2.53  10 2.53
  23  0.641  0.954  0.051-  49 2.25  69 2.26  48 2.36  70 2.36  11 2.53
  24  0.791  0.804  0.178-  50 2.25  70 2.26  48 2.26  71 2.36  45 2.36  12 2.53  34 2.53
  25  0.941  0.653  0.305-  51 2.25  71 2.26  45 2.26  46 2.36  72 2.36  35 2.53  13 2.53
  26  0.033  0.159  0.441-  66 2.25  40 2.26  52 2.26  37 2.36  17 2.53   5 2.53
  27  0.582  0.610  0.060-  49 2.26  50 2.36  38 2.36   2 2.53  14 2.53
  28  0.732  0.460  0.187-  68 2.25  50 2.26  38 2.26  51 2.36  39 2.36  15 2.53   3 2.53
  29  0.882  0.310  0.314-  65 2.25  39 2.26  51 2.26  40 2.36  52 2.36   4 2.53  16 2.53
  30  0.299  0.227  0.102-  69 2.25  53 2.26  41 2.26  54 2.36  42 2.36   6 2.53  18 2.53
  31  0.449  0.076  0.229-  70 2.25  42 2.26  54 2.26  55 2.36  43 2.36  19 2.53   7 2.53
  32  0.599  0.926  0.356-  71 2.25  55 2.26  43 2.26  56 2.36  44 2.36   8 2.53  20 2.53
  33  0.749  0.776  0.483-  72 2.25  56 2.26  44 2.26  21 2.53
  34  0.015  0.843  0.144-  61 2.25  48 2.26  60 2.26  45 2.36  57 2.36  24 2.53  12 2.53
  35  0.166  0.693  0.271-  62 2.25  57 2.26  45 2.26  46 2.36  58 2.36  13 2.53  25 2.53
  36  0.316  0.543  0.398-  63 2.25  58 2.26  46 2.26  47 2.36  59 2.36  22 2.53  10 2.53
  37  0.037  0.955  0.498-  10 2.25  17 2.36  26 2.36
  38  0.586  0.406  0.117-  11 2.25  15 2.26  28 2.26  27 2.36  14 2.36
  39  0.736  0.256  0.244-  12 2.25  29 2.26  16 2.26  15 2.36  28 2.36
  40  0.886  0.105  0.371-  13 2.25  26 2.26  17 2.26  16 2.36  29 2.36
  41  0.152  0.173  0.033-   1 2.25  18 2.26  30 2.26
  42  0.303  0.023  0.160-   2 2.25  31 2.26  19 2.26  18 2.36  30 2.36
  43  0.453  0.872  0.286-   3 2.25  20 2.26  32 2.26  19 2.36  31 2.36
  44  0.603  0.722  0.413-   4 2.25  21 2.26  33 2.26  32 2.36  20 2.36
  45  0.019  0.639  0.202-   6 2.25  25 2.26  35 2.26  24 2.36  34 2.36
  46  0.170  0.489  0.329-   7 2.25  36 2.26  22 2.26  35 2.36  25 2.36
  47  0.320  0.339  0.456-   8 2.25  36 2.36  22 2.36
  48  0.869  0.789  0.075-   9 2.25  34 2.26  24 2.26  23 2.36
  49  0.486  0.842  0.033-  23 2.25   2 2.26  27 2.26   1 2.36
  50  0.636  0.692  0.160-  24 2.25  28 2.26   3 2.26   2 2.36  27 2.36
  51  0.787  0.542  0.287-  25 2.25   4 2.26  29 2.26  28 2.36   3 2.36
  52  0.937  0.391  0.414-  22 2.25   5 2.26  26 2.26   4 2.36  29 2.36
  53  0.203  0.459  0.075-  14 2.25  30 2.26   6 2.26   9 2.36
  54  0.353  0.308  0.202-  15 2.25   7 2.26  31 2.26  30 2.36   6 2.36
  55  0.503  0.158  0.329-  16 2.25   8 2.26  32 2.26   7 2.36  31 2.36
  56  0.654  0.008  0.456-  17 2.25  33 2.26  32 2.36   8 2.36
  57  0.070  0.925  0.245-  19 2.25  35 2.26  13 2.26  12 2.36  34 2.36
  58  0.220  0.775  0.372-  20 2.25  10 2.26  36 2.26  35 2.36  13 2.36
  59  0.370  0.624  0.498-  21 2.25  36 2.36  10 2.36
  60  0.920  0.075  0.118-  18 2.25  12 2.26  34 2.26  11 2.36
  61  0.200  0.792  0.076-  34 2.25  14 2.26   2 2.26   1 2.36
  62  0.350  0.641  0.203-  35 2.25  15 2.26   3 2.26  14 2.36   2 2.36
  63  0.501  0.491  0.330-  36 2.25   4 2.26  16 2.26   3 2.36  15 2.36
  64  0.651  0.341  0.457-   5 2.26  17 2.26  16 2.36   4 2.36
  65  0.067  0.258  0.245-  29 2.25   7 2.26  19 2.26   6 2.36  18 2.36
  66  0.218  0.108  0.372-  26 2.25  20 2.26   8 2.26  19 2.36   7 2.36
  67  0.368  0.957  0.499-  21 2.26  20 2.36   8 2.36
  68  0.917  0.408  0.118-  28 2.25  18 2.26   6 2.26   9 2.36
  69  0.483  0.175  0.033-  30 2.25  11 2.26  23 2.26
  70  0.634  0.025  0.160-  31 2.25  12 2.26  24 2.26  11 2.36  23 2.36
  71  0.784  0.874  0.287-  32 2.25  25 2.26  13 2.26  24 2.36  12 2.36
  72  0.934  0.724  0.414-  33 2.25  10 2.26  22 2.26  13 2.36  25 2.36
 
  LATTYP: Found a base centered orthorhombic cell.
 ALAT       =    11.4527836704
 B/A-ratio  =     1.4485816945
 C/A-ratio  =     1.8059804630
  
  Lattice vectors:
  
 A1 = (   9.4251025535,   3.5732980427,   0.0000000000)
 A2 = (   0.0000000000, -10.0797329849,   0.0000000000)
 A3 = (   0.0000000000,   0.0000000000, -20.6835035552)


Analysis of symmetry for initial positions (statically):
=====================================================================
 Subroutine PRICEL returns:
 Original cell was already a primitive cell.
 

 Routine SETGRP: Setting up the symmetry group for a 
 base centered orthorhombic supercell.


 Subroutine GETGRP returns: Found  1 space group operations
 (whereof  1 operations were pure point group operations)
 out of a pool of  8 trial point group operations.


The static configuration has the point symmetry C_1 .


Analysis of symmetry for dynamics (positions and initial velocities):
=====================================================================
 Subroutine PRICEL returns:
 Original cell was already a primitive cell.
 

 Routine SETGRP: Setting up the symmetry group for a 
 base centered orthorhombic supercell.


 Subroutine GETGRP returns: Found  1 space group operations
 (whereof  1 operations were pure point group operations)
 out of a pool of  8 trial point group operations.


The dynamic configuration has the point symmetry C_1 .


 Subroutine INISYM returns: Found  1 space group operations
 (whereof  1 operations are pure point group operations),
 and found     1 'primitive' translations


----------------------------------------------------------------------------------------

                                     Primitive cell                                     

  volume of cell :    1964.9849

  direct lattice vectors                    reciprocal lattice vectors
     9.425102554  3.573298043  0.000000000     0.106099641  0.000000000  0.000000000
     0.000000000 10.079732985  0.000000000    -0.037612667  0.099208977  0.000000000
     0.000000000  0.000000000 20.683503555     0.000000000  0.000000000  0.048347708

  length of vectors
    10.079732985 10.079732985 20.683503555     0.106099641  0.106099641  0.048347708

  position of ions in fractional coordinates (direct lattice)
     0.246790380  0.945220301  0.000000000
     0.397058892  0.794951789  0.126937024
     0.547327404  0.644683277  0.253874049
     0.697595917  0.494414764  0.380811073
     0.847864429  0.344146252  0.507748097
     0.113815063  0.411528951  0.169249366
     0.264083575  0.261260439  0.296186390
     0.414352088  0.110991927  0.423123414
     0.963546550  0.561797464  0.042312341
     0.131108258  0.727569089  0.465435756
     0.680302721  0.178374626  0.084624683
     0.830571234  0.028106114  0.211561707
     0.980839746  0.877837602  0.338498732
     0.357357049  0.570447632  0.093399501
     0.507625562  0.420179119  0.220336525
     0.657894074  0.269910607  0.347273550
     0.808162587  0.119642094  0.474210574
     0.074113220  0.187024794  0.135711842
     0.224381733  0.036756282  0.262648867
     0.374650245  0.886487769  0.389585891
     0.524918757  0.736219257  0.516522915
     0.091406416  0.503064932  0.431898232
     0.640600879  0.953870469  0.051087159
     0.790869391  0.803601957  0.178024184
     0.941137903  0.653333444  0.304961208
     0.032666744  0.159343937  0.440673050
     0.581861207  0.610149474  0.059861977
     0.732129719  0.459880962  0.186799002
     0.882398232  0.309612449  0.313736026
     0.298617378  0.226726637  0.102174319
     0.448885890  0.076458124  0.229111343
     0.599154402  0.926189612  0.356048368
     0.749422915  0.775921099  0.482985392
     0.015373548  0.843303799  0.144486660
     0.165642061  0.693035287  0.271423685
     0.315910573  0.542766774  0.398360709
     0.036604831  0.955193850  0.498057640
     0.585799294  0.405999387  0.117246567
     0.736067806  0.255730875  0.244183592
     0.886336318  0.105462363  0.371120616
     0.152286952  0.172845062  0.032621884
     0.302555464  0.022576550  0.159558909
     0.452823977  0.872308037  0.286495933
     0.603092489  0.722039525  0.413432957
     0.019311635  0.639153712  0.201871250
     0.169580148  0.488885200  0.328808274
     0.319848660  0.338616688  0.455745299
     0.869043123  0.789422225  0.074934226
     0.486085617  0.842143064  0.033014966
     0.636354129  0.691874552  0.159951990
     0.786622642  0.541606039  0.286889015
     0.936891154  0.391337527  0.413826039
     0.202841788  0.458720227  0.075327307
     0.353110300  0.308451714  0.202264332
     0.503378812  0.158183202  0.329201356
     0.653647325  0.007914689  0.456138380
     0.069866471  0.925028877  0.244576673
     0.220134983  0.774760364  0.371513698
     0.370403496  0.624491852  0.498450722
     0.919597958  0.075297389  0.117639649
     0.200210452  0.791588228  0.075720389
     0.350478965  0.641319716  0.202657413
     0.500747477  0.491051204  0.329594438
     0.651015990  0.340782691  0.456531462
     0.067235136  0.257896879  0.244969755
     0.217503648  0.107628366  0.371906779
     0.367772160  0.957359854  0.498843804
     0.916966623  0.408165391  0.118032731
     0.483454282  0.175011066  0.033408048
     0.633722794  0.024742554  0.160345072
     0.783991306  0.874474041  0.287282096
     0.934259819  0.724205529  0.414219121

  ion indices of the primitive-cell ions
   primitive index   ion index
                 1           1
                 2           2
                 3           3
                 4           4
                 5           5
                 6           6
                 7           7
                 8           8
                 9           9
                10          10
                11          11
                12          12
                13          13
                14          14
                15          15
                16          16
                17          17
                18          18
                19          19
                20          20
                21          21
                22          22
                23          23
                24          24
                25          25
                26          26
                27          27
                28          28
                29          29
                30          30
                31          31
                32          32
                33          33
                34          34
                35          35
                36          36
                37          37
                38          38
                39          39
                40          40
                41          41
                42          42
                43          43
                44          44
                45          45
                46          46
                47          47
                48          48
                49          49
                50          50
                51          51
                52          52
                53          53
                54          54
                55          55
                56          56
                57          57
                58          58
                59          59
                60          60
                61          61
                62          62
                63          63
                64          64
                65          65
                66          66
                67          67
                68          68
                69          69
                70          70
                71          71
                72          72

----------------------------------------------------------------------------------------

 
 
 KPOINTS: gamma-point-only calculation. no periodi

Automatic generation of k-mesh.
Space group operators:
 irot       det(A)        alpha          n_x          n_y          n_z        tau_x        tau_y        tau_z
    1     1.000000     0.000000     1.000000     0.000000     0.000000     0.000000     0.000000     0.000000
 
 Subroutine IBZKPT returns following result:
 ===========================================
 
 Found      1 irreducible k-points:
 
 Following reciprocal coordinates:
            Coordinates               Weight
  0.000000  0.000000  0.000000      1.000000
 
 Following cartesian coordinates:
            Coordinates               Weight
  0.000000  0.000000  0.000000      1.000000
 


--------------------------------------------------------------------------------------------------------




 Dimension of arrays:
   k-points           NKPTS =      1   k-points in BZ     NKDIM =      1   number of bands    NBANDS=    480
   number of dos      NEDOS =    301   number of ions     NIONS =     72
   non local maximal  LDIM  =      6   non local SUM 2l+1 LMDIM =     18
   total plane-waves  NPLWV = 314928
   max r-space proj   IRMAX =   1817   max aug-charges    IRDMAX=   5248
   dimension x,y,z NGX =    54 NGY =   54 NGZ =  108
   dimension x,y,z NGXF=   108 NGYF=  108 NGZF=  216
   support grid    NGXF=   108 NGYF=  108 NGZF=  216
   ions per type =              36  36
   NGX,Y,Z   is equivalent  to a cutoff of   8.91,  8.91,  8.68 a.u.
   NGXF,Y,Z  is equivalent  to a cutoff of  17.81, 17.81, 17.36 a.u.

 SYSTEM =  "Millerite NiS"                         
 POSCAR =  Structure 10 made from -211-7.xsd file  

 Startparameter for this run:
   NWRITE =      2    write-flag & timer
   PREC   = normal    normal or accurate (medium, high low for compatibility)
   ISTART =      0    job   : 0-new  1-cont  2-samecut
   ICHARG =      2    charge: 1-file 2-atom 10-const
   ISPIN  =      1    spin polarized calculation?
   LNONCOLLINEAR =      F non collinear calculations
   LSORBIT =      F    spin-orbit coupling
   INIWAV =      1    electr: 0-lowe 1-rand  2-diag
   LASPH  =      F    aspherical Exc in radial PAW
   METAGGA=      F    non-selfconsistent MetaGGA calc.

 Electronic Relaxation 1
   ENCUT  =  450.0 eV  33.07 Ry    5.75 a.u.  17.43 17.43 35.78*2*pi/ulx,y,z
   ENINI  =  450.0     initial cutoff
   ENAUG  =  703.4 eV  augmentation charge cutoff
   NELM   =    100;   NELMIN=  2; NELMDL= -5     # of ELM steps 
   EDIFF  = 0.1E-03   stopping-criterion for ELM
   LREAL  =      T    real-space projection
   NLSPLINE    = F    spline interpolate recip. space projectors
   LCOMPAT=      F    compatible to vasp.4.4
   GGA_COMPAT  = T    GGA compatible to vasp.4.4-vasp.4.6
   LMAXPAW     = -100 max onsite density
   LMAXMIX     =    2 max onsite mixed and CHGCAR
   VOSKOWN=      0    Vosko Wilk Nusair interpolation
   ROPT   =   -0.00050  -0.00050
 Ionic relaxation
   EDIFFG = 0.1E-02   stopping-criterion for IOM
   NSW    =      0    number of steps for IOM
   NBLOCK =      1;   KBLOCK =      1    inner block; outer block 
   IBRION =     -1    ionic relax: 0-MD 1-quasi-New 2-CG
   NFREE  =      0    steps in history (QN), initial steepest desc. (CG)
   ISIF   =      2    stress and relaxation
   IWAVPR =     10    prediction:  0-non 1-charg 2-wave 3-comb
   ISYM   =      2    0-nonsym 1-usesym 2-fastsym
   LCORR  =      T    Harris-Foulkes like correction to forces

   POTIM  = 0.5000    time-step for ionic-motion
   TEIN   =    0.0    initial temperature
   TEBEG  =    0.0;   TEEND  =   0.0 temperature during run
   SMASS  =  -3.00    Nose mass-parameter (am)
   estimated Nose-frequenzy (Omega)   =  0.10E-29 period in steps = 0.13E+47 mass=  -0.232E-26a.u.
   SCALEE = 1.0000    scale energy and forces
   NPACO  =    256;   APACO  = 16.0  distance and # of slots for P.C.
   PSTRESS=    0.0 pullay stress

  Mass of Ions in am
   POMASS =  58.69 32.07
  Ionic Valenz
   ZVAL   =  16.00  6.00
  Atomic Wigner-Seitz radii
   RWIGS  =  -1.00 -1.00
  virtual crystal weights 
   VCA    =   1.00  1.00
   NELECT =     792.0000    total number of electrons
   NUPDOWN=      -1.0000    fix difference up-down

 DOS related values:
   EMIN   =  10.00;   EMAX   =-10.00  energy-range for DOS
   EFERMI =   0.00
   ISMEAR =     0;   SIGMA  =   0.20  broadening in eV -4-tet -1-fermi 0-gaus

 Electronic relaxation 2 (details)
   IALGO  =     38    algorithm
   LDIAG  =      T    sub-space diagonalisation (order eigenvalues)
   LSUBROT=      F    optimize rotation matrix (better conditioning)
   TURBO    =      0    0=normal 1=particle mesh
   IRESTART =      0    0=no restart 2=restart with 2 vectors
   NREBOOT  =      0    no. of reboots
   NMIN     =      0    reboot dimension
   EREF     =   0.00    reference energy to select bands
   IMIX   =      4    mixing-type and parameters
     AMIX     =   0.40;   BMIX     =  1.00
     AMIX_MAG =   1.60;   BMIX_MAG =  1.00
     AMIN     =   0.10
     WC   =   100.;   INIMIX=   1;  MIXPRE=   1;  MAXMIX= -45

 Intra band minimization:
   WEIMIN = 0.0000     energy-eigenvalue tresh-hold
   EBREAK =  0.52E-07  absolut break condition
   DEPER  =   0.30     relativ break condition  

   TIME   =   0.40     timestep for ELM

  volume/ion in A,a.u.               =      27.29       184.17
  Fermi-wavevector in a.u.,A,eV,Ry     =   1.209289  2.285225 19.896891  1.462380
  Thomas-Fermi vector in A             =   2.344871
 
 Write flags
   LWAVE        =      F    write WAVECAR
   LDOWNSAMPLE  =      F    k-point downsampling of WAVECAR
   LCHARG       =      F    write CHGCAR
   LVTOT        =      F    write LOCPOT, total local potential
   LVHAR        =      F    write LOCPOT, Hartree potential only
   LELF         =      F    write electronic localiz. function (ELF)
   LORBIT       =      0    0 simple, 1 ext, 2 COOP (PROOUT), +10 PAW based schemes


 Dipole corrections
   LMONO  =      F    monopole corrections only (constant potential shift)
   LDIPOL =      F    correct potential (dipole corrections)
   IDIPOL =      0    1-x, 2-y, 3-z, 4-all directions 
   EPSILON=  1.0000000 bulk dielectric constant

 Exchange correlation treatment:
   GGA     =    --    GGA type
   LEXCH   =     8    internal setting for exchange type
   VOSKOWN=      0    Vosko Wilk Nusair interpolation
   LHFCALC =     F    Hartree Fock is set to
   LHFONE  =     F    Hartree Fock one center treatment
   AEXX    =    0.0000 exact exchange contribution

 Linear response parameters
   LEPSILON=     F    determine dielectric tensor
   LRPA    =     F    only Hartree local field effects (RPA)
   LNABLA  =     F    use nabla operator in PAW spheres
   LVEL    =     F    velocity operator in full k-point grid
   LINTERFAST=   F  fast interpolation
   KINTER  =     0    interpolate to denser k-point grid
   CSHIFT  =0.1000    complex shift for real part using Kramers Kronig
   OMEGAMAX=  -1.0    maximum frequency
   DEG_THRESHOLD= 0.2000000E-02 threshold for treating states as degnerate
   RTIME   =   -0.100 relaxation time in fs
  (WPLASMAI=    0.000 imaginary part of plasma frequency in eV, 0.658/RTIME)
   DFIELD  = 0.0000000 0.0000000 0.0000000 field for delta impulse in time
 
 Orbital magnetization related:
   ORBITALMAG=     F  switch on orbital magnetization
   LCHIMAG   =     F  perturbation theory with respect to B field
   DQ        =  0.001000  dq finite difference perturbation B field
   LLRAUG    =     F  two centre corrections for induced B field



--------------------------------------------------------------------------------------------------------


 Static calculation
 charge density and potential will be updated during run
 non-spin polarized calculation
 Variant of blocked Davidson
 Davidson routine will perform the subspace rotation
 perform sub-space diagonalisation
    after iterative eigenvector-optimisation
 modified Broyden-mixing scheme, WC =      100.0
 initial mixing is a Kerker type mixing with AMIX =  0.4000 and BMIX =      1.0000
 Hartree-type preconditioning will be used
 using additional bands           84
 real space projection scheme for non local part
 use partial core corrections
 calculate Harris-corrections to forces 
   (improved forces if not selfconsistent)
 use gradient corrections 
 use of overlap-Matrix (Vanderbilt PP)
 Gauss-broadening in eV      SIGMA  =   0.20


--------------------------------------------------------------------------------------------------------


  energy-cutoff  :      450.00
  volume of cell :     1964.98
      direct lattice vectors                 reciprocal lattice vectors
     9.425102554  3.573298043  0.000000000     0.106099641  0.000000000  0.000000000
     0.000000000 10.079732985  0.000000000    -0.037612667  0.099208977  0.000000000
     0.000000000  0.000000000 20.683503555     0.000000000  0.000000000  0.048347708

  length of vectors
    10.079732985 10.079732985 20.683503555     0.106099641  0.106099641  0.048347708


 
 k-points in units of 2pi/SCALE and weight: gamma-point-only calculation. no periodi
   0.00000000  0.00000000  0.00000000       1.000
 
 k-points in reciprocal lattice and weights: gamma-point-only calculation. no periodi
   0.00000000  0.00000000  0.00000000       1.000
 
 position of ions in fractional coordinates (direct lattice) 
   0.24679038  0.94522030  0.00000000
   0.39705889  0.79495179  0.12693702
   0.54732740  0.64468328  0.25387405
   0.69759592  0.49441476  0.38081107
   0.84786443  0.34414625  0.50774810
   0.11381506  0.41152895  0.16924937
   0.26408358  0.26126044  0.29618639
   0.41435209  0.11099193  0.42312341
   0.96354655  0.56179746  0.04231234
   0.13110826  0.72756909  0.46543576
   0.68030272  0.17837463  0.08462468
   0.83057123  0.02810611  0.21156171
   0.98083975  0.87783760  0.33849873
   0.35735705  0.57044763  0.09339950
   0.50762556  0.42017912  0.22033653
   0.65789407  0.26991061  0.34727355
   0.80816259  0.11964209  0.47421057
   0.07411322  0.18702479  0.13571184
   0.22438173  0.03675628  0.26264887
   0.37465024  0.88648777  0.38958589
   0.52491876  0.73621926  0.51652292
   0.09140642  0.50306493  0.43189823
   0.64060088  0.95387047  0.05108716
   0.79086939  0.80360196  0.17802418
   0.94113790  0.65333344  0.30496121
   0.03266674  0.15934394  0.44067305
   0.58186121  0.61014947  0.05986198
   0.73212972  0.45988096  0.18679900
   0.88239823  0.30961245  0.31373603
   0.29861738  0.22672664  0.10217432
   0.44888589  0.07645812  0.22911134
   0.59915440  0.92618961  0.35604837
   0.74942291  0.77592110  0.48298539
   0.01537355  0.84330380  0.14448666
   0.16564206  0.69303529  0.27142369
   0.31591057  0.54276677  0.39836071
   0.03660483  0.95519385  0.49805764
   0.58579929  0.40599939  0.11724657
   0.73606781  0.25573087  0.24418359
   0.88633632  0.10546236  0.37112062
   0.15228695  0.17284506  0.03262188
   0.30255546  0.02257655  0.15955891
   0.45282398  0.87230804  0.28649593
   0.60309249  0.72203952  0.41343296
   0.01931164  0.63915371  0.20187125
   0.16958015  0.48888520  0.32880827
   0.31984866  0.33861669  0.45574530
   0.86904312  0.78942223  0.07493423
   0.48608562  0.84214306  0.03301497
   0.63635413  0.69187455  0.15995199
   0.78662264  0.54160604  0.28688901
   0.93689115  0.39133753  0.41382604
   0.20284179  0.45872023  0.07532731
   0.35311030  0.30845171  0.20226433
   0.50337881  0.15818320  0.32920136
   0.65364733  0.00791469  0.45613838
   0.06986647  0.92502888  0.24457667
   0.22013498  0.77476036  0.37151370
   0.37040350  0.62449185  0.49845072
   0.91959796  0.07529739  0.11763965
   0.20021045  0.79158823  0.07572039
   0.35047897  0.64131972  0.20265741
   0.50074748  0.49105120  0.32959444
   0.65101599  0.34078269  0.45653146
   0.06723514  0.25789688  0.24496975
   0.21750365  0.10762837  0.37190678
   0.36777216  0.95735985  0.49884380
   0.91696662  0.40816539  0.11803273
   0.48345428  0.17501107  0.03340805
   0.63372279  0.02474255  0.16034507
   0.78399131  0.87447404  0.28728210
   0.93425982  0.72420553  0.41421912
 
 position of ions in cartesian coordinates  (Angst):
   2.32602464 10.40942383  0.00000000
   3.74232078  9.43171153  2.62550239
   5.15861691  8.45399923  5.25100480
   6.57491306  7.47628693  7.87650718
   7.99120919  6.49857463 10.50200957
   1.07271864  4.55479708  3.50066986
   2.48901478  3.57708479  6.12617225
   3.90531092  2.59937249  8.75167464
   9.08152505  9.10580743  0.87516746
   1.23570878  7.80219103  9.62684211
   6.41192291  4.22889298  1.75033493
   7.82821906  3.25118069  4.37583732
   9.24451519 12.35320138  7.00133973
   3.36812684  7.02690306  1.93182891
   4.78442298  6.04919075  4.55733130
   6.20071912  5.07147846  7.18283371
   7.61701526  4.09376615  9.80833609
   0.69852470  2.14998861  2.80699637
   2.11482084  1.17227632  5.43249877
   3.53111698 10.27429699  8.05800116
   4.94741312  9.29658470 10.68350355
   0.86151484  5.39738256  8.93316862
   6.03772898 11.90381750  1.05666143
   7.45402512 10.92610520  3.68216384
   8.87032125  9.94839289  6.30766623
   0.30788741  1.72287235  9.11466260
   5.48410155  8.22930729  1.23815541
   6.90039768  7.25159499  3.86365782
   8.31669383  6.27388269  6.48916021
   2.81449941  3.35239285  2.11332289
   4.23079555  2.37468055  4.73882528
   5.64709168 11.47670123  7.36432769
   7.06338783 10.49898893  9.98983007
   0.14489727  8.55521139  2.98849035
   1.56119341  7.57749909  5.61399275
   2.97748955  6.59978679  8.23949514
   0.34500429  9.75889893 10.30157697
   5.52121842  6.18560088  2.42506979
   6.93751456  5.20788859  5.05057219
   8.35381069  4.23017629  7.67607458
   1.43532014  2.28639874  0.67473485
   2.85161628  1.30868644  3.30023726
   4.26791242 10.41070712  5.92573965
   5.68420856  9.43299483  8.55124204
   0.18201414  6.51150498  4.17540472
   1.59831029  5.53379269  6.80090710
   3.01460642  4.55608039  9.42640951
   8.19082056 11.06251533  1.54990233
   4.58140679 10.22550600  0.68286517
   5.99770293  9.24779371  3.30836755
   7.41399907  8.27008140  5.93386996
   8.83029521  7.29236911  8.55937235
   1.91180465  5.34859157  1.55803262
   3.32810079  4.37087926  4.18353503
   4.74439693  3.39316696  6.80903742
   6.16069307  2.41545466  9.43453980
   0.65849865  9.57369781  5.05870249
   2.07479479  8.59598550  7.68420489
   3.49109094  7.61827321 10.30970728
   8.66730506  4.04497516  2.43320010
   1.88700404  8.69440959  1.56616294
   3.30330019  7.71669729  4.19166532
   4.71959632  6.73898500  6.81716773
   6.13589247  5.76127269  9.44267012
   0.63369805  2.83978286  5.06683280
   2.04999419  1.86207055  7.69233519
   3.46629032 10.96409124 10.31783759
   8.64250446  7.39079319  2.44133041
   4.55660619  3.49159105  0.69099548
   5.97290232  2.51387876  3.31649787
   7.38919846 11.61589943  5.94200025
   8.80549461 10.63818714  8.56750266
 


--------------------------------------------------------------------------------------------------------


 use parallel FFT for orbitals z direction half grid
 k-point   1 :   0.0000 0.0000 0.0000  plane waves:   21301

 maximum and minimum number of plane-waves per node :      3554     3548

 maximum number of plane-waves:     21301
 maximum index in each direction: 
   IXMAX=   17   IYMAX=   17   IZMAX=   35
   IXMIN=  -17   IYMIN=  -17   IZMIN=    0


 real space projection operators:
  total allocation   :      11162.30 KBytes
  max/ min on nodes  :       1862.34       1859.02


 parallel 3D FFT for wavefunctions:
    minimum data exchange during FFTs selected (reduces bandwidth)
 parallel 3D FFT for charge:
    minimum data exchange during FFTs selected (reduces bandwidth)


 total amount of memory used by VASP MPI-rank0    45299. kBytes
=======================================================================

   base      :      30000. kBytes
   nonlr-proj:       2285. kBytes
   fftplans  :       3383. kBytes
   grid      :       6052. kBytes
   one-center:         93. kBytes
   wavefun   :       3486. kBytes
 
     INWAV:  cpu time    0.0000: real time    0.0000
 Broyden mixing: mesh for mixing (old mesh)
   NGX = 35   NGY = 35   NGZ = 71
  (NGX  =108   NGY  =108   NGZ  =216)
  gives a total of  86975 points

 initial charge density was supplied:
 charge density of overlapping atoms calculated
 number of electron     792.0000000 magnetization 
 keeping initial charge density in first step


--------------------------------------------------------------------------------------------------------


 Maximum index for non-local projection operator          301
 Maximum index for augmentation-charges          468 (set IRDMAX)


--------------------------------------------------------------------------------------------------------


 First call to EWALD:  gamma=   0.142
 Maximum number of real-space cells 3x 3x 2
 Maximum number of reciprocal cells 2x 2x 4

    FEWALD:  cpu time    0.0029: real time    0.0030


--------------------------------------- Iteration      1(   1)  ---------------------------------------


    POTLOK:  cpu time    0.0487: real time    0.0537
    SETDIJ:  cpu time    0.0069: real time    0.0086
     EDDAV:  cpu time    1.9952: real time    2.0014
       DOS:  cpu time    0.0007: real time    0.0008
    --------------------------------------------
      LOOP:  cpu time    2.0516: real time    2.0646

 eigenvalue-minimisations  :  1168
 total energy-change (2. order) : 0.9705235E+04  (-0.5087096E+05)
 number of electron     792.0000000 magnetization 
 augmentation part      792.0000000 magnetization 

 Free energy of the ion-electron system (eV)
  ---------------------------------------------------
  alpha Z        PSCENC =      1893.09323658
  Ewald energy   TEWEN  =    171175.37872417
  -Hartree energ DENC   =   -293739.22488401
  -exchange      EXHF   =         0.00000000
  -V(xc)+E(xc)   XCENC  =      3653.38819402
  PAW double counting   =    112729.53333415  -117641.51188735
  entropy T*S    EENTRO =        -0.30545285
  eigenvalues    EBANDS =     -4367.72142695
  atomic energy  EATOM  =    136002.60505376
  Solvation  Ediel_sol  =         0.00000000
  ---------------------------------------------------
  free energy    TOTEN  =      9705.23489153 eV

  energy without entropy =     9705.54034438  energy(sigma->0) =     9705.38761796


--------------------------------------------------------------------------------------------------------




--------------------------------------- Iteration      1(   2)  ---------------------------------------


     EDDAV:  cpu time    1.8116: real time    1.8198
       DOS:  cpu time    0.0006: real time    0.0006
    --------------------------------------------
      LOOP:  cpu time    1.8122: real time    1.8204

 eigenvalue-minimisations  :  1024
 total energy-change (2. order) :-0.9127301E+04  (-0.8783146E+04)
 number of electron     792.0000000 magnetization 
 augmentation part      792.0000000 magnetization 

 Free energy of the ion-electron system (eV)
  ---------------------------------------------------
  alpha Z        PSCENC =      1893.09323658
  Ewald energy   TEWEN  =    171175.37872417
  -Hartree energ DENC   =   -293739.22488401
  -exchange      EXHF   =         0.00000000
  -V(xc)+E(xc)   XCENC  =      3653.38819402
  PAW double counting   =    112729.53333415  -117641.51188735
  entropy T*S    EENTRO =        -0.78308679
  eigenvalues    EBANDS =    -13494.54502643
  atomic energy  EATOM  =    136002.60505376
  Solvation  Ediel_sol  =         0.00000000
  ---------------------------------------------------
  free energy    TOTEN  =       577.93365811 eV

  energy without entropy =      578.71674490  energy(sigma->0) =      578.32520151


--------------------------------------------------------------------------------------------------------




--------------------------------------- Iteration      1(   3)  ---------------------------------------


     EDDAV:  cpu time    1.8560: real time    1.8624
       DOS:  cpu time    0.0005: real time    0.0005
    --------------------------------------------
      LOOP:  cpu time    1.8566: real time    1.8629

 eigenvalue-minimisations  :  1080
 total energy-change (2. order) :-0.9242807E+03  (-0.8744675E+03)
 number of electron     792.0000000 magnetization 
 augmentation part      792.0000000 magnetization 

 Free energy of the ion-electron system (eV)
  ---------------------------------------------------
  alpha Z        PSCENC =      1893.09323658
  Ewald energy   TEWEN  =    171175.37872417
  -Hartree energ DENC   =   -293739.22488401
  -exchange      EXHF   =         0.00000000
  -V(xc)+E(xc)   XCENC  =      3653.38819402
  PAW double counting   =    112729.53333415  -117641.51188735
  entropy T*S    EENTRO =        -1.16988271
  eigenvalues    EBANDS =    -14418.43893017
  atomic energy  EATOM  =    136002.60505376
  Solvation  Ediel_sol  =         0.00000000
  ---------------------------------------------------
  free energy    TOTEN  =      -346.34704155 eV

  energy without entropy =     -345.17715884  energy(sigma->0) =     -345.76210019


--------------------------------------------------------------------------------------------------------




--------------------------------------- Iteration      1(   4)  ---------------------------------------


     EDDAV:  cpu time    1.9779: real time    1.9854
       DOS:  cpu time    0.0008: real time    0.0008
    --------------------------------------------
      LOOP:  cpu time    1.9787: real time    1.9863

 eigenvalue-minimisations  :  1144
 total energy-change (2. order) :-0.5932882E+02  (-0.5864097E+02)
 number of electron     792.0000000 magnetization 
 augmentation part      792.0000000 magnetization 

 Free energy of the ion-electron system (eV)
  ---------------------------------------------------
  alpha Z        PSCENC =      1893.09323658
  Ewald energy   TEWEN  =    171175.37872417
  -Hartree energ DENC   =   -293739.22488401
  -exchange      EXHF   =         0.00000000
  -V(xc)+E(xc)   XCENC  =      3653.38819402
  PAW double counting   =    112729.53333415  -117641.51188735
  entropy T*S    EENTRO =        -1.22324474
  eigenvalues    EBANDS =    -14477.71438431
  atomic energy  EATOM  =    136002.60505376
  Solvation  Ediel_sol  =         0.00000000
  ---------------------------------------------------
  free energy    TOTEN  =      -405.67585773 eV

  energy without entropy =     -404.45261298  energy(sigma->0) =     -405.06423536


--------------------------------------------------------------------------------------------------------




--------------------------------------- Iteration      1(   5)  ---------------------------------------


     EDDAV:  cpu time    2.0585: real time    2.0640
       DOS:  cpu time    0.0006: real time    0.0006
    CHARGE:  cpu time    0.0442: real time    0.0444
    MIXING:  cpu time    0.0024: real time    0.0027
    --------------------------------------------
      LOOP:  cpu time    2.1058: real time    2.1117

 eigenvalue-minimisations  :  1232
 total energy-change (2. order) :-0.2082599E+01  (-0.2079495E+01)
 number of electron     792.0000024 magnetization 
 augmentation part      286.4882176 magnetization 

 Broyden mixing:
  rms(total) = 0.82132E+01    rms(broyden)= 0.81990E+01
  rms(prec ) = 0.86167E+01
  weight for this iteration     100.00

 Free energy of the ion-electron system (eV)
  ---------------------------------------------------
  alpha Z        PSCENC =      1893.09323658
  Ewald energy   TEWEN  =    171175.37872417
  -Hartree energ DENC   =   -293739.22488401
  -exchange      EXHF   =         0.00000000
  -V(xc)+E(xc)   XCENC  =      3653.38819402
  PAW double counting   =    112729.53333415  -117641.51188735
  entropy T*S    EENTRO =        -1.22556928
  eigenvalues    EBANDS =    -14479.79465837
  atomic energy  EATOM  =    136002.60505376
  Solvation  Ediel_sol  =         0.00000000
  ---------------------------------------------------
  free energy    TOTEN  =      -407.75845632 eV

  energy without entropy =     -406.53288705  energy(sigma->0) =     -407.14567168


--------------------------------------------------------------------------------------------------------




--------------------------------------- Iteration      1(   6)  ---------------------------------------


    POTLOK:  cpu time    0.0428: real time    0.0429
    SETDIJ:  cpu time    0.0049: real time    0.0067
     EDDAV:  cpu time    1.9563: real time    1.9609
       DOS:  cpu time    0.0009: real time    0.0009
    CHARGE:  cpu time    0.0379: real time    0.0379
    MIXING:  cpu time    0.0020: real time    0.0021
    --------------------------------------------
      LOOP:  cpu time    2.0448: real time    2.0515

 eigenvalue-minimisations  :  1152
 total energy-change (2. order) :-0.7718216E+02  (-0.9520969E+02)
 number of electron     792.0000035 magnetization 
 augmentation part      351.5882464 magnetization 

 Broyden mixing:
  rms(total) = 0.15409E+02    rms(broyden)= 0.15406E+02
  rms(prec ) = 0.16018E+02
  weight for this iteration     100.00

 eigenvalues of (default mixing * dielectric matrix)
  average eigenvalue GAMMA=   0.2318
  0.2318

 Free energy of the ion-electron system (eV)
  ---------------------------------------------------
  alpha Z        PSCENC =      1893.09323658
  Ewald energy   TEWEN  =    171175.37872417
  -Hartree energ DENC   =   -291017.19378731
  -exchange      EXHF   =         0.00000000
  -V(xc)+E(xc)   XCENC  =      3576.99524005
  PAW double counting   =    114663.25150976  -119336.66207917
  entropy T*S    EENTRO =        -0.99912805
  eigenvalues    EBANDS =    -17441.40939077
  atomic energy  EATOM  =    136002.60505376
  Solvation  Ediel_sol  =         0.00000000
  ---------------------------------------------------
  free energy    TOTEN  =      -484.94062099 eV

  energy without entropy =     -483.94149294  energy(sigma->0) =     -484.44105696


--------------------------------------------------------------------------------------------------------




--------------------------------------- Iteration      1(   7)  ---------------------------------------


    POTLOK:  cpu time    0.0421: real time    0.0422
    SETDIJ:  cpu time    0.0049: real time    0.0049
     EDDAV:  cpu time    1.9758: real time    1.9820
       DOS:  cpu time    0.0007: real time    0.0007
    CHARGE:  cpu time    0.0392: real time    0.0393
    MIXING:  cpu time    0.0019: real time    0.0019
    --------------------------------------------
      LOOP:  cpu time    2.0646: real time    2.0709

 eigenvalue-minimisations  :  1136
 total energy-change (2. order) : 0.1087409E+03  (-0.1755457E+02)
 number of electron     792.0000030 magnetization 
 augmentation part      331.4813865 magnetization 

 Broyden mixing:
  rms(total) = 0.59770E+01    rms(broyden)= 0.59755E+01
  rms(prec ) = 0.62533E+01
  weight for this iteration     100.00

 eigenvalues of (default mixing * dielectric matrix)
  average eigenvalue GAMMA=   0.5113
  0.5113  0.5113

 Free energy of the ion-electron system (eV)
  ---------------------------------------------------
  alpha Z        PSCENC =      1893.09323658
  Ewald energy   TEWEN  =    171175.37872417
  -Hartree energ DENC   =   -292241.44523396
  -exchange      EXHF   =         0.00000000
  -V(xc)+E(xc)   XCENC  =      3605.90539187
  PAW double counting   =    118757.65740511  -123575.47023333
  entropy T*S    EENTRO =        -0.81973880
  eigenvalues    EBANDS =    -15993.10431125
  atomic energy  EATOM  =    136002.60505376
  Solvation  Ediel_sol  =         0.00000000
  ---------------------------------------------------
  free energy    TOTEN  =      -376.19970586 eV

  energy without entropy =     -375.37996706  energy(sigma->0) =     -375.78983646


--------------------------------------------------------------------------------------------------------




--------------------------------------- Iteration      1(   8)  ---------------------------------------


    POTLOK:  cpu time    0.0437: real time    0.0460
    SETDIJ:  cpu time    0.0065: real time    0.0066
     EDDAV:  cpu time    2.2273: real time    2.2326
       DOS:  cpu time    0.0006: real time    0.0006
    CHARGE:  cpu time    0.0373: real time    0.0374
    MIXING:  cpu time    0.0018: real time    0.0018
    --------------------------------------------
      LOOP:  cpu time    2.3172: real time    2.3249

 eigenvalue-minimisations  :  1336
 total energy-change (2. order) :-0.6830453E+02  (-0.1591462E+02)
 number of electron     792.0000040 magnetization 
 augmentation part      302.6409188 magnetization 

 Broyden mixing:
  rms(total) = 0.16753E+02    rms(broyden)= 0.16750E+02
  rms(prec ) = 0.19602E+02
  weight for this iteration     100.00

 eigenvalues of (default mixing * dielectric matrix)
  average eigenvalue GAMMA=   0.4173
  0.6977  0.4560  0.0981

 Free energy of the ion-electron system (eV)
  ---------------------------------------------------
  alpha Z        PSCENC =      1893.09323658
  Ewald energy   TEWEN  =    171175.37872417
  -Hartree energ DENC   =   -292767.77852512
  -exchange      EXHF   =         0.00000000
  -V(xc)+E(xc)   XCENC  =      3628.49722153
  PAW double counting   =    124271.07062791  -129201.46941986
  entropy T*S    EENTRO =        -0.77929498
  eigenvalues    EBANDS =    -15445.12185636
  atomic energy  EATOM  =    136002.60505376
  Solvation  Ediel_sol  =         0.00000000
  ---------------------------------------------------
  free energy    TOTEN  =      -444.50423238 eV

  energy without entropy =     -443.72493740  energy(sigma->0) =     -444.11458489


--------------------------------------------------------------------------------------------------------




--------------------------------------- Iteration      1(   9)  ---------------------------------------


    POTLOK:  cpu time    0.0428: real time    0.0431
    SETDIJ:  cpu time    0.0050: real time    0.0070
     EDDAV:  cpu time    2.0889: real time    2.0939
       DOS:  cpu time    0.0006: real time    0.0006
    CHARGE:  cpu time    0.0379: real time    0.0380
    MIXING:  cpu time    0.0021: real time    0.0022
    --------------------------------------------
      LOOP:  cpu time    2.1773: real time    2.1846

 eigenvalue-minimisations  :  1240
 total energy-change (2. order) : 0.7052001E+02  (-0.1339748E+02)
 number of electron     792.0000061 magnetization 
 augmentation part      307.9684813 magnetization 

 Broyden mixing:
  rms(total) = 0.54578E+01    rms(broyden)= 0.54466E+01
  rms(prec ) = 0.60022E+01
  weight for this iteration     100.00

 eigenvalues of (default mixing * dielectric matrix)
  average eigenvalue GAMMA=   0.4755
  1.1089  0.3560  0.3560  0.0810

 Free energy of the ion-electron system (eV)
  ---------------------------------------------------
  alpha Z        PSCENC =      1893.09323658
  Ewald energy   TEWEN  =    171175.37872417
  -Hartree energ DENC   =   -292931.59707907
  -exchange      EXHF   =         0.00000000
  -V(xc)+E(xc)   XCENC  =      3627.29203682
  PAW double counting   =    125643.67713831  -130582.62796867
  entropy T*S    EENTRO =        -1.08470553
  eigenvalues    EBANDS =    -15200.72065517
  atomic energy  EATOM  =    136002.60505376
  Solvation  Ediel_sol  =         0.00000000
  ---------------------------------------------------
  free energy    TOTEN  =      -373.98421882 eV

  energy without entropy =     -372.89951329  energy(sigma->0) =     -373.44186605


--------------------------------------------------------------------------------------------------------




--------------------------------------- Iteration      1(  10)  ---------------------------------------


    POTLOK:  cpu time    0.0420: real time    0.0420
    SETDIJ:  cpu time    0.0049: real time    0.0049
     EDDAV:  cpu time    2.2258: real time    2.2311
       DOS:  cpu time    0.0006: real time    0.0006
    CHARGE:  cpu time    0.0381: real time    0.0382
    MIXING:  cpu time    0.0019: real time    0.0019
    --------------------------------------------
      LOOP:  cpu time    2.3131: real time    2.3187

 eigenvalue-minimisations  :  1344
 total energy-change (2. order) :-0.8613581E+01  (-0.6344152E+01)
 number of electron     792.0000020 magnetization 
 augmentation part      306.6394115 magnetization 

 Broyden mixing:
  rms(total) = 0.70077E+01    rms(broyden)= 0.70034E+01
  rms(prec ) = 0.79056E+01
  weight for this iteration     100.00

 eigenvalues of (default mixing * dielectric matrix)
  average eigenvalue GAMMA=   0.6031
  1.9689  0.4169  0.4169  0.1219  0.0911

 Free energy of the ion-electron system (eV)
  ---------------------------------------------------
  alpha Z        PSCENC =      1893.09323658
  Ewald energy   TEWEN  =    171175.37872417
  -Hartree energ DENC   =   -293005.59993195
  -exchange      EXHF   =         0.00000000
  -V(xc)+E(xc)   XCENC  =      3626.14656030
  PAW double counting   =    127974.18338061  -132932.75165847
  entropy T*S    EENTRO =        -1.24973073
  eigenvalues    EBANDS =    -15114.40343440
  atomic energy  EATOM  =    136002.60505376
  Solvation  Ediel_sol  =         0.00000000
  ---------------------------------------------------
  free energy    TOTEN  =      -382.59780014 eV

  energy without entropy =     -381.34806941  energy(sigma->0) =     -381.97293478


--------------------------------------------------------------------------------------------------------




--------------------------------------- Iteration      1(  11)  ---------------------------------------


    POTLOK:  cpu time    0.0426: real time    0.0427
    SETDIJ:  cpu time    0.0048: real time    0.0048
     EDDAV:  cpu time    2.1780: real time    2.1832
       DOS:  cpu time    0.0006: real time    0.0006
    CHARGE:  cpu time    0.0432: real time    0.0433
    MIXING:  cpu time    0.0020: real time    0.0020
    --------------------------------------------
      LOOP:  cpu time    2.2711: real time    2.2766

 eigenvalue-minimisations  :  1312
 total energy-change (2. order) : 0.6418063E+01  (-0.4052885E+01)
 number of electron     792.0000021 magnetization 
 augmentation part      310.6962628 magnetization 

 Broyden mixing:
  rms(total) = 0.64652E+01    rms(broyden)= 0.64622E+01
  rms(prec ) = 0.74003E+01
  weight for this iteration     100.00

 eigenvalues of (default mixing * dielectric matrix)
  average eigenvalue GAMMA=   0.5337
  2.0455  0.4152  0.4152  0.1228  0.1228  0.0810

 Free energy of the ion-electron system (eV)
  ---------------------------------------------------
  alpha Z        PSCENC =      1893.09323658
  Ewald energy   TEWEN  =    171175.37872417
  -Hartree energ DENC   =   -292858.47663989
  -exchange      EXHF   =         0.00000000
  -V(xc)+E(xc)   XCENC  =      3622.44445449
  PAW double counting   =    131983.43265047  -136967.83371207
  entropy T*S    EENTRO =        -1.21972725
  eigenvalues    EBANDS =    -15225.60377754
  atomic energy  EATOM  =    136002.60505376
  Solvation  Ediel_sol  =         0.00000000
  ---------------------------------------------------
  free energy    TOTEN  =      -376.17973729 eV

  energy without entropy =     -374.96001004  energy(sigma->0) =     -375.56987367


--------------------------------------------------------------------------------------------------------




--------------------------------------- Iteration      1(  12)  ---------------------------------------


    POTLOK:  cpu time    0.0422: real time    0.0423
    SETDIJ:  cpu time    0.0049: real time    0.0049
     EDDAV:  cpu time    2.1973: real time    2.2041
       DOS:  cpu time    0.0007: real time    0.0007
    CHARGE:  cpu time    0.0465: real time    0.0466
    MIXING:  cpu time    0.0021: real time    0.0021
    --------------------------------------------
      LOOP:  cpu time    2.2936: real time    2.3007

 eigenvalue-minimisations  :  1304
 total energy-change (2. order) : 0.8529699E+01  (-0.3495055E+01)
 number of electron     792.0000037 magnetization 
 augmentation part      313.7944515 magnetization 

 Broyden mixing:
  rms(total) = 0.33118E+01    rms(broyden)= 0.33096E+01
  rms(prec ) = 0.37319E+01
  weight for this iteration     100.00

 eigenvalues of (default mixing * dielectric matrix)
  average eigenvalue GAMMA=   0.4933
  2.0648  0.4134  0.4134  0.2095  0.1695  0.0912  0.0912

 Free energy of the ion-electron system (eV)
  ---------------------------------------------------
  alpha Z        PSCENC =      1893.09323658
  Ewald energy   TEWEN  =    171175.37872417
  -Hartree energ DENC   =   -292861.44791945
  -exchange      EXHF   =         0.00000000
  -V(xc)+E(xc)   XCENC  =      3621.82268435
  PAW double counting   =    132436.00127018  -137423.28142833
  entropy T*S    EENTRO =        -0.88793938
  eigenvalues    EBANDS =    -15210.93372067
  atomic energy  EATOM  =    136002.60505376
  Solvation  Ediel_sol  =         0.00000000
  ---------------------------------------------------
  free energy    TOTEN  =      -367.65003879 eV

  energy without entropy =     -366.76209941  energy(sigma->0) =     -367.20606910


--------------------------------------------------------------------------------------------------------




--------------------------------------- Iteration      1(  13)  ---------------------------------------


    POTLOK:  cpu time    0.0431: real time    0.0439
    SETDIJ:  cpu time    0.0044: real time    0.0062
     EDDAV:  cpu time    2.1507: real time    2.1559
       DOS:  cpu time    0.0006: real time    0.0006
    CHARGE:  cpu time    0.0430: real time    0.0431
    MIXING:  cpu time    0.0024: real time    0.0024
    --------------------------------------------
      LOOP:  cpu time    2.2442: real time    2.2521

 eigenvalue-minimisations  :  1280
 total energy-change (2. order) : 0.3922207E+01  (-0.1419817E+01)
 number of electron     792.0000033 magnetization 
 augmentation part      313.7625571 magnetization 

 Broyden mixing:
  rms(total) = 0.26535E+01    rms(broyden)= 0.26502E+01
  rms(prec ) = 0.32290E+01
  weight for this iteration     100.00

 eigenvalues of (default mixing * dielectric matrix)
  average eigenvalue GAMMA=   0.5062
  2.0930  0.6309  0.4184  0.4184  0.1722  0.0836  0.1164  0.1164

 Free energy of the ion-electron system (eV)
  ---------------------------------------------------
  alpha Z        PSCENC =      1893.09323658
  Ewald energy   TEWEN  =    171175.37872417
  -Hartree energ DENC   =   -292863.52103909
  -exchange      EXHF   =         0.00000000
  -V(xc)+E(xc)   XCENC  =      3622.48465606
  PAW double counting   =    132503.27132370  -137493.96479738
  entropy T*S    EENTRO =        -0.88959073
  eigenvalues    EBANDS =    -15202.18539862
  atomic energy  EATOM  =    136002.60505376
  Solvation  Ediel_sol  =         0.00000000
  ---------------------------------------------------
  free energy    TOTEN  =      -363.72783156 eV

  energy without entropy =     -362.83824083  energy(sigma->0) =     -363.28303619


--------------------------------------------------------------------------------------------------------




--------------------------------------- Iteration      1(  14)  ---------------------------------------


    POTLOK:  cpu time    0.0429: real time    0.0443
    SETDIJ:  cpu time    0.0049: real time    0.0050
     EDDAV:  cpu time    2.0707: real time    2.0756
       DOS:  cpu time    0.0006: real time    0.0006
    CHARGE:  cpu time    0.0432: real time    0.0433
    MIXING:  cpu time    0.0022: real time    0.0022
    --------------------------------------------
      LOOP:  cpu time    2.1646: real time    2.1710

 eigenvalue-minimisations  :  1232
 total energy-change (2. order) : 0.3402564E+00  (-0.9646006E+00)
 number of electron     792.0000031 magnetization 
 augmentation part      313.2998800 magnetization 

 Broyden mixing:
  rms(total) = 0.26067E+01    rms(broyden)= 0.26042E+01
  rms(prec ) = 0.30684E+01
  weight for this iteration     100.00

 eigenvalues of (default mixing * dielectric matrix)
  average eigenvalue GAMMA=   0.4659
  2.0779  0.6018  0.4284  0.4284  0.2241  0.1257  0.1257  0.0839  0.0971

 Free energy of the ion-electron system (eV)
  ---------------------------------------------------
  alpha Z        PSCENC =      1893.09323658
  Ewald energy   TEWEN  =    171175.37872417
  -Hartree energ DENC   =   -292915.41806960
  -exchange      EXHF   =         0.00000000
  -V(xc)+E(xc)   XCENC  =      3623.00844264
  PAW double counting   =    132540.62356658  -137533.77608868
  entropy T*S    EENTRO =        -0.93695320
  eigenvalues    EBANDS =    -15147.96548741
  atomic energy  EATOM  =    136002.60505376
  Solvation  Ediel_sol  =         0.00000000
  ---------------------------------------------------
  free energy    TOTEN  =      -363.38757517 eV

  energy without entropy =     -362.45062197  energy(sigma->0) =     -362.91909857


--------------------------------------------------------------------------------------------------------




--------------------------------------- Iteration      1(  15)  ---------------------------------------


    POTLOK:  cpu time    0.0425: real time    0.0426
    SETDIJ:  cpu time    0.0048: real time    0.0048
     EDDAV:  cpu time    2.0752: real time    2.0802
       DOS:  cpu time    0.0006: real time    0.0006
    CHARGE:  cpu time    0.0432: real time    0.0433
    MIXING:  cpu time    0.0023: real time    0.0023
    --------------------------------------------
      LOOP:  cpu time    2.1686: real time    2.1738

 eigenvalue-minimisations  :  1232
 total energy-change (2. order) : 0.2395792E+01  (-0.3485906E+00)
 number of electron     792.0000038 magnetization 
 augmentation part      313.2569960 magnetization 

 Broyden mixing:
  rms(total) = 0.18612E+01    rms(broyden)= 0.18601E+01
  rms(prec ) = 0.21320E+01
  weight for this iteration     100.00

 eigenvalues of (default mixing * dielectric matrix)
  average eigenvalue GAMMA=   0.4700
  2.0600  0.6126  0.6126  0.4059  0.4059  0.1485  0.1485  0.1113  0.1113  0.0832

 Free energy of the ion-electron system (eV)
  ---------------------------------------------------
  alpha Z        PSCENC =      1893.09323658
  Ewald energy   TEWEN  =    171175.37872417
  -Hartree energ DENC   =   -292919.75413299
  -exchange      EXHF   =         0.00000000
  -V(xc)+E(xc)   XCENC  =      3623.29671287
  PAW double counting   =    132423.85740609  -137416.64249425
  entropy T*S    EENTRO =        -0.86745878
  eigenvalues    EBANDS =    -15141.95883090
  atomic energy  EATOM  =    136002.60505376
  Solvation  Ediel_sol  =         0.00000000
  ---------------------------------------------------
  free energy    TOTEN  =      -360.99178345 eV

  energy without entropy =     -360.12432467  energy(sigma->0) =     -360.55805406


--------------------------------------------------------------------------------------------------------




--------------------------------------- Iteration      1(  16)  ---------------------------------------


    POTLOK:  cpu time    0.0426: real time    0.0427
    SETDIJ:  cpu time    0.0049: real time    0.0049
     EDDAV:  cpu time    2.2096: real time    2.2149
       DOS:  cpu time    0.0006: real time    0.0006
    CHARGE:  cpu time    0.0421: real time    0.0422
    MIXING:  cpu time    0.0024: real time    0.0025
    --------------------------------------------
      LOOP:  cpu time    2.3022: real time    2.3077

 eigenvalue-minimisations  :  1328
 total energy-change (2. order) : 0.6917932E+00  (-0.1320865E+00)
 number of electron     792.0000031 magnetization 
 augmentation part      312.8138925 magnetization 

 Broyden mixing:
  rms(total) = 0.16400E+01    rms(broyden)= 0.16395E+01
  rms(prec ) = 0.18459E+01
  weight for this iteration     100.00

 eigenvalues of (default mixing * dielectric matrix)
  average eigenvalue GAMMA=   0.4637
  2.0400  0.7372  0.7372  0.4040  0.4040  0.1654  0.1654  0.1434  0.0834  0.1105
  0.1105

 Free energy of the ion-electron system (eV)
  ---------------------------------------------------
  alpha Z        PSCENC =      1893.09323658
  Ewald energy   TEWEN  =    171175.37872417
  -Hartree energ DENC   =   -292921.14063191
  -exchange      EXHF   =         0.00000000
  -V(xc)+E(xc)   XCENC  =      3623.59986312
  PAW double counting   =    132269.10720840  -137260.48557022
  entropy T*S    EENTRO =        -0.88435476
  eigenvalues    EBANDS =    -15141.57351935
  atomic energy  EATOM  =    136002.60505376
  Solvation  Ediel_sol  =         0.00000000
  ---------------------------------------------------
  free energy    TOTEN  =      -360.29999021 eV

  energy without entropy =     -359.41563545  energy(sigma->0) =     -359.85781283


--------------------------------------------------------------------------------------------------------




--------------------------------------- Iteration      1(  17)  ---------------------------------------


    POTLOK:  cpu time    0.0429: real time    0.0430
    SETDIJ:  cpu time    0.0048: real time    0.0049
     EDDAV:  cpu time    2.0683: real time    2.0732
       DOS:  cpu time    0.0006: real time    0.0006
    CHARGE:  cpu time    0.0422: real time    0.0423
    MIXING:  cpu time    0.0025: real time    0.0025
    --------------------------------------------
      LOOP:  cpu time    2.1613: real time    2.1664

 eigenvalue-minimisations  :  1224
 total energy-change (2. order) : 0.4520059E+00  (-0.8061897E-01)
 number of electron     792.0000035 magnetization 
 augmentation part      312.7807000 magnetization 

 Broyden mixing:
  rms(total) = 0.14145E+01    rms(broyden)= 0.14142E+01
  rms(prec ) = 0.16138E+01
  weight for this iteration     100.00

 eigenvalues of (default mixing * dielectric matrix)
  average eigenvalue GAMMA=   0.4699
  2.0241  0.8606  0.8606  0.4039  0.4039  0.3462  0.1759  0.0833  0.1298  0.1298
  0.1105  0.1105

 Free energy of the ion-electron system (eV)
  ---------------------------------------------------
  alpha Z        PSCENC =      1893.09323658
  Ewald energy   TEWEN  =    171175.37872417
  -Hartree energ DENC   =   -292923.07708270
  -exchange      EXHF   =         0.00000000
  -V(xc)+E(xc)   XCENC  =      3623.64267353
  PAW double counting   =    132132.80432544  -137122.18906986
  entropy T*S    EENTRO =        -0.87755541
  eigenvalues    EBANDS =    -15141.22828986
  atomic energy  EATOM  =    136002.60505376
  Solvation  Ediel_sol  =         0.00000000
  ---------------------------------------------------
  free energy    TOTEN  =      -359.84798434 eV

  energy without entropy =     -358.97042894  energy(sigma->0) =     -359.40920664


--------------------------------------------------------------------------------------------------------




--------------------------------------- Iteration      1(  18)  ---------------------------------------


    POTLOK:  cpu time    0.0426: real time    0.0427
    SETDIJ:  cpu time    0.0048: real time    0.0048
     EDDAV:  cpu time    2.1997: real time    2.2050
       DOS:  cpu time    0.0006: real time    0.0006
    CHARGE:  cpu time    0.0418: real time    0.0419
    MIXING:  cpu time    0.0029: real time    0.0029
    --------------------------------------------
      LOOP:  cpu time    2.2924: real time    2.2978

 eigenvalue-minimisations  :  1320
 total energy-change (2. order) : 0.3668524E+00  (-0.2841919E-01)
 number of electron     792.0000034 magnetization 
 augmentation part      312.6557678 magnetization 

 Broyden mixing:
  rms(total) = 0.12609E+01    rms(broyden)= 0.12607E+01
  rms(prec ) = 0.14339E+01
  weight for this iteration     100.00

 eigenvalues of (default mixing * dielectric matrix)
  average eigenvalue GAMMA=   0.4894
  2.0052  1.0668  1.0668  0.4512  0.4183  0.4183  0.2100  0.0833  0.1463  0.1463
  0.1104  0.1104  0.1294

 Free energy of the ion-electron system (eV)
  ---------------------------------------------------
  alpha Z        PSCENC =      1893.09323658
  Ewald energy   TEWEN  =    171175.37872417
  -Hartree energ DENC   =   -292927.02453294
  -exchange      EXHF   =         0.00000000
  -V(xc)+E(xc)   XCENC  =      3623.71903117
  PAW double counting   =    131962.50612386  -136949.43615070
  entropy T*S    EENTRO =        -0.89052979
  eigenvalues    EBANDS =    -15139.43208804
  atomic energy  EATOM  =    136002.60505376
  Solvation  Ediel_sol  =         0.00000000
  ---------------------------------------------------
  free energy    TOTEN  =      -359.48113194 eV

  energy without entropy =     -358.59060215  energy(sigma->0) =     -359.03586705


--------------------------------------------------------------------------------------------------------




--------------------------------------- Iteration      1(  19)  ---------------------------------------


    POTLOK:  cpu time    0.0427: real time    0.0428
    SETDIJ:  cpu time    0.0048: real time    0.0048
     EDDAV:  cpu time    2.1781: real time    2.1833
       DOS:  cpu time    0.0006: real time    0.0006
    CHARGE:  cpu time    0.0423: real time    0.0424
    MIXING:  cpu time    0.0026: real time    0.0026
    --------------------------------------------
      LOOP:  cpu time    2.2711: real time    2.2765

 eigenvalue-minimisations  :  1304
 total energy-change (2. order) : 0.3432012E+00  (-0.2186404E-01)
 number of electron     792.0000030 magnetization 
 augmentation part      312.6042374 magnetization 

 Broyden mixing:
  rms(total) = 0.10612E+01    rms(broyden)= 0.10610E+01
  rms(prec ) = 0.11979E+01
  weight for this iteration     100.00

 eigenvalues of (default mixing * dielectric matrix)
  average eigenvalue GAMMA=   0.5045
  2.0022  1.2448  1.2448  0.4389  0.4389  0.4018  0.4018  0.1646  0.1646  0.0833
  0.1286  0.1286  0.1102  0.1102

 Free energy of the ion-electron system (eV)
  ---------------------------------------------------
  alpha Z        PSCENC =      1893.09323658
  Ewald energy   TEWEN  =    171175.37872417
  -Hartree energ DENC   =   -292933.62156412
  -exchange      EXHF   =         0.00000000
  -V(xc)+E(xc)   XCENC  =      3623.75638575
  PAW double counting   =    131755.74284843  -136739.50406810
  entropy T*S    EENTRO =        -0.92913597
  eigenvalues    EBANDS =    -15135.65941120
  atomic energy  EATOM  =    136002.60505376
  Solvation  Ediel_sol  =         0.00000000
  ---------------------------------------------------
  free energy    TOTEN  =      -359.13793070 eV

  energy without entropy =     -358.20879473  energy(sigma->0) =     -358.67336272


--------------------------------------------------------------------------------------------------------




--------------------------------------- Iteration      1(  20)  ---------------------------------------


    POTLOK:  cpu time    0.0431: real time    0.0432
    SETDIJ:  cpu time    0.0048: real time    0.0049
     EDDAV:  cpu time    2.2077: real time    2.2144
       DOS:  cpu time    0.0006: real time    0.0006
    CHARGE:  cpu time    0.0427: real time    0.0428
    MIXING:  cpu time    0.0029: real time    0.0029
    --------------------------------------------
      LOOP:  cpu time    2.3018: real time    2.3088

 eigenvalue-minimisations  :  1304
 total energy-change (2. order) : 0.2110658E+00  (-0.1860649E-01)
 number of electron     792.0000033 magnetization 
 augmentation part      312.4830133 magnetization 

 Broyden mixing:
  rms(total) = 0.89833E+00    rms(broyden)= 0.89814E+00
  rms(prec ) = 0.10130E+01
  weight for this iteration     100.00

 eigenvalues of (default mixing * dielectric matrix)
  average eigenvalue GAMMA=   0.5427
  1.9891  1.5283  1.5283  0.5984  0.5984  0.4158  0.4158  0.1843  0.1843  0.0833
  0.1356  0.1356  0.1107  0.1107  0.1216

 Free energy of the ion-electron system (eV)
  ---------------------------------------------------
  alpha Z        PSCENC =      1893.09323658
  Ewald energy   TEWEN  =    171175.37872417
  -Hartree energ DENC   =   -292942.92214944
  -exchange      EXHF   =         0.00000000
  -V(xc)+E(xc)   XCENC  =      3623.81067381
  PAW double counting   =    131583.56330287  -136564.65052370
  entropy T*S    EENTRO =        -0.94439380
  eigenvalues    EBANDS =    -15128.86078915
  atomic energy  EATOM  =    136002.60505376
  Solvation  Ediel_sol  =         0.00000000
  ---------------------------------------------------
  free energy    TOTEN  =      -358.92686490 eV

  energy without entropy =     -357.98247110  energy(sigma->0) =     -358.45466800


--------------------------------------------------------------------------------------------------------




--------------------------------------- Iteration      1(  21)  ---------------------------------------


    POTLOK:  cpu time    0.0433: real time    0.0441
    SETDIJ:  cpu time    0.0045: real time    0.0062
     EDDAV:  cpu time    2.3581: real time    2.3637
       DOS:  cpu time    0.0006: real time    0.0006
    CHARGE:  cpu time    0.0377: real time    0.0378
    MIXING:  cpu time    0.0032: real time    0.0032
    --------------------------------------------
      LOOP:  cpu time    2.4475: real time    2.4557

 eigenvalue-minimisations  :  1424
 total energy-change (2. order) : 0.2704710E+00  (-0.1803518E-01)
 number of electron     792.0000030 magnetization 
 augmentation part      312.3141741 magnetization 

 Broyden mixing:
  rms(total) = 0.62315E+00    rms(broyden)= 0.62280E+00
  rms(prec ) = 0.70969E+00
  weight for this iteration     100.00

 eigenvalues of (default mixing * dielectric matrix)
  average eigenvalue GAMMA=   0.5555
  2.0027  1.6571  1.6571  0.6662  0.6662  0.4121  0.4121  0.3714  0.1866  0.0833
  0.1491  0.1491  0.1102  0.1102  0.1274  0.1274

 Free energy of the ion-electron system (eV)
  ---------------------------------------------------
  alpha Z        PSCENC =      1893.09323658
  Ewald energy   TEWEN  =    171175.37872417
  -Hartree energ DENC   =   -292960.24552829
  -exchange      EXHF   =         0.00000000
  -V(xc)+E(xc)   XCENC  =      3623.90453862
  PAW double counting   =    131299.04843642  -136275.97132719
  entropy T*S    EENTRO =        -0.96191213
  eigenvalues    EBANDS =    -15115.50761581
  atomic energy  EATOM  =    136002.60505376
  Solvation  Ediel_sol  =         0.00000000
  ---------------------------------------------------
  free energy    TOTEN  =      -358.65639389 eV

  energy without entropy =     -357.69448175  energy(sigma->0) =     -358.17543782


--------------------------------------------------------------------------------------------------------




--------------------------------------- Iteration      1(  22)  ---------------------------------------


    POTLOK:  cpu time    0.0433: real time    0.0441
[...]
    FORCOR:  cpu time    0.0551: real time    0.0570
    FORHAR:  cpu time    0.0233: real time    0.0235
    MIXING:  cpu time    0.0045: real time    0.0045
    OFIELD:  cpu time    0.0001: real time    0.0001

  FORCE on cell =-STRESS in cart. coord.  units (eV):
  Direction    XX          YY          ZZ          XY          YZ          ZX
  --------------------------------------------------------------------------------------
  Alpha Z  1893.09324  1893.09324  1893.09324
  Ewald  220918.71124221673.12898************  -277.75997  -358.70744   698.27922
  Hartree257859.72012258515.07883************  -144.26100  -240.48867   459.82361
  E(xc)   -5027.20860 -5027.14173 -5032.24233    -0.59821    -0.57424     0.94784
  Local  ************************481735.50529   404.04019   579.08314 -1128.40809
  n-local  -683.98638  -683.57681  -690.74731    -3.26758    -2.50119     4.11228
  augment  5790.54054  5788.91850  5810.83162     9.45347     9.01742   -12.64849
  Kinetic 10962.15435 10960.33200 11018.98181    17.08778    21.11741   -32.04921
  Fock        0.00000     0.00000     0.00000     0.00000     0.00000     0.00000
  -------------------------------------------------------------------------------------
  Total     -32.26812   -29.60301   -20.47877     4.69469     6.94642    -9.94284
  in kB     -26.31026   -24.13722   -16.69765     3.82788     5.66386    -8.10703
  external pressure =      -22.38 kB  Pullay stress =        0.00 kB


 VOLUME and BASIS-vectors are now :
 -----------------------------------------------------------------------------
  energy-cutoff  :      450.00
  volume of cell :     1964.98
      direct lattice vectors                 reciprocal lattice vectors
     9.425102554  3.573298043  0.000000000     0.106099641  0.000000000  0.000000000
     0.000000000 10.079732985  0.000000000    -0.037612667  0.099208977  0.000000000
     0.000000000  0.000000000 20.683503555     0.000000000  0.000000000  0.048347708

  length of vectors
    10.079732985 10.079732985 20.683503555     0.106099641  0.106099641  0.048347708


 FORCES acting on ions
    electron-ion (+dipol)            ewald-force                    non-local-force                 convergence-correction
 -----------------------------------------------------------------------------------------------
   0.319E+03 0.549E+02 0.475E+04   -.318E+03 -.491E+02 -.474E+04   -.179E+00 -.533E+01 -.981E+01   -.641E-01 -.300E-01 -.161E+00
   0.174E+03 -.315E+03 0.286E+04   -.175E+03 0.316E+03 -.286E+04   0.122E+01 -.126E+01 0.207E+01   -.181E+00 0.861E-01 -.669E-01
   0.129E+03 -.382E+03 0.587E+02   -.130E+03 0.383E+03 -.594E+02   0.118E+01 -.111E+01 0.764E+00   -.498E-01 0.203E-01 -.632E-01
   0.174E+03 -.374E+03 -.283E+04   -.175E+03 0.374E+03 0.283E+04   0.820E+00 -.575E+00 -.558E-01   -.602E-01 0.525E-01 -.183E-02
   0.314E+01 -.432E+03 -.507E+04   -.441E+01 0.425E+03 0.505E+04   0.788E+00 0.684E+01 0.130E+02   -.772E-01 0.356E-01 0.226E+00
   0.207E+03 -.385E+03 0.209E+04   -.208E+03 0.386E+03 -.209E+04   0.138E+01 -.138E+01 0.156E+01   -.176E-01 0.662E-01 -.736E-01
   0.140E+03 -.435E+03 -.964E+03   -.141E+03 0.436E+03 0.964E+03   0.680E+00 -.120E+01 0.222E+00   -.112E-01 0.135E+00 -.134E+00
   0.157E+03 -.553E+03 -.397E+04   -.158E+03 0.555E+03 0.397E+04   0.987E+00 -.154E+01 -.261E+01   0.168E-01 -.340E-01 -.250E-01
   0.778E+02 0.701E+02 0.474E+04   -.776E+02 -.668E+02 -.473E+04   0.208E-01 -.320E+01 -.887E+01   0.571E-01 0.477E-01 -.818E-01
   0.609E+02 -.175E+03 -.466E+04   -.596E+02 0.178E+03 0.466E+04   -.104E+01 -.259E+01 -.349E+00   0.933E-01 0.188E-01 0.619E-01
   -.241E+03 -.453E+03 0.418E+04   0.238E+03 0.452E+03 -.418E+04   0.299E+01 0.249E+00 -.377E+00   0.363E-02 -.778E-01 -.969E-01
   0.130E+03 -.444E+03 0.115E+04   -.130E+03 0.445E+03 -.115E+04   0.641E+00 -.136E+01 0.167E+01   0.236E-01 -.835E-01 -.156E+00
   0.138E+03 -.409E+03 -.185E+04   -.139E+03 0.410E+03 0.185E+04   0.483E+00 -.149E+01 0.598E+00   0.913E-01 -.121E+00 -.130E+00
   0.273E+03 0.475E+03 0.406E+04   -.276E+03 -.475E+03 -.406E+04   0.192E+01 0.995E-01 0.131E+01   -.173E+00 -.113E-01 -.233E-01
   0.252E+03 0.454E+03 0.109E+04   -.253E+03 -.454E+03 -.109E+04   0.116E+01 0.411E+00 0.317E-01   -.583E-01 -.174E-01 -.925E-01
   0.342E+03 0.439E+03 -.187E+04   -.342E+03 -.439E+03 0.187E+04   0.916E+00 0.598E+00 0.420E-01   -.181E-01 -.943E-02 -.101E+00
   0.318E+03 0.441E+03 -.452E+04   -.318E+03 -.442E+03 0.452E+04   -.720E+00 0.304E+00 0.706E+00   0.103E-01 0.604E-01 0.127E+00
   0.492E+03 0.363E+03 0.314E+04   -.494E+03 -.364E+03 -.314E+04   0.205E+01 0.847E+00 0.277E+01   0.509E-02 -.295E-01 -.129E+00
   0.299E+03 0.417E+03 0.937E+02   -.300E+03 -.418E+03 -.943E+02   0.105E+01 0.452E+00 0.719E+00   -.161E-01 -.832E-01 -.144E+00
   0.284E+03 0.376E+03 -.280E+04   -.285E+03 -.376E+03 0.280E+04   0.136E+01 0.288E-01 -.161E+01   0.216E-01 -.169E+00 0.108E-01
   0.880E+02 0.235E+03 -.487E+04   -.931E+02 -.231E+03 0.486E+04   0.383E+01 -.323E+01 0.661E+01   -.826E-01 -.163E+00 0.292E+00
   0.652E+02 0.485E+03 -.398E+04   -.627E+02 -.487E+03 0.397E+04   -.236E+01 0.772E+00 0.551E+00   0.862E-03 0.201E+00 -.127E-01
   -.186E+03 0.752E+02 0.463E+04   0.182E+03 -.752E+02 -.462E+04   0.323E+01 0.104E+00 -.826E+00   0.659E-02 0.128E+00 -.661E-01
   0.216E+03 0.394E+03 0.209E+04   -.217E+03 -.395E+03 -.209E+04   0.113E+01 0.225E+00 0.156E+01   0.953E-01 0.634E-01 -.654E-01
   0.253E+03 0.452E+03 -.856E+03   -.254E+03 -.452E+03 0.855E+03   0.981E+00 0.589E+00 0.805E+00   0.888E-01 0.795E-01 -.172E+00
   -.641E+03 -.644E+02 -.381E+04   0.640E+03 0.619E+02 0.381E+04   0.935E+00 0.179E+01 -.455E-01   -.446E-01 -.221E-01 0.508E-01
   -.596E+03 0.261E+03 0.479E+04   0.589E+03 -.258E+03 -.478E+04   0.692E+01 -.308E+01 -.406E+01   -.168E-01 0.396E-01 -.759E-01
   -.536E+03 0.680E+02 0.219E+04   0.538E+03 -.671E+02 -.219E+04   -.166E+01 -.655E+00 0.174E+01   0.386E-01 -.170E-01 -.438E-01
   -.479E+03 0.116E+02 -.796E+03   0.480E+03 -.117E+02 0.795E+03   -.316E+00 -.293E-01 0.173E+01   -.172E-03 0.179E-01 -.130E+00
   -.332E+03 -.136E+03 0.393E+04   0.334E+03 0.136E+03 -.394E+04   -.178E+01 -.112E+00 0.459E+01   0.209E-01 -.250E-01 -.983E-01
   -.478E+03 -.224E+02 0.109E+04   0.479E+03 0.228E+02 -.109E+04   -.385E+00 -.339E+00 0.109E+01   0.103E+00 0.192E-01 -.170E+00
   -.446E+03 -.273E+02 -.183E+04   0.447E+03 0.282E+02 0.183E+04   -.103E+01 -.725E+00 0.413E+00   0.215E-01 -.420E-01 -.170E+00
   -.376E+03 -.511E+02 -.458E+04   0.370E+03 0.535E+02 0.457E+04   0.558E+01 -.170E+01 0.560E+01   -.151E+00 -.150E+00 0.162E+00
   -.364E+03 -.550E+02 0.319E+04   0.365E+03 0.559E+02 -.320E+04   -.881E+00 -.697E+00 0.286E+01   0.228E-01 -.340E-01 -.682E-01
   -.469E+03 0.341E+02 0.150E+03   0.470E+03 -.337E+02 -.151E+03   -.945E+00 -.368E+00 0.826E+00   -.577E-01 -.294E-01 -.106E+00
   -.528E+03 0.189E+03 -.296E+04   0.530E+03 -.190E+03 0.296E+04   -.186E+01 0.103E+01 -.198E+01   -.966E-01 0.200E+00 -.236E-01
   -.909E+02 0.269E+02 -.185E+04   0.914E+02 -.262E+02 0.185E+04   -.115E+01 0.451E+00 -.386E+01   0.423E-01 -.787E-01 0.448E-01
   -.809E+02 0.147E+03 0.145E+04   0.812E+02 -.149E+03 -.145E+04   -.291E+00 0.195E+01 -.113E+00   0.998E-02 -.899E-01 -.542E-02
   -.400E+02 0.124E+03 0.347E+03   0.401E+02 -.126E+03 -.349E+03   -.167E+00 0.207E+01 0.174E+01   -.532E-02 -.195E-01 -.649E-01
   -.324E+02 0.118E+03 -.756E+03   0.327E+02 -.120E+03 0.754E+03   -.333E+00 0.222E+01 0.200E+01   0.317E-02 -.348E-01 -.332E-01
   0.204E+03 -.704E+02 0.190E+04   -.207E+03 0.723E+02 -.190E+04   0.315E+01 -.308E+01 0.362E+01   0.288E-01 -.822E-01 -.720E-01
   -.743E+01 0.116E+03 0.102E+04   0.810E+01 -.117E+03 -.102E+04   -.631E+00 0.167E+01 0.155E+01   -.293E-02 -.117E-01 -.919E-01
   -.327E+02 0.120E+03 -.472E+02   0.335E+02 -.122E+03 0.466E+02   -.761E+00 0.198E+01 0.822E+00   0.256E-01 -.283E-01 -.392E-01
   -.380E+02 0.116E+03 -.111E+04   0.383E+02 -.117E+03 0.111E+04   0.279E+00 0.159E+01 0.251E+01   -.776E-01 -.483E-01 0.579E-01
   -.321E+02 0.130E+03 0.705E+03   0.325E+02 -.132E+03 -.706E+03   -.385E+00 0.178E+01 0.136E+01   0.151E-01 0.372E-01 -.902E-02
   -.481E+02 0.134E+03 -.431E+03   0.489E+02 -.136E+03 0.430E+03   -.589E+00 0.222E+01 0.143E+01   -.205E-01 0.671E-01 -.784E-01
   -.829E+02 0.442E+02 -.173E+04   0.837E+02 -.438E+02 0.173E+04   -.138E+01 0.377E+00 -.442E+01   0.500E-02 0.291E-01 0.366E-01
   -.625E+02 -.879E+01 0.176E+04   0.630E+02 0.913E+01 -.176E+04   -.993E+00 -.134E+01 0.207E+01   0.277E-01 0.313E-01 -.167E-01
   -.703E+02 -.620E+02 0.184E+04   0.710E+02 0.619E+02 -.184E+04   -.451E+00 -.542E+00 0.822E+00   -.103E+00 0.827E-01 -.830E-01
   -.105E+03 -.127E+03 0.959E+03   0.106E+03 0.129E+03 -.959E+03   -.122E+01 -.255E+01 -.994E-01   0.165E-01 0.467E-01 0.207E-01
   -.826E+02 -.142E+03 -.113E+03   0.839E+02 0.144E+03 0.113E+03   -.123E+01 -.217E+01 -.137E+00   0.184E-01 0.446E-01 -.451E-01
   -.118E+03 -.158E+03 -.121E+04   0.119E+03 0.160E+03 0.121E+04   -.100E+01 -.217E+01 0.168E+01   -.254E-01 0.809E-02 0.111E-01
   -.131E+02 -.102E+03 0.173E+04   0.137E+02 0.103E+03 -.173E+04   -.677E+00 -.282E+00 0.228E+01   -.203E-01 -.160E-02 -.265E-01
   -.736E+02 -.157E+03 0.603E+03   0.747E+02 0.160E+03 -.603E+03   -.119E+01 -.254E+01 0.480E+00   -.552E-02 0.192E-01 -.502E-01
   -.653E+02 -.164E+03 -.514E+03   0.666E+02 0.166E+03 0.515E+03   -.134E+01 -.209E+01 -.468E+00   0.112E-01 0.413E-03 -.523E-01
   0.243E+02 -.123E+03 -.163E+04   -.244E+02 0.124E+03 0.163E+04   0.401E+00 -.128E+01 -.156E+01   -.145E-01 0.357E-01 0.127E-01
   -.641E+02 -.152E+03 0.256E+03   0.655E+02 0.155E+03 -.257E+03   -.133E+01 -.240E+01 0.532E+00   -.137E-01 -.821E-01 -.555E-01
   -.801E+02 -.134E+03 -.848E+03   0.814E+02 0.136E+03 0.848E+03   -.128E+01 -.297E+01 0.111E+00   -.320E-01 -.545E-01 0.125E-01
   -.528E+02 0.158E+03 -.183E+04   0.535E+02 -.159E+03 0.183E+04   -.129E+01 0.167E+01 -.301E+01   0.127E-01 0.925E-01 0.698E-01
   -.916E+01 -.127E+03 0.149E+04   0.992E+01 0.128E+03 -.149E+04   -.129E+01 -.365E+00 0.204E+01   0.296E-02 -.301E-01 -.500E-01
   0.218E+03 0.525E+02 0.164E+04   -.219E+03 -.536E+02 -.164E+04   0.204E+01 0.128E+01 0.150E+01   -.355E-01 0.638E-01 -.693E-01
   0.168E+03 0.740E+00 0.522E+03   -.170E+03 -.569E+00 -.522E+03   0.245E+01 0.143E+00 0.166E-01   -.574E-01 -.338E-02 -.308E-02
   0.174E+03 0.850E+01 -.592E+03   -.176E+03 -.834E+01 0.594E+03   0.197E+01 -.106E+00 -.130E+01   -.322E-01 0.205E-01 -.367E-01
   0.355E+03 0.241E+02 -.167E+04   -.360E+03 -.240E+02 0.167E+04   0.645E+01 -.499E-02 -.226E+01   0.438E-02 0.353E-01 0.597E-01
   0.174E+03 -.158E+02 0.173E+03   -.177E+03 0.161E+02 -.173E+03   0.269E+01 -.247E+00 -.578E+00   -.159E-01 0.320E-01 -.721E-01
   0.160E+03 -.381E+02 -.960E+03   -.161E+03 0.385E+02 0.962E+03   0.199E+01 -.302E+00 -.102E+01   0.378E-02 -.139E-01 -.140E-01
   0.183E+03 -.135E+03 -.190E+04   -.187E+03 0.136E+03 0.191E+04   0.390E+01 -.140E+01 -.377E+01   0.565E-01 -.111E+00 0.903E-01
   0.162E+03 0.513E+02 0.142E+04   -.164E+03 -.521E+02 -.142E+04   0.173E+01 0.142E+01 0.154E+01   0.355E-01 0.138E-02 -.272E-01
   0.678E+02 -.158E+03 0.189E+04   -.684E+02 0.159E+03 -.189E+04   0.182E+01 -.112E+01 0.425E+01   0.199E-01 -.121E-01 -.400E-01
   0.119E+03 -.455E+02 0.899E+03   -.121E+03 0.456E+02 -.898E+03   0.241E+01 -.179E+00 -.109E+01   0.183E-01 0.115E-01 -.636E-01
   0.163E+03 -.178E+02 -.197E+03   -.165E+03 0.178E+02 0.198E+03   0.234E+01 0.143E+00 -.106E+01   0.362E-01 -.185E-01 -.577E-01
   0.146E+03 0.934E+01 -.129E+04   -.148E+03 -.880E+01 0.129E+04   0.268E+01 -.894E+00 -.299E+00   0.109E+00 0.384E-01 -.496E-01
 -----------------------------------------------------------------------------------------------
   -.459E+02 0.248E+02 -.280E+02   0.711E-12 -.146E-12 0.159E-11   0.464E+02 -.247E+02 0.305E+02   -.414E+00 0.997E-01 -.254E+01
 
 
 POSITION                                       TOTAL-FORCE (eV/Angst)
 -----------------------------------------------------------------------------------
      2.32602     10.40942      0.00000         0.293868      0.416473      1.966244
      3.74232      9.43171      2.62550        -0.268328     -0.029516     -0.066222
      5.15862      8.45400      5.25100        -0.031800     -0.172774     -0.059884
      6.57491      7.47629      7.87651         0.074184     -0.147695      0.404740
      7.99121      6.49857     10.50201        -0.560084     -0.149276     -1.798813
      1.07272      4.55480      3.50067        -0.065215      0.075861     -0.100204
      2.48901      3.57708      6.12617        -0.031231     -0.197394     -0.077404
      3.90531      2.59937      8.75167         0.010086      0.071418      0.546911
      9.08153      9.10581      0.87517         0.287639      0.241413      1.930930
      1.23571      7.80219      9.62684         0.362164      0.809336     -0.455473
      6.41192      4.22889      1.75033        -0.619874     -0.435520      0.537386
      7.82822      3.25118      4.37584         0.023904      0.125422     -0.075333
      9.24452     12.35320      7.00134         0.059007     -0.193146     -0.097007
      3.36813      7.02690      1.93183        -0.566021     -0.167624      0.374115
      4.78442      6.04919      4.55733        -0.040946      0.142653     -0.051923
      6.20072      5.07148      7.18283         0.313364      0.011078      0.172861
      7.61702      4.09377      9.80834         0.250586     -0.575784     -0.805200
      0.69852      2.14999      2.80700        -0.117660     -0.099419     -0.331679
      2.11482      1.17228      5.43250         0.049451      0.083930      0.036715
      3.53112     10.27430      8.05800         0.071990     -0.025863      0.506777
      4.94741      9.29658     10.68350        -1.339202      0.347924     -1.769863
      0.86151      5.39738      8.93317         0.111544     -0.581230     -0.694090
      6.03773     11.90382      1.05666        -0.593790      0.264039      0.711226
      7.45403     10.92611      3.68216         0.095435     -0.115420     -0.097380
      8.87032      9.94839      6.30767         0.121025      0.026151      0.021778
      0.30789      1.72287      9.11466        -0.284754     -0.805374     -0.434261
      5.48410      8.22931      1.23816        -0.223011      0.218152      1.123078
      6.90040      7.25159      3.86366        -0.054653      0.192212     -0.244172
      8.31669      6.27388      6.48916        -0.053913     -0.157020     -0.058717
      2.81450      3.35239      2.11332         0.017295     -0.033911     -0.476252
      4.23080      2.37468      4.73883        -0.094661      0.050266     -0.098814
      5.64709     11.47670      7.36433         0.169398      0.077530      0.165257
      7.06339     10.49899      9.98983        -0.648555      0.491402     -1.701628
      0.14490      8.55521      2.98849        -0.183544      0.217296     -0.345823
      1.56119      7.57750      5.61399        -0.088393     -0.005731     -0.011543
      2.97749      6.59979      8.23950        -0.021341     -0.151077      0.510551
      0.34500      9.75890     10.30158        -0.615352      1.038600      0.330464
      5.52122      6.18560      2.42507         0.007885      0.235752     -1.612932
      6.93751      5.20789      5.05057        -0.063884      0.075462      0.051365
      8.35381      4.23018      7.67607        -0.078370      0.278999      0.028622
      1.43532      2.28640      0.67473         0.556141     -1.201766     -0.390097
      2.85162      1.30869      3.30024         0.030999      0.078656     -0.038639
      4.26791     10.41071      5.92574         0.033641     -0.021107      0.163295
      5.68421      9.43299      8.55124         0.457240      0.120515      1.077970
      0.18201      6.51150      4.17540         0.023731      0.162102     -0.056141
      1.59831      5.53379      6.80091         0.199583      0.284375      0.087035
      3.01461      4.55608      9.42641        -0.578280      0.835153      0.392495
      8.19082     11.06252      1.54990        -0.457707     -0.970662     -1.140505
      4.58141     10.22551      0.68287         0.100140     -0.567746     -0.560443
      5.99770      9.24779      3.30837        -0.159809     -0.176703     -0.048378
      7.41400      8.27008      5.93387         0.057047      0.085026      0.189986
      8.83030      7.29237      8.55937         0.445517     -0.134724      1.582071
      1.91180      5.34859      1.55803        -0.154308      0.348648     -0.392726
      3.32810      4.37088      4.18354        -0.079840     -0.121726      0.055932
      4.74440      3.39317      6.80904        -0.022714     -0.059750      0.052363
      6.16069      2.41545      9.43454         0.296263     -0.405225      0.732132
      0.65850      9.57370      5.05870         0.072704     -0.013757      0.116147
      2.07479      8.59599      7.68420         0.026781     -0.300392     -0.022431
      3.49109      7.61827     10.30971        -0.580895     -0.072165      0.123544
      8.66731      4.04498      2.43320        -0.533983      0.391767      0.068374
      1.88700      8.69441      1.56616         0.589310      0.227522     -0.752777
      3.30330      7.71670      4.19167         0.274908      0.308088      0.106164
      4.71960      6.73898      6.81717         0.116719      0.079054     -0.027210
      6.13589      5.76127      9.44267         0.626202      0.100275      0.662929
      0.63370      2.83978      5.06683         0.036329      0.073337     -0.182829
      2.04999      1.86207      7.69234         0.089670      0.119677      0.133981
      3.46629     10.96409     10.31784         0.416523     -0.431453     -0.557640
      8.64250      7.39079      2.44133         0.111331      0.541269     -0.623416
      4.55661      3.49159      0.69100         1.313115     -0.406234      0.414534
      5.97290      2.51388      3.31650         0.550534     -0.058742     -0.115080
      7.38920     11.61590      5.94200         0.100826      0.053677     -0.133409
      8.80549     10.63819      8.56750         0.368039     -0.314584      1.128366
 -----------------------------------------------------------------------------------
    total drift:                                0.094400      0.183229     -0.066150


--------------------------------------------------------------------------------------------------------



  FREE ENERGIE OF THE ION-ELECTRON SYSTEM (eV)
  ---------------------------------------------------
  free  energy   TOTEN  =      -358.47078553 eV

  energy  without entropy=     -357.44865323  energy(sigma->0) =     -357.95971938
 


--------------------------------------------------------------------------------------------------------


    POTLOK:  cpu time    0.0471: real time    0.0508


--------------------------------------------------------------------------------------------------------


     LOOP+:  cpu time   73.1621: real time   73.4358
    4ORBIT:  cpu time    0.0000: real time    0.0000

 total amount of memory used by VASP MPI-rank0    45299. kBytes
=======================================================================

   base      :      30000. kBytes
   nonlr-proj:       2285. kBytes
   fftplans  :       3383. kBytes
   grid      :       6052. kBytes
   one-center:         93. kBytes
   wavefun   :       3486. kBytes
 
  
  
 General timing and accounting informations for this job:
 ========================================================
  
                  Total CPU time used (sec):       75.102
                            User time (sec):       74.544
                          System time (sec):        0.559
                         Elapsed time (sec):       76.047
  
                   Maximum memory used (kb):      224744.
                   Average memory used (kb):           0.
  
                          Minor page faults:        80538
                          Major page faults:            0
                 Voluntary context switches:          964
