  60  60   0   0
  0.3182702E+02  0.9578410E-09  0.1125646E-08  0.1771136E-08  0.5000000E-15
  1.000000000000000E-004
  CAR 
 "Millerite NiS"                         
      9.93066607    -67.35477115  301      0.32113073      1.00000000
    -67.355  0.0000E+00  0.0000E+00
    -67.097  0.0000E+00  0.0000E+00
    -66.840  0.0000E+00  0.0000E+00
    -66.582  0.0000E+00  0.0000E+00
    -66.324  0.0000E+00  0.0000E+00
    -66.067  0.0000E+00  0.0000E+00
    -65.809  0.0000E+00  0.0000E+00
    -65.551  0.0000E+00  0.0000E+00
    -65.294  0.0000E+00  0.0000E+00
    -65.036  0.0000E+00  0.0000E+00
    -64.779  0.2014E-09  0.5189E-10
    -64.521  0.1246E-04  0.3211E-05
    -64.263  0.3815E-01  0.9831E-02
    -64.006  0.6754E+01  0.1750E+01
    -63.748  0.9371E+02  0.2589E+02
    -63.490  0.1927E+03  0.7554E+02
    -63.233  0.1476E+03  0.1136E+03
    -62.975  0.9084E+02  0.1370E+03
    -62.718  0.8558E+02  0.1590E+03
    -62.460  0.5389E+02  0.1729E+03
    -62.202  0.1944E+02  0.1779E+03
    -61.945  0.7490E+01  0.1798E+03
    -61.687  0.6215E+00  0.1800E+03
    -61.430  0.3752E-02  0.1800E+03
    -61.172  0.1106E-05  0.1800E+03
    -60.914  0.1350E-10  0.1800E+03
    -60.657  0.0000E+00  0.1800E+03
    -60.399  0.0000E+00  0.1800E+03
    -60.141  0.0000E+00  0.1800E+03
    -59.884  0.0000E+00  0.1800E+03
    -59.626  0.0000E+00  0.1800E+03
    -59.369  0.0000E+00  0.1800E+03
    -59.111  0.0000E+00  0.1800E+03
    -58.853  0.0000E+00  0.1800E+03
    -58.596  0.0000E+00  0.1800E+03
    -58.338  0.0000E+00  0.1800E+03
    -58.081  0.0000E+00  0.1800E+03
    -57.823  0.0000E+00  0.1800E+03
    -57.565  0.0000E+00  0.1800E+03
    -57.308  0.0000E+00  0.1800E+03
    -57.050  0.0000E+00  0.1800E+03
    -56.792  0.0000E+00  0.1800E+03
    -56.535  0.0000E+00  0.1800E+03
    -56.277  0.0000E+00  0.1800E+03
    -56.020  0.0000E+00  0.1800E+03
    -55.762  0.0000E+00  0.1800E+03
    -55.504  0.0000E+00  0.1800E+03
    -55.247  0.0000E+00  0.1800E+03
    -54.989  0.0000E+00  0.1800E+03
    -54.731  0.0000E+00  0.1800E+03
    -54.474  0.0000E+00  0.1800E+03
    -54.216  0.0000E+00  0.1800E+03
    -53.959  0.0000E+00  0.1800E+03
    -53.701  0.0000E+00  0.1800E+03
    -53.443  0.0000E+00  0.1800E+03
    -53.186  0.0000E+00  0.1800E+03
    -52.928  0.0000E+00  0.1800E+03
    -52.671  0.0000E+00  0.1800E+03
    -52.413  0.0000E+00  0.1800E+03
    -52.155  0.0000E+00  0.1800E+03
    -51.898  0.0000E+00  0.1800E+03
    -51.640  0.0000E+00  0.1800E+03
    -51.382  0.0000E+00  0.1800E+03
    -51.125  0.0000E+00  0.1800E+03
    -50.867  0.0000E+00  0.1800E+03
    -50.610  0.0000E+00  0.1800E+03
    -50.352  0.0000E+00  0.1800E+03
    -50.094  0.0000E+00  0.1800E+03
    -49.837  0.0000E+00  0.1800E+03
    -49.579  0.0000E+00  0.1800E+03
    -49.322  0.0000E+00  0.1800E+03
    -49.064  0.0000E+00  0.1800E+03
    -48.806  0.0000E+00  0.1800E+03
    -48.549  0.0000E+00  0.1800E+03
    -48.291  0.0000E+00  0.1800E+03
    -48.033  0.0000E+00  0.1800E+03
    -47.776  0.0000E+00  0.1800E+03
    -47.518  0.0000E+00  0.1800E+03
    -47.261  0.0000E+00  0.1800E+03
    -47.003  0.0000E+00  0.1800E+03
    -46.745  0.0000E+00  0.1800E+03
    -46.488  0.0000E+00  0.1800E+03
    -46.230  0.0000E+00  0.1800E+03
    -45.972  0.0000E+00  0.1800E+03
    -45.715  0.0000E+00  0.1800E+03
    -45.457  0.0000E+00  0.1800E+03
    -45.200  0.0000E+00  0.1800E+03
    -44.942  0.0000E+00  0.1800E+03
    -44.684  0.0000E+00  0.1800E+03
    -44.427  0.0000E+00  0.1800E+03
    -44.169  0.0000E+00  0.1800E+03
    -43.912  0.0000E+00  0.1800E+03
    -43.654  0.0000E+00  0.1800E+03
    -43.396  0.0000E+00  0.1800E+03
    -43.139  0.0000E+00  0.1800E+03
    -42.881  0.0000E+00  0.1800E+03
    -42.623  0.0000E+00  0.1800E+03
    -42.366  0.0000E+00  0.1800E+03
    -42.108  0.0000E+00  0.1800E+03
    -41.851  0.0000E+00  0.1800E+03
    -41.593  0.0000E+00  0.1800E+03
    -41.335  0.0000E+00  0.1800E+03
    -41.078  0.0000E+00  0.1800E+03
    -40.820  0.0000E+00  0.1800E+03
    -40.562  0.0000E+00  0.1800E+03
    -40.305  0.0000E+00  0.1800E+03
    -40.047  0.0000E+00  0.1800E+03
    -39.790  0.0000E+00  0.1800E+03
    -39.532  0.0000E+00  0.1800E+03
    -39.274  0.0000E+00  0.1800E+03
    -39.017  0.0000E+00  0.1800E+03
    -38.759  0.0000E+00  0.1800E+03
    -38.502  0.0000E+00  0.1800E+03
    -38.244  0.0000E+00  0.1800E+03
    -37.986  0.0000E+00  0.1800E+03
    -37.729  0.0000E+00  0.1800E+03
    -37.471  0.0000E+00  0.1800E+03
    -37.213  0.0000E+00  0.1800E+03
    -36.956  0.0000E+00  0.1800E+03
    -36.698  0.0000E+00  0.1800E+03
    -36.441  0.0000E+00  0.1800E+03
    -36.183  0.0000E+00  0.1800E+03
    -35.925  0.0000E+00  0.1800E+03
    -35.668  0.0000E+00  0.1800E+03
    -35.410  0.0000E+00  0.1800E+03
    -35.153  0.0000E+00  0.1800E+03
    -34.895  0.0000E+00  0.1800E+03
    -34.637  0.0000E+00  0.1800E+03
    -34.380  0.0000E+00  0.1800E+03
    -34.122  0.0000E+00  0.1800E+03
    -33.864  0.0000E+00  0.1800E+03
    -33.607  0.0000E+00  0.1800E+03
    -33.349  0.0000E+00  0.1800E+03
    -33.092  0.0000E+00  0.1800E+03
    -32.834  0.0000E+00  0.1800E+03
    -32.576  0.0000E+00  0.1800E+03
    -32.319  0.0000E+00  0.1800E+03
    -32.061  0.0000E+00  0.1800E+03
    -31.803  0.0000E+00  0.1800E+03
    -31.546  0.0000E+00  0.1800E+03
    -31.288  0.0000E+00  0.1800E+03
    -31.031  0.0000E+00  0.1800E+03
    -30.773  0.0000E+00  0.1800E+03
    -30.515  0.0000E+00  0.1800E+03
    -30.258  0.0000E+00  0.1800E+03
    -30.000  0.0000E+00  0.1800E+03
    -29.743  0.0000E+00  0.1800E+03
    -29.485  0.0000E+00  0.1800E+03
    -29.227  0.0000E+00  0.1800E+03
    -28.970  0.0000E+00  0.1800E+03
    -28.712  0.0000E+00  0.1800E+03
    -28.454  0.0000E+00  0.1800E+03
    -28.197  0.0000E+00  0.1800E+03
    -27.939  0.0000E+00  0.1800E+03
    -27.682  0.0000E+00  0.1800E+03
    -27.424  0.0000E+00  0.1800E+03
    -27.166  0.0000E+00  0.1800E+03
    -26.909  0.0000E+00  0.1800E+03
    -26.651  0.0000E+00  0.1800E+03
    -26.393  0.0000E+00  0.1800E+03
    -26.136  0.0000E+00  0.1800E+03
    -25.878  0.0000E+00  0.1800E+03
    -25.621  0.0000E+00  0.1800E+03
    -25.363  0.0000E+00  0.1800E+03
    -25.105  0.0000E+00  0.1800E+03
    -24.848  0.0000E+00  0.1800E+03
    -24.590  0.0000E+00  0.1800E+03
    -24.333  0.0000E+00  0.1800E+03
    -24.075  0.0000E+00  0.1800E+03
    -23.817  0.0000E+00  0.1800E+03
    -23.560  0.0000E+00  0.1800E+03
    -23.302  0.0000E+00  0.1800E+03
    -23.044  0.0000E+00  0.1800E+03
    -22.787  0.0000E+00  0.1800E+03
    -22.529  0.0000E+00  0.1800E+03
    -22.272  0.0000E+00  0.1800E+03
    -22.014  0.0000E+00  0.1800E+03
    -21.756  0.0000E+00  0.1800E+03
    -21.499  0.0000E+00  0.1800E+03
    -21.241  0.0000E+00  0.1800E+03
    -20.984  0.0000E+00  0.1800E+03
    -20.726  0.0000E+00  0.1800E+03
    -20.468  0.0000E+00  0.1800E+03
    -20.211  0.0000E+00  0.1800E+03
    -19.953  0.0000E+00  0.1800E+03
    -19.695  0.0000E+00  0.1800E+03
    -19.438  0.0000E+00  0.1800E+03
    -19.180  0.0000E+00  0.1800E+03
    -18.923  0.0000E+00  0.1800E+03
    -18.665  0.0000E+00  0.1800E+03
    -18.407  0.0000E+00  0.1800E+03
    -18.150  0.0000E+00  0.1800E+03
    -17.892  0.0000E+00  0.1800E+03
    -17.634  0.0000E+00  0.1800E+03
    -17.377  0.0000E+00  0.1800E+03
    -17.119  0.0000E+00  0.1800E+03
    -16.862  0.0000E+00  0.1800E+03
    -16.604  0.0000E+00  0.1800E+03
    -16.346  0.0000E+00  0.1800E+03
    -16.089  0.0000E+00  0.1800E+03
    -15.831  0.2174E-11  0.1800E+03
    -15.574  0.2762E-06  0.1800E+03
    -15.316  0.1404E-02  0.1800E+03
    -15.058  0.3130E+00  0.1801E+03
    -14.801  0.3805E+01  0.1811E+03
    -14.543  0.3556E+01  0.1820E+03
    -14.285  0.5127E+01  0.1833E+03
    -14.028  0.1464E+02  0.1871E+03
    -13.770  0.1200E+02  0.1902E+03
    -13.513  0.2070E+02  0.1955E+03
    -13.255  0.2542E+02  0.2020E+03
    -12.997  0.2804E+02  0.2093E+03
    -12.740  0.2503E+02  0.2157E+03
    -12.482  0.2167E+02  0.2213E+03
    -12.224  0.1601E+02  0.2254E+03
    -11.967  0.1971E+02  0.2305E+03
    -11.709  0.1510E+02  0.2344E+03
    -11.452  0.6370E+01  0.2360E+03
    -11.194  0.8631E+01  0.2382E+03
    -10.936  0.6419E+01  0.2399E+03
    -10.679  0.3748E+00  0.2400E+03
    -10.421  0.1172E-02  0.2400E+03
    -10.164  0.1610E-06  0.2400E+03
     -9.906  0.8938E-12  0.2400E+03
     -9.648  0.0000E+00  0.2400E+03
     -9.391  0.0000E+00  0.2400E+03
     -9.133  0.0000E+00  0.2400E+03
     -8.875  0.0000E+00  0.2400E+03
     -8.618  0.0000E+00  0.2400E+03
     -8.360  0.0000E+00  0.2400E+03
     -8.103  0.0000E+00  0.2400E+03
     -7.845  0.0000E+00  0.2400E+03
     -7.587  0.1029E-10  0.2400E+03
     -7.330  0.8928E-06  0.2400E+03
     -7.072  0.3143E-02  0.2400E+03
     -6.815  0.5259E+00  0.2401E+03
     -6.557  0.7281E+01  0.2420E+03
     -6.299  0.2109E+02  0.2474E+03
     -6.042  0.1957E+02  0.2525E+03
     -5.784  0.2517E+02  0.2590E+03
     -5.526  0.3747E+02  0.2686E+03
     -5.269  0.3526E+02  0.2777E+03
     -5.011  0.3282E+02  0.2862E+03
     -4.754  0.3710E+02  0.2957E+03
     -4.496  0.3491E+02  0.3047E+03
     -4.238  0.3903E+02  0.3148E+03
     -3.981  0.4770E+02  0.3271E+03
     -3.723  0.5382E+02  0.3409E+03
     -3.465  0.5527E+02  0.3552E+03
     -3.208  0.5237E+02  0.3687E+03
     -2.950  0.4757E+02  0.3809E+03
     -2.693  0.4581E+02  0.3927E+03
     -2.435  0.4852E+02  0.4052E+03
     -2.177  0.5415E+02  0.4192E+03
     -1.920  0.6710E+02  0.4364E+03
     -1.662  0.8590E+02  0.4586E+03
     -1.405  0.1012E+03  0.4847E+03
     -1.147  0.1376E+03  0.5201E+03
     -0.889  0.1396E+03  0.5561E+03
     -0.632  0.1182E+03  0.5865E+03
     -0.374  0.1062E+03  0.6139E+03
     -0.116  0.8675E+02  0.6362E+03
      0.141  0.5828E+02  0.6512E+03
      0.399  0.4892E+02  0.6638E+03
      0.656  0.5103E+02  0.6770E+03
      0.914  0.4967E+02  0.6898E+03
      1.172  0.4686E+02  0.7019E+03
      1.429  0.4184E+02  0.7126E+03
      1.687  0.2482E+02  0.7190E+03
      1.945  0.8800E+01  0.7213E+03
      2.202  0.1028E+02  0.7239E+03
      2.460  0.7477E+01  0.7259E+03
      2.717  0.5780E+01  0.7274E+03
      2.975  0.6979E+01  0.7292E+03
      3.233  0.1072E+02  0.7319E+03
      3.490  0.7771E+01  0.7339E+03
      3.748  0.7472E+01  0.7359E+03
      4.005  0.1180E+02  0.7389E+03
      4.263  0.1675E+02  0.7432E+03
      4.521  0.1428E+02  0.7469E+03
      4.778  0.1464E+02  0.7507E+03
      5.036  0.2165E+02  0.7562E+03
      5.294  0.2273E+02  0.7621E+03
      5.551  0.2867E+02  0.7695E+03
      5.809  0.3453E+02  0.7784E+03
      6.066  0.3743E+02  0.7880E+03
      6.324  0.2943E+02  0.7956E+03
      6.582  0.1542E+02  0.7996E+03
      6.839  0.1678E+01  0.8000E+03
      7.097  0.1476E-01  0.8000E+03
      7.354  0.6941E-05  0.8000E+03
      7.612  0.1441E-09  0.8000E+03
      7.870  0.0000E+00  0.8000E+03
      8.127  0.0000E+00  0.8000E+03
      8.385  0.0000E+00  0.8000E+03
      8.643  0.0000E+00  0.8000E+03
      8.900  0.0000E+00  0.8000E+03
      9.158  0.0000E+00  0.8000E+03
      9.415  0.0000E+00  0.8000E+03
      9.673  0.0000E+00  0.8000E+03
      9.931  0.0000E+00  0.8000E+03
