LAMMPS (5 Jun 2019)
OMP_NUM_THREADS environment is not set. Defaulting to 1 thread. (../comm.cpp:88)
  using 1 OpenMP thread(s) per MPI task
Reading data file ...
  triclinic box = (0 0 0) to (10.0797 9.4251 20.6835) with tilt (3.5733 0 0)
  1 by 1 by 1 MPI processor grid
  reading atoms ...
  72 atoms
  read_data CPU = 0.000799101 secs
45 atoms in group bulk
WARNING: Using 'neigh_modify every 1 delay 0 check yes' setting during minimization (../min.cpp:168)
Neighbor list info ...
  update every 1 steps, delay 0 steps, check yes
  max neighbors/atom: 2000, page size: 100000
  master list distance cutoff = 8.5
  ghost atom cutoff = 8.5
  binsize = 4.25, bins = 4 3 5
  1 neighbor lists, perpetual/occasional/extra = 1 0 0
  (1) pair eam/alloy, perpetual
      attributes: half, newton on
      pair build: half/bin/newton/tri
      stencil: half/bin/3d/newton/tri
      bin: standard
Setting up cg style minimization ...
  Unit style    : metal
  Current step  : 0
Per MPI rank memory allocation (min/avg/max) = 4.116 | 4.116 | 4.116 Mbytes
Step Temp E_pair E_mol TotEng Press 
       0            0   -307.54716            0   -307.54716   -128370.09 
      39            0   -324.78038            0   -324.78038   -52264.284 
Loop time of 0.0283722 on 1 procs for 39 steps with 72 atoms

99.8% CPU use with 1 MPI tasks x 1 OpenMP threads

Minimization stats:
  Stopping criterion = energy tolerance
  Energy initial, next-to-last, final = 
        -307.547160175     -324.777611214     -324.780375089
  Force two-norm initial, final = 10.5932 0.169257
  Force max component initial, final = 3.33573 0.076627
  Final line search alpha, max atom move = 0.400646 0.0307003
  Iterations, force evaluations = 39 59

MPI task timing breakdown:
Section |  min time  |  avg time  |  max time  |%varavg| %total
---------------------------------------------------------------
Pair    | 0.026144   | 0.026144   | 0.026144   |   0.0 | 92.15
Neigh   | 0.0011385  | 0.0011385  | 0.0011385  |   0.0 |  4.01
Comm    | 0.00058975 | 0.00058975 | 0.00058975 |   0.0 |  2.08
Output  | 0          | 0          | 0          |   0.0 |  0.00
Modify  | 4.2416e-05 | 4.2416e-05 | 4.2416e-05 |   0.0 |  0.15
Other   |            | 0.0004576  |            |       |  1.61

Nlocal:    72 ave 72 max 72 min
Histogram: 1 0 0 0 0 0 0 0 0 0
Nghost:    959 ave 959 max 959 min
Histogram: 1 0 0 0 0 0 0 0 0 0
Neighs:    4793 ave 4793 max 4793 min
Histogram: 1 0 0 0 0 0 0 0 0 0

Total # of neighbors = 4793
Ave neighs/atom = 66.5694
Neighbor list builds = 2
Dangerous builds = 0
System init for write_data ...
Total wall time: 0:00:00
