LAMMPS data file via write_data, version 5 Jun 2019, timestep = 39

72 atoms
2 atom types

0.0000000000000000e+00 1.0079732984900000e+01 xlo xhi
0.0000000000000000e+00 9.4251025535000004e+00 ylo yhi
0.0000000000000000e+00 2.0683503555200002e+01 zlo zhi
3.5732980426999998e+00 0.0000000000000000e+00 0.0000000000000000e+00 xy xz yz

Masses

1 58.71
2 32.06

Atoms # atomic

1 1 6.8428472693000000e+00 7.4925021553000004e+00 2.4440084079000002e+00 0 0 0
2 1 7.8205595664999992e+00 6.0762060190999998e+00 5.0695108158000002e+00 0 0 0
3 1 8.7982718702000007e+00 4.6599098735000002e+00 7.6950132030000002e+00 0 0 0
4 1 2.6177410303999999e+00 3.8787025952000000e+00 3.3191758841000003e+00 0 0 0
5 1 3.5954533240000002e+00 2.4624064496000000e+00 5.9446782712999999e+00 0 0 0
6 1 4.5731656313000002e+00 1.0461103134000000e+00 8.5701806585000000e+00 0 0 0
7 1 1.1994741005938161e+01 5.7160038789909917e+00 1.9929327463112345e+00 0 0 0
8 1 3.8360004721850083e+00 7.2230197132366953e+00 9.1753271164106067e+00 0 0 0
9 1 7.5230690953821275e+00 1.7152912717007773e+00 2.2412257747305637e+00 0 0 0
10 1 8.4723677728000002e+00 2.6490302570000002e-01 4.1943433395999996e+00 0 0 0
11 1 1.3023378112600000e+01 8.2737094430999996e+00 6.8198457474999996e+00 0 0 0
12 1 5.6345199060472693e+00 5.1968481738653232e+00 2.1607078765424608e+00 0 0 0
13 1 6.6181553316999997e+00 3.9602313062999999e+00 4.3758373189000004e+00 0 0 0
14 1 7.5958676288999998e+00 2.5439351701000001e+00 7.0013397268000013e+00 0 0 0
15 1 8.4454951639574229e+00 9.7867848526946577e-01 9.3167148938773430e+00 0 0 0
16 1 1.4153367856000001e+00 1.7627278823999999e+00 2.6255023872000001e+00 0 0 0
17 1 2.3930490928000001e+00 3.4643174619999995e-01 5.2510047951000001e+00 0 0 0
18 1 6.9440594292000002e+00 8.3552381541000003e+00 7.8765071823000001e+00 0 0 0
19 1 6.9756855072539095e+00 6.7689806762622418e+00 9.6072279051038514e+00 0 0 0
20 1 2.0354771145510138e+00 3.4753038670995506e+00 8.3410815537817162e-01 1 0 0
21 1 2.2802648368251819e+00 4.8209409618595123e+00 8.2438692066071422e+00 0 0 0
22 1 9.5805076003936147e+00 8.6610025958092365e+00 1.4331347818018854e+00 0 0 0
23 1 1.0843261574200000e+01 7.5740308758000001e+00 3.5006698634000006e+00 0 0 0
24 1 1.1820973867799999e+01 6.1577347301999996e+00 6.1261722505999998e+00 0 0 0
25 1 8.4626544546450355e-01 1.5214725963909761e+00 8.5950230881154059e+00 0 0 0
26 1 8.0555413776717355e+00 5.6142803273318993e+00 1.5024774562281529e+00 0 0 0
27 1 9.0229638061999999e+00 4.3344252480999996e+00 3.6821638427000001e+00 0 0 0
28 1 1.0000676109900001e+01 2.9181291025000000e+00 6.3076662299000006e+00 0 0 0
29 1 3.8201452700999980e+00 2.1369218241999999e+00 1.9318289110000000e+00 0 0 0
30 1 4.7978575637000000e+00 7.2062567860000004e-01 4.5573312982000003e+00 0 0 0
31 1 9.3488679036000004e+00 8.7294320960000000e+00 7.1828337061000003e+00 0 0 0
32 1 1.0319801336432862e+01 7.6930383530425486e+00 9.1760648214405460e+00 0 0 0
33 1 3.1683370601999976e+00 7.9482248082000000e+00 2.8069963664999995e+00 0 0 0
34 1 4.1460493674999999e+00 6.5319286720000003e+00 5.4324987744000000e+00 0 0 0
35 1 5.1237616610999996e+00 5.1156325264999998e+00 8.0580011616000000e+00 0 0 0
36 1 6.5706652424250258e+00 4.2437689804156520e+00 9.6645704283113201e+00 0 0 0
37 2 3.6663857982579624e+00 9.2785652231620244e+00 9.6636156515368352e+00 0 0 0
38 2 7.3554572681000003e+00 3.8265858779999999e+00 2.2435758061000000e+00 0 0 0
39 2 8.3331695653000004e+00 2.4102897418000002e+00 4.8690782140000000e+00 0 0 0
40 2 9.3108818625000005e+00 9.9399360569999995e-01 7.4945806011000000e+00 0 0 0
41 2 2.2531737385431168e+00 1.4686525759449045e+00 7.8053882688499809e-01 0 0 0
42 2 3.1303510190999995e+00 2.1278631789999999e-01 3.1187432823000005e+00 0 0 0
43 2 7.6813613691000002e+00 8.2215927352999998e+00 5.7442456694999988e+00 0 0 0
44 2 8.6590736626999991e+00 6.8052965897000002e+00 8.3697480566000007e+00 0 0 0
45 2 2.4785428193999977e+00 6.0240893018999992e+00 3.9939107377999998e+00 0 0 0
46 2 3.4562551265999977e+00 4.6077931658000004e+00 6.6194131250000003e+00 0 0 0
47 2 5.0003491994181761e+00 3.1455934289934828e+00 8.8894239948129670e+00 0 0 0
48 2 1.1527832621037049e+01 7.6962110973121165e+00 1.5531810658409788e+00 0 0 0
49 2 8.0041970572853511e+00 7.5294374845330179e+00 7.5248701876295243e-01 0 0 0
50 2 8.8865536735999999e+00 6.5209886256000003e+00 3.1268735744999998e+00 0 0 0
51 2 9.8642659773000005e+00 5.1046924799999998e+00 5.7523759824000003e+00 0 0 0
52 2 1.0678039970940439e+01 3.6010155719805468e+00 8.1554641876569853e+00 0 0 0
53 2 3.7320360825075567e+00 4.3566638891735945e+00 1.5965326114954570e+00 0 0 0
54 2 4.6614474311000000e+00 2.9071890560999996e+00 4.0020410506999999e+00 0 0 0
55 2 5.6391597283000010e+00 1.4908929199000001e+00 6.6275434379000000e+00 0 0 0
56 2 6.4951154963341713e+00 2.7319202338833687e-01 8.9650675605783139e+00 0 0 0
57 2 4.0096392348999954e+00 8.7184920496000000e+00 4.8772085061999997e+00 0 0 0
58 2 4.9873515284999952e+00 7.3021959040000004e+00 7.5027109140999997e+00 0 0 0
59 2 5.2141970874346022e+00 5.8194508546785011e+00 1.0023723290696417e+01 0 0 0
60 2 9.5061145995428120e+00 7.1978343850880322e-01 2.4782388737564540e+00 0 0 0
61 2 4.8716886758842799e+00 7.1617334850390515e+00 1.8314520945183623e+00 0 0 0
62 2 5.8243608569000003e+00 6.0445041118000002e+00 4.0101713429999997e+00 0 0 0
63 2 6.8020731541000004e+00 4.6282079755999996e+00 6.6356737507999997e+00 0 0 0
64 2 8.0838662069575946e+00 3.0655237476398467e+00 8.9685722725701726e+00 0 0 0
65 2 1.5992546179999989e+00 2.4307045516999999e+00 4.8853388192000002e+00 0 0 0
66 2 2.5769669115999978e+00 1.0144084061000000e+00 7.5108412064000003e+00 0 0 0
67 2 7.4007288303496637e+00 8.8528566422822390e+00 9.7760437753099279e+00 0 0 0
68 2 1.0701275295600000e+01 3.8470006877999992e+00 2.2598364320000002e+00 0 0 0
69 2 5.6603065404824875e+00 1.3424889224324066e+00 1.1529016049220226e+00 0 0 0
70 2 6.4761690566999999e+00 2.3320112769999998e-01 3.1350038875000004e+00 0 0 0
71 2 1.1027179392999999e+01 8.2420075357000009e+00 5.7605062747000000e+00 0 0 0
72 2 1.2004891700300000e+01 6.8257113995000003e+00 8.3860086825000000e+00 0 0 0

Velocities

1 0.0000000000000000e+00 0.0000000000000000e+00 0.0000000000000000e+00
2 0.0000000000000000e+00 0.0000000000000000e+00 0.0000000000000000e+00
3 0.0000000000000000e+00 0.0000000000000000e+00 0.0000000000000000e+00
4 0.0000000000000000e+00 0.0000000000000000e+00 0.0000000000000000e+00
5 0.0000000000000000e+00 0.0000000000000000e+00 0.0000000000000000e+00
6 0.0000000000000000e+00 0.0000000000000000e+00 0.0000000000000000e+00
7 0.0000000000000000e+00 0.0000000000000000e+00 0.0000000000000000e+00
8 0.0000000000000000e+00 0.0000000000000000e+00 0.0000000000000000e+00
9 0.0000000000000000e+00 0.0000000000000000e+00 0.0000000000000000e+00
10 0.0000000000000000e+00 0.0000000000000000e+00 0.0000000000000000e+00
11 0.0000000000000000e+00 0.0000000000000000e+00 0.0000000000000000e+00
12 0.0000000000000000e+00 0.0000000000000000e+00 0.0000000000000000e+00
13 0.0000000000000000e+00 0.0000000000000000e+00 0.0000000000000000e+00
14 0.0000000000000000e+00 0.0000000000000000e+00 0.0000000000000000e+00
15 0.0000000000000000e+00 0.0000000000000000e+00 0.0000000000000000e+00
16 0.0000000000000000e+00 0.0000000000000000e+00 0.0000000000000000e+00
17 0.0000000000000000e+00 0.0000000000000000e+00 0.0000000000000000e+00
18 0.0000000000000000e+00 0.0000000000000000e+00 0.0000000000000000e+00
19 0.0000000000000000e+00 0.0000000000000000e+00 0.0000000000000000e+00
20 0.0000000000000000e+00 0.0000000000000000e+00 0.0000000000000000e+00
21 0.0000000000000000e+00 0.0000000000000000e+00 0.0000000000000000e+00
22 0.0000000000000000e+00 0.0000000000000000e+00 0.0000000000000000e+00
23 0.0000000000000000e+00 0.0000000000000000e+00 0.0000000000000000e+00
24 0.0000000000000000e+00 0.0000000000000000e+00 0.0000000000000000e+00
25 0.0000000000000000e+00 0.0000000000000000e+00 0.0000000000000000e+00
26 0.0000000000000000e+00 0.0000000000000000e+00 0.0000000000000000e+00
27 0.0000000000000000e+00 0.0000000000000000e+00 0.0000000000000000e+00
28 0.0000000000000000e+00 0.0000000000000000e+00 0.0000000000000000e+00
29 0.0000000000000000e+00 0.0000000000000000e+00 0.0000000000000000e+00
30 0.0000000000000000e+00 0.0000000000000000e+00 0.0000000000000000e+00
31 0.0000000000000000e+00 0.0000000000000000e+00 0.0000000000000000e+00
32 0.0000000000000000e+00 0.0000000000000000e+00 0.0000000000000000e+00
33 0.0000000000000000e+00 0.0000000000000000e+00 0.0000000000000000e+00
34 0.0000000000000000e+00 0.0000000000000000e+00 0.0000000000000000e+00
35 0.0000000000000000e+00 0.0000000000000000e+00 0.0000000000000000e+00
36 0.0000000000000000e+00 0.0000000000000000e+00 0.0000000000000000e+00
37 0.0000000000000000e+00 0.0000000000000000e+00 0.0000000000000000e+00
38 0.0000000000000000e+00 0.0000000000000000e+00 0.0000000000000000e+00
39 0.0000000000000000e+00 0.0000000000000000e+00 0.0000000000000000e+00
40 0.0000000000000000e+00 0.0000000000000000e+00 0.0000000000000000e+00
41 0.0000000000000000e+00 0.0000000000000000e+00 0.0000000000000000e+00
42 0.0000000000000000e+00 0.0000000000000000e+00 0.0000000000000000e+00
43 0.0000000000000000e+00 0.0000000000000000e+00 0.0000000000000000e+00
44 0.0000000000000000e+00 0.0000000000000000e+00 0.0000000000000000e+00
45 0.0000000000000000e+00 0.0000000000000000e+00 0.0000000000000000e+00
46 0.0000000000000000e+00 0.0000000000000000e+00 0.0000000000000000e+00
47 0.0000000000000000e+00 0.0000000000000000e+00 0.0000000000000000e+00
48 0.0000000000000000e+00 0.0000000000000000e+00 0.0000000000000000e+00
49 0.0000000000000000e+00 0.0000000000000000e+00 0.0000000000000000e+00
50 0.0000000000000000e+00 0.0000000000000000e+00 0.0000000000000000e+00
51 0.0000000000000000e+00 0.0000000000000000e+00 0.0000000000000000e+00
52 0.0000000000000000e+00 0.0000000000000000e+00 0.0000000000000000e+00
53 0.0000000000000000e+00 0.0000000000000000e+00 0.0000000000000000e+00
54 0.0000000000000000e+00 0.0000000000000000e+00 0.0000000000000000e+00
55 0.0000000000000000e+00 0.0000000000000000e+00 0.0000000000000000e+00
56 0.0000000000000000e+00 0.0000000000000000e+00 0.0000000000000000e+00
57 0.0000000000000000e+00 0.0000000000000000e+00 0.0000000000000000e+00
58 0.0000000000000000e+00 0.0000000000000000e+00 0.0000000000000000e+00
59 0.0000000000000000e+00 0.0000000000000000e+00 0.0000000000000000e+00
60 0.0000000000000000e+00 0.0000000000000000e+00 0.0000000000000000e+00
61 0.0000000000000000e+00 0.0000000000000000e+00 0.0000000000000000e+00
62 0.0000000000000000e+00 0.0000000000000000e+00 0.0000000000000000e+00
63 0.0000000000000000e+00 0.0000000000000000e+00 0.0000000000000000e+00
64 0.0000000000000000e+00 0.0000000000000000e+00 0.0000000000000000e+00
65 0.0000000000000000e+00 0.0000000000000000e+00 0.0000000000000000e+00
66 0.0000000000000000e+00 0.0000000000000000e+00 0.0000000000000000e+00
67 0.0000000000000000e+00 0.0000000000000000e+00 0.0000000000000000e+00
68 0.0000000000000000e+00 0.0000000000000000e+00 0.0000000000000000e+00
69 0.0000000000000000e+00 0.0000000000000000e+00 0.0000000000000000e+00
70 0.0000000000000000e+00 0.0000000000000000e+00 0.0000000000000000e+00
71 0.0000000000000000e+00 0.0000000000000000e+00 0.0000000000000000e+00
72 0.0000000000000000e+00 0.0000000000000000e+00 0.0000000000000000e+00
