 104 104   0   0
  0.2492376E+02  0.1125646E-08  0.1125646E-08  0.2288365E-08  0.5000000E-15
  1.000000000000000E-004
  CAR 
 "Millerite NiS"                         
     11.52170398    -65.69456311  301      1.91361547      1.00000000
    -65.695  0.0000E+00  0.0000E+00
    -65.437  0.0000E+00  0.0000E+00
    -65.180  0.0000E+00  0.0000E+00
    -64.922  0.0000E+00  0.0000E+00
    -64.665  0.0000E+00  0.0000E+00
    -64.408  0.0000E+00  0.0000E+00
    -64.150  0.0000E+00  0.0000E+00
    -63.893  0.0000E+00  0.0000E+00
    -63.635  0.0000E+00  0.0000E+00
    -63.378  0.0000E+00  0.0000E+00
    -63.121  0.7901E-09  0.2034E-09
    -62.863  0.5202E-04  0.1339E-04
    -62.606  0.1607E+00  0.4138E-01
    -62.349  0.2641E+02  0.6840E+01
    -62.091  0.3057E+03  0.8553E+02
    -61.834  0.4462E+03  0.2004E+03
    -61.576  0.1817E+03  0.2472E+03
    -61.319  0.5671E+02  0.2617E+03
    -61.062  0.5538E+02  0.2760E+03
    -60.804  0.7600E+02  0.2956E+03
    -60.547  0.5459E+02  0.3096E+03
    -60.289  0.9078E+01  0.3120E+03
    -60.032  0.1911E+00  0.3120E+03
    -59.775  0.2563E-03  0.3120E+03
    -59.517  0.1541E-07  0.3120E+03
    -59.260  0.3710E-13  0.3120E+03
    -59.002  0.0000E+00  0.3120E+03
    -58.745  0.0000E+00  0.3120E+03
    -58.488  0.0000E+00  0.3120E+03
    -58.230  0.0000E+00  0.3120E+03
    -57.973  0.0000E+00  0.3120E+03
    -57.716  0.0000E+00  0.3120E+03
    -57.458  0.0000E+00  0.3120E+03
    -57.201  0.0000E+00  0.3120E+03
    -56.943  0.0000E+00  0.3120E+03
    -56.686  0.0000E+00  0.3120E+03
    -56.429  0.0000E+00  0.3120E+03
    -56.171  0.0000E+00  0.3120E+03
    -55.914  0.0000E+00  0.3120E+03
    -55.656  0.0000E+00  0.3120E+03
    -55.399  0.0000E+00  0.3120E+03
    -55.142  0.0000E+00  0.3120E+03
    -54.884  0.0000E+00  0.3120E+03
    -54.627  0.0000E+00  0.3120E+03
    -54.370  0.0000E+00  0.3120E+03
    -54.112  0.0000E+00  0.3120E+03
    -53.855  0.0000E+00  0.3120E+03
    -53.597  0.0000E+00  0.3120E+03
    -53.340  0.0000E+00  0.3120E+03
    -53.083  0.0000E+00  0.3120E+03
    -52.825  0.0000E+00  0.3120E+03
    -52.568  0.0000E+00  0.3120E+03
    -52.310  0.0000E+00  0.3120E+03
    -52.053  0.0000E+00  0.3120E+03
    -51.796  0.0000E+00  0.3120E+03
    -51.538  0.0000E+00  0.3120E+03
    -51.281  0.0000E+00  0.3120E+03
    -51.023  0.0000E+00  0.3120E+03
    -50.766  0.0000E+00  0.3120E+03
    -50.509  0.0000E+00  0.3120E+03
    -50.251  0.0000E+00  0.3120E+03
    -49.994  0.0000E+00  0.3120E+03
    -49.737  0.0000E+00  0.3120E+03
    -49.479  0.0000E+00  0.3120E+03
    -49.222  0.0000E+00  0.3120E+03
    -48.964  0.0000E+00  0.3120E+03
    -48.707  0.0000E+00  0.3120E+03
    -48.450  0.0000E+00  0.3120E+03
    -48.192  0.0000E+00  0.3120E+03
    -47.935  0.0000E+00  0.3120E+03
    -47.677  0.0000E+00  0.3120E+03
    -47.420  0.0000E+00  0.3120E+03
    -47.163  0.0000E+00  0.3120E+03
    -46.905  0.0000E+00  0.3120E+03
    -46.648  0.0000E+00  0.3120E+03
    -46.390  0.0000E+00  0.3120E+03
    -46.133  0.0000E+00  0.3120E+03
    -45.876  0.0000E+00  0.3120E+03
    -45.618  0.0000E+00  0.3120E+03
    -45.361  0.0000E+00  0.3120E+03
    -45.104  0.0000E+00  0.3120E+03
    -44.846  0.0000E+00  0.3120E+03
    -44.589  0.0000E+00  0.3120E+03
    -44.331  0.0000E+00  0.3120E+03
    -44.074  0.0000E+00  0.3120E+03
    -43.817  0.0000E+00  0.3120E+03
    -43.559  0.0000E+00  0.3120E+03
    -43.302  0.0000E+00  0.3120E+03
    -43.044  0.0000E+00  0.3120E+03
    -42.787  0.0000E+00  0.3120E+03
    -42.530  0.0000E+00  0.3120E+03
    -42.272  0.0000E+00  0.3120E+03
    -42.015  0.0000E+00  0.3120E+03
    -41.758  0.0000E+00  0.3120E+03
    -41.500  0.0000E+00  0.3120E+03
    -41.243  0.0000E+00  0.3120E+03
    -40.985  0.0000E+00  0.3120E+03
    -40.728  0.0000E+00  0.3120E+03
    -40.471  0.0000E+00  0.3120E+03
    -40.213  0.0000E+00  0.3120E+03
    -39.956  0.0000E+00  0.3120E+03
    -39.698  0.0000E+00  0.3120E+03
    -39.441  0.0000E+00  0.3120E+03
    -39.184  0.0000E+00  0.3120E+03
    -38.926  0.0000E+00  0.3120E+03
    -38.669  0.0000E+00  0.3120E+03
    -38.411  0.0000E+00  0.3120E+03
    -38.154  0.0000E+00  0.3120E+03
    -37.897  0.0000E+00  0.3120E+03
    -37.639  0.0000E+00  0.3120E+03
    -37.382  0.0000E+00  0.3120E+03
    -37.125  0.0000E+00  0.3120E+03
    -36.867  0.0000E+00  0.3120E+03
    -36.610  0.0000E+00  0.3120E+03
    -36.352  0.0000E+00  0.3120E+03
    -36.095  0.0000E+00  0.3120E+03
    -35.838  0.0000E+00  0.3120E+03
    -35.580  0.0000E+00  0.3120E+03
    -35.323  0.0000E+00  0.3120E+03
    -35.065  0.0000E+00  0.3120E+03
    -34.808  0.0000E+00  0.3120E+03
    -34.551  0.0000E+00  0.3120E+03
    -34.293  0.0000E+00  0.3120E+03
    -34.036  0.0000E+00  0.3120E+03
    -33.779  0.0000E+00  0.3120E+03
    -33.521  0.0000E+00  0.3120E+03
    -33.264  0.0000E+00  0.3120E+03
    -33.006  0.0000E+00  0.3120E+03
    -32.749  0.0000E+00  0.3120E+03
    -32.492  0.0000E+00  0.3120E+03
    -32.234  0.0000E+00  0.3120E+03
    -31.977  0.0000E+00  0.3120E+03
    -31.719  0.0000E+00  0.3120E+03
    -31.462  0.0000E+00  0.3120E+03
    -31.205  0.0000E+00  0.3120E+03
    -30.947  0.0000E+00  0.3120E+03
    -30.690  0.0000E+00  0.3120E+03
    -30.432  0.0000E+00  0.3120E+03
    -30.175  0.0000E+00  0.3120E+03
    -29.918  0.0000E+00  0.3120E+03
    -29.660  0.0000E+00  0.3120E+03
    -29.403  0.0000E+00  0.3120E+03
    -29.146  0.0000E+00  0.3120E+03
    -28.888  0.0000E+00  0.3120E+03
    -28.631  0.0000E+00  0.3120E+03
    -28.373  0.0000E+00  0.3120E+03
    -28.116  0.0000E+00  0.3120E+03
    -27.859  0.0000E+00  0.3120E+03
    -27.601  0.0000E+00  0.3120E+03
    -27.344  0.0000E+00  0.3120E+03
    -27.086  0.0000E+00  0.3120E+03
    -26.829  0.0000E+00  0.3120E+03
    -26.572  0.0000E+00  0.3120E+03
    -26.314  0.0000E+00  0.3120E+03
    -26.057  0.0000E+00  0.3120E+03
    -25.799  0.0000E+00  0.3120E+03
    -25.542  0.0000E+00  0.3120E+03
    -25.285  0.0000E+00  0.3120E+03
    -25.027  0.0000E+00  0.3120E+03
    -24.770  0.0000E+00  0.3120E+03
    -24.513  0.0000E+00  0.3120E+03
    -24.255  0.0000E+00  0.3120E+03
    -23.998  0.0000E+00  0.3120E+03
    -23.740  0.0000E+00  0.3120E+03
    -23.483  0.0000E+00  0.3120E+03
    -23.226  0.0000E+00  0.3120E+03
    -22.968  0.0000E+00  0.3120E+03
    -22.711  0.0000E+00  0.3120E+03
    -22.453  0.0000E+00  0.3120E+03
    -22.196  0.0000E+00  0.3120E+03
    -21.939  0.0000E+00  0.3120E+03
    -21.681  0.0000E+00  0.3120E+03
    -21.424  0.0000E+00  0.3120E+03
    -21.167  0.0000E+00  0.3120E+03
    -20.909  0.0000E+00  0.3120E+03
    -20.652  0.0000E+00  0.3120E+03
    -20.394  0.0000E+00  0.3120E+03
    -20.137  0.0000E+00  0.3120E+03
    -19.880  0.0000E+00  0.3120E+03
    -19.622  0.0000E+00  0.3120E+03
    -19.365  0.0000E+00  0.3120E+03
    -19.107  0.0000E+00  0.3120E+03
    -18.850  0.0000E+00  0.3120E+03
    -18.593  0.0000E+00  0.3120E+03
    -18.335  0.0000E+00  0.3120E+03
    -18.078  0.0000E+00  0.3120E+03
    -17.820  0.0000E+00  0.3120E+03
    -17.563  0.0000E+00  0.3120E+03
    -17.306  0.0000E+00  0.3120E+03
    -17.048  0.0000E+00  0.3120E+03
    -16.791  0.0000E+00  0.3120E+03
    -16.534  0.0000E+00  0.3120E+03
    -16.276  0.0000E+00  0.3120E+03
    -16.019  0.0000E+00  0.3120E+03
    -15.761  0.0000E+00  0.3120E+03
    -15.504  0.0000E+00  0.3120E+03
    -15.247  0.0000E+00  0.3120E+03
    -14.989  0.0000E+00  0.3120E+03
    -14.732  0.0000E+00  0.3120E+03
    -14.474  0.8344E-10  0.3120E+03
    -14.217  0.4214E-05  0.3120E+03
    -13.960  0.8722E-02  0.3120E+03
    -13.702  0.8328E+00  0.3122E+03
    -13.445  0.4768E+01  0.3134E+03
    -13.188  0.3055E+01  0.3142E+03
    -12.930  0.8008E+01  0.3163E+03
    -12.673  0.2110E+02  0.3217E+03
    -12.415  0.2802E+02  0.3289E+03
    -12.158  0.3427E+02  0.3378E+03
    -11.901  0.3507E+02  0.3468E+03
    -11.643  0.5029E+02  0.3597E+03
    -11.386  0.5604E+02  0.3741E+03
    -11.128  0.4905E+02  0.3868E+03
    -10.871  0.4237E+02  0.3977E+03
    -10.614  0.1877E+02  0.4025E+03
    -10.356  0.1255E+02  0.4057E+03
    -10.099  0.1318E+02  0.4091E+03
     -9.841  0.3509E+01  0.4100E+03
     -9.584  0.3409E+01  0.4109E+03
     -9.327  0.4279E+01  0.4120E+03
     -9.069  0.6623E+01  0.4137E+03
     -8.812  0.8023E+01  0.4158E+03
     -8.555  0.8406E+00  0.4160E+03
     -8.297  0.5455E-02  0.4160E+03
     -8.040  0.1715E-05  0.4160E+03
     -7.782  0.2294E-10  0.4160E+03
     -7.525  0.0000E+00  0.4160E+03
     -7.268  0.0000E+00  0.4160E+03
     -7.010  0.0000E+00  0.4160E+03
     -6.753  0.0000E+00  0.4160E+03
     -6.495  0.1725E-14  0.4160E+03
     -6.238  0.1602E-08  0.4160E+03
     -5.981  0.4840E-04  0.4160E+03
     -5.723  0.6805E-01  0.4160E+03
     -5.466  0.5205E+01  0.4174E+03
     -5.208  0.2803E+02  0.4246E+03
     -4.951  0.1855E+02  0.4293E+03
     -4.694  0.2545E+02  0.4359E+03
     -4.436  0.4699E+02  0.4480E+03
     -4.179  0.6777E+02  0.4654E+03
     -3.922  0.6423E+02  0.4820E+03
     -3.664  0.5701E+02  0.4966E+03
     -3.407  0.5113E+02  0.5098E+03
     -3.149  0.5551E+02  0.5241E+03
     -2.892  0.6838E+02  0.5417E+03
     -2.635  0.9113E+02  0.5651E+03
     -2.377  0.9847E+02  0.5905E+03
     -2.120  0.1013E+03  0.6166E+03
     -1.862  0.1133E+03  0.6457E+03
     -1.605  0.8908E+02  0.6687E+03
     -1.348  0.5820E+02  0.6836E+03
     -1.090  0.5075E+02  0.6967E+03
     -0.833  0.7292E+02  0.7155E+03
     -0.576  0.8484E+02  0.7373E+03
     -0.318  0.1240E+03  0.7692E+03
     -0.061  0.1600E+03  0.8104E+03
      0.197  0.2077E+03  0.8639E+03
      0.454  0.2618E+03  0.9313E+03
      0.711  0.2162E+03  0.9869E+03
      0.969  0.1636E+03  0.1029E+04
      1.226  0.1506E+03  0.1068E+04
      1.484  0.1300E+03  0.1101E+04
      1.741  0.1048E+03  0.1128E+04
      1.998  0.8775E+02  0.1151E+04
      2.256  0.6546E+02  0.1168E+04
      2.513  0.8312E+02  0.1189E+04
      2.771  0.9179E+02  0.1213E+04
      3.028  0.8573E+02  0.1235E+04
      3.285  0.5384E+02  0.1249E+04
      3.543  0.2050E+02  0.1254E+04
      3.800  0.7504E+01  0.1256E+04
      4.057  0.3594E+01  0.1257E+04
      4.315  0.6334E+01  0.1258E+04
      4.572  0.8637E+01  0.1261E+04
      4.830  0.9633E+01  0.1263E+04
      5.087  0.1097E+02  0.1266E+04
      5.344  0.1157E+02  0.1269E+04
      5.602  0.1525E+02  0.1273E+04
      5.859  0.1889E+02  0.1278E+04
      6.117  0.3078E+02  0.1286E+04
      6.374  0.3671E+02  0.1295E+04
      6.631  0.3195E+02  0.1303E+04
      6.889  0.2909E+02  0.1311E+04
      7.146  0.4096E+02  0.1321E+04
      7.404  0.5658E+02  0.1336E+04
      7.661  0.6531E+02  0.1353E+04
      7.918  0.6134E+02  0.1368E+04
      8.176  0.2702E+02  0.1375E+04
      8.433  0.2422E+01  0.1376E+04
      8.690  0.1946E-01  0.1376E+04
      8.948  0.8616E-05  0.1376E+04
      9.205  0.1714E-09  0.1376E+04
      9.463  0.0000E+00  0.1376E+04
      9.720  0.0000E+00  0.1376E+04
      9.977  0.0000E+00  0.1376E+04
     10.235  0.0000E+00  0.1376E+04
     10.492  0.0000E+00  0.1376E+04
     10.750  0.0000E+00  0.1376E+04
     11.007  0.0000E+00  0.1376E+04
     11.264  0.0000E+00  0.1376E+04
     11.522  0.0000E+00  0.1376E+04
