<?xml version="1.0" encoding="ISO-8859-1"?>
<modeling>
 <generator>
  <i name="program" type="string">vasp </i>
  <i name="version" type="string">6.1.0  </i>
  <i name="subversion" type="string">28Jan20 (build Mar 31 2020 17:42:31) gamma-only                       parallel </i>
  <i name="platform" type="string">LinuxIFC </i>
  <i name="date" type="string">2020 04 11 </i>
  <i name="time" type="string">20:07:33 </i>
 </generator>
 <incar>
  <i type="string" name="SYSTEM">"Millerite NiS"</i>
  <i type="int" name="NSIM">     4</i>
  <i type="int" name="NELM">   100</i>
  <i name="ENCUT">    450.00000000</i>
  <i type="string" name="LREAL">A</i>
  <i type="int" name="ISMEAR">     0</i>
  <i type="int" name="NWRITE">     2</i>
  <i type="logical" name="LWAVE"> F  </i>
  <i type="logical" name="LCHARG"> F  </i>
  <i type="int" name="NCORE">     6</i>
  <i type="int" name="NELM">   100</i>
 </incar>
 <structure name="primitive_cell" >
  <crystal>
   <varray name="basis" >
    <v>      11.25646304       0.00000000       0.00000000 </v>
    <v>       0.00000000       9.57841000       0.00000000 </v>
    <v>       0.00000000       0.00000000      17.19249240 </v>
   </varray>
   <i name="volume">   1853.67765028 </i>
   <varray name="rec_basis" >
    <v>       0.08883785       0.00000000       0.00000000 </v>
    <v>       0.00000000       0.10440146       0.00000000 </v>
    <v>       0.00000000       0.00000000       0.05816492 </v>
   </varray>
  </crystal>
  <varray name="positions" >
   <v>       0.43933499       0.46388800       0.16283377 </v>
   <v>       0.49118692       0.46388800       0.34224601 </v>
   <v>       0.16340903       0.96388800       0.07312765 </v>
   <v>       0.21526096       0.96388800       0.25253989 </v>
   <v>       0.43933499       0.19968200       0.16283377 </v>
   <v>       0.49118692       0.19968200       0.34224601 </v>
   <v>       0.16340903       0.69968200       0.07312765 </v>
   <v>       0.21526096       0.69968200       0.25253989 </v>
   <v>       0.13063970       0.33178500       0.13913288 </v>
   <v>       0.18249164       0.33178500       0.31854511 </v>
   <v>       0.35471373       0.83178500       0.04942676 </v>
   <v>       0.40656566       0.83178500       0.22883899 </v>
   <v>       0.45841760       0.83178500       0.40825124 </v>
   <v>       0.93933499       0.46388800       0.16283377 </v>
   <v>       0.99118692       0.46388800       0.34224601 </v>
   <v>       0.66340903       0.96388800       0.07312765 </v>
   <v>       0.71526096       0.96388800       0.25253989 </v>
   <v>       0.93933499       0.19968200       0.16283377 </v>
   <v>       0.99118692       0.19968200       0.34224601 </v>
   <v>       0.66340903       0.69968200       0.07312765 </v>
   <v>       0.71526096       0.69968200       0.25253989 </v>
   <v>       0.63063970       0.33178500       0.13913288 </v>
   <v>       0.68249164       0.33178500       0.31854511 </v>
   <v>       0.85471373       0.83178500       0.04942676 </v>
   <v>       0.90656566       0.83178500       0.22883899 </v>
   <v>       0.95841760       0.83178500       0.40825124 </v>
   <v>       0.05963710       0.16357000       0.05952629 </v>
   <v>       0.11148904       0.16357000       0.23893853 </v>
   <v>       0.33556306       0.66357000       0.14923241 </v>
   <v>       0.11148904       0.50000000       0.23893853 </v>
   <v>       0.16334097       0.50000000       0.41835077 </v>
   <v>       0.33556306       1.00000000       0.14923241 </v>
   <v>       0.38741500       1.00000000       0.32864465 </v>
   <v>       0.31603687       0.33178500       0.08970612 </v>
   <v>       0.36788880       0.33178500       0.26911836 </v>
   <v>       0.04011091       0.83178500       0.00000000 </v>
   <v>       0.09196284       0.83178500       0.17941224 </v>
   <v>       0.14381478       0.83178500       0.35882448 </v>
   <v>       0.55963710       0.16357000       0.05952629 </v>
   <v>       0.61148904       0.16357000       0.23893853 </v>
   <v>       0.83556306       0.66357000       0.14923241 </v>
   <v>       0.88741500       0.66357000       0.32864465 </v>
   <v>       0.55963710       0.50000000       0.05952629 </v>
   <v>       0.61148904       0.50000000       0.23893853 </v>
   <v>       0.66334097       0.50000000       0.41835077 </v>
   <v>       0.83556306       1.00000000       0.14923241 </v>
   <v>       0.88741500       1.00000000       0.32864465 </v>
   <v>       0.81603687       0.33178500       0.08970612 </v>
   <v>       0.86788880       0.33178500       0.26911836 </v>
   <v>       0.54011091       0.83178500       0.00000000 </v>
   <v>       0.59196284       0.83178500       0.17941224 </v>
   <v>       0.64381478       0.83178500       0.35882448 </v>
  </varray>
 </structure>
 <varray name="primitive_index" >
  <v type="int" >        1 </v>
  <v type="int" >        2 </v>
  <v type="int" >        3 </v>
  <v type="int" >        4 </v>
  <v type="int" >        5 </v>
  <v type="int" >        6 </v>
  <v type="int" >        7 </v>
  <v type="int" >        8 </v>
  <v type="int" >        9 </v>
  <v type="int" >       10 </v>
  <v type="int" >       11 </v>
  <v type="int" >       12 </v>
  <v type="int" >       13 </v>
  <v type="int" >       14 </v>
  <v type="int" >       15 </v>
  <v type="int" >       16 </v>
  <v type="int" >       17 </v>
  <v type="int" >       18 </v>
  <v type="int" >       19 </v>
  <v type="int" >       20 </v>
  <v type="int" >       21 </v>
  <v type="int" >       22 </v>
  <v type="int" >       23 </v>
  <v type="int" >       24 </v>
  <v type="int" >       25 </v>
  <v type="int" >       26 </v>
  <v type="int" >       27 </v>
  <v type="int" >       28 </v>
  <v type="int" >       29 </v>
  <v type="int" >       30 </v>
  <v type="int" >       31 </v>
  <v type="int" >       32 </v>
  <v type="int" >       33 </v>
  <v type="int" >       34 </v>
  <v type="int" >       35 </v>
  <v type="int" >       36 </v>
  <v type="int" >       37 </v>
  <v type="int" >       38 </v>
  <v type="int" >       39 </v>
  <v type="int" >       40 </v>
  <v type="int" >       41 </v>
  <v type="int" >       42 </v>
  <v type="int" >       43 </v>
  <v type="int" >       44 </v>
  <v type="int" >       45 </v>
  <v type="int" >       46 </v>
  <v type="int" >       47 </v>
  <v type="int" >       48 </v>
  <v type="int" >       49 </v>
  <v type="int" >       50 </v>
  <v type="int" >       51 </v>
  <v type="int" >       52 </v>
 </varray>
 <kpoints>
  <generation param="Gamma">
   <v type="int" name="divisions">       1        1        1 </v>
   <v name="usershift">      0.00000000       0.00000000       0.00000000 </v>
   <v name="genvec1">      1.00000000       0.00000000       0.00000000 </v>
   <v name="genvec2">      0.00000000       1.00000000       0.00000000 </v>
   <v name="genvec3">      0.00000000       0.00000000       1.00000000 </v>
   <v name="shift">      0.00000000       0.00000000       0.00000000 </v>
  </generation>
  <varray name="kpointlist" >
   <v>       0.00000000       0.00000000       0.00000000 </v>
  </varray>
  <varray name="weights" >
   <v>       1.00000000 </v>
  </varray>
 </kpoints>
 <parameters>
  <separator name="general" >
   <i type="string" name="SYSTEM">"Millerite NiS"</i>
   <i type="logical" name="LCOMPAT"> F  </i>
  </separator>
  <separator name="electronic" >
   <i type="string" name="PREC">normal</i>
   <i name="ENMAX">    450.00000000</i>
   <i name="ENAUG">    703.44300000</i>
   <i name="EDIFF">      0.00010000</i>
   <i type="int" name="IALGO">    38</i>
   <i type="int" name="IWAVPR">    10</i>
   <i type="int" name="NBANDS">   344</i>
   <i type="int" name="NBANDSLOW">    -1</i>
   <i type="int" name="NBANDSHIGH">    -1</i>
   <i name="NELECT">    572.00000000</i>
   <i type="int" name="TURBO">     0</i>
   <i type="int" name="IRESTART">     0</i>
   <i type="int" name="NREBOOT">     0</i>
   <i type="int" name="NMIN">     0</i>
   <i name="EREF">      0.00000000</i>
   <separator name="electronic smearing" >
    <i type="int" name="ISMEAR">     0</i>
    <i name="SIGMA">      0.20000000</i>
    <i name="KSPACING">      0.50000000</i>
    <i type="logical" name="KGAMMA"> T  </i>
    <i type="logical" name="KBLOWUP"> T  </i>
   </separator>
   <separator name="electronic projectors" >
    <i type="logical" name="LREAL"> T  </i>
    <v name="ROPT">     -0.00050000     -0.00050000</v>
    <i type="int" name="LMAXPAW">  -100</i>
    <i type="int" name="LMAXMIX">     2</i>
    <i type="logical" name="NLSPLINE"> F  </i>
   </separator>
   <separator name="electronic startup" >
    <i type="int" name="ISTART">     0</i>
    <i type="int" name="ICHARG">     2</i>
    <i type="int" name="INIWAV">     1</i>
   </separator>
   <separator name="electronic spin" >
    <i type="int" name="ISPIN">     1</i>
    <i type="logical" name="LNONCOLLINEAR"> F  </i>
    <v name="MAGMOM">      1.00000000      1.00000000      1.00000000      1.00000000      1.00000000      1.00000000      1.00000000      1.00000000      1.00000000      1.00000000      1.00000000      1.00000000      1.00000000      1.00000000      1.00000000      1.00000000      1.00000000      1.00000000      1.00000000      1.00000000
      1.00000000      1.00000000      1.00000000      1.00000000      1.00000000      1.00000000      1.00000000      1.00000000      1.00000000      1.00000000      1.00000000      1.00000000      1.00000000      1.00000000      1.00000000      1.00000000      1.00000000      1.00000000      1.00000000      1.00000000
      1.00000000      1.00000000      1.00000000      1.00000000      1.00000000      1.00000000      1.00000000      1.00000000      1.00000000      1.00000000      1.00000000      1.00000000</v>
    <i name="NUPDOWN">     -1.00000000</i>
    <i type="logical" name="LSORBIT"> F  </i>
    <v name="SAXIS">      0.00000000      0.00000000      1.00000000</v>
    <i type="logical" name="LSPIRAL"> F  </i>
    <v name="QSPIRAL">      0.00000000      0.00000000      0.00000000</v>
    <i type="logical" name="LZEROZ"> F  </i>
   </separator>
   <separator name="electronic exchange-correlation" >
    <i type="logical" name="LASPH"> F  </i>
    <i type="logical" name="LMETAGGA"> F  </i>
   </separator>
   <separator name="electronic convergence" >
    <i type="int" name="NELM">   100</i>
    <i type="int" name="NELMDL">    -5</i>
    <i type="int" name="NELMIN">     2</i>
    <i name="ENINI">    450.00000000</i>
    <separator name="electronic convergence detail" >
     <i type="logical" name="LDIAG"> T  </i>
     <i type="logical" name="LSUBROT"> F  </i>
     <i name="WEIMIN">      0.00000000</i>
     <i name="EBREAK">      0.00000007</i>
     <i name="DEPER">      0.30000000</i>
     <i type="int" name="NRMM">     4</i>
     <i name="TIME">      0.40000000</i>
    </separator>
   </separator>
   <separator name="electronic mixer" >
    <i name="AMIX">      0.40000000</i>
    <i name="BMIX">      1.00000000</i>
    <i name="AMIN">      0.10000000</i>
    <i name="AMIX_MAG">      1.60000000</i>
    <i name="BMIX_MAG">      1.00000000</i>
    <separator name="electronic mixer details" >
     <i type="int" name="IMIX">     4</i>
     <i type="logical" name="MIXFIRST"> F  </i>
     <i type="int" name="MAXMIX">   -45</i>
     <i name="WC">    100.00000000</i>
     <i type="int" name="INIMIX">     1</i>
     <i type="int" name="MIXPRE">     1</i>
     <i type="int" name="MREMOVE">     5</i>
    </separator>
   </separator>
   <separator name="electronic dipolcorrection" >
    <i type="logical" name="LDIPOL"> F  </i>
    <i type="logical" name="LMONO"> F  </i>
    <i type="int" name="IDIPOL">     0</i>
    <i name="EPSILON">      1.00000000</i>
    <v name="DIPOL">   -100.00000000   -100.00000000   -100.00000000</v>
    <i name="EFIELD">      0.00000000</i>
   </separator>
  </separator>
  <separator name="grids" >
   <i type="int" name="NGX">    60</i>
   <i type="int" name="NGY">    50</i>
   <i type="int" name="NGZ">    90</i>
   <i type="int" name="NGXF">   120</i>
   <i type="int" name="NGYF">   100</i>
   <i type="int" name="NGZF">   180</i>
   <i type="logical" name="ADDGRID"> F  </i>
  </separator>
  <separator name="ionic" >
   <i type="int" name="NSW">     0</i>
   <i type="int" name="IBRION">    -1</i>
   <i type="int" name="MDALGO">     0</i>
   <i type="int" name="ISIF">     2</i>
   <i name="PSTRESS">      0.00000000</i>
   <i name="EDIFFG">      0.00100000</i>
   <i type="int" name="NFREE">     0</i>
   <i name="POTIM">      0.50000000</i>
   <i name="SMASS">     -3.00000000</i>
   <i name="SCALEE">      1.00000000</i>
  </separator>
  <separator name="ionic md" >
   <i name="TEBEG">      0.00010000</i>
   <i name="TEEND">      0.00010000</i>
   <i type="int" name="NBLOCK">     1</i>
   <i type="int" name="KBLOCK">     1</i>
   <i type="int" name="NPACO">   256</i>
   <i name="APACO">     16.00000000</i>
  </separator>
  <separator name="symmetry" >
   <i type="int" name="ISYM">     2</i>
   <i name="SYMPREC">      0.00001000</i>
  </separator>
  <separator name="dos" >
   <i type="int" name="LORBIT">     0</i>
   <v name="RWIGS">     -1.00000000     -1.00000000</v>
   <i type="int" name="NEDOS">   301</i>
   <i name="EMIN">     10.00000000</i>
   <i name="EMAX">    -10.00000000</i>
   <i name="EFERMI">      0.00000000</i>
  </separator>
  <separator name="writing" >
   <i type="int" name="NWRITE">     2</i>
   <i type="logical" name="LWAVE"> F  </i>
   <i type="logical" name="LDOWNSAMPLE"> F  </i>
   <i type="logical" name="LCHARG"> F  </i>
   <i type="logical" name="LPARD"> F  </i>
   <i type="logical" name="LVTOT"> F  </i>
   <i type="logical" name="LVHAR"> F  </i>
   <i type="logical" name="LELF"> F  </i>
   <i type="logical" name="LOPTICS"> F  </i>
   <v name="STM">      0.00000000      0.00000000      0.00000000      0.00000000      0.00000000      0.00000000      0.00000000</v>
  </separator>
  <separator name="performance" >
   <i type="int" name="NPAR">     8</i>
   <i type="int" name="NSIM">     4</i>
   <i type="int" name="NBLK">    -1</i>
   <i type="logical" name="LPLANE"> T  </i>
   <i type="logical" name="LSCALAPACK"> T  </i>
   <i type="logical" name="LSCAAWARE"> F  </i>
   <i type="logical" name="LSCALU"> F  </i>
   <i type="logical" name="LASYNC"> F  </i>
   <i type="logical" name="LORBITALREAL"> F  </i>
  </separator>
  <separator name="miscellaneous" >
   <i type="int" name="IDIOT">     3</i>
   <i type="int" name="PHON_NSTRUCT">    -1</i>
   <i type="logical" name="LMUSIC"> F  </i>
   <v name="POMASS">     58.69000000     32.06600000</v>
   <v name="DARWINR">      0.00000000      0.00000000</v>
   <v name="DARWINV">      1.00000000      1.00000000</v>
   <i type="logical" name="LCORR"> T  </i>
  </separator>
  <i type="logical" name="GGA_COMPAT"> T  </i>
  <i type="logical" name="LBERRY"> F  </i>
  <i type="int" name="ICORELEVEL">     0</i>
  <i type="logical" name="LDAU"> F  </i>
  <i type="int" name="I_CONSTRAINED_M">     0</i>
  <separator name="electronic exchange-correlation" >
   <i type="string" name="GGA">--</i>
   <i type="int" name="VOSKOWN">     0</i>
   <i type="logical" name="LHFCALC"> F  </i>
   <i type="string" name="PRECFOCK"></i>
   <i type="logical" name="LSYMGRAD"> F  </i>
   <i type="logical" name="LHFONE"> F  </i>
   <i type="logical" name="LRHFCALC"> F  </i>
   <i type="logical" name="LTHOMAS"> F  </i>
   <i type="logical" name="LMODELHF"> F  </i>
   <i type="logical" name="LFOCKACE"> F  </i>
   <i name="ENCUT4O">     -1.00000000</i>
   <i type="int" name="EXXOEP">     0</i>
   <i type="int" name="FOURORBIT">     0</i>
   <i name="AEXX">      0.00000000</i>
   <i name="HFALPHA">      0.00000000</i>
   <i name="MCALPHA">      0.00000000</i>
   <i name="ALDAX">      1.00000000</i>
   <i name="AGGAX">      1.00000000</i>
   <i name="ALDAC">      1.00000000</i>
   <i name="AGGAC">      1.00000000</i>
   <i type="int" name="NKREDX">     1</i>
   <i type="int" name="NKREDY">     1</i>
   <i type="int" name="NKREDZ">     1</i>
   <i type="logical" name="SHIFTRED"> F  </i>
   <i type="logical" name="ODDONLY"> F  </i>
   <i type="logical" name="EVENONLY"> F  </i>
   <i type="int" name="LMAXFOCK">     0</i>
   <i type="int" name="NMAXFOCKAE">     0</i>
   <i type="logical" name="LFOCKAEDFT"> F  </i>
   <i name="HFSCREEN">      0.00000000</i>
   <i name="HFSCREENC">      0.00000000</i>
   <i type="int" name="NBANDSGWLOW">     0</i>
  </separator>
  <separator name="vdW DFT" >
   <i type="logical" name="LUSE_VDW"> F  </i>
   <i name="Zab_VDW">     -0.84910000</i>
   <i name="PARAM1">      0.12340000</i>
   <i name="PARAM2">      1.00000000</i>
   <i name="PARAM3">      0.00000000</i>
  </separator>
  <separator name="model GW" >
   <i type="int" name="MODEL_GW">     0</i>
   <i name="MODEL_EPS0">     21.38858827</i>
   <i name="MODEL_ALPHA">      1.00000000</i>
  </separator>
  <separator name="linear response parameters" >
   <i type="logical" name="LEPSILON"> F  </i>
   <i type="logical" name="LRPA"> F  </i>
   <i type="logical" name="LNABLA"> F  </i>
   <i type="logical" name="LVEL"> F  </i>
   <i type="int" name="KINTER">     0</i>
   <i name="CSHIFT">      0.10000000</i>
   <i name="OMEGAMAX">     -1.00000000</i>
   <i name="DEG_THRESHOLD">      0.00200000</i>
   <i name="RTIME">     -0.10000000</i>
   <i name="WPLASMAI">      0.00000000</i>
   <v name="DFIELD">      0.00000000      0.00000000      0.00000000</v>
   <v name="WPLASMA">      0.00000000      0.00000000      0.00000000      0.00000000      0.00000000      0.00000000      0.00000000      0.00000000      0.00000000</v>
  </separator>
  <separator name="orbital magnetization" >
   <i type="logical" name="NUCIND"> F  </i>
   <v name="MAGPOS">      0.00000000      0.00000000      0.00000000</v>
   <i type="logical" name="LNICSALL"> T  </i>
   <i type="logical" name="ORBITALMAG"> F  </i>
   <i type="logical" name="LMAGBLOCH"> F  </i>
   <i type="logical" name="LCHIMAG"> F  </i>
   <i type="logical" name="LGAUGE"> T  </i>
   <i type="int" name="MAGATOM">     0</i>
   <v name="MAGDIPOL">      0.00000000      0.00000000      0.00000000</v>
   <v name="AVECCONST">      0.00000000      0.00000000      0.00000000</v>
  </separator>
  <separator name="response functions" >
   <i type="logical" name="LFINITE_TEMPERATURE"> F  </i>
   <i type="logical" name="LADDER"> F  </i>
   <i type="logical" name="LRPAFORCE"> F  </i>
   <i type="logical" name="LFXC"> F  </i>
   <i type="logical" name="LHARTREE"> T  </i>
   <i type="int" name="IBSE">     0</i>
   <v type="int" name="KPOINT">    -1     0     0     0</v>
   <i type="logical" name="LTCTC"> F  </i>
   <i type="logical" name="LTCTE"> F  </i>
   <i type="logical" name="LTETE"> F  </i>
   <i type="logical" name="LTRIPLET"> F  </i>
   <i type="logical" name="LFXCEPS"> F  </i>
   <i type="logical" name="LFXHEG"> F  </i>
   <i type="int" name="NATURALO">     2</i>
   <i type="logical" name="LHOLEGF"> F  </i>
   <i type="logical" name="L2ORDER"> F  </i>
   <i type="logical" name="LDMP1"> F  </i>
   <i type="logical" name="LMP2LT"> F  </i>
   <i type="logical" name="LSMP2LT"> F  </i>
   <i type="logical" name="LGWLF"> F  </i>
   <i name="ENCUTGW">     -2.00000000</i>
   <i name="ENCUTGWSOFT">     -2.00000000</i>
   <i name="ENCUTLF">     -1.00000000</i>
   <i type="logical" name="LESF_SPLINES"> F  </i>
   <i type="int" name="LMAXMP2">    -1</i>
   <i name="SCISSOR">      0.00000000</i>
   <i type="int" name="NOMEGA">     0</i>
   <i type="int" name="NOMEGAR">     0</i>
   <i type="int" name="NBANDSGW">    -1</i>
   <i type="int" name="NBANDSO">    -1</i>
   <i type="int" name="NBANDSV">    -1</i>
   <i type="int" name="NELM">   100</i>
   <i type="int" name="NELMHF">     1</i>
   <i type="int" name="DIM">     3</i>
   <i type="int" name="IESPILON">     4</i>
   <i type="int" name="ANTIRES">     0</i>
   <i name="OMEGAMAX">    -30.00000000</i>
   <i name="OMEGAMIN">    -30.00000000</i>
   <i name="OMEGATL">   -200.00000000</i>
   <i type="int" name="OMEGAGRID">     0</i>
   <i name="CSHIFT">     -0.10000000</i>
   <i type="logical" name="LSELFENERGY"> F  </i>
   <i type="logical" name="LSPECTRAL"> F  </i>
   <i type="logical" name="LSPECTRALGW"> F  </i>
   <i type="logical" name="LSINGLES"> F  </i>
   <i type="logical" name="LFERMIGW"> F  </i>
   <i type="logical" name="ODDONLYGW"> F  </i>
   <i type="logical" name="EVENONLYGW"> F  </i>
   <i type="int" name="NKREDLFX">     1</i>
   <i type="int" name="NKREDLFY">     1</i>
   <i type="int" name="NKREDLFZ">     1</i>
   <i type="int" name="MAXMEM">  2800</i>
   <i type="int" name="TELESCOPE">     0</i>
   <i type="int" name="NTAUPAR">    -1</i>
   <i type="int" name="NOMEGAPAR">    -1</i>
   <i name="LAMBDA">      1.00000000</i>
  </separator>
  <separator name="External order field" >
   <i name="OFIELD_KAPPA">      0.00000000</i>
   <v name="OFIELD_K">      0.00000000      0.00000000      0.00000000</v>
   <i name="OFIELD_Q6_NEAR">      0.00000000</i>
   <i name="OFIELD_Q6_FAR">      0.00000000</i>
   <i name="OFIELD_A">      0.00000000</i>
  </separator>
 </parameters>
 <atominfo>
  <atoms>      52 </atoms>
  <types>       2 </types>
  <array name="atoms" >
   <dimension dim="1">ion</dimension>
   <field type="string">element</field>
   <field type="int">atomtype</field>
   <set>
    <rc><c>Ni</c><c>   1</c></rc>
    <rc><c>Ni</c><c>   1</c></rc>
    <rc><c>Ni</c><c>   1</c></rc>
    <rc><c>Ni</c><c>   1</c></rc>
    <rc><c>Ni</c><c>   1</c></rc>
    <rc><c>Ni</c><c>   1</c></rc>
    <rc><c>Ni</c><c>   1</c></rc>
    <rc><c>Ni</c><c>   1</c></rc>
    <rc><c>Ni</c><c>   1</c></rc>
    <rc><c>Ni</c><c>   1</c></rc>
    <rc><c>Ni</c><c>   1</c></rc>
    <rc><c>Ni</c><c>   1</c></rc>
    <rc><c>Ni</c><c>   1</c></rc>
    <rc><c>Ni</c><c>   1</c></rc>
    <rc><c>Ni</c><c>   1</c></rc>
    <rc><c>Ni</c><c>   1</c></rc>
    <rc><c>Ni</c><c>   1</c></rc>
    <rc><c>Ni</c><c>   1</c></rc>
    <rc><c>Ni</c><c>   1</c></rc>
    <rc><c>Ni</c><c>   1</c></rc>
    <rc><c>Ni</c><c>   1</c></rc>
    <rc><c>Ni</c><c>   1</c></rc>
    <rc><c>Ni</c><c>   1</c></rc>
    <rc><c>Ni</c><c>   1</c></rc>
    <rc><c>Ni</c><c>   1</c></rc>
    <rc><c>Ni</c><c>   1</c></rc>
    <rc><c>S </c><c>   2</c></rc>
    <rc><c>S </c><c>   2</c></rc>
    <rc><c>S </c><c>   2</c></rc>
    <rc><c>S </c><c>   2</c></rc>
    <rc><c>S </c><c>   2</c></rc>
    <rc><c>S </c><c>   2</c></rc>
    <rc><c>S </c><c>   2</c></rc>
    <rc><c>S </c><c>   2</c></rc>
    <rc><c>S </c><c>   2</c></rc>
    <rc><c>S </c><c>   2</c></rc>
    <rc><c>S </c><c>   2</c></rc>
    <rc><c>S </c><c>   2</c></rc>
    <rc><c>S </c><c>   2</c></rc>
    <rc><c>S </c><c>   2</c></rc>
    <rc><c>S </c><c>   2</c></rc>
    <rc><c>S </c><c>   2</c></rc>
    <rc><c>S </c><c>   2</c></rc>
    <rc><c>S </c><c>   2</c></rc>
    <rc><c>S </c><c>   2</c></rc>
    <rc><c>S </c><c>   2</c></rc>
    <rc><c>S </c><c>   2</c></rc>
    <rc><c>S </c><c>   2</c></rc>
    <rc><c>S </c><c>   2</c></rc>
    <rc><c>S </c><c>   2</c></rc>
    <rc><c>S </c><c>   2</c></rc>
    <rc><c>S </c><c>   2</c></rc>
   </set>
  </array>
  <array name="atomtypes" >
   <dimension dim="1">type</dimension>
   <field type="int">atomspertype</field>
   <field type="string">element</field>
   <field>mass</field>
   <field>valence</field>
   <field type="string">pseudopotential</field>
   <set>
    <rc><c>  26</c><c>Ni</c><c>     58.69000000</c><c>     16.00000000</c><c>  PAW_PBE Ni_pv 06Sep2000               </c></rc>
    <rc><c>  26</c><c>S </c><c>     32.06600000</c><c>      6.00000000</c><c>  PAW_PBE S 06Sep2000                   </c></rc>
   </set>
  </array>
 </atominfo>
 <structure name="initialpos" >
  <crystal>
   <varray name="basis" >
    <v>      11.25646304       0.00000000       0.00000000 </v>
    <v>       0.00000000       9.57841000       0.00000000 </v>
    <v>       0.00000000       0.00000000      17.19249240 </v>
   </varray>
   <i name="volume">   1853.67765028 </i>
   <varray name="rec_basis" >
    <v>       0.08883785       0.00000000       0.00000000 </v>
    <v>       0.00000000       0.10440146       0.00000000 </v>
    <v>       0.00000000       0.00000000       0.05816492 </v>
   </varray>
  </crystal>
  <varray name="positions" >
   <v>       0.43933499       0.46388800       0.16283377 </v>
   <v>       0.49118692       0.46388800       0.34224601 </v>
   <v>       0.16340903       0.96388800       0.07312765 </v>
   <v>       0.21526096       0.96388800       0.25253989 </v>
   <v>       0.43933499       0.19968200       0.16283377 </v>
   <v>       0.49118692       0.19968200       0.34224601 </v>
   <v>       0.16340903       0.69968200       0.07312765 </v>
   <v>       0.21526096       0.69968200       0.25253989 </v>
   <v>       0.13063970       0.33178500       0.13913288 </v>
   <v>       0.18249164       0.33178500       0.31854511 </v>
   <v>       0.35471373       0.83178500       0.04942676 </v>
   <v>       0.40656566       0.83178500       0.22883899 </v>
   <v>       0.45841760       0.83178500       0.40825124 </v>
   <v>       0.93933499       0.46388800       0.16283377 </v>
   <v>       0.99118692       0.46388800       0.34224601 </v>
   <v>       0.66340903       0.96388800       0.07312765 </v>
   <v>       0.71526096       0.96388800       0.25253989 </v>
   <v>       0.93933499       0.19968200       0.16283377 </v>
   <v>       0.99118692       0.19968200       0.34224601 </v>
   <v>       0.66340903       0.69968200       0.07312765 </v>
   <v>       0.71526096       0.69968200       0.25253989 </v>
   <v>       0.63063970       0.33178500       0.13913288 </v>
   <v>       0.68249164       0.33178500       0.31854511 </v>
   <v>       0.85471373       0.83178500       0.04942676 </v>
   <v>       0.90656566       0.83178500       0.22883899 </v>
   <v>       0.95841760       0.83178500       0.40825124 </v>
   <v>       0.05963710       0.16357000       0.05952629 </v>
   <v>       0.11148904       0.16357000       0.23893853 </v>
   <v>       0.33556306       0.66357000       0.14923241 </v>
   <v>       0.11148904       0.50000000       0.23893853 </v>
   <v>       0.16334097       0.50000000       0.41835077 </v>
   <v>       0.33556306       1.00000000       0.14923241 </v>
   <v>       0.38741500       1.00000000       0.32864465 </v>
   <v>       0.31603687       0.33178500       0.08970612 </v>
   <v>       0.36788880       0.33178500       0.26911836 </v>
   <v>       0.04011091       0.83178500       0.00000000 </v>
   <v>       0.09196284       0.83178500       0.17941224 </v>
   <v>       0.14381478       0.83178500       0.35882448 </v>
   <v>       0.55963710       0.16357000       0.05952629 </v>
   <v>       0.61148904       0.16357000       0.23893853 </v>
   <v>       0.83556306       0.66357000       0.14923241 </v>
   <v>       0.88741500       0.66357000       0.32864465 </v>
   <v>       0.55963710       0.50000000       0.05952629 </v>
   <v>       0.61148904       0.50000000       0.23893853 </v>
   <v>       0.66334097       0.50000000       0.41835077 </v>
   <v>       0.83556306       1.00000000       0.14923241 </v>
   <v>       0.88741500       1.00000000       0.32864465 </v>
   <v>       0.81603687       0.33178500       0.08970612 </v>
   <v>       0.86788880       0.33178500       0.26911836 </v>
   <v>       0.54011091       0.83178500       0.00000000 </v>
   <v>       0.59196284       0.83178500       0.17941224 </v>
   <v>       0.64381478       0.83178500       0.35882448 </v>
  </varray>
 </structure>
 <calculation>
  <scstep>
   <time name="dav">    1.67    1.68</time>
   <time name="total">    1.73    1.74</time>
   <energy>
    <i name="alphaZ">   1046.73971423 </i>
    <i name="ewald">  89780.81055640 </i>
    <i name="hartreedc">-177135.65511119 </i>
    <i name="XCdc">   2629.23444838 </i>
    <i name="pawpsdc">  81415.77407466 </i>
    <i name="pawaedc"> -84963.31414086 </i>
    <i name="eentropy">     -0.31573515 </i>
    <i name="bandstr">  -4736.20853616 </i>
    <i name="atom">  98224.10364994 </i>
    <i name="e_fr_energy">   6261.16892025 </i>
    <i name="e_wo_entrp">   6261.48465540 </i>
    <i name="e_0_energy">   6261.32678783 </i>
   </energy>
  </scstep>
  <scstep>
   <time name="dav">    1.48    1.49</time>
   <time name="total">    1.48    1.49</time>
   <energy>
    <i name="e_fr_energy">    349.27209997 </i>
    <i name="e_wo_entrp">    349.88789573 </i>
    <i name="e_0_energy">    349.57999785 </i>
   </energy>
  </scstep>
  <scstep>
   <time name="dav">    1.58    1.59</time>
   <time name="total">    1.58    1.59</time>
   <energy>
    <i name="e_fr_energy">   -253.52859556 </i>
    <i name="e_wo_entrp">   -252.44913846 </i>
    <i name="e_0_energy">   -252.98886701 </i>
   </energy>
  </scstep>
  <scstep>
   <time name="dav">    1.62    1.62</time>
   <time name="total">    1.62    1.62</time>
   <energy>
    <i name="e_fr_energy">   -289.64596880 </i>
    <i name="e_wo_entrp">   -288.53074844 </i>
    <i name="e_0_energy">   -289.08835862 </i>
   </energy>
  </scstep>
  <scstep>
   <time name="dav">    1.65    1.65</time>
   <time name="total">    1.68    1.69</time>
   <energy>
    <i name="e_fr_energy">   -290.56600601 </i>
    <i name="e_wo_entrp">   -289.45518211 </i>
    <i name="e_0_energy">   -290.01059406 </i>
   </energy>
  </scstep>
  <scstep>
   <time name="dav">    1.60    1.61</time>
   <time name="total">    1.69    1.70</time>
   <energy>
    <i name="e_fr_energy">   -366.38629932 </i>
    <i name="e_wo_entrp">   -365.66222947 </i>
    <i name="e_0_energy">   -366.02426440 </i>
   </energy>
  </scstep>
  <scstep>
   <time name="dav">    1.54    1.54</time>
   <time name="total">    1.63    1.63</time>
   <energy>
    <i name="e_fr_energy">   -271.94180923 </i>
    <i name="e_wo_entrp">   -271.28976673 </i>
    <i name="e_0_energy">   -271.61578798 </i>
   </energy>
  </scstep>
  <scstep>
   <time name="dav">    1.81    1.81</time>
   <time name="total">    1.89    1.90</time>
   <energy>
    <i name="e_fr_energy">   -309.17049615 </i>
    <i name="e_wo_entrp">   -308.48469547 </i>
    <i name="e_0_energy">   -308.82759581 </i>
   </energy>
  </scstep>
  <scstep>
   <time name="dav">    1.75    1.76</time>
   <time name="total">    1.84    1.85</time>
   <energy>
    <i name="e_fr_energy">   -262.02890322 </i>
    <i name="e_wo_entrp">   -261.02475096 </i>
    <i name="e_0_energy">   -261.52682709 </i>
   </energy>
  </scstep>
  <scstep>
   <time name="dav">    1.76    1.76</time>
   <time name="total">    1.84    1.85</time>
   <energy>
    <i name="e_fr_energy">   -263.10942357 </i>
    <i name="e_wo_entrp">   -262.22508477 </i>
    <i name="e_0_energy">   -262.66725417 </i>
   </energy>
  </scstep>
  <scstep>
   <time name="dav">    1.70    1.71</time>
   <time name="total">    1.79    1.79</time>
   <energy>
    <i name="e_fr_energy">   -265.45611439 </i>
    <i name="e_wo_entrp">   -264.63347963 </i>
    <i name="e_0_energy">   -265.04479701 </i>
   </energy>
  </scstep>
  <scstep>
   <time name="dav">    1.81    1.81</time>
   <time name="total">    1.89    1.90</time>
   <energy>
    <i name="e_fr_energy">   -257.13520067 </i>
    <i name="e_wo_entrp">   -256.36923757 </i>
    <i name="e_0_energy">   -256.75221912 </i>
   </energy>
  </scstep>
  <scstep>
   <time name="dav">    1.75    1.76</time>
   <time name="total">    1.84    1.84</time>
   <energy>
    <i name="e_fr_energy">   -254.49653027 </i>
    <i name="e_wo_entrp">   -253.63931444 </i>
    <i name="e_0_energy">   -254.06792235 </i>
   </energy>
  </scstep>
  <scstep>
   <time name="dav">    1.64    1.64</time>
   <time name="total">    1.73    1.73</time>
   <energy>
    <i name="e_fr_energy">   -254.00673745 </i>
    <i name="e_wo_entrp">   -253.16258097 </i>
    <i name="e_0_energy">   -253.58465921 </i>
   </energy>
  </scstep>
  <scstep>
   <time name="dav">    1.74    1.75</time>
   <time name="total">    1.83    1.85</time>
   <energy>
    <i name="e_fr_energy">   -253.01972512 </i>
    <i name="e_wo_entrp">   -252.15521642 </i>
    <i name="e_0_energy">   -252.58747077 </i>
   </energy>
  </scstep>
  <scstep>
   <time name="dav">    1.77    1.78</time>
   <time name="total">    1.86    1.87</time>
   <energy>
    <i name="e_fr_energy">   -252.70858176 </i>
    <i name="e_wo_entrp">   -251.84331527 </i>
    <i name="e_0_energy">   -252.27594851 </i>
   </energy>
  </scstep>
  <scstep>
   <time name="dav">    1.74    1.74</time>
   <time name="total">    1.83    1.83</time>
   <energy>
    <i name="e_fr_energy">   -252.57690762 </i>
    <i name="e_wo_entrp">   -251.70302915 </i>
    <i name="e_0_energy">   -252.13996839 </i>
   </energy>
  </scstep>
  <scstep>
   <time name="dav">    1.78    1.78</time>
   <time name="total">    1.87    1.87</time>
   <energy>
    <i name="e_fr_energy">   -252.40207209 </i>
    <i name="e_wo_entrp">   -251.53564115 </i>
    <i name="e_0_energy">   -251.96885662 </i>
   </energy>
  </scstep>
  <scstep>
   <time name="dav">    1.77    1.78</time>
   <time name="total">    1.86    1.87</time>
   <energy>
    <i name="e_fr_energy">   -252.34779380 </i>
    <i name="e_wo_entrp">   -251.46953702 </i>
    <i name="e_0_energy">   -251.90866541 </i>
   </energy>
  </scstep>
  <scstep>
   <time name="dav">    1.76    1.76</time>
   <time name="total">    1.85    1.85</time>
   <energy>
    <i name="e_fr_energy">   -252.31311635 </i>
    <i name="e_wo_entrp">   -251.41996560 </i>
    <i name="e_0_energy">   -251.86654098 </i>
   </energy>
  </scstep>
  <scstep>
   <time name="dav">    1.70    1.71</time>
   <time name="total">    1.79    1.80</time>
   <energy>
    <i name="e_fr_energy">   -252.23341805 </i>
    <i name="e_wo_entrp">   -251.33259262 </i>
    <i name="e_0_energy">   -251.78300534 </i>
   </energy>
  </scstep>
  <scstep>
   <time name="dav">    1.74    1.74</time>
   <time name="total">    1.83    1.83</time>
   <energy>
    <i name="e_fr_energy">   -252.22816078 </i>
    <i name="e_wo_entrp">   -251.31359136 </i>
    <i name="e_0_energy">   -251.77087607 </i>
   </energy>
  </scstep>
  <scstep>
   <time name="dav">    1.58    1.58</time>
   <time name="total">    1.66    1.67</time>
   <energy>
    <i name="e_fr_energy">   -252.18792404 </i>
    <i name="e_wo_entrp">   -251.26542508 </i>
    <i name="e_0_energy">   -251.72667456 </i>
   </energy>
  </scstep>
  <scstep>
   <time name="dav">    1.72    1.72</time>
   <time name="total">    1.80    1.81</time>
   <energy>
    <i name="e_fr_energy">   -252.19710331 </i>
    <i name="e_wo_entrp">   -251.27200352 </i>
    <i name="e_0_energy">   -251.73455341 </i>
   </energy>
  </scstep>
  <scstep>
   <time name="dav">    1.58    1.59</time>
   <time name="total">    1.67    1.68</time>
   <energy>
    <i name="e_fr_energy">   -252.18336354 </i>
    <i name="e_wo_entrp">   -251.26145653 </i>
    <i name="e_0_energy">   -251.72241004 </i>
   </energy>
  </scstep>
  <scstep>
   <time name="dav">    1.75    1.76</time>
   <time name="total">    1.84    1.84</time>
   <energy>
    <i name="e_fr_energy">   -252.18232276 </i>
    <i name="e_wo_entrp">   -251.25601651 </i>
    <i name="e_0_energy">   -251.71916964 </i>
   </energy>
  </scstep>
  <scstep>
   <time name="dav">    1.82    1.82</time>
   <time name="total">    1.91    1.91</time>
   <energy>
    <i name="e_fr_energy">   -252.17098749 </i>
    <i name="e_wo_entrp">   -251.25598060 </i>
    <i name="e_0_energy">   -251.71348405 </i>
   </energy>
  </scstep>
  <scstep>
   <time name="dav">    1.77    1.78</time>
   <time name="total">    1.86    1.86</time>
   <energy>
    <i name="e_fr_energy">   -252.16985002 </i>
    <i name="e_wo_entrp">   -251.25129996 </i>
    <i name="e_0_energy">   -251.71057499 </i>
   </energy>
  </scstep>
  <scstep>
   <time name="dav">    1.56    1.57</time>
   <time name="total">    1.65    1.66</time>
   <energy>
    <i name="e_fr_energy">   -252.16801128 </i>
    <i name="e_wo_entrp">   -251.25084757 </i>
    <i name="e_0_energy">   -251.70942943 </i>
   </energy>
  </scstep>
  <scstep>
   <time name="dav">    1.72    1.72</time>
   <time name="total">    1.81    1.81</time>
   <energy>
    <i name="e_fr_energy">   -252.16808133 </i>
    <i name="e_wo_entrp">   -251.25077484 </i>
    <i name="e_0_energy">   -251.70942809 </i>
   </energy>
  </scstep>
  <scstep>
   <time name="dav">    1.45    1.45</time>
   <time name="total">    1.54    1.54</time>
   <energy>
    <i name="e_fr_energy">   -252.16771526 </i>
    <i name="e_wo_entrp">   -251.25117048 </i>
    <i name="e_0_energy">   -251.70944287 </i>
   </energy>
  </scstep>
  <scstep>
   <time name="dav">    1.30    1.30</time>
   <time name="total">    1.39    1.39</time>
   <energy>
    <i name="e_fr_energy">   -252.16785669 </i>
    <i name="e_wo_entrp">   -251.25118347 </i>
    <i name="e_0_energy">   -251.70952008 </i>
   </energy>
  </scstep>
  <scstep>
   <time name="dav">    1.02    1.02</time>
   <time name="total">    1.11    1.11</time>
   <energy>
    <i name="e_fr_energy">   -252.16807236 </i>
    <i name="e_wo_entrp">   -251.25170967 </i>
    <i name="e_0_energy">   -251.70989101 </i>
   </energy>
  </scstep>
  <scstep>
   <time name="dav">    1.02    1.02</time>
   <time name="total">    1.11    1.11</time>
   <energy>
    <i name="e_fr_energy">   -252.16818850 </i>
    <i name="e_wo_entrp">   -251.25253458 </i>
    <i name="e_0_energy">   -251.71036154 </i>
   </energy>
  </scstep>
  <scstep>
   <time name="dav">    1.01    1.01</time>
   <time name="total">    1.10    1.10</time>
   <energy>
    <i name="e_fr_energy">   -252.16848013 </i>
    <i name="e_wo_entrp">   -251.25252608 </i>
    <i name="e_0_energy">   -251.71050311 </i>
   </energy>
  </scstep>
  <scstep>
   <time name="dav">    0.99    0.99</time>
   <time name="total">    1.08    1.08</time>
   <energy>
    <i name="e_fr_energy">   -252.16858371 </i>
    <i name="e_wo_entrp">   -251.25278274 </i>
    <i name="e_0_energy">   -251.71068322 </i>
   </energy>
  </scstep>
  <scstep>
   <time name="dav">    1.00    1.00</time>
   <time name="total">    1.09    1.09</time>
   <energy>
    <i name="e_fr_energy">   -252.16896890 </i>
    <i name="e_wo_entrp">   -251.25264709 </i>
    <i name="e_0_energy">   -251.71080799 </i>
   </energy>
  </scstep>
  <scstep>
   <time name="dav">    0.99    0.99</time>
   <time name="total">    1.08    1.08</time>
   <energy>
    <i name="e_fr_energy">   -252.16917544 </i>
    <i name="e_wo_entrp">   -251.25315443 </i>
    <i name="e_0_energy">   -251.71116493 </i>
   </energy>
  </scstep>
  <scstep>
   <time name="dav">    1.01    1.01</time>
   <time name="total">    1.10    1.11</time>
   <energy>
    <i name="e_fr_energy">   -252.16947628 </i>
    <i name="e_wo_entrp">   -251.25365337 </i>
    <i name="e_0_energy">   -251.71156483 </i>
   </energy>
  </scstep>
  <scstep>
   <time name="dav">    0.99    0.99</time>
   <time name="total">    1.04    1.04</time>
   <energy>
    <i name="alphaZ">   1046.73971423 </i>
    <i name="ewald">  89780.81055640 </i>
    <i name="hartreedc">-176580.73697451 </i>
    <i name="XCdc">   2608.54093257 </i>
    <i name="pawpsdc">  93123.13197803 </i>
    <i name="pawaedc"> -96712.59775562 </i>
    <i name="eentropy">     -0.91582066 </i>
    <i name="bandstr"> -11741.24584970 </i>
    <i name="atom">  98224.10364994 </i>
    <i name="e_fr_energy">   -252.16956932 </i>
    <i name="e_wo_entrp">   -251.25374866 </i>
    <i name="e_0_energy">   -251.71165899 </i>
   </energy>
  </scstep>
  <structure>
   <crystal>
    <varray name="basis" >
     <v>      11.25646304       0.00000000       0.00000000 </v>
     <v>       0.00000000       9.57841000       0.00000000 </v>
     <v>       0.00000000       0.00000000      17.19249240 </v>
    </varray>
    <i name="volume">   1853.67765028 </i>
    <varray name="rec_basis" >
     <v>       0.08883785       0.00000000       0.00000000 </v>
     <v>       0.00000000       0.10440146       0.00000000 </v>
     <v>       0.00000000       0.00000000       0.05816492 </v>
    </varray>
   </crystal>
   <varray name="positions" >
    <v>       0.43933499       0.46388800       0.16283377 </v>
    <v>       0.49118692       0.46388800       0.34224601 </v>
    <v>       0.16340903       0.96388800       0.07312765 </v>
    <v>       0.21526096       0.96388800       0.25253989 </v>
    <v>       0.43933499       0.19968200       0.16283377 </v>
    <v>       0.49118692       0.19968200       0.34224601 </v>
    <v>       0.16340903       0.69968200       0.07312765 </v>
    <v>       0.21526096       0.69968200       0.25253989 </v>
    <v>       0.13063970       0.33178500       0.13913288 </v>
    <v>       0.18249164       0.33178500       0.31854511 </v>
    <v>       0.35471373       0.83178500       0.04942676 </v>
    <v>       0.40656566       0.83178500       0.22883899 </v>
    <v>       0.45841760       0.83178500       0.40825124 </v>
    <v>       0.93933499       0.46388800       0.16283377 </v>
    <v>       0.99118692       0.46388800       0.34224601 </v>
    <v>       0.66340903       0.96388800       0.07312765 </v>
    <v>       0.71526096       0.96388800       0.25253989 </v>
    <v>       0.93933499       0.19968200       0.16283377 </v>
    <v>       0.99118692       0.19968200       0.34224601 </v>
    <v>       0.66340903       0.69968200       0.07312765 </v>
    <v>       0.71526096       0.69968200       0.25253989 </v>
    <v>       0.63063970       0.33178500       0.13913288 </v>
    <v>       0.68249164       0.33178500       0.31854511 </v>
    <v>       0.85471373       0.83178500       0.04942676 </v>
    <v>       0.90656566       0.83178500       0.22883899 </v>
    <v>       0.95841760       0.83178500       0.40825124 </v>
    <v>       0.05963710       0.16357000       0.05952629 </v>
    <v>       0.11148904       0.16357000       0.23893853 </v>
    <v>       0.33556306       0.66357000       0.14923241 </v>
    <v>       0.11148904       0.50000000       0.23893853 </v>
    <v>       0.16334097       0.50000000       0.41835077 </v>
    <v>       0.33556306       1.00000000       0.14923241 </v>
    <v>       0.38741500       1.00000000       0.32864465 </v>
    <v>       0.31603687       0.33178500       0.08970612 </v>
    <v>       0.36788880       0.33178500       0.26911836 </v>
    <v>       0.04011091       0.83178500       0.00000000 </v>
    <v>       0.09196284       0.83178500       0.17941224 </v>
    <v>       0.14381478       0.83178500       0.35882448 </v>
    <v>       0.55963710       0.16357000       0.05952629 </v>
    <v>       0.61148904       0.16357000       0.23893853 </v>
    <v>       0.83556306       0.66357000       0.14923241 </v>
    <v>       0.88741500       0.66357000       0.32864465 </v>
    <v>       0.55963710       0.50000000       0.05952629 </v>
    <v>       0.61148904       0.50000000       0.23893853 </v>
    <v>       0.66334097       0.50000000       0.41835077 </v>
    <v>       0.83556306       1.00000000       0.14923241 </v>
    <v>       0.88741500       1.00000000       0.32864465 </v>
    <v>       0.81603687       0.33178500       0.08970612 </v>
    <v>       0.86788880       0.33178500       0.26911836 </v>
    <v>       0.54011091       0.83178500       0.00000000 </v>
    <v>       0.59196284       0.83178500       0.17941224 </v>
    <v>       0.64381478       0.83178500       0.35882448 </v>
   </varray>
  </structure>
  <varray name="forces" >
   <v>      -0.20155108       0.25917480      -0.11911504 </v>
   <v>       1.37441229      -0.26264788      -0.13706364 </v>
   <v>      -0.76652674      -0.11846138       0.27327070 </v>
   <v>      -0.11723699      -0.08132414       0.25709305 </v>
   <v>      -0.12553346       0.02393725      -0.21860516 </v>
   <v>      -0.63168835      -0.45065449      -1.29103896 </v>
   <v>      -0.11571609       1.20261065       0.62920643 </v>
   <v>      -0.87050560       0.26913992      -0.03729448 </v>
   <v>       0.65405652      -0.64027737       0.10455907 </v>
   <v>      -0.07743895       0.92560231      -0.04423678 </v>
   <v>       0.81356883      -0.06991626       0.91602613 </v>
   <v>       0.10207283       0.58643814      -0.32386140 </v>
   <v>       0.77126623       0.82260782      -2.15153639 </v>
   <v>      -0.65587308      -0.18021659       0.34686995 </v>
   <v>       0.75381875       0.34050976      -0.28626574 </v>
   <v>      -0.90218777      -0.22380059       0.21491552 </v>
   <v>      -0.28223524       0.11378829       0.29761017 </v>
   <v>       0.03089392       0.33284475      -0.48855964 </v>
   <v>      -0.60194907      -0.47266462      -1.36407629 </v>
   <v>      -0.94849021       0.18114442       0.35933792 </v>
   <v>      -0.11513946       0.13486230       0.30472727 </v>
   <v>       0.47951271      -0.00384715      -0.24052010 </v>
   <v>       0.14245158       1.13236713       0.03070727 </v>
   <v>       0.85382346      -0.10688467       0.95367999 </v>
   <v>       0.15944996      -0.09171959       0.05562922 </v>
   <v>       0.34298136      -0.06007999      -2.35259533 </v>
   <v>       0.59757541       0.07646562       0.38833307 </v>
   <v>       0.12688146       0.18079947       1.18186851 </v>
   <v>      -0.22048873       0.19977301      -0.20716705 </v>
   <v>      -0.10213989      -0.06061694      -1.03158351 </v>
   <v>      -1.03941450      -1.27586516      -1.35517167 </v>
   <v>      -0.36311958      -0.18804642      -1.02957065 </v>
   <v>       0.33067163      -0.98313270       0.98267880 </v>
   <v>      -0.70275791       0.28761900       0.68242585 </v>
   <v>       0.18631449       0.13909631       1.02127571 </v>
   <v>      -0.02790484      -0.36737780       0.76203124 </v>
   <v>       0.47565672      -0.06674109       0.08720932 </v>
   <v>       0.34942445      -0.15839442       0.02581502 </v>
   <v>       0.61184111      -0.31321639       0.22053891 </v>
   <v>       0.26544201       0.14566153       0.83330675 </v>
   <v>       0.20812757      -0.01222694      -1.16850256 </v>
   <v>      -0.05865026       0.58337107       0.70450818 </v>
   <v>       0.66076736       0.28278111       0.34610707 </v>
   <v>      -0.30269641      -0.13871505       0.27459488 </v>
   <v>      -1.39937550      -1.40156793      -1.42373339 </v>
   <v>      -0.24481578      -0.21145586      -0.86752244 </v>
   <v>       0.30063195      -0.28380750       0.90064655 </v>
   <v>       0.40774769       0.29088632       0.75545800 </v>
   <v>       0.24645874      -0.26743477       1.08126737 </v>
   <v>       0.15240324       0.04880464       0.86670009 </v>
   <v>       0.33890524       0.06940927       0.25599614 </v>
   <v>      -0.86372203      -0.13860118       0.02362610 </v>
  </varray>
  <varray name="stress" >
   <v>     -31.08825741       0.21315897      -5.83114569 </v>
   <v>       0.21315907     -25.63165173      -7.14085192 </v>
   <v>      -5.83114590      -7.14085211     -35.74734416 </v>
  </varray>
  <energy>
   <i name="e_fr_energy">   -252.16956932 </i>
   <i name="e_wo_entrp">   -251.25374866 </i>
   <i name="e_0_energy">   -251.71165899 </i>
  </energy>
  <time name="totalsc">   66.08   66.32</time>
  <eigenvalues>
   <array>
    <dimension dim="1">band</dimension>
    <dimension dim="2">kpoint</dimension>
    <dimension dim="3">spin</dimension>
    <field>eigene</field>
    <field>occ</field>
    <set>
     <set comment="spin 1">
      <set comment="kpoint 1">
       <r>  -64.4668    1.0000 </r>
       <r>  -64.4627    1.0000 </r>
       <r>  -64.4571    1.0000 </r>
       <r>  -64.4451    1.0000 </r>
       <r>  -64.4240    1.0000 </r>
       <r>  -64.4182    1.0000 </r>
       <r>  -64.3989    1.0000 </r>
       <r>  -64.3928    1.0000 </r>
       <r>  -64.3912    1.0000 </r>
       <r>  -64.3902    1.0000 </r>
       <r>  -64.3792    1.0000 </r>
       <r>  -64.3492    1.0000 </r>
       <r>  -64.3326    1.0000 </r>
       <r>  -64.3314    1.0000 </r>
       <r>  -64.3281    1.0000 </r>
       <r>  -64.3162    1.0000 </r>
       <r>  -64.3099    1.0000 </r>
       <r>  -64.2999    1.0000 </r>
       <r>  -64.2795    1.0000 </r>
       <r>  -64.2781    1.0000 </r>
       <r>  -64.2626    1.0000 </r>
       <r>  -64.2243    1.0000 </r>
       <r>  -64.2102    1.0000 </r>
       <r>  -64.2034    1.0000 </r>
       <r>  -64.1558    1.0000 </r>
       <r>  -64.1380    1.0000 </r>
       <r>  -64.1250    1.0000 </r>
       <r>  -64.1231    1.0000 </r>
       <r>  -64.1188    1.0000 </r>
       <r>  -64.1142    1.0000 </r>
       <r>  -64.0984    1.0000 </r>
       <r>  -64.0948    1.0000 </r>
       <r>  -64.0753    1.0000 </r>
       <r>  -64.0698    1.0000 </r>
       <r>  -64.0502    1.0000 </r>
       <r>  -64.0146    1.0000 </r>
       <r>  -63.9994    1.0000 </r>
       <r>  -63.9987    1.0000 </r>
       <r>  -63.9964    1.0000 </r>
       <r>  -63.9883    1.0000 </r>
       <r>  -63.9796    1.0000 </r>
       <r>  -63.9743    1.0000 </r>
       <r>  -63.9667    1.0000 </r>
       <r>  -63.9467    1.0000 </r>
       <r>  -63.9398    1.0000 </r>
       <r>  -63.9389    1.0000 </r>
       <r>  -63.9320    1.0000 </r>
       <r>  -63.9215    1.0000 </r>
       <r>  -63.9192    1.0000 </r>
       <r>  -63.9151    1.0000 </r>
       <r>  -63.8859    1.0000 </r>
       <r>  -63.8319    1.0000 </r>
       <r>  -63.8222    1.0000 </r>
       <r>  -63.7886    1.0000 </r>
       <r>  -63.7556    1.0000 </r>
       <r>  -63.7536    1.0000 </r>
       <r>  -63.7502    1.0000 </r>
       <r>  -63.7295    1.0000 </r>
       <r>  -63.7058    1.0000 </r>
       <r>  -63.7033    1.0000 </r>
       <r>  -63.6961    1.0000 </r>
       <r>  -63.6594    1.0000 </r>
       <r>  -63.6423    1.0000 </r>
       <r>  -63.6125    1.0000 </r>
       <r>  -63.5956    1.0000 </r>
       <r>  -63.5543    1.0000 </r>
       <r>  -63.5262    1.0000 </r>
       <r>  -63.4886    1.0000 </r>
       <r>  -63.4832    1.0000 </r>
       <r>  -63.4717    1.0000 </r>
       <r>  -63.4583    1.0000 </r>
       <r>  -63.3673    1.0000 </r>
       <r>  -63.3351    1.0000 </r>
       <r>  -63.2881    1.0000 </r>
       <r>  -63.2848    1.0000 </r>
       <r>  -63.2497    1.0000 </r>
       <r>  -63.2247    1.0000 </r>
       <r>  -62.8442    1.0000 </r>
       <r>  -15.3354    1.0000 </r>
       <r>  -14.7852    1.0000 </r>
       <r>  -14.7014    1.0000 </r>
       <r>  -14.6555    1.0000 </r>
       <r>  -14.3065    1.0000 </r>
       <r>  -14.1878    1.0000 </r>
       <r>  -14.1069    1.0000 </r>
       <r>  -14.0267    1.0000 </r>
       <r>  -13.9288    1.0000 </r>
       <r>  -13.8274    1.0000 </r>
       <r>  -13.7860    1.0000 </r>
       <r>  -13.6574    1.0000 </r>
       <r>  -13.6353    1.0000 </r>
       <r>  -13.4563    1.0000 </r>
       <r>  -13.3258    1.0000 </r>
       <r>  -13.1944    1.0000 </r>
       <r>  -13.0666    1.0000 </r>
       <r>  -12.9362    1.0000 </r>
       <r>  -12.8637    1.0000 </r>
       <r>  -12.7845    1.0000 </r>
       <r>  -12.7194    1.0000 </r>
       <r>  -12.6644    1.0000 </r>
       <r>  -12.5380    1.0000 </r>
       <r>  -12.4830    1.0000 </r>
       <r>  -11.8633    1.0000 </r>
       <r>  -11.8505    1.0000 </r>
       <r>   -7.1619    1.0000 </r>
       <r>   -6.9534    1.0000 </r>
       <r>   -6.9273    1.0000 </r>
       <r>   -6.8094    1.0000 </r>
       <r>   -6.6652    1.0000 </r>
       <r>   -6.5806    1.0000 </r>
       <r>   -6.4616    1.0000 </r>
       <r>   -6.4165    1.0000 </r>
       <r>   -6.3787    1.0000 </r>
       <r>   -6.3246    1.0000 </r>
       <r>   -6.1732    1.0000 </r>
       <r>   -6.0598    1.0000 </r>
       <r>   -6.0232    1.0000 </r>
       <r>   -5.9984    1.0000 </r>
       <r>   -5.8952    1.0000 </r>
       <r>   -5.8170    1.0000 </r>
       <r>   -5.7887    1.0000 </r>
       <r>   -5.7394    1.0000 </r>
       <r>   -5.6981    1.0000 </r>
       <r>   -5.6675    1.0000 </r>
       <r>   -5.5865    1.0000 </r>
       <r>   -5.5082    1.0000 </r>
       <r>   -5.4742    1.0000 </r>
       <r>   -5.4006    1.0000 </r>
       <r>   -5.3438    1.0000 </r>
       <r>   -5.2704    1.0000 </r>
       <r>   -5.1923    1.0000 </r>
       <r>   -5.1718    1.0000 </r>
       <r>   -5.0906    1.0000 </r>
       <r>   -5.0514    1.0000 </r>
       <r>   -4.9245    1.0000 </r>
       <r>   -4.9104    1.0000 </r>
       <r>   -4.8001    1.0000 </r>
       <r>   -4.7303    1.0000 </r>
       <r>   -4.7137    1.0000 </r>
       <r>   -4.6697    1.0000 </r>
       <r>   -4.6344    1.0000 </r>
       <r>   -4.5900    1.0000 </r>
       <r>   -4.5455    1.0000 </r>
       <r>   -4.4953    1.0000 </r>
       <r>   -4.4377    1.0000 </r>
       <r>   -4.3978    1.0000 </r>
       <r>   -4.3571    1.0000 </r>
       <r>   -4.3221    1.0000 </r>
       <r>   -4.1850    1.0000 </r>
       <r>   -4.1528    1.0000 </r>
       <r>   -4.1318    1.0000 </r>
       <r>   -4.0812    1.0000 </r>
       <r>   -4.0605    1.0000 </r>
       <r>   -4.0556    1.0000 </r>
       <r>   -3.9432    1.0000 </r>
       <r>   -3.9370    1.0000 </r>
       <r>   -3.8984    1.0000 </r>
       <r>   -3.8700    1.0000 </r>
       <r>   -3.8456    1.0000 </r>
       <r>   -3.7808    1.0000 </r>
       <r>   -3.7447    1.0000 </r>
       <r>   -3.6686    1.0000 </r>
       <r>   -3.5980    1.0000 </r>
       <r>   -3.5286    1.0000 </r>
       <r>   -3.4750    1.0000 </r>
       <r>   -3.4568    1.0000 </r>
       <r>   -3.4134    1.0000 </r>
       <r>   -3.3826    1.0000 </r>
       <r>   -3.3086    1.0000 </r>
       <r>   -3.3018    1.0000 </r>
       <r>   -3.2774    1.0000 </r>
       <r>   -3.2194    1.0000 </r>
       <r>   -3.1759    1.0000 </r>
       <r>   -3.1319    1.0000 </r>
       <r>   -3.0971    1.0000 </r>
       <r>   -3.0348    1.0000 </r>
       <r>   -3.0105    1.0000 </r>
       <r>   -2.9921    1.0000 </r>
       <r>   -2.9568    1.0000 </r>
       <r>   -2.8819    1.0000 </r>
       <r>   -2.8574    1.0000 </r>
       <r>   -2.8185    1.0000 </r>
       <r>   -2.7760    1.0000 </r>
       <r>   -2.7330    1.0000 </r>
       <r>   -2.7121    1.0000 </r>
       <r>   -2.6650    1.0000 </r>
       <r>   -2.6299    1.0000 </r>
       <r>   -2.6101    1.0000 </r>
       <r>   -2.5677    1.0000 </r>
       <r>   -2.5668    1.0000 </r>
       <r>   -2.5243    1.0000 </r>
       <r>   -2.4648    1.0000 </r>
       <r>   -2.4391    1.0000 </r>
       <r>   -2.3911    1.0000 </r>
       <r>   -2.3690    1.0000 </r>
       <r>   -2.3564    1.0000 </r>
       <r>   -2.3367    1.0000 </r>
       <r>   -2.3170    1.0000 </r>
       <r>   -2.2947    1.0000 </r>
       <r>   -2.2790    1.0000 </r>
       <r>   -2.2678    1.0000 </r>
       <r>   -2.2459    1.0000 </r>
       <r>   -2.2041    1.0000 </r>
       <r>   -2.1781    1.0000 </r>
       <r>   -2.1760    1.0000 </r>
       <r>   -2.1489    1.0000 </r>
       <r>   -2.1272    1.0000 </r>
       <r>   -2.1094    1.0000 </r>
       <r>   -2.0802    1.0000 </r>
       <r>   -2.0633    1.0000 </r>
       <r>   -2.0459    1.0000 </r>
       <r>   -2.0357    1.0000 </r>
       <r>   -1.9995    1.0000 </r>
       <r>   -1.9777    1.0000 </r>
       <r>   -1.9719    1.0000 </r>
       <r>   -1.9591    1.0000 </r>
       <r>   -1.9300    1.0000 </r>
       <r>   -1.9192    1.0000 </r>
       <r>   -1.9140    1.0000 </r>
       <r>   -1.8971    1.0000 </r>
       <r>   -1.8771    1.0000 </r>
       <r>   -1.8621    1.0000 </r>
       <r>   -1.8437    1.0000 </r>
       <r>   -1.8353    1.0000 </r>
       <r>   -1.8091    1.0000 </r>
       <r>   -1.7772    1.0000 </r>
       <r>   -1.7566    1.0000 </r>
       <r>   -1.7500    1.0000 </r>
       <r>   -1.7358    1.0000 </r>
       <r>   -1.7204    1.0000 </r>
       <r>   -1.7077    1.0000 </r>
       <r>   -1.6937    1.0000 </r>
       <r>   -1.6918    1.0000 </r>
       <r>   -1.6462    1.0000 </r>
       <r>   -1.6290    1.0000 </r>
       <r>   -1.6175    1.0000 </r>
       <r>   -1.5839    1.0000 </r>
       <r>   -1.5698    1.0000 </r>
       <r>   -1.5626    1.0000 </r>
       <r>   -1.5478    1.0000 </r>
       <r>   -1.5316    1.0000 </r>
       <r>   -1.5115    1.0000 </r>
       <r>   -1.5033    1.0000 </r>
       <r>   -1.4986    1.0000 </r>
       <r>   -1.4788    1.0000 </r>
       <r>   -1.4486    1.0000 </r>
       <r>   -1.4468    1.0000 </r>
       <r>   -1.4388    1.0000 </r>
       <r>   -1.4095    1.0000 </r>
       <r>   -1.3775    1.0000 </r>
       <r>   -1.3473    1.0000 </r>
       <r>   -1.3391    1.0000 </r>
       <r>   -1.3265    1.0000 </r>
       <r>   -1.3175    1.0000 </r>
       <r>   -1.3011    1.0000 </r>
       <r>   -1.2796    1.0000 </r>
       <r>   -1.2681    1.0000 </r>
       <r>   -1.2501    1.0000 </r>
       <r>   -1.1904    1.0000 </r>
       <r>   -1.1843    1.0000 </r>
       <r>   -1.1621    1.0000 </r>
       <r>   -1.1462    1.0000 </r>
       <r>   -1.1254    1.0000 </r>
       <r>   -1.1074    1.0000 </r>
       <r>   -1.0839    1.0000 </r>
       <r>   -1.0559    1.0000 </r>
       <r>   -1.0314    1.0000 </r>
       <r>   -1.0246    1.0000 </r>
       <r>   -0.9893    1.0000 </r>
       <r>   -0.9577    1.0000 </r>
       <r>   -0.9411    1.0000 </r>
       <r>   -0.9177    1.0000 </r>
       <r>   -0.8866    0.9999 </r>
       <r>   -0.7932    0.9988 </r>
       <r>   -0.7774    0.9983 </r>
       <r>   -0.7391    0.9961 </r>
       <r>   -0.6968    0.9909 </r>
       <r>   -0.6652    0.9838 </r>
       <r>   -0.6475    0.9780 </r>
       <r>   -0.6259    0.9686 </r>
       <r>   -0.5764    0.9346 </r>
       <r>   -0.5388    0.8935 </r>
       <r>   -0.5168    0.8620 </r>
       <r>   -0.4847    0.8059 </r>
       <r>   -0.4461    0.7223 </r>
       <r>   -0.3843    0.5606 </r>
       <r>   -0.3775    0.5416 </r>
       <r>   -0.2843    0.2895 </r>
       <r>   -0.2524    0.2176 </r>
       <r>   -0.2182    0.1533 </r>
       <r>   -0.1494    0.0657 </r>
       <r>   -0.0962    0.0297 </r>
       <r>   -0.0157    0.0071 </r>
       <r>    0.0543    0.0016 </r>
       <r>    0.1229    0.0003 </r>
       <r>    0.1349    0.0002 </r>
       <r>    0.1803    0.0001 </r>
       <r>    0.2191    0.0000 </r>
       <r>    0.2803    0.0000 </r>
       <r>    0.2985    0.0000 </r>
       <r>    0.3073    0.0000 </r>
       <r>    0.4106    0.0000 </r>
       <r>    0.4370    0.0000 </r>
       <r>    0.4930    0.0000 </r>
       <r>    0.5631    0.0000 </r>
       <r>    0.6071    0.0000 </r>
       <r>    0.6456    0.0000 </r>
       <r>    0.6930    0.0000 </r>
       <r>    0.7472    0.0000 </r>
       <r>    0.7690    0.0000 </r>
       <r>    0.8684    0.0000 </r>
       <r>    0.9620    0.0000 </r>
       <r>    1.4536    0.0000 </r>
       <r>    1.8033    0.0000 </r>
       <r>    2.2209    0.0000 </r>
       <r>    2.3526    0.0000 </r>
       <r>    2.3741    0.0000 </r>
       <r>    2.5921    0.0000 </r>
       <r>    2.8003    0.0000 </r>
       <r>    3.0704    0.0000 </r>
       <r>    3.3805    0.0000 </r>
       <r>    3.5608    0.0000 </r>
       <r>    3.7677    0.0000 </r>
       <r>    3.9114    0.0000 </r>
       <r>    4.0250    0.0000 </r>
       <r>    4.2560    0.0000 </r>
       <r>    4.3776    0.0000 </r>
       <r>    4.4617    0.0000 </r>
       <r>    4.5530    0.0000 </r>
       <r>    4.5945    0.0000 </r>
       <r>    4.6559    0.0000 </r>
       <r>    4.7202    0.0000 </r>
       <r>    4.7700    0.0000 </r>
       <r>    4.8633    0.0000 </r>
       <r>    4.9453    0.0000 </r>
       <r>    4.9940    0.0000 </r>
       <r>    5.0995    0.0000 </r>
       <r>    5.1547    0.0000 </r>
       <r>    5.2775    0.0000 </r>
       <r>    5.3184    0.0000 </r>
       <r>    5.3820    0.0000 </r>
       <r>    5.4139    0.0000 </r>
       <r>    5.4906    0.0000 </r>
       <r>    5.6248    0.0000 </r>
      </set>
     </set>
    </set>
   </array>
  </eigenvalues>
  <separator name="orbital magnetization" >
   <v name="MAGDIPOLOUT">      0.00000000      0.00000000      0.00000000</v>
  </separator>
  <dos>
   <i name="efermi">     -0.36272477 </i>
   <total>
    <array>
     <dimension dim="1">gridpoints</dimension>
     <dimension dim="2">spin</dimension>
     <field>energy</field>
     <field>total</field>
     <field>integrated</field>
     <set>
      <set comment="spin 1">
       <r>   -67.9714     0.0000     0.0000 </r>
       <r>   -67.7144     0.0000     0.0000 </r>
       <r>   -67.4574     0.0000     0.0000 </r>
       <r>   -67.2004     0.0000     0.0000 </r>
       <r>   -66.9434     0.0000     0.0000 </r>
       <r>   -66.6864     0.0000     0.0000 </r>
       <r>   -66.4294     0.0000     0.0000 </r>
       <r>   -66.1724     0.0000     0.0000 </r>
       <r>   -65.9154     0.0000     0.0000 </r>
       <r>   -65.6584     0.0000     0.0000 </r>
       <r>   -65.4014     0.0000     0.0000 </r>
       <r>   -65.1444     0.0000     0.0000 </r>
       <r>   -64.8873     0.0564     0.0145 </r>
       <r>   -64.6303     7.2946     1.8892 </r>
       <r>   -64.3733    77.8206    21.8893 </r>
       <r>   -64.1163   145.3282    59.2390 </r>
       <r>   -63.8593   151.6195    98.2056 </r>
       <r>   -63.6023   109.1481   126.2569 </r>
       <r>   -63.3453    70.1315   144.2809 </r>
       <r>   -63.0883    33.9808   153.0140 </r>
       <r>   -62.8313     7.9633   155.0606 </r>
       <r>   -62.5743     3.4357   155.9436 </r>
       <r>   -62.3173     0.2187   155.9998 </r>
       <r>   -62.0603     0.0008   156.0000 </r>
       <r>   -61.8033     0.0000   156.0000 </r>
       <r>   -61.5463     0.0000   156.0000 </r>
       <r>   -61.2893     0.0000   156.0000 </r>
       <r>   -61.0323     0.0000   156.0000 </r>
       <r>   -60.7753     0.0000   156.0000 </r>
       <r>   -60.5183     0.0000   156.0000 </r>
       <r>   -60.2613     0.0000   156.0000 </r>
       <r>   -60.0043     0.0000   156.0000 </r>
       <r>   -59.7473     0.0000   156.0000 </r>
       <r>   -59.4903     0.0000   156.0000 </r>
       <r>   -59.2333     0.0000   156.0000 </r>
       <r>   -58.9763     0.0000   156.0000 </r>
       <r>   -58.7193     0.0000   156.0000 </r>
       <r>   -58.4623     0.0000   156.0000 </r>
       <r>   -58.2053     0.0000   156.0000 </r>
       <r>   -57.9483     0.0000   156.0000 </r>
       <r>   -57.6913     0.0000   156.0000 </r>
       <r>   -57.4343     0.0000   156.0000 </r>
       <r>   -57.1773     0.0000   156.0000 </r>
       <r>   -56.9203     0.0000   156.0000 </r>
       <r>   -56.6633     0.0000   156.0000 </r>
       <r>   -56.4063     0.0000   156.0000 </r>
       <r>   -56.1493     0.0000   156.0000 </r>
       <r>   -55.8923     0.0000   156.0000 </r>
       <r>   -55.6353     0.0000   156.0000 </r>
       <r>   -55.3783     0.0000   156.0000 </r>
       <r>   -55.1213     0.0000   156.0000 </r>
       <r>   -54.8643     0.0000   156.0000 </r>
       <r>   -54.6073     0.0000   156.0000 </r>
       <r>   -54.3503     0.0000   156.0000 </r>
       <r>   -54.0932     0.0000   156.0000 </r>
       <r>   -53.8362     0.0000   156.0000 </r>
       <r>   -53.5792     0.0000   156.0000 </r>
       <r>   -53.3222     0.0000   156.0000 </r>
       <r>   -53.0652     0.0000   156.0000 </r>
       <r>   -52.8082     0.0000   156.0000 </r>
       <r>   -52.5512     0.0000   156.0000 </r>
       <r>   -52.2942     0.0000   156.0000 </r>
       <r>   -52.0372     0.0000   156.0000 </r>
       <r>   -51.7802     0.0000   156.0000 </r>
       <r>   -51.5232     0.0000   156.0000 </r>
       <r>   -51.2662     0.0000   156.0000 </r>
       <r>   -51.0092     0.0000   156.0000 </r>
       <r>   -50.7522     0.0000   156.0000 </r>
       <r>   -50.4952     0.0000   156.0000 </r>
       <r>   -50.2382     0.0000   156.0000 </r>
       <r>   -49.9812     0.0000   156.0000 </r>
       <r>   -49.7242     0.0000   156.0000 </r>
       <r>   -49.4672     0.0000   156.0000 </r>
       <r>   -49.2102     0.0000   156.0000 </r>
       <r>   -48.9532     0.0000   156.0000 </r>
       <r>   -48.6962     0.0000   156.0000 </r>
       <r>   -48.4392     0.0000   156.0000 </r>
       <r>   -48.1822     0.0000   156.0000 </r>
       <r>   -47.9252     0.0000   156.0000 </r>
       <r>   -47.6682     0.0000   156.0000 </r>
       <r>   -47.4112     0.0000   156.0000 </r>
       <r>   -47.1542     0.0000   156.0000 </r>
       <r>   -46.8972     0.0000   156.0000 </r>
       <r>   -46.6402     0.0000   156.0000 </r>
       <r>   -46.3832     0.0000   156.0000 </r>
       <r>   -46.1262     0.0000   156.0000 </r>
       <r>   -45.8692     0.0000   156.0000 </r>
       <r>   -45.6122     0.0000   156.0000 </r>
       <r>   -45.3552     0.0000   156.0000 </r>
       <r>   -45.0982     0.0000   156.0000 </r>
       <r>   -44.8412     0.0000   156.0000 </r>
       <r>   -44.5842     0.0000   156.0000 </r>
       <r>   -44.3272     0.0000   156.0000 </r>
       <r>   -44.0702     0.0000   156.0000 </r>
       <r>   -43.8132     0.0000   156.0000 </r>
       <r>   -43.5562     0.0000   156.0000 </r>
       <r>   -43.2991     0.0000   156.0000 </r>
       <r>   -43.0421     0.0000   156.0000 </r>
       <r>   -42.7851     0.0000   156.0000 </r>
       <r>   -42.5281     0.0000   156.0000 </r>
       <r>   -42.2711     0.0000   156.0000 </r>
       <r>   -42.0141     0.0000   156.0000 </r>
       <r>   -41.7571     0.0000   156.0000 </r>
       <r>   -41.5001     0.0000   156.0000 </r>
       <r>   -41.2431     0.0000   156.0000 </r>
       <r>   -40.9861     0.0000   156.0000 </r>
       <r>   -40.7291     0.0000   156.0000 </r>
       <r>   -40.4721     0.0000   156.0000 </r>
       <r>   -40.2151     0.0000   156.0000 </r>
       <r>   -39.9581     0.0000   156.0000 </r>
       <r>   -39.7011     0.0000   156.0000 </r>
       <r>   -39.4441     0.0000   156.0000 </r>
       <r>   -39.1871     0.0000   156.0000 </r>
       <r>   -38.9301     0.0000   156.0000 </r>
       <r>   -38.6731     0.0000   156.0000 </r>
       <r>   -38.4161     0.0000   156.0000 </r>
       <r>   -38.1591     0.0000   156.0000 </r>
       <r>   -37.9021     0.0000   156.0000 </r>
       <r>   -37.6451     0.0000   156.0000 </r>
       <r>   -37.3881     0.0000   156.0000 </r>
       <r>   -37.1311     0.0000   156.0000 </r>
       <r>   -36.8741     0.0000   156.0000 </r>
       <r>   -36.6171     0.0000   156.0000 </r>
       <r>   -36.3601     0.0000   156.0000 </r>
       <r>   -36.1031     0.0000   156.0000 </r>
       <r>   -35.8461     0.0000   156.0000 </r>
       <r>   -35.5891     0.0000   156.0000 </r>
       <r>   -35.3321     0.0000   156.0000 </r>
       <r>   -35.0751     0.0000   156.0000 </r>
       <r>   -34.8181     0.0000   156.0000 </r>
       <r>   -34.5611     0.0000   156.0000 </r>
       <r>   -34.3041     0.0000   156.0000 </r>
       <r>   -34.0471     0.0000   156.0000 </r>
       <r>   -33.7901     0.0000   156.0000 </r>
       <r>   -33.5331     0.0000   156.0000 </r>
       <r>   -33.2761     0.0000   156.0000 </r>
       <r>   -33.0191     0.0000   156.0000 </r>
       <r>   -32.7621     0.0000   156.0000 </r>
       <r>   -32.5050     0.0000   156.0000 </r>
       <r>   -32.2480     0.0000   156.0000 </r>
       <r>   -31.9910     0.0000   156.0000 </r>
       <r>   -31.7340     0.0000   156.0000 </r>
       <r>   -31.4770     0.0000   156.0000 </r>
       <r>   -31.2200     0.0000   156.0000 </r>
       <r>   -30.9630     0.0000   156.0000 </r>
       <r>   -30.7060     0.0000   156.0000 </r>
       <r>   -30.4490     0.0000   156.0000 </r>
       <r>   -30.1920     0.0000   156.0000 </r>
       <r>   -29.9350     0.0000   156.0000 </r>
       <r>   -29.6780     0.0000   156.0000 </r>
       <r>   -29.4210     0.0000   156.0000 </r>
       <r>   -29.1640     0.0000   156.0000 </r>
       <r>   -28.9070     0.0000   156.0000 </r>
       <r>   -28.6500     0.0000   156.0000 </r>
       <r>   -28.3930     0.0000   156.0000 </r>
       <r>   -28.1360     0.0000   156.0000 </r>
       <r>   -27.8790     0.0000   156.0000 </r>
       <r>   -27.6220     0.0000   156.0000 </r>
       <r>   -27.3650     0.0000   156.0000 </r>
       <r>   -27.1080     0.0000   156.0000 </r>
       <r>   -26.8510     0.0000   156.0000 </r>
       <r>   -26.5940     0.0000   156.0000 </r>
       <r>   -26.3370     0.0000   156.0000 </r>
       <r>   -26.0800     0.0000   156.0000 </r>
       <r>   -25.8230     0.0000   156.0000 </r>
       <r>   -25.5660     0.0000   156.0000 </r>
       <r>   -25.3090     0.0000   156.0000 </r>
       <r>   -25.0520     0.0000   156.0000 </r>
       <r>   -24.7950     0.0000   156.0000 </r>
       <r>   -24.5380     0.0000   156.0000 </r>
       <r>   -24.2810     0.0000   156.0000 </r>
       <r>   -24.0240     0.0000   156.0000 </r>
       <r>   -23.7670     0.0000   156.0000 </r>
       <r>   -23.5100     0.0000   156.0000 </r>
       <r>   -23.2530     0.0000   156.0000 </r>
       <r>   -22.9960     0.0000   156.0000 </r>
       <r>   -22.7390     0.0000   156.0000 </r>
       <r>   -22.4820     0.0000   156.0000 </r>
       <r>   -22.2250     0.0000   156.0000 </r>
       <r>   -21.9680     0.0000   156.0000 </r>
       <r>   -21.7109     0.0000   156.0000 </r>
       <r>   -21.4539     0.0000   156.0000 </r>
       <r>   -21.1969     0.0000   156.0000 </r>
       <r>   -20.9399     0.0000   156.0000 </r>
       <r>   -20.6829     0.0000   156.0000 </r>
       <r>   -20.4259     0.0000   156.0000 </r>
       <r>   -20.1689     0.0000   156.0000 </r>
       <r>   -19.9119     0.0000   156.0000 </r>
       <r>   -19.6549     0.0000   156.0000 </r>
       <r>   -19.3979     0.0000   156.0000 </r>
       <r>   -19.1409     0.0000   156.0000 </r>
       <r>   -18.8839     0.0000   156.0000 </r>
       <r>   -18.6269     0.0000   156.0000 </r>
       <r>   -18.3699     0.0000   156.0000 </r>
       <r>   -18.1129     0.0000   156.0000 </r>
       <r>   -17.8559     0.0000   156.0000 </r>
       <r>   -17.5989     0.0000   156.0000 </r>
       <r>   -17.3419     0.0000   156.0000 </r>
       <r>   -17.0849     0.0000   156.0000 </r>
       <r>   -16.8279     0.0000   156.0000 </r>
       <r>   -16.5709     0.0000   156.0000 </r>
       <r>   -16.3139     0.0000   156.0000 </r>
       <r>   -16.0569     0.0000   156.0000 </r>
       <r>   -15.7999     0.0040   156.0010 </r>
       <r>   -15.5429     0.5496   156.1423 </r>
       <r>   -15.2859     4.4036   157.2740 </r>
       <r>   -15.0289     3.1500   158.0836 </r>
       <r>   -14.7719     7.8652   160.1049 </r>
       <r>   -14.5149    13.6098   163.6027 </r>
       <r>   -14.2579    10.4693   166.2933 </r>
       <r>   -14.0009    20.0960   171.4580 </r>
       <r>   -13.7439    23.3512   177.4594 </r>
       <r>   -13.4869    19.8122   182.5512 </r>
       <r>   -13.2299    15.3107   186.4861 </r>
       <r>   -12.9729    17.1176   190.8853 </r>
       <r>   -12.7159    23.7445   196.9877 </r>
       <r>   -12.4589    20.7568   202.3223 </r>
       <r>   -12.2019     6.3880   203.9640 </r>
       <r>   -11.9449     4.2967   205.0683 </r>
       <r>   -11.6879     9.5978   207.5349 </r>
       <r>   -11.4309     1.7893   207.9948 </r>
       <r>   -11.1739     0.0204   208.0000 </r>
       <r>   -10.9168     0.0000   208.0000 </r>
       <r>   -10.6598     0.0000   208.0000 </r>
       <r>   -10.4028     0.0000   208.0000 </r>
       <r>   -10.1458     0.0000   208.0000 </r>
       <r>    -9.8888     0.0000   208.0000 </r>
       <r>    -9.6318     0.0000   208.0000 </r>
       <r>    -9.3748     0.0000   208.0000 </r>
       <r>    -9.1178     0.0000   208.0000 </r>
       <r>    -8.8608     0.0000   208.0000 </r>
       <r>    -8.6038     0.0000   208.0000 </r>
       <r>    -8.3468     0.0000   208.0000 </r>
       <r>    -8.0898     0.0000   208.0000 </r>
       <r>    -7.8328     0.0000   208.0000 </r>
       <r>    -7.5758     0.0134   208.0034 </r>
       <r>    -7.3188     1.0874   208.2829 </r>
       <r>    -7.0618     8.1816   210.3856 </r>
       <r>    -6.8048    17.1574   214.7951 </r>
       <r>    -6.5478    20.0637   219.9515 </r>
       <r>    -6.2908    25.9326   226.6162 </r>
       <r>    -6.0338    25.2363   233.1020 </r>
       <r>    -5.7768    33.5611   241.7273 </r>
       <r>    -5.5198    36.2618   251.0467 </r>
       <r>    -5.2628    32.6044   259.4261 </r>
       <r>    -5.0058    31.5105   267.5244 </r>
       <r>    -4.7488    32.9502   275.9926 </r>
       <r>    -4.4918    42.4756   286.9090 </r>
       <r>    -4.2348    39.7548   297.1260 </r>
       <r>    -3.9778    46.1429   308.9849 </r>
       <r>    -3.7208    45.8264   320.7623 </r>
       <r>    -3.4638    39.6766   330.9593 </r>
       <r>    -3.2068    48.6406   343.4601 </r>
       <r>    -2.9498    50.2987   356.3870 </r>
       <r>    -2.6928    53.5983   370.1618 </r>
       <r>    -2.4358    63.7773   386.5528 </r>
       <r>    -2.1788    85.5419   408.5373 </r>
       <r>    -1.9218   105.3115   435.6026 </r>
       <r>    -1.6648   116.4496   465.5304 </r>
       <r>    -1.4078   117.2364   495.6604 </r>
       <r>    -1.1508   102.5454   522.0148 </r>
       <r>    -0.8938    78.6673   542.2325 </r>
       <r>    -0.6368    59.0141   557.3993 </r>
       <r>    -0.3798    53.7443   571.2117 </r>
       <r>    -0.1227    40.3285   581.5762 </r>
       <r>     0.1343    37.4004   591.1882 </r>
       <r>     0.3913    44.3254   602.5799 </r>
       <r>     0.6483    40.2679   612.9289 </r>
       <r>     0.9053    31.5592   621.0397 </r>
       <r>     1.1623    10.8762   623.8349 </r>
       <r>     1.4193     3.8067   624.8132 </r>
       <r>     1.6763     5.6052   626.2538 </r>
       <r>     1.9333     5.5810   627.6881 </r>
       <r>     2.1903     6.1611   629.2715 </r>
       <r>     2.4473    14.9000   633.1008 </r>
       <r>     2.7043    11.4611   636.0464 </r>
       <r>     2.9613     8.3001   638.1795 </r>
       <r>     3.2183     6.9595   639.9681 </r>
       <r>     3.4753     8.2153   642.0795 </r>
       <r>     3.7323    10.6173   644.8081 </r>
       <r>     3.9893    13.0623   648.1652 </r>
       <r>     4.2463    12.3465   651.3383 </r>
       <r>     4.5033    20.0782   656.4984 </r>
       <r>     4.7603    29.4236   664.0603 </r>
       <r>     5.0173    27.4720   671.1207 </r>
       <r>     5.2743    26.6164   677.9612 </r>
       <r>     5.5313    26.6984   684.8228 </r>
       <r>     5.7883    11.2103   687.7039 </r>
       <r>     6.0453     1.1405   687.9970 </r>
       <r>     6.3023     0.0118   688.0000 </r>
       <r>     6.5593     0.0000   688.0000 </r>
       <r>     6.8163     0.0000   688.0000 </r>
       <r>     7.0733     0.0000   688.0000 </r>
       <r>     7.3303     0.0000   688.0000 </r>
       <r>     7.5873     0.0000   688.0000 </r>
       <r>     7.8443     0.0000   688.0000 </r>
       <r>     8.1013     0.0000   688.0000 </r>
       <r>     8.3583     0.0000   688.0000 </r>
       <r>     8.6153     0.0000   688.0000 </r>
       <r>     8.8723     0.0000   688.0000 </r>
       <r>     9.1293     0.0000   688.0000 </r>
      </set>
     </set>
    </array>
   </total>
  </dos>
 </calculation>
 <structure name="finalpos" >
  <crystal>
   <varray name="basis" >
    <v>      11.25646304       0.00000000       0.00000000 </v>
    <v>       0.00000000       9.57841000       0.00000000 </v>
    <v>       0.00000000       0.00000000      17.19249240 </v>
   </varray>
   <i name="volume">   1853.67765028 </i>
   <varray name="rec_basis" >
    <v>       0.08883785       0.00000000       0.00000000 </v>
    <v>       0.00000000       0.10440146       0.00000000 </v>
    <v>       0.00000000       0.00000000       0.05816492 </v>
   </varray>
  </crystal>
  <varray name="positions" >
   <v>       0.43933499       0.46388800       0.16283377 </v>
   <v>       0.49118692       0.46388800       0.34224601 </v>
   <v>       0.16340903       0.96388800       0.07312765 </v>
   <v>       0.21526096       0.96388800       0.25253989 </v>
   <v>       0.43933499       0.19968200       0.16283377 </v>
   <v>       0.49118692       0.19968200       0.34224601 </v>
   <v>       0.16340903       0.69968200       0.07312765 </v>
   <v>       0.21526096       0.69968200       0.25253989 </v>
   <v>       0.13063970       0.33178500       0.13913288 </v>
   <v>       0.18249164       0.33178500       0.31854511 </v>
   <v>       0.35471373       0.83178500       0.04942676 </v>
   <v>       0.40656566       0.83178500       0.22883899 </v>
   <v>       0.45841760       0.83178500       0.40825124 </v>
   <v>       0.93933499       0.46388800       0.16283377 </v>
   <v>       0.99118692       0.46388800       0.34224601 </v>
   <v>       0.66340903       0.96388800       0.07312765 </v>
   <v>       0.71526096       0.96388800       0.25253989 </v>
   <v>       0.93933499       0.19968200       0.16283377 </v>
   <v>       0.99118692       0.19968200       0.34224601 </v>
   <v>       0.66340903       0.69968200       0.07312765 </v>
   <v>       0.71526096       0.69968200       0.25253989 </v>
   <v>       0.63063970       0.33178500       0.13913288 </v>
   <v>       0.68249164       0.33178500       0.31854511 </v>
   <v>       0.85471373       0.83178500       0.04942676 </v>
   <v>       0.90656566       0.83178500       0.22883899 </v>
   <v>       0.95841760       0.83178500       0.40825124 </v>
   <v>       0.05963710       0.16357000       0.05952629 </v>
   <v>       0.11148904       0.16357000       0.23893853 </v>
   <v>       0.33556306       0.66357000       0.14923241 </v>
   <v>       0.11148904       0.50000000       0.23893853 </v>
   <v>       0.16334097       0.50000000       0.41835077 </v>
   <v>       0.33556306       1.00000000       0.14923241 </v>
   <v>       0.38741500       1.00000000       0.32864465 </v>
   <v>       0.31603687       0.33178500       0.08970612 </v>
   <v>       0.36788880       0.33178500       0.26911836 </v>
   <v>       0.04011091       0.83178500       0.00000000 </v>
   <v>       0.09196284       0.83178500       0.17941224 </v>
   <v>       0.14381478       0.83178500       0.35882448 </v>
   <v>       0.55963710       0.16357000       0.05952629 </v>
   <v>       0.61148904       0.16357000       0.23893853 </v>
   <v>       0.83556306       0.66357000       0.14923241 </v>
   <v>       0.88741500       0.66357000       0.32864465 </v>
   <v>       0.55963710       0.50000000       0.05952629 </v>
   <v>       0.61148904       0.50000000       0.23893853 </v>
   <v>       0.66334097       0.50000000       0.41835077 </v>
   <v>       0.83556306       1.00000000       0.14923241 </v>
   <v>       0.88741500       1.00000000       0.32864465 </v>
   <v>       0.81603687       0.33178500       0.08970612 </v>
   <v>       0.86788880       0.33178500       0.26911836 </v>
   <v>       0.54011091       0.83178500       0.00000000 </v>
   <v>       0.59196284       0.83178500       0.17941224 </v>
   <v>       0.64381478       0.83178500       0.35882448 </v>
  </varray>
 </structure>
</modeling>
