
96 atoms
2 atom types
   0.0000000000    6.2785600000 xlo xhi
   0.0000000000   11.0601955134 ylo yhi
   0.0000000000   29.1568200000 zlo zhi
   2.0928533957    0.0000000000    0.0000000000 xy xz yz

Atoms # atomic

     1      1    1.6436996031    0.1820352343    4.4433094696
     2      1    1.6436996031    0.1820352343   14.0217194480
     3      1    0.5972729353    2.9470840242    9.2325144588
     4      1    0.5972729353    2.9470840242   18.8109244664
     5      1    1.6436996031    0.1820352343    1.9126360760
     6      1    1.6436996031    0.1820352343   11.4910460544
     7      1    0.5972729353    2.9470840242    6.7018410652
     8      1    0.5972729353    2.9470840242   16.2802510728
     9      1    1.6436996029    2.3736626798    3.1779727582
    10      1    1.6436996029    2.3736626798   12.7563827658
    11      1    3.7365529372    5.1387114808    7.9671777474
    12      1    3.7365529372    5.1387114808   17.5455877550
    13      1    4.7829796031    0.1820352343    4.4433094696
    14      1    4.7829796031    0.1820352343   14.0217194480
    15      1    3.7365529353    2.9470840242    9.2325144588
    16      1    3.7365529353    2.9470840242   18.8109244664
    17      1    4.7829796031    0.1820352343    1.9126360760
    18      1    4.7829796031    0.1820352343   11.4910460544
    19      1    3.7365529353    2.9470840242    6.7018410652
    20      1    3.7365529353    2.9470840242   16.2802510728
    21      1    4.7829796029    2.3736626798    3.1779727582
    22      1    4.7829796029    2.3736626798   12.7563827658
    23      1    6.8758329372    5.1387114808    7.9671777474
    24      1    6.8758329372    5.1387114808   17.5455877550
    25      1    2.6901263010    5.7121329910    4.4433094696
    26      1    2.6901263010    5.7121329910   14.0217194480
    27      1    1.6436996332    8.4771817809    9.2325144588
    28      1    1.6436996332    8.4771817809   18.8109244664
    29      1    2.6901263010    5.7121329910    1.9126360760
    30      1    2.6901263010    5.7121329910   11.4910460544
    31      1    1.6436996332    8.4771817809    6.7018410652
    32      1    1.6436996332    8.4771817809   16.2802510728
    33      1    2.6901263008    7.9037604365    3.1779727582
    34      1    2.6901263008    7.9037604365   12.7563827658
    35      1    4.7829796351   10.6688092375    7.9671777474
    36      1    4.7829796351   10.6688092375   17.5455877550
    37      1    5.8294063010    5.7121329910    4.4433094696
    38      1    5.8294063010    5.7121329910   14.0217194480
    39      1    4.7829796332    8.4771817809    9.2325144588
    40      1    4.7829796332    8.4771817809   18.8109244664
    41      1    5.8294063010    5.7121329910    1.9126360760
    42      1    5.8294063010    5.7121329910   11.4910460544
    43      1    4.7829796332    8.4771817809    6.7018410652
    44      1    4.7829796332    8.4771817809   16.2802510728
    45      1    5.8294063008    7.9037604365    3.1779727582
    46      1    5.8294063008    7.9037604365   12.7563827658
    47      1    7.9222596351   10.6688092375    7.9671777474
    48      1    7.9222596351   10.6688092375   17.5455877550
    49      2    3.2896094581    1.8428230771    1.5667405273
    50      2    3.2896094581    1.8428230771   11.1451505348
    51      2    2.2431827924    4.6078718781    6.3559455165
    52      2    2.2431827924    4.6078718781   15.9343555240
    53      2    3.2896094581    1.8428230771    4.7892049892
    54      2    3.2896094581    1.8428230771   14.3676149968
    55      2    2.2431827924    4.6078718781    0.0000000000
    56      2    2.2431827924    4.6078718781    9.5784100076
    57      2    1.1967561256    4.5821845740    3.1779727582
    58      2    1.1967561256    4.5821845740   12.7563827658
    59      2    2.2431827913    1.8171357730    7.9671777474
    60      2    2.2431827913    1.8171357730   17.5455877550
    61      2    6.4288894581    1.8428230771    1.5667405273
    62      2    6.4288894581    1.8428230771   11.1451505348
    63      2    5.3824627924    4.6078718781    6.3559455165
    64      2    5.3824627924    4.6078718781   15.9343555240
    65      2    6.4288894581    1.8428230771    4.7892049892
    66      2    6.4288894581    1.8428230771   14.3676149968
    67      2    5.3824627924    4.6078718781    9.5784100076
    68      2    4.3360361256    4.5821845740    3.1779727582
    69      2    4.3360361256    4.5821845740   12.7563827658
    70      2    5.3824627913    1.8171357730    7.9671777474
    71      2    5.3824627913    1.8171357730   17.5455877550
    72      2    4.3360361560    7.3729208338    1.5667405273
    73      2    4.3360361560    7.3729208338   11.1451505348
    74      2    3.2896094903   10.1379696347    6.3559455165
    75      2    3.2896094903   10.1379696347   15.9343555240
    76      2    4.3360361560    7.3729208338    4.7892049892
    77      2    4.3360361560    7.3729208338   14.3676149968
    78      2    3.2896094903   10.1379696347    9.5784100076
    79      2    3.2896094903   10.1379696347   19.1568199860
    80      2    2.2431828235   10.1122823307    3.1779727582
    81      2    2.2431828235   10.1122823307   12.7563827658
    82      2    3.2896094892    7.3472335297    7.9671777474
    83      2    3.2896094892    7.3472335297   17.5455877550
    84      2    7.4753161560    7.3729208338    1.5667405273
    85      2    7.4753161560    7.3729208338   11.1451505348
    86      2    6.4288894903   10.1379696347    6.3559455165
    87      2    6.4288894903   10.1379696347   15.9343555240
    88      2    7.4753161560    7.3729208338    4.7892049892
    89      2    7.4753161560    7.3729208338   14.3676149968
    90      2    6.4288894903   10.1379696347    0.0000000000
    91      2    6.4288894903   10.1379696347    9.5784100076
    92      2    6.4288894903   10.1379696347   19.1568199860
    93      2    5.3824628235   10.1122823307    3.1779727582
    94      2    5.3824628235   10.1122823307   12.7563827658
    95      2    6.4288894892    7.3472335297    7.9671777474
    96      2    6.4288894892    7.3472335297   17.5455877550
