  96  96   0   0
  0.2109074E+02  0.6278560E-09  0.1125646E-08  0.2915682E-08  0.5000000E-15
  1.000000000000000E-004
  CAR 
 "Millerite NiS"                         
     12.97746406    -65.14024875  301      3.40934612      1.00000000
    -65.140  0.0000E+00  0.0000E+00
    -64.880  0.0000E+00  0.0000E+00
    -64.619  0.0000E+00  0.0000E+00
    -64.359  0.0000E+00  0.0000E+00
    -64.099  0.0000E+00  0.0000E+00
    -63.838  0.0000E+00  0.0000E+00
    -63.578  0.0000E+00  0.0000E+00
    -63.318  0.0000E+00  0.0000E+00
    -63.057  0.0000E+00  0.0000E+00
    -62.797  0.0000E+00  0.0000E+00
    -62.536  0.1099E-09  0.2860E-10
    -62.276  0.6686E-05  0.1741E-05
    -62.016  0.1572E-01  0.4096E-02
    -61.755  0.1616E+01  0.4249E+00
    -61.495  0.1038E+02  0.3127E+01
    -61.234  0.4624E+02  0.1517E+02
    -60.974  0.2963E+03  0.9232E+02
    -60.714  0.3663E+03  0.1877E+03
    -60.453  0.2557E+03  0.2543E+03
    -60.193  0.1015E+03  0.2807E+03
    -59.932  0.1602E+02  0.2849E+03
    -59.672  0.9945E+01  0.2875E+03
    -59.412  0.2057E+01  0.2880E+03
    -59.151  0.2673E-01  0.2880E+03
    -58.891  0.1602E-04  0.2880E+03
    -58.630  0.3841E-09  0.2880E+03
    -58.370  0.0000E+00  0.2880E+03
    -58.110  0.0000E+00  0.2880E+03
    -57.849  0.0000E+00  0.2880E+03
    -57.589  0.0000E+00  0.2880E+03
    -57.328  0.0000E+00  0.2880E+03
    -57.068  0.0000E+00  0.2880E+03
    -56.808  0.0000E+00  0.2880E+03
    -56.547  0.0000E+00  0.2880E+03
    -56.287  0.0000E+00  0.2880E+03
    -56.027  0.0000E+00  0.2880E+03
    -55.766  0.0000E+00  0.2880E+03
    -55.506  0.0000E+00  0.2880E+03
    -55.245  0.0000E+00  0.2880E+03
    -54.985  0.0000E+00  0.2880E+03
    -54.725  0.0000E+00  0.2880E+03
    -54.464  0.0000E+00  0.2880E+03
    -54.204  0.0000E+00  0.2880E+03
    -53.943  0.0000E+00  0.2880E+03
    -53.683  0.0000E+00  0.2880E+03
    -53.423  0.0000E+00  0.2880E+03
    -53.162  0.0000E+00  0.2880E+03
    -52.902  0.0000E+00  0.2880E+03
    -52.641  0.0000E+00  0.2880E+03
    -52.381  0.0000E+00  0.2880E+03
    -52.121  0.0000E+00  0.2880E+03
    -51.860  0.0000E+00  0.2880E+03
    -51.600  0.0000E+00  0.2880E+03
    -51.339  0.0000E+00  0.2880E+03
    -51.079  0.0000E+00  0.2880E+03
    -50.819  0.0000E+00  0.2880E+03
    -50.558  0.0000E+00  0.2880E+03
    -50.298  0.0000E+00  0.2880E+03
    -50.037  0.0000E+00  0.2880E+03
    -49.777  0.0000E+00  0.2880E+03
    -49.517  0.0000E+00  0.2880E+03
    -49.256  0.0000E+00  0.2880E+03
    -48.996  0.0000E+00  0.2880E+03
    -48.736  0.0000E+00  0.2880E+03
    -48.475  0.0000E+00  0.2880E+03
    -48.215  0.0000E+00  0.2880E+03
    -47.954  0.0000E+00  0.2880E+03
    -47.694  0.0000E+00  0.2880E+03
    -47.434  0.0000E+00  0.2880E+03
    -47.173  0.0000E+00  0.2880E+03
    -46.913  0.0000E+00  0.2880E+03
    -46.652  0.0000E+00  0.2880E+03
    -46.392  0.0000E+00  0.2880E+03
    -46.132  0.0000E+00  0.2880E+03
    -45.871  0.0000E+00  0.2880E+03
    -45.611  0.0000E+00  0.2880E+03
    -45.350  0.0000E+00  0.2880E+03
    -45.090  0.0000E+00  0.2880E+03
    -44.830  0.0000E+00  0.2880E+03
    -44.569  0.0000E+00  0.2880E+03
    -44.309  0.0000E+00  0.2880E+03
    -44.048  0.0000E+00  0.2880E+03
    -43.788  0.0000E+00  0.2880E+03
    -43.528  0.0000E+00  0.2880E+03
    -43.267  0.0000E+00  0.2880E+03
    -43.007  0.0000E+00  0.2880E+03
    -42.747  0.0000E+00  0.2880E+03
    -42.486  0.0000E+00  0.2880E+03
    -42.226  0.0000E+00  0.2880E+03
    -41.965  0.0000E+00  0.2880E+03
    -41.705  0.0000E+00  0.2880E+03
    -41.445  0.0000E+00  0.2880E+03
    -41.184  0.0000E+00  0.2880E+03
    -40.924  0.0000E+00  0.2880E+03
    -40.663  0.0000E+00  0.2880E+03
    -40.403  0.0000E+00  0.2880E+03
    -40.143  0.0000E+00  0.2880E+03
    -39.882  0.0000E+00  0.2880E+03
    -39.622  0.0000E+00  0.2880E+03
    -39.361  0.0000E+00  0.2880E+03
    -39.101  0.0000E+00  0.2880E+03
    -38.841  0.0000E+00  0.2880E+03
    -38.580  0.0000E+00  0.2880E+03
    -38.320  0.0000E+00  0.2880E+03
    -38.059  0.0000E+00  0.2880E+03
    -37.799  0.0000E+00  0.2880E+03
    -37.539  0.0000E+00  0.2880E+03
    -37.278  0.0000E+00  0.2880E+03
    -37.018  0.0000E+00  0.2880E+03
    -36.757  0.0000E+00  0.2880E+03
    -36.497  0.0000E+00  0.2880E+03
    -36.237  0.0000E+00  0.2880E+03
    -35.976  0.0000E+00  0.2880E+03
    -35.716  0.0000E+00  0.2880E+03
    -35.456  0.0000E+00  0.2880E+03
    -35.195  0.0000E+00  0.2880E+03
    -34.935  0.0000E+00  0.2880E+03
    -34.674  0.0000E+00  0.2880E+03
    -34.414  0.0000E+00  0.2880E+03
    -34.154  0.0000E+00  0.2880E+03
    -33.893  0.0000E+00  0.2880E+03
    -33.633  0.0000E+00  0.2880E+03
    -33.372  0.0000E+00  0.2880E+03
    -33.112  0.0000E+00  0.2880E+03
    -32.852  0.0000E+00  0.2880E+03
    -32.591  0.0000E+00  0.2880E+03
    -32.331  0.0000E+00  0.2880E+03
    -32.070  0.0000E+00  0.2880E+03
    -31.810  0.0000E+00  0.2880E+03
    -31.550  0.0000E+00  0.2880E+03
    -31.289  0.0000E+00  0.2880E+03
    -31.029  0.0000E+00  0.2880E+03
    -30.768  0.0000E+00  0.2880E+03
    -30.508  0.0000E+00  0.2880E+03
    -30.248  0.0000E+00  0.2880E+03
    -29.987  0.0000E+00  0.2880E+03
    -29.727  0.0000E+00  0.2880E+03
    -29.466  0.0000E+00  0.2880E+03
    -29.206  0.0000E+00  0.2880E+03
    -28.946  0.0000E+00  0.2880E+03
    -28.685  0.0000E+00  0.2880E+03
    -28.425  0.0000E+00  0.2880E+03
    -28.165  0.0000E+00  0.2880E+03
    -27.904  0.0000E+00  0.2880E+03
    -27.644  0.0000E+00  0.2880E+03
    -27.383  0.0000E+00  0.2880E+03
    -27.123  0.0000E+00  0.2880E+03
    -26.863  0.0000E+00  0.2880E+03
    -26.602  0.0000E+00  0.2880E+03
    -26.342  0.0000E+00  0.2880E+03
    -26.081  0.0000E+00  0.2880E+03
    -25.821  0.0000E+00  0.2880E+03
    -25.561  0.0000E+00  0.2880E+03
    -25.300  0.0000E+00  0.2880E+03
    -25.040  0.0000E+00  0.2880E+03
    -24.779  0.0000E+00  0.2880E+03
    -24.519  0.0000E+00  0.2880E+03
    -24.259  0.0000E+00  0.2880E+03
    -23.998  0.0000E+00  0.2880E+03
    -23.738  0.0000E+00  0.2880E+03
    -23.477  0.0000E+00  0.2880E+03
    -23.217  0.0000E+00  0.2880E+03
    -22.957  0.0000E+00  0.2880E+03
    -22.696  0.0000E+00  0.2880E+03
    -22.436  0.0000E+00  0.2880E+03
    -22.176  0.0000E+00  0.2880E+03
    -21.915  0.0000E+00  0.2880E+03
    -21.655  0.0000E+00  0.2880E+03
    -21.394  0.0000E+00  0.2880E+03
    -21.134  0.0000E+00  0.2880E+03
    -20.874  0.0000E+00  0.2880E+03
    -20.613  0.0000E+00  0.2880E+03
    -20.353  0.0000E+00  0.2880E+03
    -20.092  0.0000E+00  0.2880E+03
    -19.832  0.0000E+00  0.2880E+03
    -19.572  0.0000E+00  0.2880E+03
    -19.311  0.0000E+00  0.2880E+03
    -19.051  0.0000E+00  0.2880E+03
    -18.790  0.0000E+00  0.2880E+03
    -18.530  0.0000E+00  0.2880E+03
    -18.270  0.0000E+00  0.2880E+03
    -18.009  0.0000E+00  0.2880E+03
    -17.749  0.0000E+00  0.2880E+03
    -17.488  0.0000E+00  0.2880E+03
    -17.228  0.0000E+00  0.2880E+03
    -16.968  0.0000E+00  0.2880E+03
    -16.707  0.0000E+00  0.2880E+03
    -16.447  0.0000E+00  0.2880E+03
    -16.186  0.0000E+00  0.2880E+03
    -15.926  0.0000E+00  0.2880E+03
    -15.666  0.0000E+00  0.2880E+03
    -15.405  0.0000E+00  0.2880E+03
    -15.145  0.0000E+00  0.2880E+03
    -14.885  0.0000E+00  0.2880E+03
    -14.624  0.0000E+00  0.2880E+03
    -14.364  0.0000E+00  0.2880E+03
    -14.103  0.1705E-14  0.2880E+03
    -13.843  0.1369E-08  0.2880E+03
    -13.583  0.4311E-04  0.2880E+03
    -13.322  0.5290E-01  0.2880E+03
    -13.062  0.2927E+01  0.2888E+03
    -12.801  0.1025E+02  0.2914E+03
    -12.541  0.9684E+01  0.2940E+03
    -12.281  0.1482E+02  0.2978E+03
    -12.020  0.1488E+02  0.3017E+03
    -11.760  0.1581E+02  0.3058E+03
    -11.499  0.2071E+02  0.3112E+03
    -11.239  0.2740E+02  0.3183E+03
    -10.979  0.3543E+02  0.3276E+03
    -10.718  0.5108E+02  0.3409E+03
    -10.458  0.4413E+02  0.3524E+03
    -10.197  0.4781E+02  0.3648E+03
     -9.937  0.3897E+02  0.3750E+03
     -9.677  0.1163E+02  0.3780E+03
     -9.416  0.4578E+01  0.3792E+03
     -9.156  0.7648E+01  0.3812E+03
     -8.895  0.8865E+01  0.3835E+03
     -8.635  0.1956E+01  0.3840E+03
     -8.375  0.3557E-01  0.3840E+03
     -8.114  0.3239E-04  0.3840E+03
     -7.854  0.1171E-08  0.3840E+03
     -7.594  0.1705E-14  0.3840E+03
     -7.333  0.0000E+00  0.3840E+03
     -7.073  0.0000E+00  0.3840E+03
     -6.812  0.0000E+00  0.3840E+03
     -6.552  0.0000E+00  0.3840E+03
     -6.292  0.3581E-13  0.3840E+03
     -6.031  0.1341E-07  0.3840E+03
     -5.771  0.1842E-03  0.3840E+03
     -5.510  0.1002E+00  0.3840E+03
     -5.250  0.2615E+01  0.3847E+03
     -4.990  0.7063E+01  0.3865E+03
     -4.729  0.2451E+02  0.3929E+03
     -4.469  0.3470E+02  0.4020E+03
     -4.208  0.2866E+02  0.4094E+03
     -3.948  0.3278E+02  0.4180E+03
     -3.688  0.5166E+02  0.4314E+03
     -3.427  0.6543E+02  0.4484E+03
     -3.167  0.3871E+02  0.4585E+03
     -2.906  0.3166E+02  0.4668E+03
     -2.646  0.4325E+02  0.4780E+03
     -2.386  0.4742E+02  0.4904E+03
     -2.125  0.4820E+02  0.5029E+03
     -1.865  0.6271E+02  0.5193E+03
     -1.605  0.8262E+02  0.5408E+03
     -1.344  0.8749E+02  0.5636E+03
     -1.084  0.1023E+03  0.5902E+03
     -0.823  0.1058E+03  0.6177E+03
     -0.563  0.6981E+02  0.6359E+03
     -0.303  0.4885E+02  0.6486E+03
     -0.042  0.6448E+02  0.6654E+03
      0.218  0.7426E+02  0.6848E+03
      0.479  0.8265E+02  0.7063E+03
      0.739  0.1313E+03  0.7405E+03
      0.999  0.1576E+03  0.7815E+03
      1.260  0.1446E+03  0.8192E+03
      1.520  0.2192E+03  0.8763E+03
      1.781  0.2192E+03  0.9333E+03
      2.041  0.1446E+03  0.9710E+03
      2.301  0.1191E+03  0.1002E+04
      2.562  0.7402E+02  0.1021E+04
      2.822  0.4101E+02  0.1032E+04
      3.083  0.3780E+02  0.1042E+04
      3.343  0.4104E+02  0.1052E+04
      3.603  0.6803E+02  0.1070E+04
      3.864  0.9163E+02  0.1094E+04
      4.124  0.8507E+02  0.1116E+04
      4.385  0.6045E+02  0.1132E+04
      4.645  0.3423E+02  0.1141E+04
      4.905  0.1992E+02  0.1146E+04
      5.166  0.1509E+02  0.1150E+04
      5.426  0.7330E+01  0.1152E+04
      5.686  0.4397E+01  0.1153E+04
      5.947  0.1558E+02  0.1157E+04
      6.207  0.2125E+02  0.1163E+04
      6.468  0.1746E+02  0.1167E+04
      6.728  0.1579E+02  0.1171E+04
      6.988  0.2092E+02  0.1177E+04
      7.249  0.2756E+02  0.1184E+04
      7.509  0.3335E+02  0.1193E+04
      7.770  0.2897E+02  0.1200E+04
      8.030  0.3707E+02  0.1210E+04
      8.290  0.4423E+02  0.1221E+04
      8.551  0.4124E+02  0.1232E+04
      8.811  0.4065E+02  0.1243E+04
      9.072  0.3798E+02  0.1253E+04
      9.332  0.3800E+02  0.1262E+04
      9.592  0.1949E+02  0.1267E+04
      9.853  0.1995E+01  0.1268E+04
     10.113  0.1628E-01  0.1268E+04
     10.374  0.6432E-05  0.1268E+04
     10.634  0.1027E-09  0.1268E+04
     10.894  0.0000E+00  0.1268E+04
     11.155  0.0000E+00  0.1268E+04
     11.415  0.0000E+00  0.1268E+04
     11.676  0.0000E+00  0.1268E+04
     11.936  0.0000E+00  0.1268E+04
     12.196  0.0000E+00  0.1268E+04
     12.457  0.0000E+00  0.1268E+04
     12.717  0.0000E+00  0.1268E+04
     12.977  0.0000E+00  0.1268E+04
