"Millerite NiS"                         
           1
     9.425103    3.573298    0.000000
     0.000000   10.079733    0.000000
     0.000000    0.000000   20.493879
   Ni   S 
    36    36
Direct configuration=     1
   0.37433214  0.75136221  0.09479109
   0.52460065  0.60109370  0.22290263
   0.67486916  0.45082518  0.35101417
   0.82513767  0.30055667  0.47912571
   0.60748646  0.18487455  0.00938340
   0.75775497  0.03460604  0.13749494
   0.05829200  0.73406901  0.39371802
   0.90802349  0.88433753  0.26560648
   0.14117781  0.31784987  0.18019879
   0.29144632  0.16758136  0.30831032
   0.44171484  0.01731284  0.43642186
   0.99090930  0.46811838  0.05208725
   0.00993999  0.11575436  0.41143003
   0.55913445  0.56655989  0.02709542
   0.70940296  0.41629138  0.15520696
   0.85967148  0.26602287  0.28331850
   0.09282580  0.69953521  0.19791080
   0.24309431  0.54926670  0.32602234
   0.39336283  0.39899819  0.45413388
   0.94255729  0.84980372  0.06979927
   0.32598013  0.13304755  0.11250311
   0.47624864  0.98277904  0.24061465
   0.62651715  0.83251053  0.36872619
   0.77678566  0.68224202  0.49683773
   0.04964183  0.34025852  0.44527787
   0.59883629  0.79106405  0.06094326
   0.74910481  0.64079554  0.18905479
   0.89937332  0.49052703  0.31716633
   0.98225913  0.07430788  0.10364710
   0.13252764  0.92403937  0.23175864
   0.28279616  0.77377086  0.35987018
   0.43306467  0.62350234  0.48798172
   0.21541346  0.50782022  0.01823941
   0.36568197  0.35755171  0.14635095
   0.51595048  0.20728320  0.27446249
   0.66621899  0.05701469  0.40257402
   0.06382156  0.26208478  0.34123405
   0.21409008  0.11181627  0.46934559
   0.76328454  0.56262181  0.08501097
   0.91355305  0.41235330  0.21312251
   0.14670738  0.84586564  0.12771482
   0.29697589  0.69559712  0.25582636
   0.44724440  0.54532861  0.38393790
   0.59751291  0.39506010  0.51204943
   0.37986170  0.27937798  0.04230713
   0.53013021  0.12910947  0.17041866
   0.68039873  0.97884095  0.29853020
   0.83066724  0.82857244  0.42664174
   0.37769570  0.94821065  0.04310057
   0.52796421  0.79794214  0.17121210
   0.67823272  0.64767363  0.29932364
   0.82850123  0.49740511  0.42743518
   0.76111854  0.23145448  0.08580441
   0.91138705  0.08118597  0.21391595
   0.06165556  0.93091745  0.34202749
   0.21192407  0.78064894  0.47013903
   0.14454137  0.51469831  0.12850826
   0.29480988  0.36442979  0.25661979
   0.44507840  0.21416128  0.38473133
   0.99427286  0.66496682  0.00039672
   0.32714086  0.66233548  0.00000000
   0.47740937  0.51206697  0.12811154
   0.62767789  0.36179846  0.25622308
   0.77794640  0.21152995  0.38433461
   0.01110072  0.64504229  0.29892692
   0.16136924  0.49477378  0.42703846
   0.71056370  0.94557931  0.04270385
   0.86083221  0.79531080  0.17081538
   0.09398654  0.22882314  0.08540769
   0.24425505  0.07855463  0.21351923
   0.39452356  0.92828612  0.34163077
   0.54479207  0.77801761  0.46974231
