  60  60   0   0
  0.3182702E+02  0.9578410E-09  0.1125646E-08  0.1771136E-08  0.5000000E-15
  1.000000000000000E-004
  CAR 
 "Millerite NiS"                         
      9.91091061    -67.37489089  301      0.34430710      1.00000000
    -67.375  0.0000E+00  0.0000E+00
    -67.117  0.0000E+00  0.0000E+00
    -66.860  0.0000E+00  0.0000E+00
    -66.602  0.0000E+00  0.0000E+00
    -66.344  0.0000E+00  0.0000E+00
    -66.087  0.0000E+00  0.0000E+00
    -65.829  0.0000E+00  0.0000E+00
    -65.572  0.0000E+00  0.0000E+00
    -65.314  0.0000E+00  0.0000E+00
    -65.056  0.0000E+00  0.0000E+00
    -64.799  0.1558E-09  0.4015E-10
    -64.541  0.8266E-05  0.2130E-05
    -64.283  0.2267E-01  0.5842E-02
    -64.026  0.4375E+01  0.1133E+01
    -63.768  0.7844E+02  0.2134E+02
    -63.511  0.1979E+03  0.7232E+02
    -63.253  0.1569E+03  0.1127E+03
    -62.995  0.8298E+02  0.1341E+03
    -62.738  0.7501E+02  0.1534E+03
    -62.480  0.6820E+02  0.1710E+03
    -62.223  0.2163E+02  0.1766E+03
    -61.965  0.9433E+01  0.1790E+03
    -61.707  0.3680E+01  0.1800E+03
    -61.450  0.1544E+00  0.1800E+03
    -61.192  0.3851E-03  0.1800E+03
    -60.934  0.4243E-07  0.1800E+03
    -60.677  0.1862E-12  0.1800E+03
    -60.419  0.0000E+00  0.1800E+03
    -60.162  0.0000E+00  0.1800E+03
    -59.904  0.0000E+00  0.1800E+03
    -59.646  0.0000E+00  0.1800E+03
    -59.389  0.0000E+00  0.1800E+03
    -59.131  0.0000E+00  0.1800E+03
    -58.873  0.0000E+00  0.1800E+03
    -58.616  0.0000E+00  0.1800E+03
    -58.358  0.0000E+00  0.1800E+03
    -58.101  0.0000E+00  0.1800E+03
    -57.843  0.0000E+00  0.1800E+03
    -57.585  0.0000E+00  0.1800E+03
    -57.328  0.0000E+00  0.1800E+03
    -57.070  0.0000E+00  0.1800E+03
    -56.812  0.0000E+00  0.1800E+03
    -56.555  0.0000E+00  0.1800E+03
    -56.297  0.0000E+00  0.1800E+03
    -56.040  0.0000E+00  0.1800E+03
    -55.782  0.0000E+00  0.1800E+03
    -55.524  0.0000E+00  0.1800E+03
    -55.267  0.0000E+00  0.1800E+03
    -55.009  0.0000E+00  0.1800E+03
    -54.752  0.0000E+00  0.1800E+03
    -54.494  0.0000E+00  0.1800E+03
    -54.236  0.0000E+00  0.1800E+03
    -53.979  0.0000E+00  0.1800E+03
    -53.721  0.0000E+00  0.1800E+03
    -53.463  0.0000E+00  0.1800E+03
    -53.206  0.0000E+00  0.1800E+03
    -52.948  0.0000E+00  0.1800E+03
    -52.691  0.0000E+00  0.1800E+03
    -52.433  0.0000E+00  0.1800E+03
    -52.175  0.0000E+00  0.1800E+03
    -51.918  0.0000E+00  0.1800E+03
    -51.660  0.0000E+00  0.1800E+03
    -51.402  0.0000E+00  0.1800E+03
    -51.145  0.0000E+00  0.1800E+03
    -50.887  0.0000E+00  0.1800E+03
    -50.630  0.0000E+00  0.1800E+03
    -50.372  0.0000E+00  0.1800E+03
    -50.114  0.0000E+00  0.1800E+03
    -49.857  0.0000E+00  0.1800E+03
    -49.599  0.0000E+00  0.1800E+03
    -49.342  0.0000E+00  0.1800E+03
    -49.084  0.0000E+00  0.1800E+03
    -48.826  0.0000E+00  0.1800E+03
    -48.569  0.0000E+00  0.1800E+03
    -48.311  0.0000E+00  0.1800E+03
    -48.053  0.0000E+00  0.1800E+03
    -47.796  0.0000E+00  0.1800E+03
    -47.538  0.0000E+00  0.1800E+03
    -47.281  0.0000E+00  0.1800E+03
    -47.023  0.0000E+00  0.1800E+03
    -46.765  0.0000E+00  0.1800E+03
    -46.508  0.0000E+00  0.1800E+03
    -46.250  0.0000E+00  0.1800E+03
    -45.992  0.0000E+00  0.1800E+03
    -45.735  0.0000E+00  0.1800E+03
    -45.477  0.0000E+00  0.1800E+03
    -45.220  0.0000E+00  0.1800E+03
    -44.962  0.0000E+00  0.1800E+03
    -44.704  0.0000E+00  0.1800E+03
    -44.447  0.0000E+00  0.1800E+03
    -44.189  0.0000E+00  0.1800E+03
    -43.932  0.0000E+00  0.1800E+03
    -43.674  0.0000E+00  0.1800E+03
    -43.416  0.0000E+00  0.1800E+03
    -43.159  0.0000E+00  0.1800E+03
    -42.901  0.0000E+00  0.1800E+03
    -42.643  0.0000E+00  0.1800E+03
    -42.386  0.0000E+00  0.1800E+03
    -42.128  0.0000E+00  0.1800E+03
    -41.871  0.0000E+00  0.1800E+03
    -41.613  0.0000E+00  0.1800E+03
    -41.355  0.0000E+00  0.1800E+03
    -41.098  0.0000E+00  0.1800E+03
    -40.840  0.0000E+00  0.1800E+03
    -40.582  0.0000E+00  0.1800E+03
    -40.325  0.0000E+00  0.1800E+03
    -40.067  0.0000E+00  0.1800E+03
    -39.810  0.0000E+00  0.1800E+03
    -39.552  0.0000E+00  0.1800E+03
    -39.294  0.0000E+00  0.1800E+03
    -39.037  0.0000E+00  0.1800E+03
    -38.779  0.0000E+00  0.1800E+03
    -38.522  0.0000E+00  0.1800E+03
    -38.264  0.0000E+00  0.1800E+03
    -38.006  0.0000E+00  0.1800E+03
    -37.749  0.0000E+00  0.1800E+03
    -37.491  0.0000E+00  0.1800E+03
    -37.233  0.0000E+00  0.1800E+03
    -36.976  0.0000E+00  0.1800E+03
    -36.718  0.0000E+00  0.1800E+03
    -36.461  0.0000E+00  0.1800E+03
    -36.203  0.0000E+00  0.1800E+03
    -35.945  0.0000E+00  0.1800E+03
    -35.688  0.0000E+00  0.1800E+03
    -35.430  0.0000E+00  0.1800E+03
    -35.172  0.0000E+00  0.1800E+03
    -34.915  0.0000E+00  0.1800E+03
    -34.657  0.0000E+00  0.1800E+03
    -34.400  0.0000E+00  0.1800E+03
    -34.142  0.0000E+00  0.1800E+03
    -33.884  0.0000E+00  0.1800E+03
    -33.627  0.0000E+00  0.1800E+03
    -33.369  0.0000E+00  0.1800E+03
    -33.112  0.0000E+00  0.1800E+03
    -32.854  0.0000E+00  0.1800E+03
    -32.596  0.0000E+00  0.1800E+03
    -32.339  0.0000E+00  0.1800E+03
    -32.081  0.0000E+00  0.1800E+03
    -31.823  0.0000E+00  0.1800E+03
    -31.566  0.0000E+00  0.1800E+03
    -31.308  0.0000E+00  0.1800E+03
    -31.051  0.0000E+00  0.1800E+03
    -30.793  0.0000E+00  0.1800E+03
    -30.535  0.0000E+00  0.1800E+03
    -30.278  0.0000E+00  0.1800E+03
    -30.020  0.0000E+00  0.1800E+03
    -29.762  0.0000E+00  0.1800E+03
    -29.505  0.0000E+00  0.1800E+03
    -29.247  0.0000E+00  0.1800E+03
    -28.990  0.0000E+00  0.1800E+03
    -28.732  0.0000E+00  0.1800E+03
    -28.474  0.0000E+00  0.1800E+03
    -28.217  0.0000E+00  0.1800E+03
    -27.959  0.0000E+00  0.1800E+03
    -27.702  0.0000E+00  0.1800E+03
    -27.444  0.0000E+00  0.1800E+03
    -27.186  0.0000E+00  0.1800E+03
    -26.929  0.0000E+00  0.1800E+03
    -26.671  0.0000E+00  0.1800E+03
    -26.413  0.0000E+00  0.1800E+03
    -26.156  0.0000E+00  0.1800E+03
    -25.898  0.0000E+00  0.1800E+03
    -25.641  0.0000E+00  0.1800E+03
    -25.383  0.0000E+00  0.1800E+03
    -25.125  0.0000E+00  0.1800E+03
    -24.868  0.0000E+00  0.1800E+03
    -24.610  0.0000E+00  0.1800E+03
    -24.352  0.0000E+00  0.1800E+03
    -24.095  0.0000E+00  0.1800E+03
    -23.837  0.0000E+00  0.1800E+03
    -23.580  0.0000E+00  0.1800E+03
    -23.322  0.0000E+00  0.1800E+03
    -23.064  0.0000E+00  0.1800E+03
    -22.807  0.0000E+00  0.1800E+03
    -22.549  0.0000E+00  0.1800E+03
    -22.292  0.0000E+00  0.1800E+03
    -22.034  0.0000E+00  0.1800E+03
    -21.776  0.0000E+00  0.1800E+03
    -21.519  0.0000E+00  0.1800E+03
    -21.261  0.0000E+00  0.1800E+03
    -21.003  0.0000E+00  0.1800E+03
    -20.746  0.0000E+00  0.1800E+03
    -20.488  0.0000E+00  0.1800E+03
    -20.231  0.0000E+00  0.1800E+03
    -19.973  0.0000E+00  0.1800E+03
    -19.715  0.0000E+00  0.1800E+03
    -19.458  0.0000E+00  0.1800E+03
    -19.200  0.0000E+00  0.1800E+03
    -18.942  0.0000E+00  0.1800E+03
    -18.685  0.0000E+00  0.1800E+03
    -18.427  0.0000E+00  0.1800E+03
    -18.170  0.0000E+00  0.1800E+03
    -17.912  0.0000E+00  0.1800E+03
    -17.654  0.0000E+00  0.1800E+03
    -17.397  0.0000E+00  0.1800E+03
    -17.139  0.0000E+00  0.1800E+03
    -16.882  0.0000E+00  0.1800E+03
    -16.624  0.0000E+00  0.1800E+03
    -16.366  0.0000E+00  0.1800E+03
    -16.109  0.0000E+00  0.1800E+03
    -15.851  0.6697E-12  0.1800E+03
    -15.593  0.1129E-06  0.1800E+03
    -15.336  0.7573E-03  0.1800E+03
    -15.078  0.2204E+00  0.1801E+03
    -14.821  0.3407E+01  0.1809E+03
    -14.563  0.3889E+01  0.1819E+03
    -14.305  0.3949E+01  0.1830E+03
    -14.048  0.1433E+02  0.1866E+03
    -13.790  0.1248E+02  0.1899E+03
    -13.532  0.1864E+02  0.1947E+03
    -13.275  0.2549E+02  0.2012E+03
    -13.017  0.2717E+02  0.2082E+03
    -12.760  0.2613E+02  0.2150E+03
    -12.502  0.2603E+02  0.2217E+03
    -12.244  0.1832E+02  0.2264E+03
    -11.987  0.1721E+02  0.2308E+03
    -11.729  0.1346E+02  0.2343E+03
    -11.471  0.6192E+01  0.2359E+03
    -11.214  0.7970E+01  0.2379E+03
    -10.956  0.7423E+01  0.2399E+03
    -10.699  0.5781E+00  0.2400E+03
    -10.441  0.2462E-02  0.2400E+03
    -10.183  0.4632E-06  0.2400E+03
     -9.926  0.3511E-11  0.2400E+03
     -9.668  0.0000E+00  0.2400E+03
     -9.411  0.0000E+00  0.2400E+03
     -9.153  0.0000E+00  0.2400E+03
     -8.895  0.0000E+00  0.2400E+03
     -8.638  0.0000E+00  0.2400E+03
     -8.380  0.0000E+00  0.2400E+03
     -8.122  0.0000E+00  0.2400E+03
     -7.865  0.0000E+00  0.2400E+03
     -7.607  0.5360E-11  0.2400E+03
     -7.350  0.5465E-06  0.2400E+03
     -7.092  0.2251E-02  0.2400E+03
     -6.834  0.4315E+00  0.2401E+03
     -6.577  0.6426E+01  0.2418E+03
     -6.319  0.2006E+02  0.2469E+03
     -6.061  0.2037E+02  0.2522E+03
     -5.804  0.2354E+02  0.2582E+03
     -5.546  0.3830E+02  0.2681E+03
     -5.289  0.3562E+02  0.2773E+03
     -5.031  0.3201E+02  0.2855E+03
     -4.773  0.3497E+02  0.2945E+03
     -4.516  0.3315E+02  0.3031E+03
     -4.258  0.4059E+02  0.3135E+03
     -4.001  0.5040E+02  0.3265E+03
     -3.743  0.5303E+02  0.3402E+03
     -3.485  0.5557E+02  0.3545E+03
     -3.228  0.5319E+02  0.3682E+03
     -2.970  0.4613E+02  0.3801E+03
     -2.712  0.4888E+02  0.3927E+03
     -2.455  0.4844E+02  0.4052E+03
     -2.197  0.5428E+02  0.4191E+03
     -1.940  0.6479E+02  0.4358E+03
     -1.682  0.8252E+02  0.4571E+03
     -1.424  0.9998E+02  0.4828E+03
     -1.167  0.1296E+03  0.5162E+03
     -0.909  0.1396E+03  0.5522E+03
     -0.651  0.1188E+03  0.5828E+03
     -0.394  0.1006E+03  0.6087E+03
     -0.136  0.8782E+02  0.6314E+03
      0.121  0.6779E+02  0.6488E+03
      0.379  0.4997E+02  0.6617E+03
      0.637  0.4989E+02  0.6746E+03
      0.894  0.4935E+02  0.6873E+03
      1.152  0.4770E+02  0.6996E+03
      1.409  0.4322E+02  0.7107E+03
      1.667  0.2949E+02  0.7183E+03
      1.925  0.1201E+02  0.7214E+03
      2.182  0.9169E+01  0.7237E+03
      2.440  0.1085E+02  0.7265E+03
      2.698  0.6638E+01  0.7282E+03
      2.955  0.6722E+01  0.7300E+03
      3.213  0.7952E+01  0.7320E+03
      3.470  0.6567E+01  0.7337E+03
      3.728  0.4335E+01  0.7348E+03
      3.986  0.8558E+01  0.7370E+03
      4.243  0.1389E+02  0.7406E+03
      4.501  0.1538E+02  0.7446E+03
      4.759  0.1223E+02  0.7477E+03
      5.016  0.2291E+02  0.7536E+03
      5.274  0.2832E+02  0.7609E+03
      5.531  0.3304E+02  0.7694E+03
      5.789  0.3136E+02  0.7775E+03
      6.047  0.3131E+02  0.7856E+03
      6.304  0.3380E+02  0.7943E+03
      6.562  0.1996E+02  0.7994E+03
      6.819  0.2197E+01  0.8000E+03
      7.077  0.1965E-01  0.8000E+03
      7.335  0.9099E-05  0.8000E+03
      7.592  0.1820E-09  0.8000E+03
      7.850  0.0000E+00  0.8000E+03
      8.108  0.0000E+00  0.8000E+03
      8.365  0.0000E+00  0.8000E+03
      8.623  0.0000E+00  0.8000E+03
      8.880  0.0000E+00  0.8000E+03
      9.138  0.0000E+00  0.8000E+03
      9.396  0.0000E+00  0.8000E+03
      9.653  0.0000E+00  0.8000E+03
      9.911  0.0000E+00  0.8000E+03
