<?xml version="1.0" encoding="ISO-8859-1"?>
<modeling>
 <generator>
  <i name="program" type="string">vasp </i>
  <i name="version" type="string">6.1.0  </i>
  <i name="subversion" type="string">28Jan20 (build Mar 31 2020 17:42:31) gamma-only                       parallel </i>
  <i name="platform" type="string">LinuxIFC </i>
  <i name="date" type="string">2020 04 12 </i>
  <i name="time" type="string">10:52:41 </i>
 </generator>
 <incar>
  <i type="string" name="SYSTEM">"Millerite NiS"</i>
  <i type="int" name="NSIM">     4</i>
  <i type="int" name="NELM">   100</i>
  <i name="ENCUT">    450.00000000</i>
  <i type="string" name="LREAL">A</i>
  <i type="int" name="ISMEAR">     0</i>
  <i type="int" name="NWRITE">     2</i>
  <i type="logical" name="LWAVE"> F  </i>
  <i type="logical" name="LCHARG"> F  </i>
  <i type="int" name="NCORE">     6</i>
  <i type="int" name="NELM">   100</i>
 </incar>
 <structure name="primitive_cell" >
  <crystal>
   <varray name="basis" >
    <v>      16.88469405       0.00000000       0.00000000 </v>
    <v>       0.00000000       9.57841000       0.00000000 </v>
    <v>       0.00000000       0.00000000      16.54803255 </v>
   </varray>
   <i name="volume">   2676.28885249 </i>
   <varray name="rec_basis" >
    <v>       0.05922524       0.00000000       0.00000000 </v>
    <v>       0.00000000       0.10440146       0.00000000 </v>
    <v>       0.00000000       0.00000000       0.06043014 </v>
   </varray>
  </crystal>
  <varray name="positions" >
   <v>       0.78004630       0.14529696       0.11782363 </v>
   <v>       0.81461426       0.14529696       0.30422304 </v>
   <v>       0.26276233       0.64529696       0.02462392 </v>
   <v>       0.29733028       0.64529696       0.21102334 </v>
   <v>       0.43519032       0.14529696       0.05569049 </v>
   <v>       0.46975828       0.14529696       0.24208990 </v>
   <v>       0.95247430       0.64529696       0.14889020 </v>
   <v>       0.98704225       0.64529696       0.33528961 </v>
   <v>       0.12490229       0.14529696       0.17995677 </v>
   <v>       0.60761831       0.64529696       0.08675706 </v>
   <v>       0.64218627       0.64529696       0.27315647 </v>
   <v>       0.90758277       0.01319396       0.09319971 </v>
   <v>       0.94215073       0.01319396       0.27959912 </v>
   <v>       0.39029880       0.51319396       0.00000000 </v>
   <v>       0.42486675       0.51319396       0.18639941 </v>
   <v>       0.45943471       0.51319396       0.37279883 </v>
   <v>       0.56272679       0.01319396       0.03106657 </v>
   <v>       0.59729475       0.01319396       0.21746598 </v>
   <v>       0.08001077       0.51319396       0.12426628 </v>
   <v>       0.11457872       0.51319396       0.31066569 </v>
   <v>       0.25243876       0.01319396       0.15533284 </v>
   <v>       0.28700672       0.01319396       0.34173226 </v>
   <v>       0.73515478       0.51319396       0.06213314 </v>
   <v>       0.76972274       0.51319396       0.24853255 </v>
   <v>       0.90758277       0.27739996       0.09319971 </v>
   <v>       0.94215073       0.27739996       0.27959912 </v>
   <v>       0.39029880       0.77739996       0.00000000 </v>
   <v>       0.42486675       0.77739996       0.18639941 </v>
   <v>       0.45943471       0.77739996       0.37279883 </v>
   <v>       0.56272679       0.27739996       0.03106657 </v>
   <v>       0.59729475       0.27739996       0.21746598 </v>
   <v>       0.08001077       0.77739996       0.12426628 </v>
   <v>       0.11457872       0.77739996       0.31066569 </v>
   <v>       0.25243876       0.27739996       0.15533284 </v>
   <v>       0.28700672       0.27739996       0.34173226 </v>
   <v>       0.73515478       0.77739996       0.06213314 </v>
   <v>       0.76972274       0.77739996       0.24853255 </v>
   <v>       0.02602916       0.14529696       0.36463199 </v>
   <v>       0.99146120       0.14529696       0.17823257 </v>
   <v>       0.47417722       0.64529696       0.08503287 </v>
   <v>       0.50874518       0.64529696       0.27143228 </v>
   <v>       0.64660522       0.14529696       0.11609943 </v>
   <v>       0.68117317       0.14529696       0.30249885 </v>
   <v>       0.12932124       0.64529696       0.02289973 </v>
   <v>       0.16388920       0.64529696       0.20929914 </v>
   <v>       0.19845715       0.64529696       0.39569855 </v>
   <v>       0.30174923       0.14529696       0.05396630 </v>
   <v>       0.33631719       0.14529696       0.24036571 </v>
   <v>       0.81903321       0.64529696       0.14716600 </v>
   <v>       0.85360117       0.64529696       0.33356542 </v>
   <v>       0.79449310       0.31351196       0.02318834 </v>
   <v>       0.82906105       0.31351196       0.20958775 </v>
   <v>       0.31177707       0.81351196       0.11638804 </v>
   <v>       0.34634503       0.81351196       0.30278746 </v>
   <v>       0.48420507       0.31351196       0.14745461 </v>
   <v>       0.51877302       0.31351196       0.33385403 </v>
   <v>       0.00148905       0.81351196       0.24065432 </v>
   <v>       0.96692109       0.81351196       0.05425490 </v>
   <v>       0.13934908       0.31351196       0.08532147 </v>
   <v>       0.17391704       0.31351196       0.27172089 </v>
   <v>       0.65663306       0.81351196       0.17852118 </v>
   <v>       0.69120102       0.81351196       0.36492059 </v>
   <v>       0.31177707       0.47708196       0.11638804 </v>
   <v>       0.34634503       0.47708196       0.30278746 </v>
   <v>       0.79449310       0.97708196       0.02318834 </v>
   <v>       0.82906105       0.97708196       0.20958775 </v>
   <v>       0.00148905       0.47708196       0.24065432 </v>
   <v>       0.96692109       0.47708196       0.05425490 </v>
   <v>       0.48420507       0.97708196       0.14745461 </v>
   <v>       0.51877302       0.97708196       0.33385403 </v>
   <v>       0.65663306       0.47708196       0.17852118 </v>
   <v>       0.69120102       0.47708196       0.36492059 </v>
   <v>       0.13934908       0.97708196       0.08532147 </v>
   <v>       0.17391704       0.97708196       0.27172089 </v>
  </varray>
 </structure>
 <varray name="primitive_index" >
  <v type="int" >        1 </v>
  <v type="int" >        2 </v>
  <v type="int" >        3 </v>
  <v type="int" >        4 </v>
  <v type="int" >        5 </v>
  <v type="int" >        6 </v>
  <v type="int" >        7 </v>
  <v type="int" >        8 </v>
  <v type="int" >        9 </v>
  <v type="int" >       10 </v>
  <v type="int" >       11 </v>
  <v type="int" >       12 </v>
  <v type="int" >       13 </v>
  <v type="int" >       14 </v>
  <v type="int" >       15 </v>
  <v type="int" >       16 </v>
  <v type="int" >       17 </v>
  <v type="int" >       18 </v>
  <v type="int" >       19 </v>
  <v type="int" >       20 </v>
  <v type="int" >       21 </v>
  <v type="int" >       22 </v>
  <v type="int" >       23 </v>
  <v type="int" >       24 </v>
  <v type="int" >       25 </v>
  <v type="int" >       26 </v>
  <v type="int" >       27 </v>
  <v type="int" >       28 </v>
  <v type="int" >       29 </v>
  <v type="int" >       30 </v>
  <v type="int" >       31 </v>
  <v type="int" >       32 </v>
  <v type="int" >       33 </v>
  <v type="int" >       34 </v>
  <v type="int" >       35 </v>
  <v type="int" >       36 </v>
  <v type="int" >       37 </v>
  <v type="int" >       38 </v>
  <v type="int" >       39 </v>
  <v type="int" >       40 </v>
  <v type="int" >       41 </v>
  <v type="int" >       42 </v>
  <v type="int" >       43 </v>
  <v type="int" >       44 </v>
  <v type="int" >       45 </v>
  <v type="int" >       46 </v>
  <v type="int" >       47 </v>
  <v type="int" >       48 </v>
  <v type="int" >       49 </v>
  <v type="int" >       50 </v>
  <v type="int" >       51 </v>
  <v type="int" >       52 </v>
  <v type="int" >       53 </v>
  <v type="int" >       54 </v>
  <v type="int" >       55 </v>
  <v type="int" >       56 </v>
  <v type="int" >       57 </v>
  <v type="int" >       58 </v>
  <v type="int" >       59 </v>
  <v type="int" >       60 </v>
  <v type="int" >       61 </v>
  <v type="int" >       62 </v>
  <v type="int" >       63 </v>
  <v type="int" >       64 </v>
  <v type="int" >       65 </v>
  <v type="int" >       66 </v>
  <v type="int" >       67 </v>
  <v type="int" >       68 </v>
  <v type="int" >       69 </v>
  <v type="int" >       70 </v>
  <v type="int" >       71 </v>
  <v type="int" >       72 </v>
  <v type="int" >       73 </v>
  <v type="int" >       74 </v>
 </varray>
 <kpoints>
  <generation param="Gamma">
   <v type="int" name="divisions">       1        1        1 </v>
   <v name="usershift">      0.00000000       0.00000000       0.00000000 </v>
   <v name="genvec1">      1.00000000       0.00000000       0.00000000 </v>
   <v name="genvec2">      0.00000000       1.00000000       0.00000000 </v>
   <v name="genvec3">      0.00000000       0.00000000       1.00000000 </v>
   <v name="shift">      0.00000000       0.00000000       0.00000000 </v>
  </generation>
  <varray name="kpointlist" >
   <v>       0.00000000       0.00000000       0.00000000 </v>
  </varray>
  <varray name="weights" >
   <v>       1.00000000 </v>
  </varray>
 </kpoints>
 <parameters>
  <separator name="general" >
   <i type="string" name="SYSTEM">"Millerite NiS"</i>
   <i type="logical" name="LCOMPAT"> F  </i>
  </separator>
  <separator name="electronic" >
   <i type="string" name="PREC">normal</i>
   <i name="ENMAX">    450.00000000</i>
   <i name="ENAUG">    703.44300000</i>
   <i name="EDIFF">      0.00010000</i>
   <i type="int" name="IALGO">    38</i>
   <i type="int" name="IWAVPR">    10</i>
   <i type="int" name="NBANDS">   488</i>
   <i type="int" name="NBANDSLOW">    -1</i>
   <i type="int" name="NBANDSHIGH">    -1</i>
   <i name="NELECT">    814.00000000</i>
   <i type="int" name="TURBO">     0</i>
   <i type="int" name="IRESTART">     0</i>
   <i type="int" name="NREBOOT">     0</i>
   <i type="int" name="NMIN">     0</i>
   <i name="EREF">      0.00000000</i>
   <separator name="electronic smearing" >
    <i type="int" name="ISMEAR">     0</i>
    <i name="SIGMA">      0.20000000</i>
    <i name="KSPACING">      0.50000000</i>
    <i type="logical" name="KGAMMA"> T  </i>
    <i type="logical" name="KBLOWUP"> T  </i>
   </separator>
   <separator name="electronic projectors" >
    <i type="logical" name="LREAL"> T  </i>
    <v name="ROPT">     -0.00050000     -0.00050000</v>
    <i type="int" name="LMAXPAW">  -100</i>
    <i type="int" name="LMAXMIX">     2</i>
    <i type="logical" name="NLSPLINE"> F  </i>
   </separator>
   <separator name="electronic startup" >
    <i type="int" name="ISTART">     0</i>
    <i type="int" name="ICHARG">     2</i>
    <i type="int" name="INIWAV">     1</i>
   </separator>
   <separator name="electronic spin" >
    <i type="int" name="ISPIN">     1</i>
    <i type="logical" name="LNONCOLLINEAR"> F  </i>
    <v name="MAGMOM">      1.00000000      1.00000000      1.00000000      1.00000000      1.00000000      1.00000000      1.00000000      1.00000000      1.00000000      1.00000000      1.00000000      1.00000000      1.00000000      1.00000000      1.00000000      1.00000000      1.00000000      1.00000000      1.00000000      1.00000000
      1.00000000      1.00000000      1.00000000      1.00000000      1.00000000      1.00000000      1.00000000      1.00000000      1.00000000      1.00000000      1.00000000      1.00000000      1.00000000      1.00000000      1.00000000      1.00000000      1.00000000      1.00000000      1.00000000      1.00000000
      1.00000000      1.00000000      1.00000000      1.00000000      1.00000000      1.00000000      1.00000000      1.00000000      1.00000000      1.00000000      1.00000000      1.00000000      1.00000000      1.00000000      1.00000000      1.00000000      1.00000000      1.00000000      1.00000000      1.00000000
      1.00000000      1.00000000      1.00000000      1.00000000      1.00000000      1.00000000      1.00000000      1.00000000      1.00000000      1.00000000      1.00000000      1.00000000      1.00000000      1.00000000</v>
    <i name="NUPDOWN">     -1.00000000</i>
    <i type="logical" name="LSORBIT"> F  </i>
    <v name="SAXIS">      0.00000000      0.00000000      1.00000000</v>
    <i type="logical" name="LSPIRAL"> F  </i>
    <v name="QSPIRAL">      0.00000000      0.00000000      0.00000000</v>
    <i type="logical" name="LZEROZ"> F  </i>
   </separator>
   <separator name="electronic exchange-correlation" >
    <i type="logical" name="LASPH"> F  </i>
    <i type="logical" name="LMETAGGA"> F  </i>
   </separator>
   <separator name="electronic convergence" >
    <i type="int" name="NELM">   100</i>
    <i type="int" name="NELMDL">    -5</i>
    <i type="int" name="NELMIN">     2</i>
    <i name="ENINI">    450.00000000</i>
    <separator name="electronic convergence detail" >
     <i type="logical" name="LDIAG"> T  </i>
     <i type="logical" name="LSUBROT"> F  </i>
     <i name="WEIMIN">      0.00000000</i>
     <i name="EBREAK">      0.00000005</i>
     <i name="DEPER">      0.30000000</i>
     <i type="int" name="NRMM">     4</i>
     <i name="TIME">      0.40000000</i>
    </separator>
   </separator>
   <separator name="electronic mixer" >
    <i name="AMIX">      0.40000000</i>
    <i name="BMIX">      1.00000000</i>
    <i name="AMIN">      0.10000000</i>
    <i name="AMIX_MAG">      1.60000000</i>
    <i name="BMIX_MAG">      1.00000000</i>
    <separator name="electronic mixer details" >
     <i type="int" name="IMIX">     4</i>
     <i type="logical" name="MIXFIRST"> F  </i>
     <i type="int" name="MAXMIX">   -45</i>
     <i name="WC">    100.00000000</i>
     <i type="int" name="INIMIX">     1</i>
     <i type="int" name="MIXPRE">     1</i>
     <i type="int" name="MREMOVE">     5</i>
    </separator>
   </separator>
   <separator name="electronic dipolcorrection" >
    <i type="logical" name="LDIPOL"> F  </i>
    <i type="logical" name="LMONO"> F  </i>
    <i type="int" name="IDIPOL">     0</i>
    <i name="EPSILON">      1.00000000</i>
    <v name="DIPOL">   -100.00000000   -100.00000000   -100.00000000</v>
    <i name="EFIELD">      0.00000000</i>
   </separator>
  </separator>
  <separator name="grids" >
   <i type="int" name="NGX">    90</i>
   <i type="int" name="NGY">    50</i>
   <i type="int" name="NGZ">    90</i>
   <i type="int" name="NGXF">   180</i>
   <i type="int" name="NGYF">   100</i>
   <i type="int" name="NGZF">   180</i>
   <i type="logical" name="ADDGRID"> F  </i>
  </separator>
  <separator name="ionic" >
   <i type="int" name="NSW">     0</i>
   <i type="int" name="IBRION">    -1</i>
   <i type="int" name="MDALGO">     0</i>
   <i type="int" name="ISIF">     2</i>
   <i name="PSTRESS">      0.00000000</i>
   <i name="EDIFFG">      0.00100000</i>
   <i type="int" name="NFREE">     0</i>
   <i name="POTIM">      0.50000000</i>
   <i name="SMASS">     -3.00000000</i>
   <i name="SCALEE">      1.00000000</i>
  </separator>
  <separator name="ionic md" >
   <i name="TEBEG">      0.00010000</i>
   <i name="TEEND">      0.00010000</i>
   <i type="int" name="NBLOCK">     1</i>
   <i type="int" name="KBLOCK">     1</i>
   <i type="int" name="NPACO">   256</i>
   <i name="APACO">     16.00000000</i>
  </separator>
  <separator name="symmetry" >
   <i type="int" name="ISYM">     2</i>
   <i name="SYMPREC">      0.00001000</i>
  </separator>
  <separator name="dos" >
   <i type="int" name="LORBIT">     0</i>
   <v name="RWIGS">     -1.00000000     -1.00000000</v>
   <i type="int" name="NEDOS">   301</i>
   <i name="EMIN">     10.00000000</i>
   <i name="EMAX">    -10.00000000</i>
   <i name="EFERMI">      0.00000000</i>
  </separator>
  <separator name="writing" >
   <i type="int" name="NWRITE">     2</i>
   <i type="logical" name="LWAVE"> F  </i>
   <i type="logical" name="LDOWNSAMPLE"> F  </i>
   <i type="logical" name="LCHARG"> F  </i>
   <i type="logical" name="LPARD"> F  </i>
   <i type="logical" name="LVTOT"> F  </i>
   <i type="logical" name="LVHAR"> F  </i>
   <i type="logical" name="LELF"> F  </i>
   <i type="logical" name="LOPTICS"> F  </i>
   <v name="STM">      0.00000000      0.00000000      0.00000000      0.00000000      0.00000000      0.00000000      0.00000000</v>
  </separator>
  <separator name="performance" >
   <i type="int" name="NPAR">     8</i>
   <i type="int" name="NSIM">     4</i>
   <i type="int" name="NBLK">    -1</i>
   <i type="logical" name="LPLANE"> T  </i>
   <i type="logical" name="LSCALAPACK"> T  </i>
   <i type="logical" name="LSCAAWARE"> F  </i>
   <i type="logical" name="LSCALU"> F  </i>
   <i type="logical" name="LASYNC"> F  </i>
   <i type="logical" name="LORBITALREAL"> F  </i>
  </separator>
  <separator name="miscellaneous" >
   <i type="int" name="IDIOT">     3</i>
   <i type="int" name="PHON_NSTRUCT">    -1</i>
   <i type="logical" name="LMUSIC"> F  </i>
   <v name="POMASS">     58.69000000     32.06600000</v>
   <v name="DARWINR">      0.00000000      0.00000000</v>
   <v name="DARWINV">      1.00000000      1.00000000</v>
   <i type="logical" name="LCORR"> T  </i>
  </separator>
  <i type="logical" name="GGA_COMPAT"> T  </i>
  <i type="logical" name="LBERRY"> F  </i>
  <i type="int" name="ICORELEVEL">     0</i>
  <i type="logical" name="LDAU"> F  </i>
  <i type="int" name="I_CONSTRAINED_M">     0</i>
  <separator name="electronic exchange-correlation" >
   <i type="string" name="GGA">--</i>
   <i type="int" name="VOSKOWN">     0</i>
   <i type="logical" name="LHFCALC"> F  </i>
   <i type="string" name="PRECFOCK"></i>
   <i type="logical" name="LSYMGRAD"> F  </i>
   <i type="logical" name="LHFONE"> F  </i>
   <i type="logical" name="LRHFCALC"> F  </i>
   <i type="logical" name="LTHOMAS"> F  </i>
   <i type="logical" name="LMODELHF"> F  </i>
   <i type="logical" name="LFOCKACE"> F  </i>
   <i name="ENCUT4O">     -1.00000000</i>
   <i type="int" name="EXXOEP">     0</i>
   <i type="int" name="FOURORBIT">     0</i>
   <i name="AEXX">      0.00000000</i>
   <i name="HFALPHA">      0.00000000</i>
   <i name="MCALPHA">      0.00000000</i>
   <i name="ALDAX">      1.00000000</i>
   <i name="AGGAX">      1.00000000</i>
   <i name="ALDAC">      1.00000000</i>
   <i name="AGGAC">      1.00000000</i>
   <i type="int" name="NKREDX">     1</i>
   <i type="int" name="NKREDY">     1</i>
   <i type="int" name="NKREDZ">     1</i>
   <i type="logical" name="SHIFTRED"> F  </i>
   <i type="logical" name="ODDONLY"> F  </i>
   <i type="logical" name="EVENONLY"> F  </i>
   <i type="int" name="LMAXFOCK">     0</i>
   <i type="int" name="NMAXFOCKAE">     0</i>
   <i type="logical" name="LFOCKAEDFT"> F  </i>
   <i name="HFSCREEN">      0.00000000</i>
   <i name="HFSCREENC">      0.00000000</i>
   <i type="int" name="NBANDSGWLOW">     0</i>
  </separator>
  <separator name="vdW DFT" >
   <i type="logical" name="LUSE_VDW"> F  </i>
   <i name="Zab_VDW">     -0.84910000</i>
   <i name="PARAM1">      0.12340000</i>
   <i name="PARAM2">      1.00000000</i>
   <i name="PARAM3">      0.00000000</i>
  </separator>
  <separator name="model GW" >
   <i type="int" name="MODEL_GW">     0</i>
   <i name="MODEL_EPS0">     21.69963934</i>
   <i name="MODEL_ALPHA">      1.00000000</i>
  </separator>
  <separator name="linear response parameters" >
   <i type="logical" name="LEPSILON"> F  </i>
   <i type="logical" name="LRPA"> F  </i>
   <i type="logical" name="LNABLA"> F  </i>
   <i type="logical" name="LVEL"> F  </i>
   <i type="int" name="KINTER">     0</i>
   <i name="CSHIFT">      0.10000000</i>
   <i name="OMEGAMAX">     -1.00000000</i>
   <i name="DEG_THRESHOLD">      0.00200000</i>
   <i name="RTIME">     -0.10000000</i>
   <i name="WPLASMAI">      0.00000000</i>
   <v name="DFIELD">      0.00000000      0.00000000      0.00000000</v>
   <v name="WPLASMA">      0.00000000      0.00000000      0.00000000      0.00000000      0.00000000      0.00000000      0.00000000      0.00000000      0.00000000</v>
  </separator>
  <separator name="orbital magnetization" >
   <i type="logical" name="NUCIND"> F  </i>
   <v name="MAGPOS">      0.00000000      0.00000000      0.00000000</v>
   <i type="logical" name="LNICSALL"> T  </i>
   <i type="logical" name="ORBITALMAG"> F  </i>
   <i type="logical" name="LMAGBLOCH"> F  </i>
   <i type="logical" name="LCHIMAG"> F  </i>
   <i type="logical" name="LGAUGE"> T  </i>
   <i type="int" name="MAGATOM">     0</i>
   <v name="MAGDIPOL">      0.00000000      0.00000000      0.00000000</v>
   <v name="AVECCONST">      0.00000000      0.00000000      0.00000000</v>
  </separator>
  <separator name="response functions" >
   <i type="logical" name="LFINITE_TEMPERATURE"> F  </i>
   <i type="logical" name="LADDER"> F  </i>
   <i type="logical" name="LRPAFORCE"> F  </i>
   <i type="logical" name="LFXC"> F  </i>
   <i type="logical" name="LHARTREE"> T  </i>
   <i type="int" name="IBSE">     0</i>
   <v type="int" name="KPOINT">    -1     0     0     0</v>
   <i type="logical" name="LTCTC"> F  </i>
   <i type="logical" name="LTCTE"> F  </i>
   <i type="logical" name="LTETE"> F  </i>
   <i type="logical" name="LTRIPLET"> F  </i>
   <i type="logical" name="LFXCEPS"> F  </i>
   <i type="logical" name="LFXHEG"> F  </i>
   <i type="int" name="NATURALO">     2</i>
   <i type="logical" name="LHOLEGF"> F  </i>
   <i type="logical" name="L2ORDER"> F  </i>
   <i type="logical" name="LDMP1"> F  </i>
   <i type="logical" name="LMP2LT"> F  </i>
   <i type="logical" name="LSMP2LT"> F  </i>
   <i type="logical" name="LGWLF"> F  </i>
   <i name="ENCUTGW">     -2.00000000</i>
   <i name="ENCUTGWSOFT">     -2.00000000</i>
   <i name="ENCUTLF">     -1.00000000</i>
   <i type="logical" name="LESF_SPLINES"> F  </i>
   <i type="int" name="LMAXMP2">    -1</i>
   <i name="SCISSOR">      0.00000000</i>
   <i type="int" name="NOMEGA">     0</i>
   <i type="int" name="NOMEGAR">     0</i>
   <i type="int" name="NBANDSGW">    -1</i>
   <i type="int" name="NBANDSO">    -1</i>
   <i type="int" name="NBANDSV">    -1</i>
   <i type="int" name="NELM">   100</i>
   <i type="int" name="NELMHF">     1</i>
   <i type="int" name="DIM">     3</i>
   <i type="int" name="IESPILON">     4</i>
   <i type="int" name="ANTIRES">     0</i>
   <i name="OMEGAMAX">    -30.00000000</i>
   <i name="OMEGAMIN">    -30.00000000</i>
   <i name="OMEGATL">   -200.00000000</i>
   <i type="int" name="OMEGAGRID">     0</i>
   <i name="CSHIFT">     -0.10000000</i>
   <i type="logical" name="LSELFENERGY"> F  </i>
   <i type="logical" name="LSPECTRAL"> F  </i>
   <i type="logical" name="LSPECTRALGW"> F  </i>
   <i type="logical" name="LSINGLES"> F  </i>
   <i type="logical" name="LFERMIGW"> F  </i>
   <i type="logical" name="ODDONLYGW"> F  </i>
   <i type="logical" name="EVENONLYGW"> F  </i>
   <i type="int" name="NKREDLFX">     1</i>
   <i type="int" name="NKREDLFY">     1</i>
   <i type="int" name="NKREDLFZ">     1</i>
   <i type="int" name="MAXMEM">  2800</i>
   <i type="int" name="TELESCOPE">     0</i>
   <i type="int" name="NTAUPAR">    -1</i>
   <i type="int" name="NOMEGAPAR">    -1</i>
   <i name="LAMBDA">      1.00000000</i>
  </separator>
  <separator name="External order field" >
   <i name="OFIELD_KAPPA">      0.00000000</i>
   <v name="OFIELD_K">      0.00000000      0.00000000      0.00000000</v>
   <i name="OFIELD_Q6_NEAR">      0.00000000</i>
   <i name="OFIELD_Q6_FAR">      0.00000000</i>
   <i name="OFIELD_A">      0.00000000</i>
  </separator>
 </parameters>
 <atominfo>
  <atoms>      74 </atoms>
  <types>       2 </types>
  <array name="atoms" >
   <dimension dim="1">ion</dimension>
   <field type="string">element</field>
   <field type="int">atomtype</field>
   <set>
    <rc><c>Ni</c><c>   1</c></rc>
    <rc><c>Ni</c><c>   1</c></rc>
    <rc><c>Ni</c><c>   1</c></rc>
    <rc><c>Ni</c><c>   1</c></rc>
    <rc><c>Ni</c><c>   1</c></rc>
    <rc><c>Ni</c><c>   1</c></rc>
    <rc><c>Ni</c><c>   1</c></rc>
    <rc><c>Ni</c><c>   1</c></rc>
    <rc><c>Ni</c><c>   1</c></rc>
    <rc><c>Ni</c><c>   1</c></rc>
    <rc><c>Ni</c><c>   1</c></rc>
    <rc><c>Ni</c><c>   1</c></rc>
    <rc><c>Ni</c><c>   1</c></rc>
    <rc><c>Ni</c><c>   1</c></rc>
    <rc><c>Ni</c><c>   1</c></rc>
    <rc><c>Ni</c><c>   1</c></rc>
    <rc><c>Ni</c><c>   1</c></rc>
    <rc><c>Ni</c><c>   1</c></rc>
    <rc><c>Ni</c><c>   1</c></rc>
    <rc><c>Ni</c><c>   1</c></rc>
    <rc><c>Ni</c><c>   1</c></rc>
    <rc><c>Ni</c><c>   1</c></rc>
    <rc><c>Ni</c><c>   1</c></rc>
    <rc><c>Ni</c><c>   1</c></rc>
    <rc><c>Ni</c><c>   1</c></rc>
    <rc><c>Ni</c><c>   1</c></rc>
    <rc><c>Ni</c><c>   1</c></rc>
    <rc><c>Ni</c><c>   1</c></rc>
    <rc><c>Ni</c><c>   1</c></rc>
    <rc><c>Ni</c><c>   1</c></rc>
    <rc><c>Ni</c><c>   1</c></rc>
    <rc><c>Ni</c><c>   1</c></rc>
    <rc><c>Ni</c><c>   1</c></rc>
    <rc><c>Ni</c><c>   1</c></rc>
    <rc><c>Ni</c><c>   1</c></rc>
    <rc><c>Ni</c><c>   1</c></rc>
    <rc><c>Ni</c><c>   1</c></rc>
    <rc><c>S </c><c>   2</c></rc>
    <rc><c>S </c><c>   2</c></rc>
    <rc><c>S </c><c>   2</c></rc>
    <rc><c>S </c><c>   2</c></rc>
    <rc><c>S </c><c>   2</c></rc>
    <rc><c>S </c><c>   2</c></rc>
    <rc><c>S </c><c>   2</c></rc>
    <rc><c>S </c><c>   2</c></rc>
    <rc><c>S </c><c>   2</c></rc>
    <rc><c>S </c><c>   2</c></rc>
    <rc><c>S </c><c>   2</c></rc>
    <rc><c>S </c><c>   2</c></rc>
    <rc><c>S </c><c>   2</c></rc>
    <rc><c>S </c><c>   2</c></rc>
    <rc><c>S </c><c>   2</c></rc>
    <rc><c>S </c><c>   2</c></rc>
    <rc><c>S </c><c>   2</c></rc>
    <rc><c>S </c><c>   2</c></rc>
    <rc><c>S </c><c>   2</c></rc>
    <rc><c>S </c><c>   2</c></rc>
    <rc><c>S </c><c>   2</c></rc>
    <rc><c>S </c><c>   2</c></rc>
    <rc><c>S </c><c>   2</c></rc>
    <rc><c>S </c><c>   2</c></rc>
    <rc><c>S </c><c>   2</c></rc>
    <rc><c>S </c><c>   2</c></rc>
    <rc><c>S </c><c>   2</c></rc>
    <rc><c>S </c><c>   2</c></rc>
    <rc><c>S </c><c>   2</c></rc>
    <rc><c>S </c><c>   2</c></rc>
    <rc><c>S </c><c>   2</c></rc>
    <rc><c>S </c><c>   2</c></rc>
    <rc><c>S </c><c>   2</c></rc>
    <rc><c>S </c><c>   2</c></rc>
    <rc><c>S </c><c>   2</c></rc>
    <rc><c>S </c><c>   2</c></rc>
    <rc><c>S </c><c>   2</c></rc>
   </set>
  </array>
  <array name="atomtypes" >
   <dimension dim="1">type</dimension>
   <field type="int">atomspertype</field>
   <field type="string">element</field>
   <field>mass</field>
   <field>valence</field>
   <field type="string">pseudopotential</field>
   <set>
    <rc><c>  37</c><c>Ni</c><c>     58.69000000</c><c>     16.00000000</c><c>  PAW_PBE Ni_pv 06Sep2000               </c></rc>
    <rc><c>  37</c><c>S </c><c>     32.06600000</c><c>      6.00000000</c><c>  PAW_PBE S 06Sep2000                   </c></rc>
   </set>
  </array>
 </atominfo>
 <structure name="initialpos" >
  <crystal>
   <varray name="basis" >
    <v>      16.88469405       0.00000000       0.00000000 </v>
    <v>       0.00000000       9.57841000       0.00000000 </v>
    <v>       0.00000000       0.00000000      16.54803255 </v>
   </varray>
   <i name="volume">   2676.28885249 </i>
   <varray name="rec_basis" >
    <v>       0.05922524       0.00000000       0.00000000 </v>
    <v>       0.00000000       0.10440146       0.00000000 </v>
    <v>       0.00000000       0.00000000       0.06043014 </v>
   </varray>
  </crystal>
  <varray name="positions" >
   <v>       0.78004630       0.14529696       0.11782363 </v>
   <v>       0.81461426       0.14529696       0.30422304 </v>
   <v>       0.26276233       0.64529696       0.02462392 </v>
   <v>       0.29733028       0.64529696       0.21102334 </v>
   <v>       0.43519032       0.14529696       0.05569049 </v>
   <v>       0.46975828       0.14529696       0.24208990 </v>
   <v>       0.95247430       0.64529696       0.14889020 </v>
   <v>       0.98704225       0.64529696       0.33528961 </v>
   <v>       0.12490229       0.14529696       0.17995677 </v>
   <v>       0.60761831       0.64529696       0.08675706 </v>
   <v>       0.64218627       0.64529696       0.27315647 </v>
   <v>       0.90758277       0.01319396       0.09319971 </v>
   <v>       0.94215073       0.01319396       0.27959912 </v>
   <v>       0.39029880       0.51319396       0.00000000 </v>
   <v>       0.42486675       0.51319396       0.18639941 </v>
   <v>       0.45943471       0.51319396       0.37279883 </v>
   <v>       0.56272679       0.01319396       0.03106657 </v>
   <v>       0.59729475       0.01319396       0.21746598 </v>
   <v>       0.08001077       0.51319396       0.12426628 </v>
   <v>       0.11457872       0.51319396       0.31066569 </v>
   <v>       0.25243876       0.01319396       0.15533284 </v>
   <v>       0.28700672       0.01319396       0.34173226 </v>
   <v>       0.73515478       0.51319396       0.06213314 </v>
   <v>       0.76972274       0.51319396       0.24853255 </v>
   <v>       0.90758277       0.27739996       0.09319971 </v>
   <v>       0.94215073       0.27739996       0.27959912 </v>
   <v>       0.39029880       0.77739996       0.00000000 </v>
   <v>       0.42486675       0.77739996       0.18639941 </v>
   <v>       0.45943471       0.77739996       0.37279883 </v>
   <v>       0.56272679       0.27739996       0.03106657 </v>
   <v>       0.59729475       0.27739996       0.21746598 </v>
   <v>       0.08001077       0.77739996       0.12426628 </v>
   <v>       0.11457872       0.77739996       0.31066569 </v>
   <v>       0.25243876       0.27739996       0.15533284 </v>
   <v>       0.28700672       0.27739996       0.34173226 </v>
   <v>       0.73515478       0.77739996       0.06213314 </v>
   <v>       0.76972274       0.77739996       0.24853255 </v>
   <v>       0.02602916       0.14529696       0.36463199 </v>
   <v>       0.99146120       0.14529696       0.17823257 </v>
   <v>       0.47417722       0.64529696       0.08503287 </v>
   <v>       0.50874518       0.64529696       0.27143228 </v>
   <v>       0.64660522       0.14529696       0.11609943 </v>
   <v>       0.68117317       0.14529696       0.30249885 </v>
   <v>       0.12932124       0.64529696       0.02289973 </v>
   <v>       0.16388920       0.64529696       0.20929914 </v>
   <v>       0.19845715       0.64529696       0.39569855 </v>
   <v>       0.30174923       0.14529696       0.05396630 </v>
   <v>       0.33631719       0.14529696       0.24036571 </v>
   <v>       0.81903321       0.64529696       0.14716600 </v>
   <v>       0.85360117       0.64529696       0.33356542 </v>
   <v>       0.79449310       0.31351196       0.02318834 </v>
   <v>       0.82906105       0.31351196       0.20958775 </v>
   <v>       0.31177707       0.81351196       0.11638804 </v>
   <v>       0.34634503       0.81351196       0.30278746 </v>
   <v>       0.48420507       0.31351196       0.14745461 </v>
   <v>       0.51877302       0.31351196       0.33385403 </v>
   <v>       0.00148905       0.81351196       0.24065432 </v>
   <v>       0.96692109       0.81351196       0.05425490 </v>
   <v>       0.13934908       0.31351196       0.08532147 </v>
   <v>       0.17391704       0.31351196       0.27172089 </v>
   <v>       0.65663306       0.81351196       0.17852118 </v>
   <v>       0.69120102       0.81351196       0.36492059 </v>
   <v>       0.31177707       0.47708196       0.11638804 </v>
   <v>       0.34634503       0.47708196       0.30278746 </v>
   <v>       0.79449310       0.97708196       0.02318834 </v>
   <v>       0.82906105       0.97708196       0.20958775 </v>
   <v>       0.00148905       0.47708196       0.24065432 </v>
   <v>       0.96692109       0.47708196       0.05425490 </v>
   <v>       0.48420507       0.97708196       0.14745461 </v>
   <v>       0.51877302       0.97708196       0.33385403 </v>
   <v>       0.65663306       0.47708196       0.17852118 </v>
   <v>       0.69120102       0.47708196       0.36492059 </v>
   <v>       0.13934908       0.97708196       0.08532147 </v>
   <v>       0.17391704       0.97708196       0.27172089 </v>
  </varray>
 </structure>
 <calculation>
  <scstep>
   <time name="dav">    2.83    2.83</time>
   <time name="total">    2.89    2.90</time>
   <energy>
    <i name="alphaZ">   1468.23875301 </i>
    <i name="ewald"> 117344.34571702 </i>
    <i name="hartreedc">-241584.78316379 </i>
    <i name="XCdc">   3740.83294647 </i>
    <i name="pawpsdc"> 115860.90926010 </i>
    <i name="pawaedc">-120909.33166199 </i>
    <i name="eentropy">     -0.57933537 </i>
    <i name="bandstr">  -6797.80401112 </i>
    <i name="atom"> 139780.45519414 </i>
    <i name="e_fr_energy">   8902.28369847 </i>
    <i name="e_wo_entrp">   8902.86303384 </i>
    <i name="e_0_energy">   8902.57336615 </i>
   </energy>
  </scstep>
  <scstep>
   <time name="dav">    2.51    2.51</time>
   <time name="total">    2.51    2.51</time>
   <energy>
    <i name="e_fr_energy">    485.67272188 </i>
    <i name="e_wo_entrp">    486.57874128 </i>
    <i name="e_0_energy">    486.12573158 </i>
   </energy>
  </scstep>
  <scstep>
   <time name="dav">    2.70    2.71</time>
   <time name="total">    2.70    2.71</time>
   <energy>
    <i name="e_fr_energy">   -357.64982138 </i>
    <i name="e_wo_entrp">   -356.03559466 </i>
    <i name="e_0_energy">   -356.84270802 </i>
   </energy>
  </scstep>
  <scstep>
   <time name="dav">    2.80    2.81</time>
   <time name="total">    2.81    2.81</time>
   <energy>
    <i name="e_fr_energy">   -408.11381116 </i>
    <i name="e_wo_entrp">   -406.44650232 </i>
    <i name="e_0_energy">   -407.28015674 </i>
   </energy>
  </scstep>
  <scstep>
   <time name="dav">    2.81    2.81</time>
   <time name="total">    2.92    2.92</time>
   <energy>
    <i name="e_fr_energy">   -409.49354477 </i>
    <i name="e_wo_entrp">   -407.82511939 </i>
    <i name="e_0_energy">   -408.65933208 </i>
   </energy>
  </scstep>
  <scstep>
   <time name="dav">    2.77    2.78</time>
   <time name="total">    2.94    2.95</time>
   <energy>
    <i name="e_fr_energy">   -529.63792833 </i>
    <i name="e_wo_entrp">   -528.53678151 </i>
    <i name="e_0_energy">   -529.08735492 </i>
   </energy>
  </scstep>
  <scstep>
   <time name="dav">    2.83    2.83</time>
   <time name="total">    2.99    3.00</time>
   <energy>
    <i name="e_fr_energy">   -388.27467399 </i>
    <i name="e_wo_entrp">   -387.11962441 </i>
    <i name="e_0_energy">   -387.69714920 </i>
   </energy>
  </scstep>
  <scstep>
   <time name="dav">    3.20    3.20</time>
   <time name="total">    3.36    3.37</time>
   <energy>
    <i name="e_fr_energy">   -395.99007802 </i>
    <i name="e_wo_entrp">   -394.57509079 </i>
    <i name="e_0_energy">   -395.28258440 </i>
   </energy>
  </scstep>
  <scstep>
   <time name="dav">    3.16    3.17</time>
   <time name="total">    3.33    3.34</time>
   <energy>
    <i name="e_fr_energy">   -374.49705260 </i>
    <i name="e_wo_entrp">   -373.22471896 </i>
    <i name="e_0_energy">   -373.86088578 </i>
   </energy>
  </scstep>
  <scstep>
   <time name="dav">    3.30    3.30</time>
   <time name="total">    3.46    3.47</time>
   <energy>
    <i name="e_fr_energy">   -367.32126134 </i>
    <i name="e_wo_entrp">   -365.80324489 </i>
    <i name="e_0_energy">   -366.56225311 </i>
   </energy>
  </scstep>
  <scstep>
   <time name="dav">    3.16    3.17</time>
   <time name="total">    3.33    3.34</time>
   <energy>
    <i name="e_fr_energy">   -377.06938620 </i>
    <i name="e_wo_entrp">   -375.74712848 </i>
    <i name="e_0_energy">   -376.40825734 </i>
   </energy>
  </scstep>
  <scstep>
   <time name="dav">    3.15    3.16</time>
   <time name="total">    3.32    3.33</time>
   <energy>
    <i name="e_fr_energy">   -367.96262134 </i>
    <i name="e_wo_entrp">   -366.51116594 </i>
    <i name="e_0_energy">   -367.23689364 </i>
   </energy>
  </scstep>
  <scstep>
   <time name="dav">    3.14    3.14</time>
   <time name="total">    3.30    3.31</time>
   <energy>
    <i name="e_fr_energy">   -362.75918878 </i>
    <i name="e_wo_entrp">   -361.58095532 </i>
    <i name="e_0_energy">   -362.17007205 </i>
   </energy>
  </scstep>
  <scstep>
   <time name="dav">    3.09    3.10</time>
   <time name="total">    3.26    3.27</time>
   <energy>
    <i name="e_fr_energy">   -359.10843185 </i>
    <i name="e_wo_entrp">   -357.84002123 </i>
    <i name="e_0_energy">   -358.47422654 </i>
   </energy>
  </scstep>
  <scstep>
   <time name="dav">    3.09    3.10</time>
   <time name="total">    3.25    3.26</time>
   <energy>
    <i name="e_fr_energy">   -357.44308049 </i>
    <i name="e_wo_entrp">   -356.30799830 </i>
    <i name="e_0_energy">   -356.87553940 </i>
   </energy>
  </scstep>
  <scstep>
   <time name="dav">    2.92    2.93</time>
   <time name="total">    3.09    3.10</time>
   <energy>
    <i name="e_fr_energy">   -355.55290131 </i>
    <i name="e_wo_entrp">   -354.29755875 </i>
    <i name="e_0_energy">   -354.92523003 </i>
   </energy>
  </scstep>
  <scstep>
   <time name="dav">    3.10    3.11</time>
   <time name="total">    3.27    3.28</time>
   <energy>
    <i name="e_fr_energy">   -354.35911800 </i>
    <i name="e_wo_entrp">   -353.02344222 </i>
    <i name="e_0_energy">   -353.69128011 </i>
   </energy>
  </scstep>
  <scstep>
   <time name="dav">    3.10    3.10</time>
   <time name="total">    3.26    3.27</time>
   <energy>
    <i name="e_fr_energy">   -354.16093321 </i>
    <i name="e_wo_entrp">   -352.82624901 </i>
    <i name="e_0_energy">   -353.49359111 </i>
   </energy>
  </scstep>
  <scstep>
   <time name="dav">    3.00    3.01</time>
   <time name="total">    3.17    3.18</time>
   <energy>
    <i name="e_fr_energy">   -353.97227542 </i>
    <i name="e_wo_entrp">   -352.58241613 </i>
    <i name="e_0_energy">   -353.27734578 </i>
   </energy>
  </scstep>
  <scstep>
   <time name="dav">    2.98    2.98</time>
   <time name="total">    3.15    3.15</time>
   <energy>
    <i name="e_fr_energy">   -353.79868454 </i>
    <i name="e_wo_entrp">   -352.38625680 </i>
    <i name="e_0_energy">   -353.09247067 </i>
   </energy>
  </scstep>
  <scstep>
   <time name="dav">    3.03    3.04</time>
   <time name="total">    3.20    3.21</time>
   <energy>
    <i name="e_fr_energy">   -353.77848649 </i>
    <i name="e_wo_entrp">   -352.38283991 </i>
    <i name="e_0_energy">   -353.08066320 </i>
   </energy>
  </scstep>
  <scstep>
   <time name="dav">    2.93    2.94</time>
   <time name="total">    3.10    3.11</time>
   <energy>
    <i name="e_fr_energy">   -353.75656965 </i>
    <i name="e_wo_entrp">   -352.33987641 </i>
    <i name="e_0_energy">   -353.04822303 </i>
   </energy>
  </scstep>
  <scstep>
   <time name="dav">    2.83    2.84</time>
   <time name="total">    3.00    3.00</time>
   <energy>
    <i name="e_fr_energy">   -353.76627302 </i>
    <i name="e_wo_entrp">   -352.32446458 </i>
    <i name="e_0_energy">   -353.04536880 </i>
   </energy>
  </scstep>
  <scstep>
   <time name="dav">    2.96    2.97</time>
   <time name="total">    3.13    3.13</time>
   <energy>
    <i name="e_fr_energy">   -353.74324658 </i>
    <i name="e_wo_entrp">   -352.29160433 </i>
    <i name="e_0_energy">   -353.01742545 </i>
   </energy>
  </scstep>
  <scstep>
   <time name="dav">    2.96    2.97</time>
   <time name="total">    3.13    3.14</time>
   <energy>
    <i name="e_fr_energy">   -353.71297962 </i>
    <i name="e_wo_entrp">   -352.25835904 </i>
    <i name="e_0_energy">   -352.98566933 </i>
   </energy>
  </scstep>
  <scstep>
   <time name="dav">    2.91    2.92</time>
   <time name="total">    3.08    3.09</time>
   <energy>
    <i name="e_fr_energy">   -353.70735216 </i>
    <i name="e_wo_entrp">   -352.26560501 </i>
    <i name="e_0_energy">   -352.98647859 </i>
   </energy>
  </scstep>
  <scstep>
   <time name="dav">    3.12    3.13</time>
   <time name="total">    3.29    3.30</time>
   <energy>
    <i name="e_fr_energy">   -353.69250229 </i>
    <i name="e_wo_entrp">   -352.25530821 </i>
    <i name="e_0_energy">   -352.97390525 </i>
   </energy>
  </scstep>
  <scstep>
   <time name="dav">    3.01    3.02</time>
   <time name="total">    3.18    3.19</time>
   <energy>
    <i name="e_fr_energy">   -353.68690789 </i>
    <i name="e_wo_entrp">   -352.25650405 </i>
    <i name="e_0_energy">   -352.97170597 </i>
   </energy>
  </scstep>
  <scstep>
   <time name="dav">    2.98    2.99</time>
   <time name="total">    3.15    3.16</time>
   <energy>
    <i name="e_fr_energy">   -353.68536245 </i>
    <i name="e_wo_entrp">   -352.25611497 </i>
    <i name="e_0_energy">   -352.97073871 </i>
   </energy>
  </scstep>
  <scstep>
   <time name="dav">    2.91    2.92</time>
   <time name="total">    3.08    3.09</time>
   <energy>
    <i name="e_fr_energy">   -353.68138474 </i>
    <i name="e_wo_entrp">   -352.25519483 </i>
    <i name="e_0_energy">   -352.96828978 </i>
   </energy>
  </scstep>
  <scstep>
   <time name="dav">    3.02    3.02</time>
   <time name="total">    3.18    3.19</time>
   <energy>
    <i name="e_fr_energy">   -353.67855566 </i>
    <i name="e_wo_entrp">   -352.25491284 </i>
    <i name="e_0_energy">   -352.96673425 </i>
   </energy>
  </scstep>
  <scstep>
   <time name="dav">    2.84    2.85</time>
   <time name="total">    3.01    3.02</time>
   <energy>
    <i name="e_fr_energy">   -353.67750957 </i>
    <i name="e_wo_entrp">   -352.25711794 </i>
    <i name="e_0_energy">   -352.96731376 </i>
   </energy>
  </scstep>
  <scstep>
   <time name="dav">    2.70    2.70</time>
   <time name="total">    2.87    2.87</time>
   <energy>
    <i name="e_fr_energy">   -353.67810532 </i>
    <i name="e_wo_entrp">   -352.25640778 </i>
    <i name="e_0_energy">   -352.96725655 </i>
   </energy>
  </scstep>
  <scstep>
   <time name="dav">    2.49    2.49</time>
   <time name="total">    2.66    2.66</time>
   <energy>
    <i name="e_fr_energy">   -353.67791784 </i>
    <i name="e_wo_entrp">   -352.25892205 </i>
    <i name="e_0_energy">   -352.96841994 </i>
   </energy>
  </scstep>
  <scstep>
   <time name="dav">    2.30    2.31</time>
   <time name="total">    2.47    2.48</time>
   <energy>
    <i name="e_fr_energy">   -353.67830266 </i>
    <i name="e_wo_entrp">   -352.25750295 </i>
    <i name="e_0_energy">   -352.96790280 </i>
   </energy>
  </scstep>
  <scstep>
   <time name="dav">    2.37    2.38</time>
   <time name="total">    2.54    2.55</time>
   <energy>
    <i name="e_fr_energy">   -353.67880076 </i>
    <i name="e_wo_entrp">   -352.26209030 </i>
    <i name="e_0_energy">   -352.97044553 </i>
   </energy>
  </scstep>
  <scstep>
   <time name="dav">    2.10    2.10</time>
   <time name="total">    2.27    2.27</time>
   <energy>
    <i name="e_fr_energy">   -353.67930421 </i>
    <i name="e_wo_entrp">   -352.26149956 </i>
    <i name="e_0_energy">   -352.97040189 </i>
   </energy>
  </scstep>
  <scstep>
   <time name="dav">    1.79    1.79</time>
   <time name="total">    1.96    1.96</time>
   <energy>
    <i name="e_fr_energy">   -353.67954896 </i>
    <i name="e_wo_entrp">   -352.26246449 </i>
    <i name="e_0_energy">   -352.97100672 </i>
   </energy>
  </scstep>
  <scstep>
   <time name="dav">    1.72    1.72</time>
   <time name="total">    1.89    1.89</time>
   <energy>
    <i name="e_fr_energy">   -353.67987956 </i>
    <i name="e_wo_entrp">   -352.26183358 </i>
    <i name="e_0_energy">   -352.97085657 </i>
   </energy>
  </scstep>
  <scstep>
   <time name="dav">    1.79    1.79</time>
   <time name="total">    1.96    1.96</time>
   <energy>
    <i name="e_fr_energy">   -353.68013441 </i>
    <i name="e_wo_entrp">   -352.26213698 </i>
    <i name="e_0_energy">   -352.97113569 </i>
   </energy>
  </scstep>
  <scstep>
   <time name="dav">    2.09    2.09</time>
   <time name="total">    2.26    2.27</time>
   <energy>
    <i name="e_fr_energy">   -353.68108882 </i>
    <i name="e_wo_entrp">   -352.26188439 </i>
    <i name="e_0_energy">   -352.97148661 </i>
   </energy>
  </scstep>
  <scstep>
   <time name="dav">    1.80    1.81</time>
   <time name="total">    1.98    1.98</time>
   <energy>
    <i name="e_fr_energy">   -353.68136489 </i>
    <i name="e_wo_entrp">   -352.26193568 </i>
    <i name="e_0_energy">   -352.97165029 </i>
   </energy>
  </scstep>
  <scstep>
   <time name="dav">    1.85    1.85</time>
   <time name="total">    2.02    2.02</time>
   <energy>
    <i name="e_fr_energy">   -353.68163404 </i>
    <i name="e_wo_entrp">   -352.26246655 </i>
    <i name="e_0_energy">   -352.97205029 </i>
   </energy>
  </scstep>
  <scstep>
   <time name="dav">    1.76    1.76</time>
   <time name="total">    1.93    1.93</time>
   <energy>
    <i name="e_fr_energy">   -353.68175588 </i>
    <i name="e_wo_entrp">   -352.26250635 </i>
    <i name="e_0_energy">   -352.97213112 </i>
   </energy>
  </scstep>
  <scstep>
   <time name="dav">    1.74    1.74</time>
   <time name="total">    1.80    1.80</time>
   <energy>
    <i name="alphaZ">   1468.23875301 </i>
    <i name="ewald"> 117344.34571702 </i>
    <i name="hartreedc">-240863.13718668 </i>
    <i name="XCdc">   3711.51567404 </i>
    <i name="pawpsdc"> 132240.33584044 </i>
    <i name="pawaedc">-137346.56973411 </i>
    <i name="eentropy">     -1.41921063 </i>
    <i name="bandstr"> -16687.44687495 </i>
    <i name="atom"> 139780.45519414 </i>
    <i name="e_fr_energy">   -353.68182772 </i>
    <i name="e_wo_entrp">   -352.26261709 </i>
    <i name="e_0_energy">   -352.97222241 </i>
   </energy>
  </scstep>
  <structure>
   <crystal>
    <varray name="basis" >
     <v>      16.88469405       0.00000000       0.00000000 </v>
     <v>       0.00000000       9.57841000       0.00000000 </v>
     <v>       0.00000000       0.00000000      16.54803255 </v>
    </varray>
    <i name="volume">   2676.28885249 </i>
    <varray name="rec_basis" >
     <v>       0.05922524       0.00000000       0.00000000 </v>
     <v>       0.00000000       0.10440146       0.00000000 </v>
     <v>       0.00000000       0.00000000       0.06043014 </v>
    </varray>
   </crystal>
   <varray name="positions" >
    <v>       0.78004630       0.14529696       0.11782363 </v>
    <v>       0.81461426       0.14529696       0.30422304 </v>
    <v>       0.26276233       0.64529696       0.02462392 </v>
    <v>       0.29733028       0.64529696       0.21102334 </v>
    <v>       0.43519032       0.14529696       0.05569049 </v>
    <v>       0.46975828       0.14529696       0.24208990 </v>
    <v>       0.95247430       0.64529696       0.14889020 </v>
    <v>       0.98704225       0.64529696       0.33528961 </v>
    <v>       0.12490229       0.14529696       0.17995677 </v>
    <v>       0.60761831       0.64529696       0.08675706 </v>
    <v>       0.64218627       0.64529696       0.27315647 </v>
    <v>       0.90758277       0.01319396       0.09319971 </v>
    <v>       0.94215073       0.01319396       0.27959912 </v>
    <v>       0.39029880       0.51319396       0.00000000 </v>
    <v>       0.42486675       0.51319396       0.18639941 </v>
    <v>       0.45943471       0.51319396       0.37279883 </v>
    <v>       0.56272679       0.01319396       0.03106657 </v>
    <v>       0.59729475       0.01319396       0.21746598 </v>
    <v>       0.08001077       0.51319396       0.12426628 </v>
    <v>       0.11457872       0.51319396       0.31066569 </v>
    <v>       0.25243876       0.01319396       0.15533284 </v>
    <v>       0.28700672       0.01319396       0.34173226 </v>
    <v>       0.73515478       0.51319396       0.06213314 </v>
    <v>       0.76972274       0.51319396       0.24853255 </v>
    <v>       0.90758277       0.27739996       0.09319971 </v>
    <v>       0.94215073       0.27739996       0.27959912 </v>
    <v>       0.39029880       0.77739996       0.00000000 </v>
    <v>       0.42486675       0.77739996       0.18639941 </v>
    <v>       0.45943471       0.77739996       0.37279883 </v>
    <v>       0.56272679       0.27739996       0.03106657 </v>
    <v>       0.59729475       0.27739996       0.21746598 </v>
    <v>       0.08001077       0.77739996       0.12426628 </v>
    <v>       0.11457872       0.77739996       0.31066569 </v>
    <v>       0.25243876       0.27739996       0.15533284 </v>
    <v>       0.28700672       0.27739996       0.34173226 </v>
    <v>       0.73515478       0.77739996       0.06213314 </v>
    <v>       0.76972274       0.77739996       0.24853255 </v>
    <v>       0.02602916       0.14529696       0.36463199 </v>
    <v>       0.99146120       0.14529696       0.17823257 </v>
    <v>       0.47417722       0.64529696       0.08503287 </v>
    <v>       0.50874518       0.64529696       0.27143228 </v>
    <v>       0.64660522       0.14529696       0.11609943 </v>
    <v>       0.68117317       0.14529696       0.30249885 </v>
    <v>       0.12932124       0.64529696       0.02289973 </v>
    <v>       0.16388920       0.64529696       0.20929914 </v>
    <v>       0.19845715       0.64529696       0.39569855 </v>
    <v>       0.30174923       0.14529696       0.05396630 </v>
    <v>       0.33631719       0.14529696       0.24036571 </v>
    <v>       0.81903321       0.64529696       0.14716600 </v>
    <v>       0.85360117       0.64529696       0.33356542 </v>
    <v>       0.79449310       0.31351196       0.02318834 </v>
    <v>       0.82906105       0.31351196       0.20958775 </v>
    <v>       0.31177707       0.81351196       0.11638804 </v>
    <v>       0.34634503       0.81351196       0.30278746 </v>
    <v>       0.48420507       0.31351196       0.14745461 </v>
    <v>       0.51877302       0.31351196       0.33385403 </v>
    <v>       0.00148905       0.81351196       0.24065432 </v>
    <v>       0.96692109       0.81351196       0.05425490 </v>
    <v>       0.13934908       0.31351196       0.08532147 </v>
    <v>       0.17391704       0.31351196       0.27172089 </v>
    <v>       0.65663306       0.81351196       0.17852118 </v>
    <v>       0.69120102       0.81351196       0.36492059 </v>
    <v>       0.31177707       0.47708196       0.11638804 </v>
    <v>       0.34634503       0.47708196       0.30278746 </v>
    <v>       0.79449310       0.97708196       0.02318834 </v>
    <v>       0.82906105       0.97708196       0.20958775 </v>
    <v>       0.00148905       0.47708196       0.24065432 </v>
    <v>       0.96692109       0.47708196       0.05425490 </v>
    <v>       0.48420507       0.97708196       0.14745461 </v>
    <v>       0.51877302       0.97708196       0.33385403 </v>
    <v>       0.65663306       0.47708196       0.17852118 </v>
    <v>       0.69120102       0.47708196       0.36492059 </v>
    <v>       0.13934908       0.97708196       0.08532147 </v>
    <v>       0.17391704       0.97708196       0.27172089 </v>
   </varray>
  </structure>
  <varray name="forces" >
   <v>       0.38021844       0.00000000      -0.40095384 </v>
   <v>      -0.99791447       0.00000000      -1.43672294 </v>
   <v>      -0.32337566       0.00000000       1.12540856 </v>
   <v>       0.02877111       0.00000000       0.14276252 </v>
   <v>      -0.32862509       0.00000000       0.89943366 </v>
   <v>      -0.18875090       0.00000000       0.26754964 </v>
   <v>      -0.07579236       0.00000000      -0.13287081 </v>
   <v>      -1.14588089       0.00000000      -1.47985079 </v>
   <v>      -0.01737607       0.00000000      -0.01401706 </v>
   <v>       0.06264753       0.00000000       0.86688225 </v>
   <v>       0.06076151       0.00000000       0.64351138 </v>
   <v>      -0.27068320      -0.78173939       0.40793181 </v>
   <v>       0.70588572       0.67856119      -0.23424309 </v>
   <v>      -0.00502747       0.64680161       1.73872075 </v>
   <v>      -0.13667145      -0.24096222       0.03929342 </v>
   <v>      -0.21712426      -0.39127496      -2.04475654 </v>
   <v>      -0.24151421       0.49491711       1.61365328 </v>
   <v>       0.12371528       0.02743910       0.16990761 </v>
   <v>       0.19426678      -0.38022849      -0.33143651 </v>
   <v>       1.04582867       0.54615133      -0.20536067 </v>
   <v>      -0.07474679      -0.33781416      -0.17929700 </v>
   <v>      -0.12384952      -0.24768005      -1.86109071 </v>
   <v>       0.24898345      -0.39718772       0.89930442 </v>
   <v>       0.23334101      -0.07898186       0.38219671 </v>
   <v>      -0.27068320       0.78173939       0.40793181 </v>
   <v>       0.70588572      -0.67856119      -0.23424309 </v>
   <v>      -0.00502747      -0.64680161       1.73872075 </v>
   <v>      -0.13667145       0.24096222       0.03929342 </v>
   <v>      -0.21712426       0.39127496      -2.04475654 </v>
   <v>      -0.24151421      -0.49491711       1.61365328 </v>
   <v>       0.12371528      -0.02743910       0.16990761 </v>
   <v>       0.19426678       0.38022849      -0.33143651 </v>
   <v>       1.04582867      -0.54615133      -0.20536067 </v>
   <v>      -0.07474679       0.33781416      -0.17929700 </v>
   <v>      -0.12384952       0.24768005      -1.86109071 </v>
   <v>       0.24898345       0.39718772       0.89930442 </v>
   <v>       0.23334101       0.07898186       0.38219671 </v>
   <v>      -2.00520164       0.00000000      -1.16880941 </v>
   <v>      -0.24981889       0.00000000      -0.91387182 </v>
   <v>       0.36517489       0.00000000      -1.57061142 </v>
   <v>      -0.09453082       0.00000000       1.28408501 </v>
   <v>      -0.48710228       0.00000000      -0.92503679 </v>
   <v>       0.23487936       0.00000000       0.35945942 </v>
   <v>       1.27737254       0.00000000       0.33615801 </v>
   <v>      -0.15912527       0.00000000       0.07395175 </v>
   <v>      -2.00992820       0.00000000      -1.30058688 </v>
   <v>       1.23751956       0.00000000       0.13140832 </v>
   <v>      -0.22246352       0.00000000       1.18157975 </v>
   <v>      -0.58482098       0.00000000      -0.72632037 </v>
   <v>       0.01695192       0.00000000       0.07367689 </v>
   <v>       0.03816476       0.60243109       0.38599870 </v>
   <v>       0.16715483      -0.45566442       1.15229400 </v>
   <v>      -0.07665538      -0.16655253      -1.13164021 </v>
   <v>       0.38622929       0.04452888       0.85815718 </v>
   <v>       0.02270390      -0.24541061      -0.91134828 </v>
   <v>       0.01992796      -0.23513873       0.01835822 </v>
   <v>       0.05371188      -0.21893045       0.98382632 </v>
   <v>      -0.05916064       0.55839389       0.45033025 </v>
   <v>      -0.07615678       0.01730767       0.51662502 </v>
   <v>       0.33315960      -0.30860038       0.58698536 </v>
   <v>       0.06265453      -0.46208003      -0.64172483 </v>
   <v>       0.25906714      -0.89533052      -1.32079273 </v>
   <v>      -0.07665538       0.16655253      -1.13164021 </v>
   <v>       0.38622929      -0.04452888       0.85815718 </v>
   <v>       0.03816476      -0.60243109       0.38599870 </v>
   <v>       0.16715483       0.45566442       1.15229400 </v>
   <v>       0.05371188       0.21893045       0.98382632 </v>
   <v>      -0.05916064      -0.55839389       0.45033025 </v>
   <v>       0.02270390       0.24541061      -0.91134828 </v>
   <v>       0.01992796       0.23513873       0.01835822 </v>
   <v>       0.06265453       0.46208003      -0.64172483 </v>
   <v>       0.25906714       0.89533052      -1.32079273 </v>
   <v>      -0.07615678      -0.01730767       0.51662502 </v>
   <v>       0.33315960       0.30860038       0.58698536 </v>
  </varray>
  <varray name="stress" >
   <v>     -26.09572289       0.00000000      -7.65569793 </v>
   <v>       0.00000000     -25.41556324       0.00000000 </v>
   <v>      -7.65569771       0.00000000     -37.39462287 </v>
  </varray>
  <energy>
   <i name="e_fr_energy">   -353.68182772 </i>
   <i name="e_wo_entrp">   -352.26261709 </i>
   <i name="e_0_energy">   -352.97222241 </i>
  </energy>
  <time name="totalsc">  130.80  131.21</time>
  <eigenvalues>
   <array>
    <dimension dim="1">band</dimension>
    <dimension dim="2">kpoint</dimension>
    <dimension dim="3">spin</dimension>
    <field>eigene</field>
    <field>occ</field>
    <set>
     <set comment="spin 1">
      <set comment="kpoint 1">
       <r>  -64.4888    1.0000 </r>
       <r>  -64.4659    1.0000 </r>
       <r>  -64.4652    1.0000 </r>
       <r>  -64.4641    1.0000 </r>
       <r>  -64.4597    1.0000 </r>
       <r>  -64.4367    1.0000 </r>
       <r>  -64.4349    1.0000 </r>
       <r>  -64.4300    1.0000 </r>
       <r>  -64.4294    1.0000 </r>
       <r>  -64.4271    1.0000 </r>
       <r>  -64.4233    1.0000 </r>
       <r>  -64.3991    1.0000 </r>
       <r>  -64.3988    1.0000 </r>
       <r>  -64.3915    1.0000 </r>
       <r>  -64.3880    1.0000 </r>
       <r>  -64.3871    1.0000 </r>
       <r>  -64.3855    1.0000 </r>
       <r>  -64.3760    1.0000 </r>
       <r>  -64.3694    1.0000 </r>
       <r>  -64.3612    1.0000 </r>
       <r>  -64.3579    1.0000 </r>
       <r>  -64.3532    1.0000 </r>
       <r>  -64.3492    1.0000 </r>
       <r>  -64.3325    1.0000 </r>
       <r>  -64.3301    1.0000 </r>
       <r>  -64.3246    1.0000 </r>
       <r>  -64.3232    1.0000 </r>
       <r>  -64.3053    1.0000 </r>
       <r>  -64.3042    1.0000 </r>
       <r>  -64.3029    1.0000 </r>
       <r>  -64.2929    1.0000 </r>
       <r>  -64.2814    1.0000 </r>
       <r>  -64.2769    1.0000 </r>
       <r>  -64.2754    1.0000 </r>
       <r>  -64.2652    1.0000 </r>
       <r>  -64.2501    1.0000 </r>
       <r>  -64.2424    1.0000 </r>
       <r>  -64.2401    1.0000 </r>
       <r>  -64.2309    1.0000 </r>
       <r>  -64.2021    1.0000 </r>
       <r>  -64.1900    1.0000 </r>
       <r>  -64.1827    1.0000 </r>
       <r>  -64.1821    1.0000 </r>
       <r>  -64.1772    1.0000 </r>
       <r>  -64.1768    1.0000 </r>
       <r>  -64.1705    1.0000 </r>
       <r>  -64.1687    1.0000 </r>
       <r>  -64.1675    1.0000 </r>
       <r>  -64.1666    1.0000 </r>
       <r>  -64.1542    1.0000 </r>
       <r>  -64.1168    1.0000 </r>
       <r>  -64.1022    1.0000 </r>
       <r>  -64.0991    1.0000 </r>
       <r>  -64.0965    1.0000 </r>
       <r>  -64.0932    1.0000 </r>
       <r>  -64.0796    1.0000 </r>
       <r>  -64.0645    1.0000 </r>
       <r>  -64.0423    1.0000 </r>
       <r>  -64.0419    1.0000 </r>
       <r>  -64.0117    1.0000 </r>
       <r>  -63.9713    1.0000 </r>
       <r>  -63.9490    1.0000 </r>
       <r>  -63.9402    1.0000 </r>
       <r>  -63.9321    1.0000 </r>
       <r>  -63.9086    1.0000 </r>
       <r>  -63.9016    1.0000 </r>
       <r>  -63.8736    1.0000 </r>
       <r>  -63.8278    1.0000 </r>
       <r>  -63.8225    1.0000 </r>
       <r>  -63.8057    1.0000 </r>
       <r>  -63.7929    1.0000 </r>
       <r>  -63.7612    1.0000 </r>
       <r>  -63.7290    1.0000 </r>
       <r>  -63.7276    1.0000 </r>
       <r>  -63.7136    1.0000 </r>
       <r>  -63.7064    1.0000 </r>
       <r>  -63.7046    1.0000 </r>
       <r>  -63.6908    1.0000 </r>
       <r>  -63.6825    1.0000 </r>
       <r>  -63.6728    1.0000 </r>
       <r>  -63.6667    1.0000 </r>
       <r>  -63.6564    1.0000 </r>
       <r>  -63.6314    1.0000 </r>
       <r>  -63.6157    1.0000 </r>
       <r>  -63.5841    1.0000 </r>
       <r>  -63.5298    1.0000 </r>
       <r>  -63.5239    1.0000 </r>
       <r>  -63.5053    1.0000 </r>
       <r>  -63.5001    1.0000 </r>
       <r>  -63.4828    1.0000 </r>
       <r>  -63.4648    1.0000 </r>
       <r>  -63.4489    1.0000 </r>
       <r>  -63.4470    1.0000 </r>
       <r>  -63.4087    1.0000 </r>
       <r>  -63.3526    1.0000 </r>
       <r>  -63.3519    1.0000 </r>
       <r>  -63.3470    1.0000 </r>
       <r>  -63.3427    1.0000 </r>
       <r>  -63.3063    1.0000 </r>
       <r>  -63.2184    1.0000 </r>
       <r>  -63.2042    1.0000 </r>
       <r>  -63.2001    1.0000 </r>
       <r>  -63.1900    1.0000 </r>
       <r>  -63.1524    1.0000 </r>
       <r>  -63.1137    1.0000 </r>
       <r>  -63.1084    1.0000 </r>
       <r>  -63.0799    1.0000 </r>
       <r>  -63.0771    1.0000 </r>
       <r>  -63.0725    1.0000 </r>
       <r>  -63.0511    1.0000 </r>
       <r>  -63.0326    1.0000 </r>
       <r>  -15.3184    1.0000 </r>
       <r>  -15.0624    1.0000 </r>
       <r>  -14.9760    1.0000 </r>
       <r>  -14.5979    1.0000 </r>
       <r>  -14.5315    1.0000 </r>
       <r>  -14.3867    1.0000 </r>
       <r>  -14.3262    1.0000 </r>
       <r>  -14.2747    1.0000 </r>
       <r>  -14.1856    1.0000 </r>
       <r>  -14.1358    1.0000 </r>
       <r>  -14.0530    1.0000 </r>
       <r>  -14.0233    1.0000 </r>
       <r>  -13.8629    1.0000 </r>
       <r>  -13.8497    1.0000 </r>
       <r>  -13.8051    1.0000 </r>
       <r>  -13.7672    1.0000 </r>
       <r>  -13.6892    1.0000 </r>
       <r>  -13.5604    1.0000 </r>
       <r>  -13.4757    1.0000 </r>
       <r>  -13.3582    1.0000 </r>
       <r>  -13.3504    1.0000 </r>
       <r>  -13.1999    1.0000 </r>
       <r>  -13.1665    1.0000 </r>
       <r>  -13.0849    1.0000 </r>
       <r>  -13.0149    1.0000 </r>
       <r>  -12.9399    1.0000 </r>
       <r>  -12.8513    1.0000 </r>
       <r>  -12.7508    1.0000 </r>
       <r>  -12.6967    1.0000 </r>
       <r>  -12.6412    1.0000 </r>
       <r>  -12.5127    1.0000 </r>
       <r>  -12.5088    1.0000 </r>
       <r>  -12.4834    1.0000 </r>
       <r>  -12.1698    1.0000 </r>
       <r>  -11.9011    1.0000 </r>
       <r>  -11.8449    1.0000 </r>
       <r>  -11.7715    1.0000 </r>
       <r>   -7.0781    1.0000 </r>
       <r>   -7.0640    1.0000 </r>
       <r>   -6.9799    1.0000 </r>
       <r>   -6.9548    1.0000 </r>
       <r>   -6.8785    1.0000 </r>
       <r>   -6.6682    1.0000 </r>
       <r>   -6.5418    1.0000 </r>
       <r>   -6.5205    1.0000 </r>
       <r>   -6.4768    1.0000 </r>
       <r>   -6.4665    1.0000 </r>
       <r>   -6.4134    1.0000 </r>
       <r>   -6.4058    1.0000 </r>
       <r>   -6.3437    1.0000 </r>
       <r>   -6.2658    1.0000 </r>
       <r>   -6.1695    1.0000 </r>
       <r>   -6.1299    1.0000 </r>
       <r>   -6.0877    1.0000 </r>
       <r>   -6.0791    1.0000 </r>
       <r>   -6.0270    1.0000 </r>
       <r>   -6.0176    1.0000 </r>
       <r>   -5.8889    1.0000 </r>
       <r>   -5.8740    1.0000 </r>
       <r>   -5.8634    1.0000 </r>
       <r>   -5.8615    1.0000 </r>
       <r>   -5.7416    1.0000 </r>
       <r>   -5.6830    1.0000 </r>
       <r>   -5.6666    1.0000 </r>
       <r>   -5.6641    1.0000 </r>
       <r>   -5.6214    1.0000 </r>
       <r>   -5.5958    1.0000 </r>
       <r>   -5.5600    1.0000 </r>
       <r>   -5.4683    1.0000 </r>
       <r>   -5.4218    1.0000 </r>
       <r>   -5.3848    1.0000 </r>
       <r>   -5.3655    1.0000 </r>
       <r>   -5.3422    1.0000 </r>
       <r>   -5.2869    1.0000 </r>
       <r>   -5.2064    1.0000 </r>
       <r>   -5.1782    1.0000 </r>
       <r>   -5.1420    1.0000 </r>
       <r>   -5.0923    1.0000 </r>
       <r>   -5.0380    1.0000 </r>
       <r>   -4.9708    1.0000 </r>
       <r>   -4.9473    1.0000 </r>
       <r>   -4.8776    1.0000 </r>
       <r>   -4.8383    1.0000 </r>
       <r>   -4.7997    1.0000 </r>
       <r>   -4.7406    1.0000 </r>
       <r>   -4.7266    1.0000 </r>
       <r>   -4.7018    1.0000 </r>
       <r>   -4.6864    1.0000 </r>
       <r>   -4.6209    1.0000 </r>
       <r>   -4.6044    1.0000 </r>
       <r>   -4.5763    1.0000 </r>
       <r>   -4.5544    1.0000 </r>
       <r>   -4.5352    1.0000 </r>
       <r>   -4.5022    1.0000 </r>
       <r>   -4.4561    1.0000 </r>
       <r>   -4.4462    1.0000 </r>
       <r>   -4.3872    1.0000 </r>
       <r>   -4.3202    1.0000 </r>
       <r>   -4.2966    1.0000 </r>
       <r>   -4.2475    1.0000 </r>
       <r>   -4.2129    1.0000 </r>
       <r>   -4.1733    1.0000 </r>
       <r>   -4.1606    1.0000 </r>
       <r>   -4.1156    1.0000 </r>
       <r>   -4.0940    1.0000 </r>
       <r>   -4.0578    1.0000 </r>
       <r>   -4.0178    1.0000 </r>
       <r>   -4.0163    1.0000 </r>
       <r>   -4.0083    1.0000 </r>
       <r>   -3.9571    1.0000 </r>
       <r>   -3.9164    1.0000 </r>
       <r>   -3.9086    1.0000 </r>
       <r>   -3.8844    1.0000 </r>
       <r>   -3.8693    1.0000 </r>
       <r>   -3.7542    1.0000 </r>
       <r>   -3.7432    1.0000 </r>
       <r>   -3.7210    1.0000 </r>
       <r>   -3.7149    1.0000 </r>
       <r>   -3.6623    1.0000 </r>
       <r>   -3.6056    1.0000 </r>
       <r>   -3.5950    1.0000 </r>
       <r>   -3.5771    1.0000 </r>
       <r>   -3.5076    1.0000 </r>
       <r>   -3.4623    1.0000 </r>
       <r>   -3.4621    1.0000 </r>
       <r>   -3.4070    1.0000 </r>
       <r>   -3.3878    1.0000 </r>
       <r>   -3.3766    1.0000 </r>
       <r>   -3.3032    1.0000 </r>
       <r>   -3.2897    1.0000 </r>
       <r>   -3.2767    1.0000 </r>
       <r>   -3.2348    1.0000 </r>
       <r>   -3.2029    1.0000 </r>
       <r>   -3.1838    1.0000 </r>
       <r>   -3.1406    1.0000 </r>
       <r>   -3.1019    1.0000 </r>
       <r>   -3.0806    1.0000 </r>
       <r>   -3.0647    1.0000 </r>
       <r>   -2.9461    1.0000 </r>
       <r>   -2.9238    1.0000 </r>
       <r>   -2.9170    1.0000 </r>
       <r>   -2.9136    1.0000 </r>
       <r>   -2.8951    1.0000 </r>
       <r>   -2.8234    1.0000 </r>
       <r>   -2.8188    1.0000 </r>
       <r>   -2.7520    1.0000 </r>
       <r>   -2.7439    1.0000 </r>
       <r>   -2.7310    1.0000 </r>
       <r>   -2.7232    1.0000 </r>
       <r>   -2.6909    1.0000 </r>
       <r>   -2.6662    1.0000 </r>
       <r>   -2.5908    1.0000 </r>
       <r>   -2.5840    1.0000 </r>
       <r>   -2.5731    1.0000 </r>
       <r>   -2.5591    1.0000 </r>
       <r>   -2.5320    1.0000 </r>
       <r>   -2.5116    1.0000 </r>
       <r>   -2.4912    1.0000 </r>
       <r>   -2.4696    1.0000 </r>
       <r>   -2.4436    1.0000 </r>
       <r>   -2.4305    1.0000 </r>
       <r>   -2.4117    1.0000 </r>
       <r>   -2.3844    1.0000 </r>
       <r>   -2.3749    1.0000 </r>
       <r>   -2.3713    1.0000 </r>
       <r>   -2.3482    1.0000 </r>
       <r>   -2.3367    1.0000 </r>
       <r>   -2.3091    1.0000 </r>
       <r>   -2.3061    1.0000 </r>
       <r>   -2.2805    1.0000 </r>
       <r>   -2.2544    1.0000 </r>
       <r>   -2.2428    1.0000 </r>
       <r>   -2.2388    1.0000 </r>
       <r>   -2.2349    1.0000 </r>
       <r>   -2.2198    1.0000 </r>
       <r>   -2.1980    1.0000 </r>
       <r>   -2.1941    1.0000 </r>
       <r>   -2.1770    1.0000 </r>
       <r>   -2.1532    1.0000 </r>
       <r>   -2.1489    1.0000 </r>
       <r>   -2.1264    1.0000 </r>
       <r>   -2.1049    1.0000 </r>
       <r>   -2.0981    1.0000 </r>
       <r>   -2.0669    1.0000 </r>
       <r>   -2.0630    1.0000 </r>
       <r>   -2.0620    1.0000 </r>
       <r>   -2.0327    1.0000 </r>
       <r>   -2.0027    1.0000 </r>
       <r>   -1.9902    1.0000 </r>
       <r>   -1.9881    1.0000 </r>
       <r>   -1.9786    1.0000 </r>
       <r>   -1.9749    1.0000 </r>
       <r>   -1.9639    1.0000 </r>
       <r>   -1.9558    1.0000 </r>
       <r>   -1.9474    1.0000 </r>
       <r>   -1.9361    1.0000 </r>
       <r>   -1.9352    1.0000 </r>
       <r>   -1.9223    1.0000 </r>
       <r>   -1.9082    1.0000 </r>
       <r>   -1.9014    1.0000 </r>
       <r>   -1.8926    1.0000 </r>
       <r>   -1.8804    1.0000 </r>
       <r>   -1.8789    1.0000 </r>
       <r>   -1.8700    1.0000 </r>
       <r>   -1.8546    1.0000 </r>
       <r>   -1.8508    1.0000 </r>
       <r>   -1.8332    1.0000 </r>
       <r>   -1.8324    1.0000 </r>
       <r>   -1.8193    1.0000 </r>
       <r>   -1.8049    1.0000 </r>
       <r>   -1.7827    1.0000 </r>
       <r>   -1.7812    1.0000 </r>
       <r>   -1.7681    1.0000 </r>
       <r>   -1.7415    1.0000 </r>
       <r>   -1.7349    1.0000 </r>
       <r>   -1.7330    1.0000 </r>
       <r>   -1.7294    1.0000 </r>
       <r>   -1.7088    1.0000 </r>
       <r>   -1.7017    1.0000 </r>
       <r>   -1.6829    1.0000 </r>
       <r>   -1.6694    1.0000 </r>
       <r>   -1.6529    1.0000 </r>
       <r>   -1.6470    1.0000 </r>
       <r>   -1.6344    1.0000 </r>
       <r>   -1.6268    1.0000 </r>
       <r>   -1.6059    1.0000 </r>
       <r>   -1.5934    1.0000 </r>
       <r>   -1.5808    1.0000 </r>
       <r>   -1.5549    1.0000 </r>
       <r>   -1.5479    1.0000 </r>
       <r>   -1.5447    1.0000 </r>
       <r>   -1.5217    1.0000 </r>
       <r>   -1.5133    1.0000 </r>
       <r>   -1.4949    1.0000 </r>
       <r>   -1.4943    1.0000 </r>
       <r>   -1.4881    1.0000 </r>
       <r>   -1.4660    1.0000 </r>
       <r>   -1.4571    1.0000 </r>
       <r>   -1.4481    1.0000 </r>
       <r>   -1.4269    1.0000 </r>
       <r>   -1.4064    1.0000 </r>
       <r>   -1.3924    1.0000 </r>
       <r>   -1.3836    1.0000 </r>
       <r>   -1.3626    1.0000 </r>
       <r>   -1.3535    1.0000 </r>
       <r>   -1.3498    1.0000 </r>
       <r>   -1.3048    1.0000 </r>
       <r>   -1.3006    1.0000 </r>
       <r>   -1.2953    1.0000 </r>
       <r>   -1.2499    1.0000 </r>
       <r>   -1.2473    1.0000 </r>
       <r>   -1.2067    1.0000 </r>
       <r>   -1.2060    1.0000 </r>
       <r>   -1.1927    1.0000 </r>
       <r>   -1.1772    1.0000 </r>
       <r>   -1.1702    1.0000 </r>
       <r>   -1.1370    1.0000 </r>
       <r>   -1.1278    1.0000 </r>
       <r>   -1.1047    1.0000 </r>
       <r>   -1.0690    1.0000 </r>
       <r>   -1.0674    1.0000 </r>
       <r>   -1.0383    1.0000 </r>
       <r>   -1.0144    1.0000 </r>
       <r>   -1.0083    1.0000 </r>
       <r>   -0.9910    1.0000 </r>
       <r>   -0.9871    1.0000 </r>
       <r>   -0.9766    1.0000 </r>
       <r>   -0.9742    1.0000 </r>
       <r>   -0.9578    1.0000 </r>
       <r>   -0.9452    1.0000 </r>
       <r>   -0.9141    1.0000 </r>
       <r>   -0.9074    1.0000 </r>
       <r>   -0.9027    1.0000 </r>
       <r>   -0.8385    0.9998 </r>
       <r>   -0.8344    0.9998 </r>
       <r>   -0.8294    0.9997 </r>
       <r>   -0.8073    0.9995 </r>
       <r>   -0.7913    0.9993 </r>
       <r>   -0.7666    0.9987 </r>
       <r>   -0.7438    0.9979 </r>
       <r>   -0.7321    0.9973 </r>
       <r>   -0.7074    0.9954 </r>
       <r>   -0.6841    0.9926 </r>
       <r>   -0.6768    0.9915 </r>
       <r>   -0.6418    0.9839 </r>
       <r>   -0.5971    0.9660 </r>
       <r>   -0.5938    0.9642 </r>
       <r>   -0.5587    0.9398 </r>
       <r>   -0.5234    0.9038 </r>
       <r>   -0.5165    0.8952 </r>
       <r>   -0.4859    0.8504 </r>
       <r>   -0.4686    0.8203 </r>
       <r>   -0.4312    0.7428 </r>
       <r>   -0.4187    0.7135 </r>
       <r>   -0.4128    0.6990 </r>
       <r>   -0.3642    0.5707 </r>
       <r>   -0.3399    0.5023 </r>
       <r>   -0.2766    0.3293 </r>
       <r>   -0.2662    0.3032 </r>
       <r>   -0.2436    0.2500 </r>
       <r>   -0.2377    0.2368 </r>
       <r>   -0.1983    0.1597 </r>
       <r>   -0.1705    0.1166 </r>
       <r>   -0.0904    0.0394 </r>
       <r>   -0.0564    0.0228 </r>
       <r>    0.0127    0.0064 </r>
       <r>    0.0170    0.0059 </r>
       <r>    0.0352    0.0041 </r>
       <r>    0.0879    0.0013 </r>
       <r>    0.1196    0.0006 </r>
       <r>    0.1345    0.0004 </r>
       <r>    0.2248    0.0000 </r>
       <r>    0.2299    0.0000 </r>
       <r>    0.2701    0.0000 </r>
       <r>    0.2708    0.0000 </r>
       <r>    0.3226    0.0000 </r>
       <r>    0.3607    0.0000 </r>
       <r>    0.3740    0.0000 </r>
       <r>    0.4757    0.0000 </r>
       <r>    0.4877    0.0000 </r>
       <r>    0.4976    0.0000 </r>
       <r>    0.5442    0.0000 </r>
       <r>    0.5726    0.0000 </r>
       <r>    0.6334    0.0000 </r>
       <r>    0.6809    0.0000 </r>
       <r>    0.6985    0.0000 </r>
       <r>    0.7210    0.0000 </r>
       <r>    0.7607    0.0000 </r>
       <r>    0.7811    0.0000 </r>
       <r>    0.8044    0.0000 </r>
       <r>    0.8335    0.0000 </r>
       <r>    0.8463    0.0000 </r>
       <r>    0.8713    0.0000 </r>
       <r>    0.8748    0.0000 </r>
       <r>    1.0648    0.0000 </r>
       <r>    1.0734    0.0000 </r>
       <r>    1.4652    0.0000 </r>
       <r>    1.5025    0.0000 </r>
       <r>    1.6328    0.0000 </r>
       <r>    2.3031    0.0000 </r>
       <r>    2.3715    0.0000 </r>
       <r>    2.4296    0.0000 </r>
       <r>    2.5934    0.0000 </r>
       <r>    2.7284    0.0000 </r>
       <r>    3.1156    0.0000 </r>
       <r>    3.6716    0.0000 </r>
       <r>    3.7554    0.0000 </r>
       <r>    3.7711    0.0000 </r>
       <r>    3.8529    0.0000 </r>
       <r>    4.0158    0.0000 </r>
       <r>    4.0487    0.0000 </r>
       <r>    4.1162    0.0000 </r>
       <r>    4.1282    0.0000 </r>
       <r>    4.1764    0.0000 </r>
       <r>    4.3130    0.0000 </r>
       <r>    4.3461    0.0000 </r>
       <r>    4.4185    0.0000 </r>
       <r>    4.4528    0.0000 </r>
       <r>    4.5147    0.0000 </r>
       <r>    4.5307    0.0000 </r>
       <r>    4.6386    0.0000 </r>
       <r>    4.7118    0.0000 </r>
       <r>    4.7639    0.0000 </r>
       <r>    4.8942    0.0000 </r>
       <r>    4.9080    0.0000 </r>
       <r>    4.9719    0.0000 </r>
       <r>    4.9790    0.0000 </r>
       <r>    5.0349    0.0000 </r>
       <r>    5.1475    0.0000 </r>
       <r>    5.1620    0.0000 </r>
       <r>    5.2185    0.0000 </r>
       <r>    5.3131    0.0000 </r>
       <r>    5.3588    0.0000 </r>
       <r>    5.3951    0.0000 </r>
       <r>    5.4152    0.0000 </r>
       <r>    5.4201    0.0000 </r>
       <r>    5.4603    0.0000 </r>
      </set>
     </set>
    </set>
   </array>
  </eigenvalues>
  <separator name="orbital magnetization" >
   <v name="MAGDIPOLOUT">      0.00000000      0.00000000      0.00000000</v>
  </separator>
  <dos>
   <i name="efermi">     -0.33903934 </i>
   <total>
    <array>
     <dimension dim="1">gridpoints</dimension>
     <dimension dim="2">spin</dimension>
     <field>energy</field>
     <field>total</field>
     <field>integrated</field>
     <set>
      <set comment="spin 1">
       <r>   -67.9863     0.0000     0.0000 </r>
       <r>   -67.7298     0.0000     0.0000 </r>
       <r>   -67.4733     0.0000     0.0000 </r>
       <r>   -67.2169     0.0000     0.0000 </r>
       <r>   -66.9604     0.0000     0.0000 </r>
       <r>   -66.7039     0.0000     0.0000 </r>
       <r>   -66.4474     0.0000     0.0000 </r>
       <r>   -66.1909     0.0000     0.0000 </r>
       <r>   -65.9345     0.0000     0.0000 </r>
       <r>   -65.6780     0.0000     0.0000 </r>
       <r>   -65.4215     0.0000     0.0000 </r>
       <r>   -65.1650     0.0000     0.0000 </r>
       <r>   -64.9085     0.0643     0.0165 </r>
       <r>   -64.6521     9.7321     2.5126 </r>
       <r>   -64.3956   121.5303    33.6827 </r>
       <r>   -64.1391   229.2087    92.4702 </r>
       <r>   -63.8826   151.2118   131.2531 </r>
       <r>   -63.6261   120.2963   162.1067 </r>
       <r>   -63.3697   104.6263   188.9413 </r>
       <r>   -63.1132    82.2435   210.0351 </r>
       <r>   -62.8567    42.8043   221.0136 </r>
       <r>   -62.6002     3.8197   221.9933 </r>
       <r>   -62.3437     0.0263   222.0000 </r>
       <r>   -62.0873     0.0000   222.0000 </r>
       <r>   -61.8308     0.0000   222.0000 </r>
       <r>   -61.5743     0.0000   222.0000 </r>
       <r>   -61.3178     0.0000   222.0000 </r>
       <r>   -61.0613     0.0000   222.0000 </r>
       <r>   -60.8049     0.0000   222.0000 </r>
       <r>   -60.5484     0.0000   222.0000 </r>
       <r>   -60.2919     0.0000   222.0000 </r>
       <r>   -60.0354     0.0000   222.0000 </r>
       <r>   -59.7789     0.0000   222.0000 </r>
       <r>   -59.5225     0.0000   222.0000 </r>
       <r>   -59.2660     0.0000   222.0000 </r>
       <r>   -59.0095     0.0000   222.0000 </r>
       <r>   -58.7530     0.0000   222.0000 </r>
       <r>   -58.4965     0.0000   222.0000 </r>
       <r>   -58.2401     0.0000   222.0000 </r>
       <r>   -57.9836     0.0000   222.0000 </r>
       <r>   -57.7271     0.0000   222.0000 </r>
       <r>   -57.4706     0.0000   222.0000 </r>
       <r>   -57.2141     0.0000   222.0000 </r>
       <r>   -56.9577     0.0000   222.0000 </r>
       <r>   -56.7012     0.0000   222.0000 </r>
       <r>   -56.4447     0.0000   222.0000 </r>
       <r>   -56.1882     0.0000   222.0000 </r>
       <r>   -55.9317     0.0000   222.0000 </r>
       <r>   -55.6753     0.0000   222.0000 </r>
       <r>   -55.4188     0.0000   222.0000 </r>
       <r>   -55.1623     0.0000   222.0000 </r>
       <r>   -54.9058     0.0000   222.0000 </r>
       <r>   -54.6493     0.0000   222.0000 </r>
       <r>   -54.3929     0.0000   222.0000 </r>
       <r>   -54.1364     0.0000   222.0000 </r>
       <r>   -53.8799     0.0000   222.0000 </r>
       <r>   -53.6234     0.0000   222.0000 </r>
       <r>   -53.3669     0.0000   222.0000 </r>
       <r>   -53.1104     0.0000   222.0000 </r>
       <r>   -52.8540     0.0000   222.0000 </r>
       <r>   -52.5975     0.0000   222.0000 </r>
       <r>   -52.3410     0.0000   222.0000 </r>
       <r>   -52.0845     0.0000   222.0000 </r>
       <r>   -51.8280     0.0000   222.0000 </r>
       <r>   -51.5716     0.0000   222.0000 </r>
       <r>   -51.3151     0.0000   222.0000 </r>
       <r>   -51.0586     0.0000   222.0000 </r>
       <r>   -50.8021     0.0000   222.0000 </r>
       <r>   -50.5456     0.0000   222.0000 </r>
       <r>   -50.2892     0.0000   222.0000 </r>
       <r>   -50.0327     0.0000   222.0000 </r>
       <r>   -49.7762     0.0000   222.0000 </r>
       <r>   -49.5197     0.0000   222.0000 </r>
       <r>   -49.2632     0.0000   222.0000 </r>
       <r>   -49.0068     0.0000   222.0000 </r>
       <r>   -48.7503     0.0000   222.0000 </r>
       <r>   -48.4938     0.0000   222.0000 </r>
       <r>   -48.2373     0.0000   222.0000 </r>
       <r>   -47.9808     0.0000   222.0000 </r>
       <r>   -47.7244     0.0000   222.0000 </r>
       <r>   -47.4679     0.0000   222.0000 </r>
       <r>   -47.2114     0.0000   222.0000 </r>
       <r>   -46.9549     0.0000   222.0000 </r>
       <r>   -46.6984     0.0000   222.0000 </r>
       <r>   -46.4420     0.0000   222.0000 </r>
       <r>   -46.1855     0.0000   222.0000 </r>
       <r>   -45.9290     0.0000   222.0000 </r>
       <r>   -45.6725     0.0000   222.0000 </r>
       <r>   -45.4160     0.0000   222.0000 </r>
       <r>   -45.1596     0.0000   222.0000 </r>
       <r>   -44.9031     0.0000   222.0000 </r>
       <r>   -44.6466     0.0000   222.0000 </r>
       <r>   -44.3901     0.0000   222.0000 </r>
       <r>   -44.1336     0.0000   222.0000 </r>
       <r>   -43.8772     0.0000   222.0000 </r>
       <r>   -43.6207     0.0000   222.0000 </r>
       <r>   -43.3642     0.0000   222.0000 </r>
       <r>   -43.1077     0.0000   222.0000 </r>
       <r>   -42.8512     0.0000   222.0000 </r>
       <r>   -42.5948     0.0000   222.0000 </r>
       <r>   -42.3383     0.0000   222.0000 </r>
       <r>   -42.0818     0.0000   222.0000 </r>
       <r>   -41.8253     0.0000   222.0000 </r>
       <r>   -41.5688     0.0000   222.0000 </r>
       <r>   -41.3124     0.0000   222.0000 </r>
       <r>   -41.0559     0.0000   222.0000 </r>
       <r>   -40.7994     0.0000   222.0000 </r>
       <r>   -40.5429     0.0000   222.0000 </r>
       <r>   -40.2864     0.0000   222.0000 </r>
       <r>   -40.0300     0.0000   222.0000 </r>
       <r>   -39.7735     0.0000   222.0000 </r>
       <r>   -39.5170     0.0000   222.0000 </r>
       <r>   -39.2605     0.0000   222.0000 </r>
       <r>   -39.0040     0.0000   222.0000 </r>
       <r>   -38.7476     0.0000   222.0000 </r>
       <r>   -38.4911     0.0000   222.0000 </r>
       <r>   -38.2346     0.0000   222.0000 </r>
       <r>   -37.9781     0.0000   222.0000 </r>
       <r>   -37.7216     0.0000   222.0000 </r>
       <r>   -37.4652     0.0000   222.0000 </r>
       <r>   -37.2087     0.0000   222.0000 </r>
       <r>   -36.9522     0.0000   222.0000 </r>
       <r>   -36.6957     0.0000   222.0000 </r>
       <r>   -36.4392     0.0000   222.0000 </r>
       <r>   -36.1827     0.0000   222.0000 </r>
       <r>   -35.9263     0.0000   222.0000 </r>
       <r>   -35.6698     0.0000   222.0000 </r>
       <r>   -35.4133     0.0000   222.0000 </r>
       <r>   -35.1568     0.0000   222.0000 </r>
       <r>   -34.9003     0.0000   222.0000 </r>
       <r>   -34.6439     0.0000   222.0000 </r>
       <r>   -34.3874     0.0000   222.0000 </r>
       <r>   -34.1309     0.0000   222.0000 </r>
       <r>   -33.8744     0.0000   222.0000 </r>
       <r>   -33.6179     0.0000   222.0000 </r>
       <r>   -33.3615     0.0000   222.0000 </r>
       <r>   -33.1050     0.0000   222.0000 </r>
       <r>   -32.8485     0.0000   222.0000 </r>
       <r>   -32.5920     0.0000   222.0000 </r>
       <r>   -32.3355     0.0000   222.0000 </r>
       <r>   -32.0791     0.0000   222.0000 </r>
       <r>   -31.8226     0.0000   222.0000 </r>
       <r>   -31.5661     0.0000   222.0000 </r>
       <r>   -31.3096     0.0000   222.0000 </r>
       <r>   -31.0531     0.0000   222.0000 </r>
       <r>   -30.7967     0.0000   222.0000 </r>
       <r>   -30.5402     0.0000   222.0000 </r>
       <r>   -30.2837     0.0000   222.0000 </r>
       <r>   -30.0272     0.0000   222.0000 </r>
       <r>   -29.7707     0.0000   222.0000 </r>
       <r>   -29.5143     0.0000   222.0000 </r>
       <r>   -29.2578     0.0000   222.0000 </r>
       <r>   -29.0013     0.0000   222.0000 </r>
       <r>   -28.7448     0.0000   222.0000 </r>
       <r>   -28.4883     0.0000   222.0000 </r>
       <r>   -28.2319     0.0000   222.0000 </r>
       <r>   -27.9754     0.0000   222.0000 </r>
       <r>   -27.7189     0.0000   222.0000 </r>
       <r>   -27.4624     0.0000   222.0000 </r>
       <r>   -27.2059     0.0000   222.0000 </r>
       <r>   -26.9495     0.0000   222.0000 </r>
       <r>   -26.6930     0.0000   222.0000 </r>
       <r>   -26.4365     0.0000   222.0000 </r>
       <r>   -26.1800     0.0000   222.0000 </r>
       <r>   -25.9235     0.0000   222.0000 </r>
       <r>   -25.6671     0.0000   222.0000 </r>
       <r>   -25.4106     0.0000   222.0000 </r>
       <r>   -25.1541     0.0000   222.0000 </r>
       <r>   -24.8976     0.0000   222.0000 </r>
       <r>   -24.6411     0.0000   222.0000 </r>
       <r>   -24.3847     0.0000   222.0000 </r>
       <r>   -24.1282     0.0000   222.0000 </r>
       <r>   -23.8717     0.0000   222.0000 </r>
       <r>   -23.6152     0.0000   222.0000 </r>
       <r>   -23.3587     0.0000   222.0000 </r>
       <r>   -23.1023     0.0000   222.0000 </r>
       <r>   -22.8458     0.0000   222.0000 </r>
       <r>   -22.5893     0.0000   222.0000 </r>
       <r>   -22.3328     0.0000   222.0000 </r>
       <r>   -22.0763     0.0000   222.0000 </r>
       <r>   -21.8199     0.0000   222.0000 </r>
       <r>   -21.5634     0.0000   222.0000 </r>
       <r>   -21.3069     0.0000   222.0000 </r>
       <r>   -21.0504     0.0000   222.0000 </r>
       <r>   -20.7939     0.0000   222.0000 </r>
       <r>   -20.5375     0.0000   222.0000 </r>
       <r>   -20.2810     0.0000   222.0000 </r>
       <r>   -20.0245     0.0000   222.0000 </r>
       <r>   -19.7680     0.0000   222.0000 </r>
       <r>   -19.5115     0.0000   222.0000 </r>
       <r>   -19.2550     0.0000   222.0000 </r>
       <r>   -18.9986     0.0000   222.0000 </r>
       <r>   -18.7421     0.0000   222.0000 </r>
       <r>   -18.4856     0.0000   222.0000 </r>
       <r>   -18.2291     0.0000   222.0000 </r>
       <r>   -17.9726     0.0000   222.0000 </r>
       <r>   -17.7162     0.0000   222.0000 </r>
       <r>   -17.4597     0.0000   222.0000 </r>
       <r>   -17.2032     0.0000   222.0000 </r>
       <r>   -16.9467     0.0000   222.0000 </r>
       <r>   -16.6902     0.0000   222.0000 </r>
       <r>   -16.4338     0.0000   222.0000 </r>
       <r>   -16.1773     0.0000   222.0000 </r>
       <r>   -15.9208     0.0001   222.0000 </r>
       <r>   -15.6643     0.0563   222.0145 </r>
       <r>   -15.4078     2.0641   222.5439 </r>
       <r>   -15.1514     7.6538   224.5069 </r>
       <r>   -14.8949    10.6603   227.2411 </r>
       <r>   -14.6384     8.1008   229.3188 </r>
       <r>   -14.3819    18.3717   234.0307 </r>
       <r>   -14.1254    27.5696   241.1018 </r>
       <r>   -13.8690    29.4750   248.6615 </r>
       <r>   -13.6125    28.5235   255.9773 </r>
       <r>   -13.3560    23.2313   261.9356 </r>
       <r>   -13.0995    25.8245   268.5591 </r>
       <r>   -12.8430    25.9868   275.2242 </r>
       <r>   -12.5866    27.1789   282.1951 </r>
       <r>   -12.3301    20.8332   287.5384 </r>
       <r>   -12.0736     9.0400   289.8570 </r>
       <r>   -11.8171    13.5711   293.3377 </r>
       <r>   -11.5606     9.6143   295.8035 </r>
       <r>   -11.3042     0.7616   295.9989 </r>
       <r>   -11.0477     0.0043   296.0000 </r>
       <r>   -10.7912     0.0000   296.0000 </r>
       <r>   -10.5347     0.0000   296.0000 </r>
       <r>   -10.2782     0.0000   296.0000 </r>
       <r>   -10.0218     0.0000   296.0000 </r>
       <r>    -9.7653     0.0000   296.0000 </r>
       <r>    -9.5088     0.0000   296.0000 </r>
       <r>    -9.2523     0.0000   296.0000 </r>
       <r>    -8.9958     0.0000   296.0000 </r>
       <r>    -8.7394     0.0000   296.0000 </r>
       <r>    -8.4829     0.0000   296.0000 </r>
       <r>    -8.2264     0.0000   296.0000 </r>
       <r>    -7.9699     0.0000   296.0000 </r>
       <r>    -7.7134     0.0000   296.0000 </r>
       <r>    -7.4570     0.0546   296.0140 </r>
       <r>    -7.2005     3.6332   296.9459 </r>
       <r>    -6.9440    20.5897   302.2267 </r>
       <r>    -6.6875    20.6220   307.5159 </r>
       <r>    -6.4310    33.3468   316.0687 </r>
       <r>    -6.1746    40.3667   326.4219 </r>
       <r>    -5.9181    44.6514   337.8741 </r>
       <r>    -5.6616    48.3833   350.2835 </r>
       <r>    -5.4051    48.6248   362.7548 </r>
       <r>    -5.1486    44.7651   374.2362 </r>
       <r>    -4.8922    42.9662   385.2561 </r>
       <r>    -4.6357    55.3260   399.4462 </r>
       <r>    -4.3792    59.7420   414.7688 </r>
       <r>    -4.1227    57.7175   429.5722 </r>
       <r>    -3.8662    66.0215   446.5054 </r>
       <r>    -3.6098    59.4994   461.7659 </r>
       <r>    -3.3533    60.6729   477.3273 </r>
       <r>    -3.0968    62.0247   493.2354 </r>
       <r>    -2.8403    62.5295   509.2730 </r>
       <r>    -2.5838    78.2966   529.3545 </r>
       <r>    -2.3274   106.3363   556.6277 </r>
       <r>    -2.0709   138.6221   592.1815 </r>
       <r>    -1.8144   174.6710   636.9812 </r>
       <r>    -1.5579   167.2419   679.8754 </r>
       <r>    -1.3014   139.2975   715.6025 </r>
       <r>    -1.0449   119.6344   746.2864 </r>
       <r>    -0.7885   114.8660   775.7472 </r>
       <r>    -0.5320    91.3350   799.1729 </r>
       <r>    -0.2755    74.8115   818.3605 </r>
       <r>    -0.0190    58.3173   833.3178 </r>
       <r>     0.2375    56.0364   847.6900 </r>
       <r>     0.4939    55.8576   862.0164 </r>
       <r>     0.7504    59.2299   877.2077 </r>
       <r>     1.0069    48.7377   889.7079 </r>
       <r>     1.2634    16.3231   893.8945 </r>
       <r>     1.5199    11.4068   896.8201 </r>
       <r>     1.7763    10.8759   899.6095 </r>
       <r>     2.0328     1.8061   900.0728 </r>
       <r>     2.2893     6.8821   901.8379 </r>
       <r>     2.5458    17.0759   906.2175 </r>
       <r>     2.8023    11.9178   909.2742 </r>
       <r>     3.0587     5.4319   910.6674 </r>
       <r>     3.3152     4.6382   911.8570 </r>
       <r>     3.5717     3.9906   912.8805 </r>
       <r>     3.8282    18.7645   917.6932 </r>
       <r>     4.0847    27.4122   924.7239 </r>
       <r>     4.3411    32.4322   933.0421 </r>
       <r>     4.5976    33.6920   941.6835 </r>
       <r>     4.8541    30.5976   949.5311 </r>
       <r>     5.1106    35.8851   958.7350 </r>
       <r>     5.3671    38.2454   968.5442 </r>
       <r>     5.6235    26.1805   975.2589 </r>
       <r>     5.8800     2.8657   975.9939 </r>
       <r>     6.1365     0.0236   976.0000 </r>
       <r>     6.3930     0.0000   976.0000 </r>
       <r>     6.6495     0.0000   976.0000 </r>
       <r>     6.9059     0.0000   976.0000 </r>
       <r>     7.1624     0.0000   976.0000 </r>
       <r>     7.4189     0.0000   976.0000 </r>
       <r>     7.6754     0.0000   976.0000 </r>
       <r>     7.9319     0.0000   976.0000 </r>
       <r>     8.1883     0.0000   976.0000 </r>
       <r>     8.4448     0.0000   976.0000 </r>
       <r>     8.7013     0.0000   976.0000 </r>
       <r>     8.9578     0.0000   976.0000 </r>
      </set>
     </set>
    </array>
   </total>
  </dos>
 </calculation>
 <structure name="finalpos" >
  <crystal>
   <varray name="basis" >
    <v>      16.88469405       0.00000000       0.00000000 </v>
    <v>       0.00000000       9.57841000       0.00000000 </v>
    <v>       0.00000000       0.00000000      16.54803255 </v>
   </varray>
   <i name="volume">   2676.28885249 </i>
   <varray name="rec_basis" >
    <v>       0.05922524       0.00000000       0.00000000 </v>
    <v>       0.00000000       0.10440146       0.00000000 </v>
    <v>       0.00000000       0.00000000       0.06043014 </v>
   </varray>
  </crystal>
  <varray name="positions" >
   <v>       0.78004630       0.14529696       0.11782363 </v>
   <v>       0.81461426       0.14529696       0.30422304 </v>
   <v>       0.26276233       0.64529696       0.02462392 </v>
   <v>       0.29733028       0.64529696       0.21102334 </v>
   <v>       0.43519032       0.14529696       0.05569049 </v>
   <v>       0.46975828       0.14529696       0.24208990 </v>
   <v>       0.95247430       0.64529696       0.14889020 </v>
   <v>       0.98704225       0.64529696       0.33528961 </v>
   <v>       0.12490229       0.14529696       0.17995677 </v>
   <v>       0.60761831       0.64529696       0.08675706 </v>
   <v>       0.64218627       0.64529696       0.27315647 </v>
   <v>       0.90758277       0.01319396       0.09319971 </v>
   <v>       0.94215073       0.01319396       0.27959912 </v>
   <v>       0.39029880       0.51319396       0.00000000 </v>
   <v>       0.42486675       0.51319396       0.18639941 </v>
   <v>       0.45943471       0.51319396       0.37279883 </v>
   <v>       0.56272679       0.01319396       0.03106657 </v>
   <v>       0.59729475       0.01319396       0.21746598 </v>
   <v>       0.08001077       0.51319396       0.12426628 </v>
   <v>       0.11457872       0.51319396       0.31066569 </v>
   <v>       0.25243876       0.01319396       0.15533284 </v>
   <v>       0.28700672       0.01319396       0.34173226 </v>
   <v>       0.73515478       0.51319396       0.06213314 </v>
   <v>       0.76972274       0.51319396       0.24853255 </v>
   <v>       0.90758277       0.27739996       0.09319971 </v>
   <v>       0.94215073       0.27739996       0.27959912 </v>
   <v>       0.39029880       0.77739996       0.00000000 </v>
   <v>       0.42486675       0.77739996       0.18639941 </v>
   <v>       0.45943471       0.77739996       0.37279883 </v>
   <v>       0.56272679       0.27739996       0.03106657 </v>
   <v>       0.59729475       0.27739996       0.21746598 </v>
   <v>       0.08001077       0.77739996       0.12426628 </v>
   <v>       0.11457872       0.77739996       0.31066569 </v>
   <v>       0.25243876       0.27739996       0.15533284 </v>
   <v>       0.28700672       0.27739996       0.34173226 </v>
   <v>       0.73515478       0.77739996       0.06213314 </v>
   <v>       0.76972274       0.77739996       0.24853255 </v>
   <v>       0.02602916       0.14529696       0.36463199 </v>
   <v>       0.99146120       0.14529696       0.17823257 </v>
   <v>       0.47417722       0.64529696       0.08503287 </v>
   <v>       0.50874518       0.64529696       0.27143228 </v>
   <v>       0.64660522       0.14529696       0.11609943 </v>
   <v>       0.68117317       0.14529696       0.30249885 </v>
   <v>       0.12932124       0.64529696       0.02289973 </v>
   <v>       0.16388920       0.64529696       0.20929914 </v>
   <v>       0.19845715       0.64529696       0.39569855 </v>
   <v>       0.30174923       0.14529696       0.05396630 </v>
   <v>       0.33631719       0.14529696       0.24036571 </v>
   <v>       0.81903321       0.64529696       0.14716600 </v>
   <v>       0.85360117       0.64529696       0.33356542 </v>
   <v>       0.79449310       0.31351196       0.02318834 </v>
   <v>       0.82906105       0.31351196       0.20958775 </v>
   <v>       0.31177707       0.81351196       0.11638804 </v>
   <v>       0.34634503       0.81351196       0.30278746 </v>
   <v>       0.48420507       0.31351196       0.14745461 </v>
   <v>       0.51877302       0.31351196       0.33385403 </v>
   <v>       0.00148905       0.81351196       0.24065432 </v>
   <v>       0.96692109       0.81351196       0.05425490 </v>
   <v>       0.13934908       0.31351196       0.08532147 </v>
   <v>       0.17391704       0.31351196       0.27172089 </v>
   <v>       0.65663306       0.81351196       0.17852118 </v>
   <v>       0.69120102       0.81351196       0.36492059 </v>
   <v>       0.31177707       0.47708196       0.11638804 </v>
   <v>       0.34634503       0.47708196       0.30278746 </v>
   <v>       0.79449310       0.97708196       0.02318834 </v>
   <v>       0.82906105       0.97708196       0.20958775 </v>
   <v>       0.00148905       0.47708196       0.24065432 </v>
   <v>       0.96692109       0.47708196       0.05425490 </v>
   <v>       0.48420507       0.97708196       0.14745461 </v>
   <v>       0.51877302       0.97708196       0.33385403 </v>
   <v>       0.65663306       0.47708196       0.17852118 </v>
   <v>       0.69120102       0.47708196       0.36492059 </v>
   <v>       0.13934908       0.97708196       0.08532147 </v>
   <v>       0.17391704       0.97708196       0.27172089 </v>
  </varray>
 </structure>
</modeling>
