"Millerite NiS"                         
           1
    16.884694    0.000000    0.000000
     0.000000    9.578410    0.000000
     0.000000    0.000000   16.548033
   Ni   S 
    37    37
Direct configuration=     1
   0.78004630  0.14529696  0.11782363
   0.81461426  0.14529696  0.30422304
   0.26276233  0.64529696  0.02462392
   0.29733028  0.64529696  0.21102334
   0.43519032  0.14529696  0.05569049
   0.46975828  0.14529696  0.24208990
   0.95247430  0.64529696  0.14889020
   0.98704225  0.64529696  0.33528961
   0.12490229  0.14529696  0.17995677
   0.60761831  0.64529696  0.08675706
   0.64218627  0.64529696  0.27315647
   0.90758277  0.01319396  0.09319971
   0.94215073  0.01319396  0.27959912
   0.39029880  0.51319396  0.00000000
   0.42486675  0.51319396  0.18639941
   0.45943471  0.51319396  0.37279883
   0.56272679  0.01319396  0.03106657
   0.59729475  0.01319396  0.21746598
   0.08001077  0.51319396  0.12426628
   0.11457872  0.51319396  0.31066569
   0.25243876  0.01319396  0.15533284
   0.28700672  0.01319396  0.34173226
   0.73515478  0.51319396  0.06213314
   0.76972274  0.51319396  0.24853255
   0.90758277  0.27739996  0.09319971
   0.94215073  0.27739996  0.27959912
   0.39029880  0.77739996  0.00000000
   0.42486675  0.77739996  0.18639941
   0.45943471  0.77739996  0.37279883
   0.56272679  0.27739996  0.03106657
   0.59729475  0.27739996  0.21746598
   0.08001077  0.77739996  0.12426628
   0.11457872  0.77739996  0.31066569
   0.25243876  0.27739996  0.15533284
   0.28700672  0.27739996  0.34173226
   0.73515478  0.77739996  0.06213314
   0.76972274  0.77739996  0.24853255
   0.02602916  0.14529696  0.36463199
   0.99146120  0.14529696  0.17823257
   0.47417722  0.64529696  0.08503287
   0.50874518  0.64529696  0.27143228
   0.64660522  0.14529696  0.11609943
   0.68117317  0.14529696  0.30249885
   0.12932124  0.64529696  0.02289973
   0.16388920  0.64529696  0.20929914
   0.19845715  0.64529696  0.39569855
   0.30174923  0.14529696  0.05396630
   0.33631719  0.14529696  0.24036571
   0.81903321  0.64529696  0.14716600
   0.85360117  0.64529696  0.33356542
   0.79449310  0.31351196  0.02318834
   0.82906105  0.31351196  0.20958775
   0.31177707  0.81351196  0.11638804
   0.34634503  0.81351196  0.30278746
   0.48420507  0.31351196  0.14745461
   0.51877302  0.31351196  0.33385403
   0.00148905  0.81351196  0.24065432
   0.96692109  0.81351196  0.05425490
   0.13934908  0.31351196  0.08532147
   0.17391704  0.31351196  0.27172089
   0.65663306  0.81351196  0.17852118
   0.69120102  0.81351196  0.36492059
   0.31177707  0.47708196  0.11638804
   0.34634503  0.47708196  0.30278746
   0.79449310  0.97708196  0.02318834
   0.82906105  0.97708196  0.20958775
   0.00148905  0.47708196  0.24065432
   0.96692109  0.47708196  0.05425490
   0.48420507  0.97708196  0.14745461
   0.51877302  0.97708196  0.33385403
   0.65663306  0.47708196  0.17852118
   0.69120102  0.47708196  0.36492059
   0.13934908  0.97708196  0.08532147
   0.17391704  0.97708196  0.27172089
