<?xml version="1.0" encoding="ISO-8859-1"?>
<modeling>
 <generator>
  <i name="program" type="string">vasp </i>
  <i name="version" type="string">6.1.0  </i>
  <i name="subversion" type="string">28Jan20 (build Mar 31 2020 17:42:31) gamma-only                       parallel </i>
  <i name="platform" type="string">LinuxIFC </i>
  <i name="date" type="string">2020 04 12 </i>
  <i name="time" type="string">22:44:41 </i>
 </generator>
 <incar>
  <i type="string" name="SYSTEM">"Millerite NiS"</i>
  <i type="int" name="NSIM">     4</i>
  <i type="int" name="NELM">   100</i>
  <i name="ENCUT">    450.00000000</i>
  <i type="string" name="LREAL">A</i>
  <i type="int" name="ISMEAR">     0</i>
  <i type="int" name="NWRITE">     2</i>
  <i type="logical" name="LWAVE"> F  </i>
  <i type="logical" name="LCHARG"> F  </i>
  <i type="int" name="NCORE">     6</i>
  <i type="int" name="NELM">   100</i>
 </incar>
 <structure name="primitive_cell" >
  <crystal>
   <varray name="basis" >
    <v>      16.88469405       0.00000000       0.00000000 </v>
    <v>       0.00000000       9.57841000       0.00000000 </v>
    <v>       0.00000000       0.00000000      16.19761915 </v>
   </varray>
   <i name="volume">   2619.61701075 </i>
   <varray name="rec_basis" >
    <v>       0.05922524       0.00000000       0.00000000 </v>
    <v>       0.00000000       0.10440146       0.00000000 </v>
    <v>       0.00000000       0.00000000       0.06173747 </v>
   </varray>
  </crystal>
  <varray name="positions" >
   <v>       0.06497261       0.92341313       0.31080449 </v>
   <v>       0.09954057       0.92341313       0.12037258 </v>
   <v>       0.58225659       0.42341313       0.21558854 </v>
   <v>       0.61682455       0.42341313       0.02515663 </v>
   <v>       0.23740060       0.42341313       0.27906584 </v>
   <v>       0.27196856       0.42341313       0.08863393 </v>
   <v>       0.72011663       0.92341313       0.37428180 </v>
   <v>       0.75468458       0.92341313       0.18384989 </v>
   <v>       0.40982860       0.92341313       0.24732719 </v>
   <v>       0.44439655       0.92341313       0.05689528 </v>
   <v>       0.89254462       0.42341313       0.34254314 </v>
   <v>       0.92711258       0.42341313       0.15211123 </v>
   <v>       0.42015216       0.55551613       0.38086382 </v>
   <v>       0.45472012       0.55551613       0.19043191 </v>
   <v>       0.48928808       0.55551613       0.00000000 </v>
   <v>       0.93743614       0.05551613       0.28564787 </v>
   <v>       0.97200410       0.05551613       0.09521596 </v>
   <v>       0.10986414       0.55551613       0.25390921 </v>
   <v>       0.14443209       0.55551613       0.06347730 </v>
   <v>       0.59258016       0.05551613       0.34912517 </v>
   <v>       0.62714811       0.05551613       0.15869326 </v>
   <v>       0.28229213       0.05551613       0.22217056 </v>
   <v>       0.31686009       0.05551613       0.03173865 </v>
   <v>       0.76500815       0.55551613       0.31738652 </v>
   <v>       0.79957611       0.55551613       0.12695461 </v>
   <v>       0.06497261       0.18761913       0.31080449 </v>
   <v>       0.09954057       0.18761913       0.12037258 </v>
   <v>       0.58225659       0.68761913       0.21558854 </v>
   <v>       0.61682455       0.68761913       0.02515663 </v>
   <v>       0.23740060       0.68761913       0.27906584 </v>
   <v>       0.27196856       0.68761913       0.08863393 </v>
   <v>       0.72011663       0.18761913       0.37428180 </v>
   <v>       0.75468458       0.18761913       0.18384989 </v>
   <v>       0.40982860       0.18761913       0.24732719 </v>
   <v>       0.44439655       0.18761913       0.05689528 </v>
   <v>       0.89254462       0.68761913       0.34254314 </v>
   <v>       0.92711258       0.68761913       0.15211123 </v>
   <v>       0.02101885       0.22373113       0.00146664 </v>
   <v>       0.46916691       0.72373113       0.28711451 </v>
   <v>       0.50373487       0.72373113       0.09668260 </v>
   <v>       0.95188293       0.22373113       0.38233046 </v>
   <v>       0.98645089       0.22373113       0.19189855 </v>
   <v>       0.12431093       0.72373113       0.35059181 </v>
   <v>       0.15887888       0.72373113       0.16015990 </v>
   <v>       0.64159490       0.22373113       0.25537586 </v>
   <v>       0.67616286       0.22373113       0.06494395 </v>
   <v>       0.29673892       0.22373113       0.31885316 </v>
   <v>       0.33130688       0.22373113       0.12842125 </v>
   <v>       0.81402290       0.72373113       0.22363721 </v>
   <v>       0.84859085       0.72373113       0.03320530 </v>
   <v>       0.14885104       0.05551613       0.22393206 </v>
   <v>       0.63156706       0.55551613       0.31914801 </v>
   <v>       0.66613502       0.55551613       0.12871610 </v>
   <v>       0.28671108       0.55551613       0.38262532 </v>
   <v>       0.32127903       0.55551613       0.19219341 </v>
   <v>       0.35584699       0.55551613       0.00176149 </v>
   <v>       0.80399506       0.05551613       0.28740936 </v>
   <v>       0.83856301       0.05551613       0.09697745 </v>
   <v>       0.01099101       0.55551613       0.06523880 </v>
   <v>       0.45913907       0.05551613       0.35088666 </v>
   <v>       0.49370703       0.05551613       0.16045475 </v>
   <v>       0.97642305       0.55551613       0.25567071 </v>
   <v>       0.46916691       0.38730113       0.28711451 </v>
   <v>       0.50373487       0.38730113       0.09668260 </v>
   <v>       0.95188293       0.88730113       0.38233046 </v>
   <v>       0.98645089       0.88730113       0.19189855 </v>
   <v>       0.12431093       0.38730113       0.35059181 </v>
   <v>       0.15887888       0.38730113       0.16015990 </v>
   <v>       0.64159490       0.88730113       0.25537586 </v>
   <v>       0.67616286       0.88730113       0.06494395 </v>
   <v>       0.29673892       0.88730113       0.31885316 </v>
   <v>       0.33130688       0.88730113       0.12842125 </v>
   <v>       0.81402290       0.38730113       0.22363721 </v>
   <v>       0.84859085       0.38730113       0.03320530 </v>
  </varray>
 </structure>
 <varray name="primitive_index" >
  <v type="int" >        1 </v>
  <v type="int" >        2 </v>
  <v type="int" >        3 </v>
  <v type="int" >        4 </v>
  <v type="int" >        5 </v>
  <v type="int" >        6 </v>
  <v type="int" >        7 </v>
  <v type="int" >        8 </v>
  <v type="int" >        9 </v>
  <v type="int" >       10 </v>
  <v type="int" >       11 </v>
  <v type="int" >       12 </v>
  <v type="int" >       13 </v>
  <v type="int" >       14 </v>
  <v type="int" >       15 </v>
  <v type="int" >       16 </v>
  <v type="int" >       17 </v>
  <v type="int" >       18 </v>
  <v type="int" >       19 </v>
  <v type="int" >       20 </v>
  <v type="int" >       21 </v>
  <v type="int" >       22 </v>
  <v type="int" >       23 </v>
  <v type="int" >       24 </v>
  <v type="int" >       25 </v>
  <v type="int" >       26 </v>
  <v type="int" >       27 </v>
  <v type="int" >       28 </v>
  <v type="int" >       29 </v>
  <v type="int" >       30 </v>
  <v type="int" >       31 </v>
  <v type="int" >       32 </v>
  <v type="int" >       33 </v>
  <v type="int" >       34 </v>
  <v type="int" >       35 </v>
  <v type="int" >       36 </v>
  <v type="int" >       37 </v>
  <v type="int" >       38 </v>
  <v type="int" >       39 </v>
  <v type="int" >       40 </v>
  <v type="int" >       41 </v>
  <v type="int" >       42 </v>
  <v type="int" >       43 </v>
  <v type="int" >       44 </v>
  <v type="int" >       45 </v>
  <v type="int" >       46 </v>
  <v type="int" >       47 </v>
  <v type="int" >       48 </v>
  <v type="int" >       49 </v>
  <v type="int" >       50 </v>
  <v type="int" >       51 </v>
  <v type="int" >       52 </v>
  <v type="int" >       53 </v>
  <v type="int" >       54 </v>
  <v type="int" >       55 </v>
  <v type="int" >       56 </v>
  <v type="int" >       57 </v>
  <v type="int" >       58 </v>
  <v type="int" >       59 </v>
  <v type="int" >       60 </v>
  <v type="int" >       61 </v>
  <v type="int" >       62 </v>
  <v type="int" >       63 </v>
  <v type="int" >       64 </v>
  <v type="int" >       65 </v>
  <v type="int" >       66 </v>
  <v type="int" >       67 </v>
  <v type="int" >       68 </v>
  <v type="int" >       69 </v>
  <v type="int" >       70 </v>
  <v type="int" >       71 </v>
  <v type="int" >       72 </v>
  <v type="int" >       73 </v>
  <v type="int" >       74 </v>
 </varray>
 <kpoints>
  <generation param="Gamma">
   <v type="int" name="divisions">       1        1        1 </v>
   <v name="usershift">      0.00000000       0.00000000       0.00000000 </v>
   <v name="genvec1">      1.00000000       0.00000000       0.00000000 </v>
   <v name="genvec2">      0.00000000       1.00000000       0.00000000 </v>
   <v name="genvec3">      0.00000000       0.00000000       1.00000000 </v>
   <v name="shift">      0.00000000       0.00000000       0.00000000 </v>
  </generation>
  <varray name="kpointlist" >
   <v>       0.00000000       0.00000000       0.00000000 </v>
  </varray>
  <varray name="weights" >
   <v>       1.00000000 </v>
  </varray>
 </kpoints>
 <parameters>
  <separator name="general" >
   <i type="string" name="SYSTEM">"Millerite NiS"</i>
   <i type="logical" name="LCOMPAT"> F  </i>
  </separator>
  <separator name="electronic" >
   <i type="string" name="PREC">normal</i>
   <i name="ENMAX">    450.00000000</i>
   <i name="ENAUG">    703.44300000</i>
   <i name="EDIFF">      0.00010000</i>
   <i type="int" name="IALGO">    38</i>
   <i type="int" name="IWAVPR">    10</i>
   <i type="int" name="NBANDS">   488</i>
   <i type="int" name="NBANDSLOW">    -1</i>
   <i type="int" name="NBANDSHIGH">    -1</i>
   <i name="NELECT">    814.00000000</i>
   <i type="int" name="TURBO">     0</i>
   <i type="int" name="IRESTART">     0</i>
   <i type="int" name="NREBOOT">     0</i>
   <i type="int" name="NMIN">     0</i>
   <i name="EREF">      0.00000000</i>
   <separator name="electronic smearing" >
    <i type="int" name="ISMEAR">     0</i>
    <i name="SIGMA">      0.20000000</i>
    <i name="KSPACING">      0.50000000</i>
    <i type="logical" name="KGAMMA"> T  </i>
    <i type="logical" name="KBLOWUP"> T  </i>
   </separator>
   <separator name="electronic projectors" >
    <i type="logical" name="LREAL"> T  </i>
    <v name="ROPT">     -0.00050000     -0.00050000</v>
    <i type="int" name="LMAXPAW">  -100</i>
    <i type="int" name="LMAXMIX">     2</i>
    <i type="logical" name="NLSPLINE"> F  </i>
   </separator>
   <separator name="electronic startup" >
    <i type="int" name="ISTART">     0</i>
    <i type="int" name="ICHARG">     2</i>
    <i type="int" name="INIWAV">     1</i>
   </separator>
   <separator name="electronic spin" >
    <i type="int" name="ISPIN">     1</i>
    <i type="logical" name="LNONCOLLINEAR"> F  </i>
    <v name="MAGMOM">      1.00000000      1.00000000      1.00000000      1.00000000      1.00000000      1.00000000      1.00000000      1.00000000      1.00000000      1.00000000      1.00000000      1.00000000      1.00000000      1.00000000      1.00000000      1.00000000      1.00000000      1.00000000      1.00000000      1.00000000
      1.00000000      1.00000000      1.00000000      1.00000000      1.00000000      1.00000000      1.00000000      1.00000000      1.00000000      1.00000000      1.00000000      1.00000000      1.00000000      1.00000000      1.00000000      1.00000000      1.00000000      1.00000000      1.00000000      1.00000000
      1.00000000      1.00000000      1.00000000      1.00000000      1.00000000      1.00000000      1.00000000      1.00000000      1.00000000      1.00000000      1.00000000      1.00000000      1.00000000      1.00000000      1.00000000      1.00000000      1.00000000      1.00000000      1.00000000      1.00000000
      1.00000000      1.00000000      1.00000000      1.00000000      1.00000000      1.00000000      1.00000000      1.00000000      1.00000000      1.00000000      1.00000000      1.00000000      1.00000000      1.00000000</v>
    <i name="NUPDOWN">     -1.00000000</i>
    <i type="logical" name="LSORBIT"> F  </i>
    <v name="SAXIS">      0.00000000      0.00000000      1.00000000</v>
    <i type="logical" name="LSPIRAL"> F  </i>
    <v name="QSPIRAL">      0.00000000      0.00000000      0.00000000</v>
    <i type="logical" name="LZEROZ"> F  </i>
   </separator>
   <separator name="electronic exchange-correlation" >
    <i type="logical" name="LASPH"> F  </i>
    <i type="logical" name="LMETAGGA"> F  </i>
   </separator>
   <separator name="electronic convergence" >
    <i type="int" name="NELM">   100</i>
    <i type="int" name="NELMDL">    -5</i>
    <i type="int" name="NELMIN">     2</i>
    <i name="ENINI">    450.00000000</i>
    <separator name="electronic convergence detail" >
     <i type="logical" name="LDIAG"> T  </i>
     <i type="logical" name="LSUBROT"> F  </i>
     <i name="WEIMIN">      0.00000000</i>
     <i name="EBREAK">      0.00000005</i>
     <i name="DEPER">      0.30000000</i>
     <i type="int" name="NRMM">     4</i>
     <i name="TIME">      0.40000000</i>
    </separator>
   </separator>
   <separator name="electronic mixer" >
    <i name="AMIX">      0.40000000</i>
    <i name="BMIX">      1.00000000</i>
    <i name="AMIN">      0.10000000</i>
    <i name="AMIX_MAG">      1.60000000</i>
    <i name="BMIX_MAG">      1.00000000</i>
    <separator name="electronic mixer details" >
     <i type="int" name="IMIX">     4</i>
     <i type="logical" name="MIXFIRST"> F  </i>
     <i type="int" name="MAXMIX">   -45</i>
     <i name="WC">    100.00000000</i>
     <i type="int" name="INIMIX">     1</i>
     <i type="int" name="MIXPRE">     1</i>
     <i type="int" name="MREMOVE">     5</i>
    </separator>
   </separator>
   <separator name="electronic dipolcorrection" >
    <i type="logical" name="LDIPOL"> F  </i>
    <i type="logical" name="LMONO"> F  </i>
    <i type="int" name="IDIPOL">     0</i>
    <i name="EPSILON">      1.00000000</i>
    <v name="DIPOL">   -100.00000000   -100.00000000   -100.00000000</v>
    <i name="EFIELD">      0.00000000</i>
   </separator>
  </separator>
  <separator name="grids" >
   <i type="int" name="NGX">    90</i>
   <i type="int" name="NGY">    50</i>
   <i type="int" name="NGZ">    84</i>
   <i type="int" name="NGXF">   180</i>
   <i type="int" name="NGYF">   100</i>
   <i type="int" name="NGZF">   168</i>
   <i type="logical" name="ADDGRID"> F  </i>
  </separator>
  <separator name="ionic" >
   <i type="int" name="NSW">     0</i>
   <i type="int" name="IBRION">    -1</i>
   <i type="int" name="MDALGO">     0</i>
   <i type="int" name="ISIF">     2</i>
   <i name="PSTRESS">      0.00000000</i>
   <i name="EDIFFG">      0.00100000</i>
   <i type="int" name="NFREE">     0</i>
   <i name="POTIM">      0.50000000</i>
   <i name="SMASS">     -3.00000000</i>
   <i name="SCALEE">      1.00000000</i>
  </separator>
  <separator name="ionic md" >
   <i name="TEBEG">      0.00010000</i>
   <i name="TEEND">      0.00010000</i>
   <i type="int" name="NBLOCK">     1</i>
   <i type="int" name="KBLOCK">     1</i>
   <i type="int" name="NPACO">   256</i>
   <i name="APACO">     16.00000000</i>
  </separator>
  <separator name="symmetry" >
   <i type="int" name="ISYM">     2</i>
   <i name="SYMPREC">      0.00001000</i>
  </separator>
  <separator name="dos" >
   <i type="int" name="LORBIT">     0</i>
   <v name="RWIGS">     -1.00000000     -1.00000000</v>
   <i type="int" name="NEDOS">   301</i>
   <i name="EMIN">     10.00000000</i>
   <i name="EMAX">    -10.00000000</i>
   <i name="EFERMI">      0.00000000</i>
  </separator>
  <separator name="writing" >
   <i type="int" name="NWRITE">     2</i>
   <i type="logical" name="LWAVE"> F  </i>
   <i type="logical" name="LDOWNSAMPLE"> F  </i>
   <i type="logical" name="LCHARG"> F  </i>
   <i type="logical" name="LPARD"> F  </i>
   <i type="logical" name="LVTOT"> F  </i>
   <i type="logical" name="LVHAR"> F  </i>
   <i type="logical" name="LELF"> F  </i>
   <i type="logical" name="LOPTICS"> F  </i>
   <v name="STM">      0.00000000      0.00000000      0.00000000      0.00000000      0.00000000      0.00000000      0.00000000</v>
  </separator>
  <separator name="performance" >
   <i type="int" name="NPAR">     8</i>
   <i type="int" name="NSIM">     4</i>
   <i type="int" name="NBLK">    -1</i>
   <i type="logical" name="LPLANE"> T  </i>
   <i type="logical" name="LSCALAPACK"> T  </i>
   <i type="logical" name="LSCAAWARE"> F  </i>
   <i type="logical" name="LSCALU"> F  </i>
   <i type="logical" name="LASYNC"> F  </i>
   <i type="logical" name="LORBITALREAL"> F  </i>
  </separator>
  <separator name="miscellaneous" >
   <i type="int" name="IDIOT">     3</i>
   <i type="int" name="PHON_NSTRUCT">    -1</i>
   <i type="logical" name="LMUSIC"> F  </i>
   <v name="POMASS">     58.69000000     32.06600000</v>
   <v name="DARWINR">      0.00000000      0.00000000</v>
   <v name="DARWINV">      1.00000000      1.00000000</v>
   <i type="logical" name="LCORR"> T  </i>
  </separator>
  <i type="logical" name="GGA_COMPAT"> T  </i>
  <i type="logical" name="LBERRY"> F  </i>
  <i type="int" name="ICORELEVEL">     0</i>
  <i type="logical" name="LDAU"> F  </i>
  <i type="int" name="I_CONSTRAINED_M">     0</i>
  <separator name="electronic exchange-correlation" >
   <i type="string" name="GGA">--</i>
   <i type="int" name="VOSKOWN">     0</i>
   <i type="logical" name="LHFCALC"> F  </i>
   <i type="string" name="PRECFOCK"></i>
   <i type="logical" name="LSYMGRAD"> F  </i>
   <i type="logical" name="LHFONE"> F  </i>
   <i type="logical" name="LRHFCALC"> F  </i>
   <i type="logical" name="LTHOMAS"> F  </i>
   <i type="logical" name="LMODELHF"> F  </i>
   <i type="logical" name="LFOCKACE"> F  </i>
   <i name="ENCUT4O">     -1.00000000</i>
   <i type="int" name="EXXOEP">     0</i>
   <i type="int" name="FOURORBIT">     0</i>
   <i name="AEXX">      0.00000000</i>
   <i name="HFALPHA">      0.00000000</i>
   <i name="MCALPHA">      0.00000000</i>
   <i name="ALDAX">      1.00000000</i>
   <i name="AGGAX">      1.00000000</i>
   <i name="ALDAC">      1.00000000</i>
   <i name="AGGAC">      1.00000000</i>
   <i type="int" name="NKREDX">     1</i>
   <i type="int" name="NKREDY">     1</i>
   <i type="int" name="NKREDZ">     1</i>
   <i type="logical" name="SHIFTRED"> F  </i>
   <i type="logical" name="ODDONLY"> F  </i>
   <i type="logical" name="EVENONLY"> F  </i>
   <i type="int" name="LMAXFOCK">     0</i>
   <i type="int" name="NMAXFOCKAE">     0</i>
   <i type="logical" name="LFOCKAEDFT"> F  </i>
   <i name="HFSCREEN">      0.00000000</i>
   <i name="HFSCREENC">      0.00000000</i>
   <i type="int" name="NBANDSGWLOW">     0</i>
  </separator>
  <separator name="vdW DFT" >
   <i type="logical" name="LUSE_VDW"> F  </i>
   <i name="Zab_VDW">     -0.84910000</i>
   <i name="PARAM1">      0.12340000</i>
   <i name="PARAM2">      1.00000000</i>
   <i name="PARAM3">      0.00000000</i>
  </separator>
  <separator name="model GW" >
   <i type="int" name="MODEL_GW">     0</i>
   <i name="MODEL_EPS0">     21.24013792</i>
   <i name="MODEL_ALPHA">      1.00000000</i>
  </separator>
  <separator name="linear response parameters" >
   <i type="logical" name="LEPSILON"> F  </i>
   <i type="logical" name="LRPA"> F  </i>
   <i type="logical" name="LNABLA"> F  </i>
   <i type="logical" name="LVEL"> F  </i>
   <i type="int" name="KINTER">     0</i>
   <i name="CSHIFT">      0.10000000</i>
   <i name="OMEGAMAX">     -1.00000000</i>
   <i name="DEG_THRESHOLD">      0.00200000</i>
   <i name="RTIME">     -0.10000000</i>
   <i name="WPLASMAI">      0.00000000</i>
   <v name="DFIELD">      0.00000000      0.00000000      0.00000000</v>
   <v name="WPLASMA">      0.00000000      0.00000000      0.00000000      0.00000000      0.00000000      0.00000000      0.00000000      0.00000000      0.00000000</v>
  </separator>
  <separator name="orbital magnetization" >
   <i type="logical" name="NUCIND"> F  </i>
   <v name="MAGPOS">      0.00000000      0.00000000      0.00000000</v>
   <i type="logical" name="LNICSALL"> T  </i>
   <i type="logical" name="ORBITALMAG"> F  </i>
   <i type="logical" name="LMAGBLOCH"> F  </i>
   <i type="logical" name="LCHIMAG"> F  </i>
   <i type="logical" name="LGAUGE"> T  </i>
   <i type="int" name="MAGATOM">     0</i>
   <v name="MAGDIPOL">      0.00000000      0.00000000      0.00000000</v>
   <v name="AVECCONST">      0.00000000      0.00000000      0.00000000</v>
  </separator>
  <separator name="response functions" >
   <i type="logical" name="LFINITE_TEMPERATURE"> F  </i>
   <i type="logical" name="LADDER"> F  </i>
   <i type="logical" name="LRPAFORCE"> F  </i>
   <i type="logical" name="LFXC"> F  </i>
   <i type="logical" name="LHARTREE"> T  </i>
   <i type="int" name="IBSE">     0</i>
   <v type="int" name="KPOINT">    -1     0     0     0</v>
   <i type="logical" name="LTCTC"> F  </i>
   <i type="logical" name="LTCTE"> F  </i>
   <i type="logical" name="LTETE"> F  </i>
   <i type="logical" name="LTRIPLET"> F  </i>
   <i type="logical" name="LFXCEPS"> F  </i>
   <i type="logical" name="LFXHEG"> F  </i>
   <i type="int" name="NATURALO">     2</i>
   <i type="logical" name="LHOLEGF"> F  </i>
   <i type="logical" name="L2ORDER"> F  </i>
   <i type="logical" name="LDMP1"> F  </i>
   <i type="logical" name="LMP2LT"> F  </i>
   <i type="logical" name="LSMP2LT"> F  </i>
   <i type="logical" name="LGWLF"> F  </i>
   <i name="ENCUTGW">     -2.00000000</i>
   <i name="ENCUTGWSOFT">     -2.00000000</i>
   <i name="ENCUTLF">     -1.00000000</i>
   <i type="logical" name="LESF_SPLINES"> F  </i>
   <i type="int" name="LMAXMP2">    -1</i>
   <i name="SCISSOR">      0.00000000</i>
   <i type="int" name="NOMEGA">     0</i>
   <i type="int" name="NOMEGAR">     0</i>
   <i type="int" name="NBANDSGW">    -1</i>
   <i type="int" name="NBANDSO">    -1</i>
   <i type="int" name="NBANDSV">    -1</i>
   <i type="int" name="NELM">   100</i>
   <i type="int" name="NELMHF">     1</i>
   <i type="int" name="DIM">     3</i>
   <i type="int" name="IESPILON">     4</i>
   <i type="int" name="ANTIRES">     0</i>
   <i name="OMEGAMAX">    -30.00000000</i>
   <i name="OMEGAMIN">    -30.00000000</i>
   <i name="OMEGATL">   -200.00000000</i>
   <i type="int" name="OMEGAGRID">     0</i>
   <i name="CSHIFT">     -0.10000000</i>
   <i type="logical" name="LSELFENERGY"> F  </i>
   <i type="logical" name="LSPECTRAL"> F  </i>
   <i type="logical" name="LSPECTRALGW"> F  </i>
   <i type="logical" name="LSINGLES"> F  </i>
   <i type="logical" name="LFERMIGW"> F  </i>
   <i type="logical" name="ODDONLYGW"> F  </i>
   <i type="logical" name="EVENONLYGW"> F  </i>
   <i type="int" name="NKREDLFX">     1</i>
   <i type="int" name="NKREDLFY">     1</i>
   <i type="int" name="NKREDLFZ">     1</i>
   <i type="int" name="MAXMEM">  2800</i>
   <i type="int" name="TELESCOPE">     0</i>
   <i type="int" name="NTAUPAR">    -1</i>
   <i type="int" name="NOMEGAPAR">    -1</i>
   <i name="LAMBDA">      1.00000000</i>
  </separator>
  <separator name="External order field" >
   <i name="OFIELD_KAPPA">      0.00000000</i>
   <v name="OFIELD_K">      0.00000000      0.00000000      0.00000000</v>
   <i name="OFIELD_Q6_NEAR">      0.00000000</i>
   <i name="OFIELD_Q6_FAR">      0.00000000</i>
   <i name="OFIELD_A">      0.00000000</i>
  </separator>
 </parameters>
 <atominfo>
  <atoms>      74 </atoms>
  <types>       2 </types>
  <array name="atoms" >
   <dimension dim="1">ion</dimension>
   <field type="string">element</field>
   <field type="int">atomtype</field>
   <set>
    <rc><c>Ni</c><c>   1</c></rc>
    <rc><c>Ni</c><c>   1</c></rc>
    <rc><c>Ni</c><c>   1</c></rc>
    <rc><c>Ni</c><c>   1</c></rc>
    <rc><c>Ni</c><c>   1</c></rc>
    <rc><c>Ni</c><c>   1</c></rc>
    <rc><c>Ni</c><c>   1</c></rc>
    <rc><c>Ni</c><c>   1</c></rc>
    <rc><c>Ni</c><c>   1</c></rc>
    <rc><c>Ni</c><c>   1</c></rc>
    <rc><c>Ni</c><c>   1</c></rc>
    <rc><c>Ni</c><c>   1</c></rc>
    <rc><c>Ni</c><c>   1</c></rc>
    <rc><c>Ni</c><c>   1</c></rc>
    <rc><c>Ni</c><c>   1</c></rc>
    <rc><c>Ni</c><c>   1</c></rc>
    <rc><c>Ni</c><c>   1</c></rc>
    <rc><c>Ni</c><c>   1</c></rc>
    <rc><c>Ni</c><c>   1</c></rc>
    <rc><c>Ni</c><c>   1</c></rc>
    <rc><c>Ni</c><c>   1</c></rc>
    <rc><c>Ni</c><c>   1</c></rc>
    <rc><c>Ni</c><c>   1</c></rc>
    <rc><c>Ni</c><c>   1</c></rc>
    <rc><c>Ni</c><c>   1</c></rc>
    <rc><c>Ni</c><c>   1</c></rc>
    <rc><c>Ni</c><c>   1</c></rc>
    <rc><c>Ni</c><c>   1</c></rc>
    <rc><c>Ni</c><c>   1</c></rc>
    <rc><c>Ni</c><c>   1</c></rc>
    <rc><c>Ni</c><c>   1</c></rc>
    <rc><c>Ni</c><c>   1</c></rc>
    <rc><c>Ni</c><c>   1</c></rc>
    <rc><c>Ni</c><c>   1</c></rc>
    <rc><c>Ni</c><c>   1</c></rc>
    <rc><c>Ni</c><c>   1</c></rc>
    <rc><c>Ni</c><c>   1</c></rc>
    <rc><c>S </c><c>   2</c></rc>
    <rc><c>S </c><c>   2</c></rc>
    <rc><c>S </c><c>   2</c></rc>
    <rc><c>S </c><c>   2</c></rc>
    <rc><c>S </c><c>   2</c></rc>
    <rc><c>S </c><c>   2</c></rc>
    <rc><c>S </c><c>   2</c></rc>
    <rc><c>S </c><c>   2</c></rc>
    <rc><c>S </c><c>   2</c></rc>
    <rc><c>S </c><c>   2</c></rc>
    <rc><c>S </c><c>   2</c></rc>
    <rc><c>S </c><c>   2</c></rc>
    <rc><c>S </c><c>   2</c></rc>
    <rc><c>S </c><c>   2</c></rc>
    <rc><c>S </c><c>   2</c></rc>
    <rc><c>S </c><c>   2</c></rc>
    <rc><c>S </c><c>   2</c></rc>
    <rc><c>S </c><c>   2</c></rc>
    <rc><c>S </c><c>   2</c></rc>
    <rc><c>S </c><c>   2</c></rc>
    <rc><c>S </c><c>   2</c></rc>
    <rc><c>S </c><c>   2</c></rc>
    <rc><c>S </c><c>   2</c></rc>
    <rc><c>S </c><c>   2</c></rc>
    <rc><c>S </c><c>   2</c></rc>
    <rc><c>S </c><c>   2</c></rc>
    <rc><c>S </c><c>   2</c></rc>
    <rc><c>S </c><c>   2</c></rc>
    <rc><c>S </c><c>   2</c></rc>
    <rc><c>S </c><c>   2</c></rc>
    <rc><c>S </c><c>   2</c></rc>
    <rc><c>S </c><c>   2</c></rc>
    <rc><c>S </c><c>   2</c></rc>
    <rc><c>S </c><c>   2</c></rc>
    <rc><c>S </c><c>   2</c></rc>
    <rc><c>S </c><c>   2</c></rc>
    <rc><c>S </c><c>   2</c></rc>
   </set>
  </array>
  <array name="atomtypes" >
   <dimension dim="1">type</dimension>
   <field type="int">atomspertype</field>
   <field type="string">element</field>
   <field>mass</field>
   <field>valence</field>
   <field type="string">pseudopotential</field>
   <set>
    <rc><c>  37</c><c>Ni</c><c>     58.69000000</c><c>     16.00000000</c><c>  PAW_PBE Ni_pv 06Sep2000               </c></rc>
    <rc><c>  37</c><c>S </c><c>     32.06600000</c><c>      6.00000000</c><c>  PAW_PBE S 06Sep2000                   </c></rc>
   </set>
  </array>
 </atominfo>
 <structure name="initialpos" >
  <crystal>
   <varray name="basis" >
    <v>      16.88469405       0.00000000       0.00000000 </v>
    <v>       0.00000000       9.57841000       0.00000000 </v>
    <v>       0.00000000       0.00000000      16.19761915 </v>
   </varray>
   <i name="volume">   2619.61701075 </i>
   <varray name="rec_basis" >
    <v>       0.05922524       0.00000000       0.00000000 </v>
    <v>       0.00000000       0.10440146       0.00000000 </v>
    <v>       0.00000000       0.00000000       0.06173747 </v>
   </varray>
  </crystal>
  <varray name="positions" >
   <v>       0.06497261       0.92341313       0.31080449 </v>
   <v>       0.09954057       0.92341313       0.12037258 </v>
   <v>       0.58225659       0.42341313       0.21558854 </v>
   <v>       0.61682455       0.42341313       0.02515663 </v>
   <v>       0.23740060       0.42341313       0.27906584 </v>
   <v>       0.27196856       0.42341313       0.08863393 </v>
   <v>       0.72011663       0.92341313       0.37428180 </v>
   <v>       0.75468458       0.92341313       0.18384989 </v>
   <v>       0.40982860       0.92341313       0.24732719 </v>
   <v>       0.44439655       0.92341313       0.05689528 </v>
   <v>       0.89254462       0.42341313       0.34254314 </v>
   <v>       0.92711258       0.42341313       0.15211123 </v>
   <v>       0.42015216       0.55551613       0.38086382 </v>
   <v>       0.45472012       0.55551613       0.19043191 </v>
   <v>       0.48928808       0.55551613       0.00000000 </v>
   <v>       0.93743614       0.05551613       0.28564787 </v>
   <v>       0.97200410       0.05551613       0.09521596 </v>
   <v>       0.10986414       0.55551613       0.25390921 </v>
   <v>       0.14443209       0.55551613       0.06347730 </v>
   <v>       0.59258016       0.05551613       0.34912517 </v>
   <v>       0.62714811       0.05551613       0.15869326 </v>
   <v>       0.28229213       0.05551613       0.22217056 </v>
   <v>       0.31686009       0.05551613       0.03173865 </v>
   <v>       0.76500815       0.55551613       0.31738652 </v>
   <v>       0.79957611       0.55551613       0.12695461 </v>
   <v>       0.06497261       0.18761913       0.31080449 </v>
   <v>       0.09954057       0.18761913       0.12037258 </v>
   <v>       0.58225659       0.68761913       0.21558854 </v>
   <v>       0.61682455       0.68761913       0.02515663 </v>
   <v>       0.23740060       0.68761913       0.27906584 </v>
   <v>       0.27196856       0.68761913       0.08863393 </v>
   <v>       0.72011663       0.18761913       0.37428180 </v>
   <v>       0.75468458       0.18761913       0.18384989 </v>
   <v>       0.40982860       0.18761913       0.24732719 </v>
   <v>       0.44439655       0.18761913       0.05689528 </v>
   <v>       0.89254462       0.68761913       0.34254314 </v>
   <v>       0.92711258       0.68761913       0.15211123 </v>
   <v>       0.02101885       0.22373113       0.00146664 </v>
   <v>       0.46916691       0.72373113       0.28711451 </v>
   <v>       0.50373487       0.72373113       0.09668260 </v>
   <v>       0.95188293       0.22373113       0.38233046 </v>
   <v>       0.98645089       0.22373113       0.19189855 </v>
   <v>       0.12431093       0.72373113       0.35059181 </v>
   <v>       0.15887888       0.72373113       0.16015990 </v>
   <v>       0.64159490       0.22373113       0.25537586 </v>
   <v>       0.67616286       0.22373113       0.06494395 </v>
   <v>       0.29673892       0.22373113       0.31885316 </v>
   <v>       0.33130688       0.22373113       0.12842125 </v>
   <v>       0.81402290       0.72373113       0.22363721 </v>
   <v>       0.84859085       0.72373113       0.03320530 </v>
   <v>       0.14885104       0.05551613       0.22393206 </v>
   <v>       0.63156706       0.55551613       0.31914801 </v>
   <v>       0.66613502       0.55551613       0.12871610 </v>
   <v>       0.28671108       0.55551613       0.38262532 </v>
   <v>       0.32127903       0.55551613       0.19219341 </v>
   <v>       0.35584699       0.55551613       0.00176149 </v>
   <v>       0.80399506       0.05551613       0.28740936 </v>
   <v>       0.83856301       0.05551613       0.09697745 </v>
   <v>       0.01099101       0.55551613       0.06523880 </v>
   <v>       0.45913907       0.05551613       0.35088666 </v>
   <v>       0.49370703       0.05551613       0.16045475 </v>
   <v>       0.97642305       0.55551613       0.25567071 </v>
   <v>       0.46916691       0.38730113       0.28711451 </v>
   <v>       0.50373487       0.38730113       0.09668260 </v>
   <v>       0.95188293       0.88730113       0.38233046 </v>
   <v>       0.98645089       0.88730113       0.19189855 </v>
   <v>       0.12431093       0.38730113       0.35059181 </v>
   <v>       0.15887888       0.38730113       0.16015990 </v>
   <v>       0.64159490       0.88730113       0.25537586 </v>
   <v>       0.67616286       0.88730113       0.06494395 </v>
   <v>       0.29673892       0.88730113       0.31885316 </v>
   <v>       0.33130688       0.88730113       0.12842125 </v>
   <v>       0.81402290       0.38730113       0.22363721 </v>
   <v>       0.84859085       0.38730113       0.03320530 </v>
  </varray>
 </structure>
 <calculation>
  <scstep>
   <time name="dav">    2.57    2.58</time>
   <time name="total">    2.63    2.64</time>
   <energy>
    <i name="alphaZ">   1500.00209625 </i>
    <i name="ewald"> 109036.36156423 </i>
    <i name="hartreedc">-233383.57433845 </i>
    <i name="XCdc">   3742.10214655 </i>
    <i name="pawpsdc"> 115860.90926010 </i>
    <i name="pawaedc">-120909.33166199 </i>
    <i name="eentropy">     -0.36989446 </i>
    <i name="bandstr">  -6682.38388738 </i>
    <i name="atom"> 139780.45519414 </i>
    <i name="e_fr_energy">   8944.17047898 </i>
    <i name="e_wo_entrp">   8944.54037344 </i>
    <i name="e_0_energy">   8944.35542621 </i>
   </energy>
  </scstep>
  <scstep>
   <time name="dav">    2.27    2.28</time>
   <time name="total">    2.27    2.28</time>
   <energy>
    <i name="e_fr_energy">    489.89023807 </i>
    <i name="e_wo_entrp">    490.78100405 </i>
    <i name="e_0_energy">    490.33562106 </i>
   </energy>
  </scstep>
  <scstep>
   <time name="dav">    2.44    2.45</time>
   <time name="total">    2.44    2.45</time>
   <energy>
    <i name="e_fr_energy">   -359.04324072 </i>
    <i name="e_wo_entrp">   -357.65379296 </i>
    <i name="e_0_energy">   -358.34851684 </i>
   </energy>
  </scstep>
  <scstep>
   <time name="dav">    2.54    2.54</time>
   <time name="total">    2.54    2.55</time>
   <energy>
    <i name="e_fr_energy">   -410.07709354 </i>
    <i name="e_wo_entrp">   -408.66405906 </i>
    <i name="e_0_energy">   -409.37057630 </i>
   </energy>
  </scstep>
  <scstep>
   <time name="dav">    2.56    2.56</time>
   <time name="total">    2.61    2.62</time>
   <energy>
    <i name="e_fr_energy">   -411.54498393 </i>
    <i name="e_wo_entrp">   -410.13037921 </i>
    <i name="e_0_energy">   -410.83768157 </i>
   </energy>
  </scstep>
  <scstep>
   <time name="dav">    2.53    2.54</time>
   <time name="total">    2.64    2.65</time>
   <energy>
    <i name="e_fr_energy">   -530.60387476 </i>
    <i name="e_wo_entrp">   -529.60746838 </i>
    <i name="e_0_energy">   -530.10567157 </i>
   </energy>
  </scstep>
  <scstep>
   <time name="dav">    2.48    2.49</time>
   <time name="total">    2.60    2.61</time>
   <energy>
    <i name="e_fr_energy">   -389.46688465 </i>
    <i name="e_wo_entrp">   -388.22631753 </i>
    <i name="e_0_energy">   -388.84660109 </i>
   </energy>
  </scstep>
  <scstep>
   <time name="dav">    2.88    2.89</time>
   <time name="total">    3.00    3.01</time>
   <energy>
    <i name="e_fr_energy">   -400.52227432 </i>
    <i name="e_wo_entrp">   -398.94066860 </i>
    <i name="e_0_energy">   -399.73147146 </i>
   </energy>
  </scstep>
  <scstep>
   <time name="dav">    2.73    2.73</time>
   <time name="total">    2.84    2.85</time>
   <energy>
    <i name="e_fr_energy">   -376.58014453 </i>
    <i name="e_wo_entrp">   -375.17088044 </i>
    <i name="e_0_energy">   -375.87551249 </i>
   </energy>
  </scstep>
  <scstep>
   <time name="dav">    2.86    2.86</time>
   <time name="total">    2.97    2.98</time>
   <energy>
    <i name="e_fr_energy">   -372.57623470 </i>
    <i name="e_wo_entrp">   -370.83103974 </i>
    <i name="e_0_energy">   -371.70363722 </i>
   </energy>
  </scstep>
  <scstep>
   <time name="dav">    2.82    2.83</time>
   <time name="total">    2.94    2.94</time>
   <energy>
    <i name="e_fr_energy">   -374.91563466 </i>
    <i name="e_wo_entrp">   -373.40597236 </i>
    <i name="e_0_energy">   -374.16080351 </i>
   </energy>
  </scstep>
  <scstep>
   <time name="dav">    2.97    2.97</time>
   <time name="total">    3.07    3.09</time>
   <energy>
    <i name="e_fr_energy">   -366.87319134 </i>
    <i name="e_wo_entrp">   -365.75031088 </i>
    <i name="e_0_energy">   -366.31175111 </i>
   </energy>
  </scstep>
  <scstep>
   <time name="dav">    2.75    2.75</time>
   <time name="total">    2.85    2.86</time>
   <energy>
    <i name="e_fr_energy">   -364.21985461 </i>
    <i name="e_wo_entrp">   -363.13026536 </i>
    <i name="e_0_energy">   -363.67505998 </i>
   </energy>
  </scstep>
  <scstep>
   <time name="dav">    2.78    2.78</time>
   <time name="total">    2.89    2.89</time>
   <energy>
    <i name="e_fr_energy">   -360.82632949 </i>
    <i name="e_wo_entrp">   -359.66917344 </i>
    <i name="e_0_energy">   -360.24775146 </i>
   </energy>
  </scstep>
  <scstep>
   <time name="dav">    2.79    2.79</time>
   <time name="total">    2.90    2.90</time>
   <energy>
    <i name="e_fr_energy">   -359.24594841 </i>
    <i name="e_wo_entrp">   -358.09115943 </i>
    <i name="e_0_energy">   -358.66855392 </i>
   </energy>
  </scstep>
  <scstep>
   <time name="dav">    2.76    2.76</time>
   <time name="total">    2.87    2.87</time>
   <energy>
    <i name="e_fr_energy">   -357.80045106 </i>
    <i name="e_wo_entrp">   -356.58861398 </i>
    <i name="e_0_energy">   -357.19453252 </i>
   </energy>
  </scstep>
  <scstep>
   <time name="dav">    2.73    2.73</time>
   <time name="total">    2.84    2.84</time>
   <energy>
    <i name="e_fr_energy">   -357.43395813 </i>
    <i name="e_wo_entrp">   -356.31746007 </i>
    <i name="e_0_energy">   -356.87570910 </i>
   </energy>
  </scstep>
  <scstep>
   <time name="dav">    2.81    2.82</time>
   <time name="total">    2.92    2.93</time>
   <energy>
    <i name="e_fr_energy">   -356.47824562 </i>
    <i name="e_wo_entrp">   -355.27520282 </i>
    <i name="e_0_energy">   -355.87672422 </i>
   </energy>
  </scstep>
  <scstep>
   <time name="dav">    2.82    2.82</time>
   <time name="total">    2.93    2.94</time>
   <energy>
    <i name="e_fr_energy">   -356.24114266 </i>
    <i name="e_wo_entrp">   -355.01210540 </i>
    <i name="e_0_energy">   -355.62662403 </i>
   </energy>
  </scstep>
  <scstep>
   <time name="dav">    2.76    2.77</time>
   <time name="total">    2.87    2.88</time>
   <energy>
    <i name="e_fr_energy">   -356.04666177 </i>
    <i name="e_wo_entrp">   -354.74933171 </i>
    <i name="e_0_energy">   -355.39799674 </i>
   </energy>
  </scstep>
  <scstep>
   <time name="dav">    2.73    2.73</time>
   <time name="total">    2.84    2.84</time>
   <energy>
    <i name="e_fr_energy">   -355.98477628 </i>
    <i name="e_wo_entrp">   -354.66485170 </i>
    <i name="e_0_energy">   -355.32481399 </i>
   </energy>
  </scstep>
  <scstep>
   <time name="dav">    2.75    2.76</time>
   <time name="total">    2.86    2.87</time>
   <energy>
    <i name="e_fr_energy">   -355.94312534 </i>
    <i name="e_wo_entrp">   -354.60366361 </i>
    <i name="e_0_energy">   -355.27339447 </i>
   </energy>
  </scstep>
  <scstep>
   <time name="dav">    2.54    2.54</time>
   <time name="total">    2.65    2.65</time>
   <energy>
    <i name="e_fr_energy">   -355.87408893 </i>
    <i name="e_wo_entrp">   -354.54799632 </i>
    <i name="e_0_energy">   -355.21104263 </i>
   </energy>
  </scstep>
  <scstep>
   <time name="dav">    2.79    2.80</time>
   <time name="total">    2.90    2.91</time>
   <energy>
    <i name="e_fr_energy">   -355.86876977 </i>
    <i name="e_wo_entrp">   -354.52109471 </i>
    <i name="e_0_energy">   -355.19493224 </i>
   </energy>
  </scstep>
  <scstep>
   <time name="dav">    2.87    2.88</time>
   <time name="total">    2.98    2.99</time>
   <energy>
    <i name="e_fr_energy">   -355.82535300 </i>
    <i name="e_wo_entrp">   -354.44615036 </i>
    <i name="e_0_energy">   -355.13575168 </i>
   </energy>
  </scstep>
  <scstep>
   <time name="dav">    2.77    2.78</time>
   <time name="total">    2.88    2.89</time>
   <energy>
    <i name="e_fr_energy">   -355.82206630 </i>
    <i name="e_wo_entrp">   -354.42601738 </i>
    <i name="e_0_energy">   -355.12404184 </i>
   </energy>
  </scstep>
  <scstep>
   <time name="dav">    2.75    2.76</time>
   <time name="total">    2.86    2.87</time>
   <energy>
    <i name="e_fr_energy">   -355.80015071 </i>
    <i name="e_wo_entrp">   -354.41081780 </i>
    <i name="e_0_energy">   -355.10548426 </i>
   </energy>
  </scstep>
  <scstep>
   <time name="dav">    2.75    2.76</time>
   <time name="total">    2.86    2.87</time>
   <energy>
    <i name="e_fr_energy">   -355.78749409 </i>
    <i name="e_wo_entrp">   -354.41259410 </i>
    <i name="e_0_energy">   -355.10004410 </i>
   </energy>
  </scstep>
  <scstep>
   <time name="dav">    2.78    2.78</time>
   <time name="total">    2.89    2.90</time>
   <energy>
    <i name="e_fr_energy">   -355.77942986 </i>
    <i name="e_wo_entrp">   -354.41237883 </i>
    <i name="e_0_energy">   -355.09590435 </i>
   </energy>
  </scstep>
  <scstep>
   <time name="dav">    2.82    2.83</time>
   <time name="total">    2.94    2.95</time>
   <energy>
    <i name="e_fr_energy">   -355.77645119 </i>
    <i name="e_wo_entrp">   -354.41536766 </i>
    <i name="e_0_energy">   -355.09590943 </i>
   </energy>
  </scstep>
  <scstep>
   <time name="dav">    2.75    2.76</time>
   <time name="total">    2.86    2.88</time>
   <energy>
    <i name="e_fr_energy">   -355.77650127 </i>
    <i name="e_wo_entrp">   -354.41638678 </i>
    <i name="e_0_energy">   -355.09644402 </i>
   </energy>
  </scstep>
  <scstep>
   <time name="dav">    2.70    2.71</time>
   <time name="total">    2.81    2.82</time>
   <energy>
    <i name="e_fr_energy">   -355.77443229 </i>
    <i name="e_wo_entrp">   -354.41656466 </i>
    <i name="e_0_energy">   -355.09549847 </i>
   </energy>
  </scstep>
  <scstep>
   <time name="dav">    2.75    2.75</time>
   <time name="total">    2.86    2.87</time>
   <energy>
    <i name="e_fr_energy">   -355.77377040 </i>
    <i name="e_wo_entrp">   -354.42060557 </i>
    <i name="e_0_energy">   -355.09718798 </i>
   </energy>
  </scstep>
  <scstep>
   <time name="dav">    2.64    2.65</time>
   <time name="total">    2.75    2.76</time>
   <energy>
    <i name="e_fr_energy">   -355.77269820 </i>
    <i name="e_wo_entrp">   -354.42439875 </i>
    <i name="e_0_energy">   -355.09854847 </i>
   </energy>
  </scstep>
  <scstep>
   <time name="dav">    2.54    2.55</time>
   <time name="total">    2.65    2.66</time>
   <energy>
    <i name="e_fr_energy">   -355.77302870 </i>
    <i name="e_wo_entrp">   -354.42541216 </i>
    <i name="e_0_energy">   -355.09922043 </i>
   </energy>
  </scstep>
  <scstep>
   <time name="dav">    2.12    2.12</time>
   <time name="total">    2.17    2.18</time>
   <energy>
    <i name="alphaZ">   1500.00209625 </i>
    <i name="ewald"> 109036.36156423 </i>
    <i name="hartreedc">-232641.14620871 </i>
    <i name="XCdc">   3712.56969539 </i>
    <i name="pawpsdc"> 132504.42603081 </i>
    <i name="pawaedc">-137611.61080007 </i>
    <i name="eentropy">     -1.34672381 </i>
    <i name="bandstr"> -16635.48384988 </i>
    <i name="atom"> 139780.45519414 </i>
    <i name="e_fr_energy">   -355.77300166 </i>
    <i name="e_wo_entrp">   -354.42627785 </i>
    <i name="e_0_energy">   -355.09963975 </i>
   </energy>
  </scstep>
  <structure>
   <crystal>
    <varray name="basis" >
     <v>      16.88469405       0.00000000       0.00000000 </v>
     <v>       0.00000000       9.57841000       0.00000000 </v>
     <v>       0.00000000       0.00000000      16.19761915 </v>
    </varray>
    <i name="volume">   2619.61701075 </i>
    <varray name="rec_basis" >
     <v>       0.05922524       0.00000000       0.00000000 </v>
     <v>       0.00000000       0.10440146       0.00000000 </v>
     <v>       0.00000000       0.00000000       0.06173747 </v>
    </varray>
   </crystal>
   <varray name="positions" >
    <v>       0.06497261       0.92341313       0.31080449 </v>
    <v>       0.09954057       0.92341313       0.12037258 </v>
    <v>       0.58225659       0.42341313       0.21558854 </v>
    <v>       0.61682455       0.42341313       0.02515663 </v>
    <v>       0.23740060       0.42341313       0.27906584 </v>
    <v>       0.27196856       0.42341313       0.08863393 </v>
    <v>       0.72011663       0.92341313       0.37428180 </v>
    <v>       0.75468458       0.92341313       0.18384989 </v>
    <v>       0.40982860       0.92341313       0.24732719 </v>
    <v>       0.44439655       0.92341313       0.05689528 </v>
    <v>       0.89254462       0.42341313       0.34254314 </v>
    <v>       0.92711258       0.42341313       0.15211123 </v>
    <v>       0.42015216       0.55551613       0.38086382 </v>
    <v>       0.45472012       0.55551613       0.19043191 </v>
    <v>       0.48928808       0.55551613       0.00000000 </v>
    <v>       0.93743614       0.05551613       0.28564787 </v>
    <v>       0.97200410       0.05551613       0.09521596 </v>
    <v>       0.10986414       0.55551613       0.25390921 </v>
    <v>       0.14443209       0.55551613       0.06347730 </v>
    <v>       0.59258016       0.05551613       0.34912517 </v>
    <v>       0.62714811       0.05551613       0.15869326 </v>
    <v>       0.28229213       0.05551613       0.22217056 </v>
    <v>       0.31686009       0.05551613       0.03173865 </v>
    <v>       0.76500815       0.55551613       0.31738652 </v>
    <v>       0.79957611       0.55551613       0.12695461 </v>
    <v>       0.06497261       0.18761913       0.31080449 </v>
    <v>       0.09954057       0.18761913       0.12037258 </v>
    <v>       0.58225659       0.68761913       0.21558854 </v>
    <v>       0.61682455       0.68761913       0.02515663 </v>
    <v>       0.23740060       0.68761913       0.27906584 </v>
    <v>       0.27196856       0.68761913       0.08863393 </v>
    <v>       0.72011663       0.18761913       0.37428180 </v>
    <v>       0.75468458       0.18761913       0.18384989 </v>
    <v>       0.40982860       0.18761913       0.24732719 </v>
    <v>       0.44439655       0.18761913       0.05689528 </v>
    <v>       0.89254462       0.68761913       0.34254314 </v>
    <v>       0.92711258       0.68761913       0.15211123 </v>
    <v>       0.02101885       0.22373113       0.00146664 </v>
    <v>       0.46916691       0.72373113       0.28711451 </v>
    <v>       0.50373487       0.72373113       0.09668260 </v>
    <v>       0.95188293       0.22373113       0.38233046 </v>
    <v>       0.98645089       0.22373113       0.19189855 </v>
    <v>       0.12431093       0.72373113       0.35059181 </v>
    <v>       0.15887888       0.72373113       0.16015990 </v>
    <v>       0.64159490       0.22373113       0.25537586 </v>
    <v>       0.67616286       0.22373113       0.06494395 </v>
    <v>       0.29673892       0.22373113       0.31885316 </v>
    <v>       0.33130688       0.22373113       0.12842125 </v>
    <v>       0.81402290       0.72373113       0.22363721 </v>
    <v>       0.84859085       0.72373113       0.03320530 </v>
    <v>       0.14885104       0.05551613       0.22393206 </v>
    <v>       0.63156706       0.55551613       0.31914801 </v>
    <v>       0.66613502       0.55551613       0.12871610 </v>
    <v>       0.28671108       0.55551613       0.38262532 </v>
    <v>       0.32127903       0.55551613       0.19219341 </v>
    <v>       0.35584699       0.55551613       0.00176149 </v>
    <v>       0.80399506       0.05551613       0.28740936 </v>
    <v>       0.83856301       0.05551613       0.09697745 </v>
    <v>       0.01099101       0.55551613       0.06523880 </v>
    <v>       0.45913907       0.05551613       0.35088666 </v>
    <v>       0.49370703       0.05551613       0.16045475 </v>
    <v>       0.97642305       0.55551613       0.25567071 </v>
    <v>       0.46916691       0.38730113       0.28711451 </v>
    <v>       0.50373487       0.38730113       0.09668260 </v>
    <v>       0.95188293       0.88730113       0.38233046 </v>
    <v>       0.98645089       0.88730113       0.19189855 </v>
    <v>       0.12431093       0.38730113       0.35059181 </v>
    <v>       0.15887888       0.38730113       0.16015990 </v>
    <v>       0.64159490       0.88730113       0.25537586 </v>
    <v>       0.67616286       0.88730113       0.06494395 </v>
    <v>       0.29673892       0.88730113       0.31885316 </v>
    <v>       0.33130688       0.88730113       0.12842125 </v>
    <v>       0.81402290       0.38730113       0.22363721 </v>
    <v>       0.84859085       0.38730113       0.03320530 </v>
   </varray>
  </structure>
  <varray name="forces" >
   <v>      -0.16493411      -0.77164121      -0.33640859 </v>
   <v>      -0.05091095      -0.33735234       1.45669476 </v>
   <v>       0.19963538      -0.10358849       0.17220908 </v>
   <v>      -0.15447448      -0.35063129       1.70840667 </v>
   <v>       0.17040241      -0.43864867       0.29547324 </v>
   <v>       0.66921231       0.33897609       0.32887642 </v>
   <v>      -0.03354848       0.65674224      -1.64136648 </v>
   <v>       0.13686701       0.06291273      -0.23347677 </v>
   <v>       0.18390856      -0.22361485       0.29500989 </v>
   <v>      -0.17715861      -0.21238875       1.38097229 </v>
   <v>       0.31707302      -0.39398030      -0.95158915 </v>
   <v>       0.04877073       0.06949164      -0.37740981 </v>
   <v>      -0.82299156      -0.00569087      -1.75924003 </v>
   <v>      -0.21153425      -0.01262421      -0.06747899 </v>
   <v>      -0.65313233      -0.00896044       1.54358321 </v>
   <v>       0.33077437      -0.08106628       0.31430894 </v>
   <v>      -0.26008018       1.12093962       0.13517718 </v>
   <v>       0.03257885      -0.01336613       0.16373676 </v>
   <v>      -1.13374515       0.09783498       1.56743240 </v>
   <v>      -0.25428003       0.01098261      -1.03151663 </v>
   <v>      -0.19672671      -0.00536487      -0.23428172 </v>
   <v>      -0.40834996       0.06334615       0.12951524 </v>
   <v>       0.59971734      -0.00048201       1.61699932 </v>
   <v>      -0.13066020       0.01226286      -1.06420693 </v>
   <v>       0.03121013       0.01622178      -0.62921860 </v>
   <v>      -0.30706045       0.83263937      -0.26126627 </v>
   <v>      -0.86834021       0.24770934      -0.22505723 </v>
   <v>       0.18715080       0.09777626       0.18399850 </v>
   <v>      -0.15261746       0.35525798       1.69911062 </v>
   <v>       0.20277686       0.41168330       0.27443212 </v>
   <v>       0.63398200      -0.30800423       0.30988975 </v>
   <v>      -0.04441287      -0.66497128      -1.63796895 </v>
   <v>       0.12618078      -0.00816051      -0.22842814 </v>
   <v>       0.18688897       0.22241069       0.30001714 </v>
   <v>      -0.18585403       0.20810968       1.39422957 </v>
   <v>       0.28887580       0.32987529      -0.92461120 </v>
   <v>       0.15840889       0.15389441      -0.36795296 </v>
   <v>       0.54466771      -1.48429825       1.77530012 </v>
   <v>      -0.42704590      -0.44453072       0.44840462 </v>
   <v>       0.17840890       0.09646445      -0.98186946 </v>
   <v>       0.02546287       0.62361896      -0.44895829 </v>
   <v>       0.08929625      -0.41557264      -0.26020741 </v>
   <v>      -0.07179183       0.53670333      -0.43567300 </v>
   <v>       0.01720847       0.02870044      -1.11457441 </v>
   <v>      -0.11857271      -0.22023539       0.88589227 </v>
   <v>       0.05108538      -0.13721649      -0.01652141 </v>
   <v>      -0.09274388       0.03956343      -0.56172622 </v>
   <v>      -0.23209678      -0.32061346      -1.26952143 </v>
   <v>       0.02254471      -0.49947649       0.66216279 </v>
   <v>       0.24655265      -0.88881648       1.33927850 </v>
   <v>      -0.03267368       0.00898842       0.01498185 </v>
   <v>       1.20201401       0.01176021       0.12989709 </v>
   <v>       0.07540952      -0.00030569      -1.13068638 </v>
   <v>       1.43369059       0.02828104      -0.21350543 </v>
   <v>      -0.14241744       0.01378926       0.04032641 </v>
   <v>      -1.10336903      -0.00226690       0.02969132 </v>
   <v>      -0.47665647      -0.01861385       0.88174028 </v>
   <v>      -0.10878384      -0.09933953      -0.34835737 </v>
   <v>      -0.04735736      -0.01829537      -0.07822371 </v>
   <v>       1.25548191      -0.01527830      -0.11733645 </v>
   <v>       0.10459119      -0.01495803      -0.96028753 </v>
   <v>      -0.58122511       0.04968560       0.75152594 </v>
   <v>      -0.41484614       0.44631427       0.47455108 </v>
   <v>       0.17613760      -0.09192448      -0.97778975 </v>
   <v>       0.00376455      -0.57707275      -0.29161373 </v>
   <v>       0.04138063       0.36220086      -1.11089728 </v>
   <v>      -0.03830127      -0.52096729      -0.50792049 </v>
   <v>       0.18731222       0.14797652      -0.96765127 </v>
   <v>      -0.12107039       0.20924408       0.89791930 </v>
   <v>       0.04051578       0.17161182      -0.02412670 </v>
   <v>      -0.07112184      -0.08551735      -0.52980473 </v>
   <v>      -0.21478001       0.32972437      -1.26681995 </v>
   <v>       0.00365506       0.51935557       0.64579738 </v>
   <v>       0.30207150       0.86278653       1.33800883 </v>
  </varray>
  <varray name="stress" >
   <v>     -22.80030886      -0.18683783       4.93184544 </v>
   <v>      -0.18683765     -25.15374963       1.57254841 </v>
   <v>       4.93184549       1.57254841     -35.23370475 </v>
  </varray>
  <energy>
   <i name="e_fr_energy">   -355.77300166 </i>
   <i name="e_wo_entrp">   -354.42627785 </i>
   <i name="e_0_energy">   -355.09963975 </i>
  </energy>
  <time name="totalsc">  102.57  102.91</time>
  <eigenvalues>
   <array>
    <dimension dim="1">band</dimension>
    <dimension dim="2">kpoint</dimension>
    <dimension dim="3">spin</dimension>
    <field>eigene</field>
    <field>occ</field>
    <set>
     <set comment="spin 1">
      <set comment="kpoint 1">
       <r>  -64.3896    1.0000 </r>
       <r>  -64.3792    1.0000 </r>
       <r>  -64.3778    1.0000 </r>
       <r>  -64.3753    1.0000 </r>
       <r>  -64.3680    1.0000 </r>
       <r>  -64.3555    1.0000 </r>
       <r>  -64.3407    1.0000 </r>
       <r>  -64.3331    1.0000 </r>
       <r>  -64.3319    1.0000 </r>
       <r>  -64.3304    1.0000 </r>
       <r>  -64.3164    1.0000 </r>
       <r>  -64.3158    1.0000 </r>
       <r>  -64.3122    1.0000 </r>
       <r>  -64.3030    1.0000 </r>
       <r>  -64.3014    1.0000 </r>
       <r>  -64.2983    1.0000 </r>
       <r>  -64.2955    1.0000 </r>
       <r>  -64.2886    1.0000 </r>
       <r>  -64.2797    1.0000 </r>
       <r>  -64.2774    1.0000 </r>
       <r>  -64.2754    1.0000 </r>
       <r>  -64.2707    1.0000 </r>
       <r>  -64.2643    1.0000 </r>
       <r>  -64.2593    1.0000 </r>
       <r>  -64.2587    1.0000 </r>
       <r>  -64.2535    1.0000 </r>
       <r>  -64.2458    1.0000 </r>
       <r>  -64.2347    1.0000 </r>
       <r>  -64.2334    1.0000 </r>
       <r>  -64.2226    1.0000 </r>
       <r>  -64.2167    1.0000 </r>
       <r>  -64.2166    1.0000 </r>
       <r>  -64.1975    1.0000 </r>
       <r>  -64.1954    1.0000 </r>
       <r>  -64.1784    1.0000 </r>
       <r>  -64.1780    1.0000 </r>
       <r>  -64.1771    1.0000 </r>
       <r>  -64.1753    1.0000 </r>
       <r>  -64.1661    1.0000 </r>
       <r>  -64.1462    1.0000 </r>
       <r>  -64.1232    1.0000 </r>
       <r>  -64.1216    1.0000 </r>
       <r>  -64.1087    1.0000 </r>
       <r>  -64.0785    1.0000 </r>
       <r>  -64.0750    1.0000 </r>
       <r>  -64.0703    1.0000 </r>
       <r>  -64.0598    1.0000 </r>
       <r>  -64.0564    1.0000 </r>
       <r>  -64.0546    1.0000 </r>
       <r>  -64.0491    1.0000 </r>
       <r>  -64.0390    1.0000 </r>
       <r>  -64.0377    1.0000 </r>
       <r>  -64.0175    1.0000 </r>
       <r>  -64.0070    1.0000 </r>
       <r>  -63.9967    1.0000 </r>
       <r>  -63.9843    1.0000 </r>
       <r>  -63.9728    1.0000 </r>
       <r>  -63.9685    1.0000 </r>
       <r>  -63.9678    1.0000 </r>
       <r>  -63.9476    1.0000 </r>
       <r>  -63.9269    1.0000 </r>
       <r>  -63.8849    1.0000 </r>
       <r>  -63.8701    1.0000 </r>
       <r>  -63.8631    1.0000 </r>
       <r>  -63.8601    1.0000 </r>
       <r>  -63.8443    1.0000 </r>
       <r>  -63.8057    1.0000 </r>
       <r>  -63.7697    1.0000 </r>
       <r>  -63.7545    1.0000 </r>
       <r>  -63.7198    1.0000 </r>
       <r>  -63.7091    1.0000 </r>
       <r>  -63.6879    1.0000 </r>
       <r>  -63.6805    1.0000 </r>
       <r>  -63.6566    1.0000 </r>
       <r>  -63.6530    1.0000 </r>
       <r>  -63.6319    1.0000 </r>
       <r>  -63.6151    1.0000 </r>
       <r>  -63.6081    1.0000 </r>
       <r>  -63.5928    1.0000 </r>
       <r>  -63.5902    1.0000 </r>
       <r>  -63.5830    1.0000 </r>
       <r>  -63.5808    1.0000 </r>
       <r>  -63.5723    1.0000 </r>
       <r>  -63.5706    1.0000 </r>
       <r>  -63.5661    1.0000 </r>
       <r>  -63.5613    1.0000 </r>
       <r>  -63.5480    1.0000 </r>
       <r>  -63.5176    1.0000 </r>
       <r>  -63.5164    1.0000 </r>
       <r>  -63.4851    1.0000 </r>
       <r>  -63.4745    1.0000 </r>
       <r>  -63.3788    1.0000 </r>
       <r>  -63.3781    1.0000 </r>
       <r>  -63.3728    1.0000 </r>
       <r>  -63.3658    1.0000 </r>
       <r>  -63.3451    1.0000 </r>
       <r>  -63.3191    1.0000 </r>
       <r>  -63.2428    1.0000 </r>
       <r>  -63.2361    1.0000 </r>
       <r>  -63.2311    1.0000 </r>
       <r>  -63.2025    1.0000 </r>
       <r>  -63.2005    1.0000 </r>
       <r>  -63.1368    1.0000 </r>
       <r>  -63.1050    1.0000 </r>
       <r>  -63.0943    1.0000 </r>
       <r>  -63.0888    1.0000 </r>
       <r>  -63.0155    1.0000 </r>
       <r>  -62.9903    1.0000 </r>
       <r>  -62.9812    1.0000 </r>
       <r>  -62.9394    1.0000 </r>
       <r>  -62.9270    1.0000 </r>
       <r>  -15.2396    1.0000 </r>
       <r>  -14.9665    1.0000 </r>
       <r>  -14.9331    1.0000 </r>
       <r>  -14.5326    1.0000 </r>
       <r>  -14.4808    1.0000 </r>
       <r>  -14.3929    1.0000 </r>
       <r>  -14.2571    1.0000 </r>
       <r>  -14.1058    1.0000 </r>
       <r>  -14.0757    1.0000 </r>
       <r>  -14.0562    1.0000 </r>
       <r>  -14.0329    1.0000 </r>
       <r>  -13.9350    1.0000 </r>
       <r>  -13.8017    1.0000 </r>
       <r>  -13.7423    1.0000 </r>
       <r>  -13.7231    1.0000 </r>
       <r>  -13.6879    1.0000 </r>
       <r>  -13.6652    1.0000 </r>
       <r>  -13.6133    1.0000 </r>
       <r>  -13.5358    1.0000 </r>
       <r>  -13.3836    1.0000 </r>
       <r>  -13.2152    1.0000 </r>
       <r>  -13.1683    1.0000 </r>
       <r>  -13.0443    1.0000 </r>
       <r>  -12.9303    1.0000 </r>
       <r>  -12.8775    1.0000 </r>
       <r>  -12.7563    1.0000 </r>
       <r>  -12.6796    1.0000 </r>
       <r>  -12.6583    1.0000 </r>
       <r>  -12.6449    1.0000 </r>
       <r>  -12.5647    1.0000 </r>
       <r>  -12.4324    1.0000 </r>
       <r>  -12.4220    1.0000 </r>
       <r>  -12.4058    1.0000 </r>
       <r>  -12.3716    1.0000 </r>
       <r>  -12.0605    1.0000 </r>
       <r>  -11.8593    1.0000 </r>
       <r>  -11.6608    1.0000 </r>
       <r>   -6.9945    1.0000 </r>
       <r>   -6.9296    1.0000 </r>
       <r>   -6.9202    1.0000 </r>
       <r>   -6.8946    1.0000 </r>
       <r>   -6.7921    1.0000 </r>
       <r>   -6.6549    1.0000 </r>
       <r>   -6.4820    1.0000 </r>
       <r>   -6.4474    1.0000 </r>
       <r>   -6.4003    1.0000 </r>
       <r>   -6.3870    1.0000 </r>
       <r>   -6.3545    1.0000 </r>
       <r>   -6.3055    1.0000 </r>
       <r>   -6.2459    1.0000 </r>
       <r>   -6.2072    1.0000 </r>
       <r>   -6.0778    1.0000 </r>
       <r>   -6.0525    1.0000 </r>
       <r>   -6.0152    1.0000 </r>
       <r>   -5.9927    1.0000 </r>
       <r>   -5.9591    1.0000 </r>
       <r>   -5.9498    1.0000 </r>
       <r>   -5.9330    1.0000 </r>
       <r>   -5.8300    1.0000 </r>
       <r>   -5.7292    1.0000 </r>
       <r>   -5.6906    1.0000 </r>
       <r>   -5.6835    1.0000 </r>
       <r>   -5.6454    1.0000 </r>
       <r>   -5.6202    1.0000 </r>
       <r>   -5.5997    1.0000 </r>
       <r>   -5.5827    1.0000 </r>
       <r>   -5.5254    1.0000 </r>
       <r>   -5.5086    1.0000 </r>
       <r>   -5.4317    1.0000 </r>
       <r>   -5.4216    1.0000 </r>
       <r>   -5.3469    1.0000 </r>
       <r>   -5.3202    1.0000 </r>
       <r>   -5.3184    1.0000 </r>
       <r>   -5.2659    1.0000 </r>
       <r>   -5.2334    1.0000 </r>
       <r>   -5.1056    1.0000 </r>
       <r>   -5.0929    1.0000 </r>
       <r>   -5.0776    1.0000 </r>
       <r>   -4.9923    1.0000 </r>
       <r>   -4.9013    1.0000 </r>
       <r>   -4.8440    1.0000 </r>
       <r>   -4.8395    1.0000 </r>
       <r>   -4.7964    1.0000 </r>
       <r>   -4.7399    1.0000 </r>
       <r>   -4.7018    1.0000 </r>
       <r>   -4.6417    1.0000 </r>
       <r>   -4.6259    1.0000 </r>
       <r>   -4.6077    1.0000 </r>
       <r>   -4.5466    1.0000 </r>
       <r>   -4.5420    1.0000 </r>
       <r>   -4.4837    1.0000 </r>
       <r>   -4.4802    1.0000 </r>
       <r>   -4.4768    1.0000 </r>
       <r>   -4.4138    1.0000 </r>
       <r>   -4.3651    1.0000 </r>
       <r>   -4.3632    1.0000 </r>
       <r>   -4.3072    1.0000 </r>
       <r>   -4.2399    1.0000 </r>
       <r>   -4.2286    1.0000 </r>
       <r>   -4.1985    1.0000 </r>
       <r>   -4.0896    1.0000 </r>
       <r>   -4.0676    1.0000 </r>
       <r>   -4.0610    1.0000 </r>
       <r>   -4.0190    1.0000 </r>
       <r>   -3.9759    1.0000 </r>
       <r>   -3.9636    1.0000 </r>
       <r>   -3.9522    1.0000 </r>
       <r>   -3.9449    1.0000 </r>
       <r>   -3.8984    1.0000 </r>
       <r>   -3.8827    1.0000 </r>
       <r>   -3.8685    1.0000 </r>
       <r>   -3.8325    1.0000 </r>
       <r>   -3.8310    1.0000 </r>
       <r>   -3.7563    1.0000 </r>
       <r>   -3.7367    1.0000 </r>
       <r>   -3.6967    1.0000 </r>
       <r>   -3.6697    1.0000 </r>
       <r>   -3.6543    1.0000 </r>
       <r>   -3.6366    1.0000 </r>
       <r>   -3.6066    1.0000 </r>
       <r>   -3.5967    1.0000 </r>
       <r>   -3.5066    1.0000 </r>
       <r>   -3.4970    1.0000 </r>
       <r>   -3.4494    1.0000 </r>
       <r>   -3.4157    1.0000 </r>
       <r>   -3.3762    1.0000 </r>
       <r>   -3.3176    1.0000 </r>
       <r>   -3.3059    1.0000 </r>
       <r>   -3.2829    1.0000 </r>
       <r>   -3.2492    1.0000 </r>
       <r>   -3.1945    1.0000 </r>
       <r>   -3.1797    1.0000 </r>
       <r>   -3.1586    1.0000 </r>
       <r>   -3.1208    1.0000 </r>
       <r>   -3.1032    1.0000 </r>
       <r>   -3.0455    1.0000 </r>
       <r>   -3.0116    1.0000 </r>
       <r>   -2.9781    1.0000 </r>
       <r>   -2.9710    1.0000 </r>
       <r>   -2.9049    1.0000 </r>
       <r>   -2.8856    1.0000 </r>
       <r>   -2.8432    1.0000 </r>
       <r>   -2.8309    1.0000 </r>
       <r>   -2.8067    1.0000 </r>
       <r>   -2.8041    1.0000 </r>
       <r>   -2.7722    1.0000 </r>
       <r>   -2.7478    1.0000 </r>
       <r>   -2.7190    1.0000 </r>
       <r>   -2.6969    1.0000 </r>
       <r>   -2.6617    1.0000 </r>
       <r>   -2.5982    1.0000 </r>
       <r>   -2.5785    1.0000 </r>
       <r>   -2.5537    1.0000 </r>
       <r>   -2.5393    1.0000 </r>
       <r>   -2.5282    1.0000 </r>
       <r>   -2.4776    1.0000 </r>
       <r>   -2.4623    1.0000 </r>
       <r>   -2.4309    1.0000 </r>
       <r>   -2.4181    1.0000 </r>
       <r>   -2.4111    1.0000 </r>
       <r>   -2.3815    1.0000 </r>
       <r>   -2.3726    1.0000 </r>
       <r>   -2.3567    1.0000 </r>
       <r>   -2.3130    1.0000 </r>
       <r>   -2.3068    1.0000 </r>
       <r>   -2.2951    1.0000 </r>
       <r>   -2.2854    1.0000 </r>
       <r>   -2.2530    1.0000 </r>
       <r>   -2.2439    1.0000 </r>
       <r>   -2.2299    1.0000 </r>
       <r>   -2.2159    1.0000 </r>
       <r>   -2.1922    1.0000 </r>
       <r>   -2.1878    1.0000 </r>
       <r>   -2.1755    1.0000 </r>
       <r>   -2.1533    1.0000 </r>
       <r>   -2.1516    1.0000 </r>
       <r>   -2.1336    1.0000 </r>
       <r>   -2.1197    1.0000 </r>
       <r>   -2.1058    1.0000 </r>
       <r>   -2.0822    1.0000 </r>
       <r>   -2.0699    1.0000 </r>
       <r>   -2.0672    1.0000 </r>
       <r>   -2.0474    1.0000 </r>
       <r>   -2.0165    1.0000 </r>
       <r>   -2.0038    1.0000 </r>
       <r>   -1.9866    1.0000 </r>
       <r>   -1.9780    1.0000 </r>
       <r>   -1.9721    1.0000 </r>
       <r>   -1.9587    1.0000 </r>
       <r>   -1.9469    1.0000 </r>
       <r>   -1.9236    1.0000 </r>
       <r>   -1.9194    1.0000 </r>
       <r>   -1.8935    1.0000 </r>
       <r>   -1.8801    1.0000 </r>
       <r>   -1.8791    1.0000 </r>
       <r>   -1.8779    1.0000 </r>
       <r>   -1.8697    1.0000 </r>
       <r>   -1.8569    1.0000 </r>
       <r>   -1.8545    1.0000 </r>
       <r>   -1.8386    1.0000 </r>
       <r>   -1.8272    1.0000 </r>
       <r>   -1.8229    1.0000 </r>
       <r>   -1.8148    1.0000 </r>
       <r>   -1.8068    1.0000 </r>
       <r>   -1.7909    1.0000 </r>
       <r>   -1.7878    1.0000 </r>
       <r>   -1.7812    1.0000 </r>
       <r>   -1.7601    1.0000 </r>
       <r>   -1.7559    1.0000 </r>
       <r>   -1.7370    1.0000 </r>
       <r>   -1.7178    1.0000 </r>
       <r>   -1.7143    1.0000 </r>
       <r>   -1.6844    1.0000 </r>
       <r>   -1.6738    1.0000 </r>
       <r>   -1.6680    1.0000 </r>
       <r>   -1.6568    1.0000 </r>
       <r>   -1.6445    1.0000 </r>
       <r>   -1.6342    1.0000 </r>
       <r>   -1.6139    1.0000 </r>
       <r>   -1.6015    1.0000 </r>
       <r>   -1.5886    1.0000 </r>
       <r>   -1.5687    1.0000 </r>
       <r>   -1.5505    1.0000 </r>
       <r>   -1.5409    1.0000 </r>
       <r>   -1.5334    1.0000 </r>
       <r>   -1.5232    1.0000 </r>
       <r>   -1.5130    1.0000 </r>
       <r>   -1.5098    1.0000 </r>
       <r>   -1.4945    1.0000 </r>
       <r>   -1.4721    1.0000 </r>
       <r>   -1.4618    1.0000 </r>
       <r>   -1.4444    1.0000 </r>
       <r>   -1.4326    1.0000 </r>
       <r>   -1.4112    1.0000 </r>
       <r>   -1.3992    1.0000 </r>
       <r>   -1.3922    1.0000 </r>
       <r>   -1.3785    1.0000 </r>
       <r>   -1.3702    1.0000 </r>
       <r>   -1.3653    1.0000 </r>
       <r>   -1.3363    1.0000 </r>
       <r>   -1.3306    1.0000 </r>
       <r>   -1.3225    1.0000 </r>
       <r>   -1.2990    1.0000 </r>
       <r>   -1.2881    1.0000 </r>
       <r>   -1.2793    1.0000 </r>
       <r>   -1.2716    1.0000 </r>
       <r>   -1.2298    1.0000 </r>
       <r>   -1.2155    1.0000 </r>
       <r>   -1.2010    1.0000 </r>
       <r>   -1.1938    1.0000 </r>
       <r>   -1.1778    1.0000 </r>
       <r>   -1.1705    1.0000 </r>
       <r>   -1.1606    1.0000 </r>
       <r>   -1.1482    1.0000 </r>
       <r>   -1.1174    1.0000 </r>
       <r>   -1.1142    1.0000 </r>
       <r>   -1.0947    1.0000 </r>
       <r>   -1.0827    1.0000 </r>
       <r>   -1.0786    1.0000 </r>
       <r>   -1.0640    1.0000 </r>
       <r>   -1.0292    1.0000 </r>
       <r>   -0.9905    1.0000 </r>
       <r>   -0.9689    1.0000 </r>
       <r>   -0.9413    1.0000 </r>
       <r>   -0.9241    1.0000 </r>
       <r>   -0.9212    1.0000 </r>
       <r>   -0.9167    1.0000 </r>
       <r>   -0.8991    1.0000 </r>
       <r>   -0.8847    1.0000 </r>
       <r>   -0.8688    1.0000 </r>
       <r>   -0.8559    1.0000 </r>
       <r>   -0.8364    1.0000 </r>
       <r>   -0.8198    1.0000 </r>
       <r>   -0.8176    1.0000 </r>
       <r>   -0.7655    0.9999 </r>
       <r>   -0.7272    0.9997 </r>
       <r>   -0.7091    0.9995 </r>
       <r>   -0.6801    0.9990 </r>
       <r>   -0.6708    0.9987 </r>
       <r>   -0.6684    0.9986 </r>
       <r>   -0.6488    0.9979 </r>
       <r>   -0.6184    0.9959 </r>
       <r>   -0.6047    0.9946 </r>
       <r>   -0.5698    0.9893 </r>
       <r>   -0.5339    0.9798 </r>
       <r>   -0.5250    0.9765 </r>
       <r>   -0.4947    0.9617 </r>
       <r>   -0.4827    0.9541 </r>
       <r>   -0.4431    0.9202 </r>
       <r>   -0.4355    0.9120 </r>
       <r>   -0.4062    0.8740 </r>
       <r>   -0.3872    0.8440 </r>
       <r>   -0.3697    0.8125 </r>
       <r>   -0.3149    0.6915 </r>
       <r>   -0.2885    0.6230 </r>
       <r>   -0.2611    0.5477 </r>
       <r>   -0.2489    0.5131 </r>
       <r>   -0.2088    0.4010 </r>
       <r>   -0.1637    0.2845 </r>
       <r>   -0.1613    0.2789 </r>
       <r>   -0.1067    0.1655 </r>
       <r>   -0.0892    0.1365 </r>
       <r>   -0.0359    0.0704 </r>
       <r>   -0.0130    0.0510 </r>
       <r>    0.0714    0.0128 </r>
       <r>    0.0969    0.0079 </r>
       <r>    0.1173    0.0053 </r>
       <r>    0.1863    0.0012 </r>
       <r>    0.1868    0.0012 </r>
       <r>    0.2446    0.0003 </r>
       <r>    0.2596    0.0002 </r>
       <r>    0.2816    0.0001 </r>
       <r>    0.3280    0.0000 </r>
       <r>    0.3738    0.0000 </r>
       <r>    0.3910    0.0000 </r>
       <r>    0.4339    0.0000 </r>
       <r>    0.4722    0.0000 </r>
       <r>    0.5124    0.0000 </r>
       <r>    0.5351    0.0000 </r>
       <r>    0.5803    0.0000 </r>
       <r>    0.6080    0.0000 </r>
       <r>    0.6816    0.0000 </r>
       <r>    0.7047    0.0000 </r>
       <r>    0.7476    0.0000 </r>
       <r>    0.7650    0.0000 </r>
       <r>    0.7927    0.0000 </r>
       <r>    0.8236    0.0000 </r>
       <r>    0.8464    0.0000 </r>
       <r>    0.8611    0.0000 </r>
       <r>    0.9248    0.0000 </r>
       <r>    0.9469    0.0000 </r>
       <r>    0.9483    0.0000 </r>
       <r>    0.9921    0.0000 </r>
       <r>    1.0436    0.0000 </r>
       <r>    1.0625    0.0000 </r>
       <r>    1.0678    0.0000 </r>
       <r>    1.1682    0.0000 </r>
       <r>    1.8984    0.0000 </r>
       <r>    2.1479    0.0000 </r>
       <r>    2.1954    0.0000 </r>
       <r>    2.6355    0.0000 </r>
       <r>    2.7549    0.0000 </r>
       <r>    2.8326    0.0000 </r>
       <r>    3.2267    0.0000 </r>
       <r>    3.5127    0.0000 </r>
       <r>    3.5538    0.0000 </r>
       <r>    3.6105    0.0000 </r>
       <r>    3.9127    0.0000 </r>
       <r>    4.0000    0.0000 </r>
       <r>    4.0408    0.0000 </r>
       <r>    4.0428    0.0000 </r>
       <r>    4.1462    0.0000 </r>
       <r>    4.2080    0.0000 </r>
       <r>    4.2498    0.0000 </r>
       <r>    4.3881    0.0000 </r>
       <r>    4.4135    0.0000 </r>
       <r>    4.4627    0.0000 </r>
       <r>    4.4887    0.0000 </r>
       <r>    4.5510    0.0000 </r>
       <r>    4.7008    0.0000 </r>
       <r>    4.8227    0.0000 </r>
       <r>    4.8428    0.0000 </r>
       <r>    4.8904    0.0000 </r>
       <r>    4.9482    0.0000 </r>
       <r>    5.0202    0.0000 </r>
       <r>    5.0566    0.0000 </r>
       <r>    5.0933    0.0000 </r>
       <r>    5.2131    0.0000 </r>
       <r>    5.2602    0.0000 </r>
       <r>    5.2666    0.0000 </r>
       <r>    5.3073    0.0000 </r>
       <r>    5.3744    0.0000 </r>
       <r>    5.4167    0.0000 </r>
       <r>    5.4600    0.0000 </r>
       <r>    5.5085    0.0000 </r>
       <r>    5.5298    0.0000 </r>
       <r>    5.5736    0.0000 </r>
      </set>
     </set>
    </set>
   </array>
  </eigenvalues>
  <separator name="orbital magnetization" >
   <v name="MAGDIPOLOUT">      0.00000000      0.00000000      0.00000000</v>
  </separator>
  <dos>
   <i name="efermi">     -0.24420104 </i>
   <total>
    <array>
     <dimension dim="1">gridpoints</dimension>
     <dimension dim="2">spin</dimension>
     <field>energy</field>
     <field>total</field>
     <field>integrated</field>
     <set>
      <set comment="spin 1">
       <r>   -67.8878     0.0000     0.0000 </r>
       <r>   -67.6312     0.0000     0.0000 </r>
       <r>   -67.3747     0.0000     0.0000 </r>
       <r>   -67.1182     0.0000     0.0000 </r>
       <r>   -66.8616     0.0000     0.0000 </r>
       <r>   -66.6051     0.0000     0.0000 </r>
       <r>   -66.3486     0.0000     0.0000 </r>
       <r>   -66.0920     0.0000     0.0000 </r>
       <r>   -65.8355     0.0000     0.0000 </r>
       <r>   -65.5790     0.0000     0.0000 </r>
       <r>   -65.3225     0.0000     0.0000 </r>
       <r>   -65.0659     0.0000     0.0000 </r>
       <r>   -64.8094     0.0790     0.0203 </r>
       <r>   -64.5529    11.3345     2.9279 </r>
       <r>   -64.2963   133.1900    37.0954 </r>
       <r>   -64.0398   229.9338    96.0808 </r>
       <r>   -63.7833   151.6710   134.9892 </r>
       <r>   -63.5267   131.8706   168.8183 </r>
       <r>   -63.2702   101.7051   194.9089 </r>
       <r>   -63.0137    70.3680   212.9605 </r>
       <r>   -62.7571    32.2355   221.2300 </r>
       <r>   -62.5006     2.9781   221.9939 </r>
       <r>   -62.2441     0.0236   222.0000 </r>
       <r>   -61.9875     0.0000   222.0000 </r>
       <r>   -61.7310     0.0000   222.0000 </r>
       <r>   -61.4745     0.0000   222.0000 </r>
       <r>   -61.2179     0.0000   222.0000 </r>
       <r>   -60.9614     0.0000   222.0000 </r>
       <r>   -60.7049     0.0000   222.0000 </r>
       <r>   -60.4483     0.0000   222.0000 </r>
       <r>   -60.1918     0.0000   222.0000 </r>
       <r>   -59.9353     0.0000   222.0000 </r>
       <r>   -59.6788     0.0000   222.0000 </r>
       <r>   -59.4222     0.0000   222.0000 </r>
       <r>   -59.1657     0.0000   222.0000 </r>
       <r>   -58.9092     0.0000   222.0000 </r>
       <r>   -58.6526     0.0000   222.0000 </r>
       <r>   -58.3961     0.0000   222.0000 </r>
       <r>   -58.1396     0.0000   222.0000 </r>
       <r>   -57.8830     0.0000   222.0000 </r>
       <r>   -57.6265     0.0000   222.0000 </r>
       <r>   -57.3700     0.0000   222.0000 </r>
       <r>   -57.1134     0.0000   222.0000 </r>
       <r>   -56.8569     0.0000   222.0000 </r>
       <r>   -56.6004     0.0000   222.0000 </r>
       <r>   -56.3438     0.0000   222.0000 </r>
       <r>   -56.0873     0.0000   222.0000 </r>
       <r>   -55.8308     0.0000   222.0000 </r>
       <r>   -55.5742     0.0000   222.0000 </r>
       <r>   -55.3177     0.0000   222.0000 </r>
       <r>   -55.0612     0.0000   222.0000 </r>
       <r>   -54.8046     0.0000   222.0000 </r>
       <r>   -54.5481     0.0000   222.0000 </r>
       <r>   -54.2916     0.0000   222.0000 </r>
       <r>   -54.0350     0.0000   222.0000 </r>
       <r>   -53.7785     0.0000   222.0000 </r>
       <r>   -53.5220     0.0000   222.0000 </r>
       <r>   -53.2655     0.0000   222.0000 </r>
       <r>   -53.0089     0.0000   222.0000 </r>
       <r>   -52.7524     0.0000   222.0000 </r>
       <r>   -52.4959     0.0000   222.0000 </r>
       <r>   -52.2393     0.0000   222.0000 </r>
       <r>   -51.9828     0.0000   222.0000 </r>
       <r>   -51.7263     0.0000   222.0000 </r>
       <r>   -51.4697     0.0000   222.0000 </r>
       <r>   -51.2132     0.0000   222.0000 </r>
       <r>   -50.9567     0.0000   222.0000 </r>
       <r>   -50.7001     0.0000   222.0000 </r>
       <r>   -50.4436     0.0000   222.0000 </r>
       <r>   -50.1871     0.0000   222.0000 </r>
       <r>   -49.9305     0.0000   222.0000 </r>
       <r>   -49.6740     0.0000   222.0000 </r>
       <r>   -49.4175     0.0000   222.0000 </r>
       <r>   -49.1609     0.0000   222.0000 </r>
       <r>   -48.9044     0.0000   222.0000 </r>
       <r>   -48.6479     0.0000   222.0000 </r>
       <r>   -48.3913     0.0000   222.0000 </r>
       <r>   -48.1348     0.0000   222.0000 </r>
       <r>   -47.8783     0.0000   222.0000 </r>
       <r>   -47.6217     0.0000   222.0000 </r>
       <r>   -47.3652     0.0000   222.0000 </r>
       <r>   -47.1087     0.0000   222.0000 </r>
       <r>   -46.8522     0.0000   222.0000 </r>
       <r>   -46.5956     0.0000   222.0000 </r>
       <r>   -46.3391     0.0000   222.0000 </r>
       <r>   -46.0826     0.0000   222.0000 </r>
       <r>   -45.8260     0.0000   222.0000 </r>
       <r>   -45.5695     0.0000   222.0000 </r>
       <r>   -45.3130     0.0000   222.0000 </r>
       <r>   -45.0564     0.0000   222.0000 </r>
       <r>   -44.7999     0.0000   222.0000 </r>
       <r>   -44.5434     0.0000   222.0000 </r>
       <r>   -44.2868     0.0000   222.0000 </r>
       <r>   -44.0303     0.0000   222.0000 </r>
       <r>   -43.7738     0.0000   222.0000 </r>
       <r>   -43.5172     0.0000   222.0000 </r>
       <r>   -43.2607     0.0000   222.0000 </r>
       <r>   -43.0042     0.0000   222.0000 </r>
       <r>   -42.7476     0.0000   222.0000 </r>
       <r>   -42.4911     0.0000   222.0000 </r>
       <r>   -42.2346     0.0000   222.0000 </r>
       <r>   -41.9780     0.0000   222.0000 </r>
       <r>   -41.7215     0.0000   222.0000 </r>
       <r>   -41.4650     0.0000   222.0000 </r>
       <r>   -41.2085     0.0000   222.0000 </r>
       <r>   -40.9519     0.0000   222.0000 </r>
       <r>   -40.6954     0.0000   222.0000 </r>
       <r>   -40.4389     0.0000   222.0000 </r>
       <r>   -40.1823     0.0000   222.0000 </r>
       <r>   -39.9258     0.0000   222.0000 </r>
       <r>   -39.6693     0.0000   222.0000 </r>
       <r>   -39.4127     0.0000   222.0000 </r>
       <r>   -39.1562     0.0000   222.0000 </r>
       <r>   -38.8997     0.0000   222.0000 </r>
       <r>   -38.6431     0.0000   222.0000 </r>
       <r>   -38.3866     0.0000   222.0000 </r>
       <r>   -38.1301     0.0000   222.0000 </r>
       <r>   -37.8735     0.0000   222.0000 </r>
       <r>   -37.6170     0.0000   222.0000 </r>
       <r>   -37.3605     0.0000   222.0000 </r>
       <r>   -37.1039     0.0000   222.0000 </r>
       <r>   -36.8474     0.0000   222.0000 </r>
       <r>   -36.5909     0.0000   222.0000 </r>
       <r>   -36.3343     0.0000   222.0000 </r>
       <r>   -36.0778     0.0000   222.0000 </r>
       <r>   -35.8213     0.0000   222.0000 </r>
       <r>   -35.5647     0.0000   222.0000 </r>
       <r>   -35.3082     0.0000   222.0000 </r>
       <r>   -35.0517     0.0000   222.0000 </r>
       <r>   -34.7952     0.0000   222.0000 </r>
       <r>   -34.5386     0.0000   222.0000 </r>
       <r>   -34.2821     0.0000   222.0000 </r>
       <r>   -34.0256     0.0000   222.0000 </r>
       <r>   -33.7690     0.0000   222.0000 </r>
       <r>   -33.5125     0.0000   222.0000 </r>
       <r>   -33.2560     0.0000   222.0000 </r>
       <r>   -32.9994     0.0000   222.0000 </r>
       <r>   -32.7429     0.0000   222.0000 </r>
       <r>   -32.4864     0.0000   222.0000 </r>
       <r>   -32.2298     0.0000   222.0000 </r>
       <r>   -31.9733     0.0000   222.0000 </r>
       <r>   -31.7168     0.0000   222.0000 </r>
       <r>   -31.4602     0.0000   222.0000 </r>
       <r>   -31.2037     0.0000   222.0000 </r>
       <r>   -30.9472     0.0000   222.0000 </r>
       <r>   -30.6906     0.0000   222.0000 </r>
       <r>   -30.4341     0.0000   222.0000 </r>
       <r>   -30.1776     0.0000   222.0000 </r>
       <r>   -29.9210     0.0000   222.0000 </r>
       <r>   -29.6645     0.0000   222.0000 </r>
       <r>   -29.4080     0.0000   222.0000 </r>
       <r>   -29.1515     0.0000   222.0000 </r>
       <r>   -28.8949     0.0000   222.0000 </r>
       <r>   -28.6384     0.0000   222.0000 </r>
       <r>   -28.3819     0.0000   222.0000 </r>
       <r>   -28.1253     0.0000   222.0000 </r>
       <r>   -27.8688     0.0000   222.0000 </r>
       <r>   -27.6123     0.0000   222.0000 </r>
       <r>   -27.3557     0.0000   222.0000 </r>
       <r>   -27.0992     0.0000   222.0000 </r>
       <r>   -26.8427     0.0000   222.0000 </r>
       <r>   -26.5861     0.0000   222.0000 </r>
       <r>   -26.3296     0.0000   222.0000 </r>
       <r>   -26.0731     0.0000   222.0000 </r>
       <r>   -25.8165     0.0000   222.0000 </r>
       <r>   -25.5600     0.0000   222.0000 </r>
       <r>   -25.3035     0.0000   222.0000 </r>
       <r>   -25.0469     0.0000   222.0000 </r>
       <r>   -24.7904     0.0000   222.0000 </r>
       <r>   -24.5339     0.0000   222.0000 </r>
       <r>   -24.2773     0.0000   222.0000 </r>
       <r>   -24.0208     0.0000   222.0000 </r>
       <r>   -23.7643     0.0000   222.0000 </r>
       <r>   -23.5077     0.0000   222.0000 </r>
       <r>   -23.2512     0.0000   222.0000 </r>
       <r>   -22.9947     0.0000   222.0000 </r>
       <r>   -22.7382     0.0000   222.0000 </r>
       <r>   -22.4816     0.0000   222.0000 </r>
       <r>   -22.2251     0.0000   222.0000 </r>
       <r>   -21.9686     0.0000   222.0000 </r>
       <r>   -21.7120     0.0000   222.0000 </r>
       <r>   -21.4555     0.0000   222.0000 </r>
       <r>   -21.1990     0.0000   222.0000 </r>
       <r>   -20.9424     0.0000   222.0000 </r>
       <r>   -20.6859     0.0000   222.0000 </r>
       <r>   -20.4294     0.0000   222.0000 </r>
       <r>   -20.1728     0.0000   222.0000 </r>
       <r>   -19.9163     0.0000   222.0000 </r>
       <r>   -19.6598     0.0000   222.0000 </r>
       <r>   -19.4032     0.0000   222.0000 </r>
       <r>   -19.1467     0.0000   222.0000 </r>
       <r>   -18.8902     0.0000   222.0000 </r>
       <r>   -18.6336     0.0000   222.0000 </r>
       <r>   -18.3771     0.0000   222.0000 </r>
       <r>   -18.1206     0.0000   222.0000 </r>
       <r>   -17.8640     0.0000   222.0000 </r>
       <r>   -17.6075     0.0000   222.0000 </r>
       <r>   -17.3510     0.0000   222.0000 </r>
       <r>   -17.0944     0.0000   222.0000 </r>
       <r>   -16.8379     0.0000   222.0000 </r>
       <r>   -16.5814     0.0000   222.0000 </r>
       <r>   -16.3249     0.0000   222.0000 </r>
       <r>   -16.0683     0.0000   222.0000 </r>
       <r>   -15.8118     0.0002   222.0001 </r>
       <r>   -15.5553     0.0998   222.0257 </r>
       <r>   -15.2987     2.6460   222.7044 </r>
       <r>   -15.0422     8.4456   224.8710 </r>
       <r>   -14.7857    10.6815   227.6111 </r>
       <r>   -14.5291     9.8627   230.1412 </r>
       <r>   -14.2726    18.7353   234.9474 </r>
       <r>   -14.0161    26.8992   241.8479 </r>
       <r>   -13.7595    32.2852   250.1301 </r>
       <r>   -13.5030    32.6959   258.5176 </r>
       <r>   -13.2465    18.2726   263.2052 </r>
       <r>   -12.9899    19.6225   268.2390 </r>
       <r>   -12.7334    25.5039   274.7815 </r>
       <r>   -12.4769    33.4079   283.3517 </r>
       <r>   -12.2203    23.9128   289.4861 </r>
       <r>   -11.9638     9.7615   291.9903 </r>
       <r>   -11.7073     9.5794   294.4477 </r>
       <r>   -11.4507     5.5002   295.8587 </r>
       <r>   -11.1942     0.5471   295.9990 </r>
       <r>   -10.9377     0.0038   296.0000 </r>
       <r>   -10.6812     0.0000   296.0000 </r>
       <r>   -10.4246     0.0000   296.0000 </r>
       <r>   -10.1681     0.0000   296.0000 </r>
       <r>    -9.9116     0.0000   296.0000 </r>
       <r>    -9.6550     0.0000   296.0000 </r>
       <r>    -9.3985     0.0000   296.0000 </r>
       <r>    -9.1420     0.0000   296.0000 </r>
       <r>    -8.8854     0.0000   296.0000 </r>
       <r>    -8.6289     0.0000   296.0000 </r>
       <r>    -8.3724     0.0000   296.0000 </r>
       <r>    -8.1158     0.0000   296.0000 </r>
       <r>    -7.8593     0.0000   296.0000 </r>
       <r>    -7.6028     0.0001   296.0000 </r>
       <r>    -7.3462     0.0786   296.0202 </r>
       <r>    -7.0897     4.5769   297.1943 </r>
       <r>    -6.8332    22.8328   303.0516 </r>
       <r>    -6.5766    21.9959   308.6943 </r>
       <r>    -6.3201    34.3713   317.5116 </r>
       <r>    -6.0636    41.1157   328.0591 </r>
       <r>    -5.8070    45.9729   339.8526 </r>
       <r>    -5.5505    52.0361   353.2016 </r>
       <r>    -5.2940    52.0147   366.5450 </r>
       <r>    -5.0374    41.0000   377.0628 </r>
       <r>    -4.7809    41.1071   387.6081 </r>
       <r>    -4.5244    55.2597   401.7840 </r>
       <r>    -4.2679    56.8340   416.3637 </r>
       <r>    -4.0113    57.5079   431.1163 </r>
       <r>    -3.7548    72.7221   449.7719 </r>
       <r>    -3.4983    64.2371   466.2507 </r>
       <r>    -3.2417    58.5336   481.2665 </r>
       <r>    -2.9852    62.7129   497.3543 </r>
       <r>    -2.7287    70.4425   515.4251 </r>
       <r>    -2.4721    79.4881   535.8163 </r>
       <r>    -2.2156   110.4187   564.1422 </r>
       <r>    -1.9591   143.3152   600.9071 </r>
       <r>    -1.7025   169.4596   644.3789 </r>
       <r>    -1.4460   157.1302   684.6878 </r>
       <r>    -1.1895   143.1253   721.4041 </r>
       <r>    -0.9329   121.2069   752.4975 </r>
       <r>    -0.6764   102.6787   778.8379 </r>
       <r>    -0.4199    86.8150   801.1087 </r>
       <r>    -0.1633    70.6011   819.2201 </r>
       <r>     0.0932    55.7222   833.5146 </r>
       <r>     0.3497    56.4526   847.9965 </r>
       <r>     0.6063    55.8192   862.3159 </r>
       <r>     0.8628    60.4626   877.8265 </r>
       <r>     1.1193    53.4623   891.5413 </r>
       <r>     1.3758    16.4828   895.7697 </r>
       <r>     1.6324     1.1280   896.0591 </r>
       <r>     1.8889     3.8375   897.0435 </r>
       <r>     2.1454    10.0809   899.6296 </r>
       <r>     2.4020     8.8372   901.8966 </r>
       <r>     2.6585     7.5824   903.8417 </r>
       <r>     2.9150    12.9433   907.1621 </r>
       <r>     3.1716     6.0014   908.7017 </r>
       <r>     3.4281     8.8316   910.9673 </r>
       <r>     3.6846    15.6298   914.9768 </r>
       <r>     3.9412    15.6885   919.0014 </r>
       <r>     4.1977    29.6641   926.6112 </r>
       <r>     4.4542    31.4215   934.6718 </r>
       <r>     4.7108    27.2752   941.6687 </r>
       <r>     4.9673    30.7525   949.5577 </r>
       <r>     5.2238    36.7790   958.9927 </r>
       <r>     5.4804    41.1393   969.5463 </r>
       <r>     5.7369    22.8724   975.4138 </r>
       <r>     5.9934     2.2662   975.9951 </r>
       <r>     6.2500     0.0190   976.0000 </r>
       <r>     6.5065     0.0000   976.0000 </r>
       <r>     6.7630     0.0000   976.0000 </r>
       <r>     7.0196     0.0000   976.0000 </r>
       <r>     7.2761     0.0000   976.0000 </r>
       <r>     7.5326     0.0000   976.0000 </r>
       <r>     7.7891     0.0000   976.0000 </r>
       <r>     8.0457     0.0000   976.0000 </r>
       <r>     8.3022     0.0000   976.0000 </r>
       <r>     8.5587     0.0000   976.0000 </r>
       <r>     8.8153     0.0000   976.0000 </r>
       <r>     9.0718     0.0000   976.0000 </r>
      </set>
     </set>
    </array>
   </total>
  </dos>
 </calculation>
 <structure name="finalpos" >
  <crystal>
   <varray name="basis" >
    <v>      16.88469405       0.00000000       0.00000000 </v>
    <v>       0.00000000       9.57841000       0.00000000 </v>
    <v>       0.00000000       0.00000000      16.19761915 </v>
   </varray>
   <i name="volume">   2619.61701075 </i>
   <varray name="rec_basis" >
    <v>       0.05922524       0.00000000       0.00000000 </v>
    <v>       0.00000000       0.10440146       0.00000000 </v>
    <v>       0.00000000       0.00000000       0.06173747 </v>
   </varray>
  </crystal>
  <varray name="positions" >
   <v>       0.06497261       0.92341313       0.31080449 </v>
   <v>       0.09954057       0.92341313       0.12037258 </v>
   <v>       0.58225659       0.42341313       0.21558854 </v>
   <v>       0.61682455       0.42341313       0.02515663 </v>
   <v>       0.23740060       0.42341313       0.27906584 </v>
   <v>       0.27196856       0.42341313       0.08863393 </v>
   <v>       0.72011663       0.92341313       0.37428180 </v>
   <v>       0.75468458       0.92341313       0.18384989 </v>
   <v>       0.40982860       0.92341313       0.24732719 </v>
   <v>       0.44439655       0.92341313       0.05689528 </v>
   <v>       0.89254462       0.42341313       0.34254314 </v>
   <v>       0.92711258       0.42341313       0.15211123 </v>
   <v>       0.42015216       0.55551613       0.38086382 </v>
   <v>       0.45472012       0.55551613       0.19043191 </v>
   <v>       0.48928808       0.55551613       0.00000000 </v>
   <v>       0.93743614       0.05551613       0.28564787 </v>
   <v>       0.97200410       0.05551613       0.09521596 </v>
   <v>       0.10986414       0.55551613       0.25390921 </v>
   <v>       0.14443209       0.55551613       0.06347730 </v>
   <v>       0.59258016       0.05551613       0.34912517 </v>
   <v>       0.62714811       0.05551613       0.15869326 </v>
   <v>       0.28229213       0.05551613       0.22217056 </v>
   <v>       0.31686009       0.05551613       0.03173865 </v>
   <v>       0.76500815       0.55551613       0.31738652 </v>
   <v>       0.79957611       0.55551613       0.12695461 </v>
   <v>       0.06497261       0.18761913       0.31080449 </v>
   <v>       0.09954057       0.18761913       0.12037258 </v>
   <v>       0.58225659       0.68761913       0.21558854 </v>
   <v>       0.61682455       0.68761913       0.02515663 </v>
   <v>       0.23740060       0.68761913       0.27906584 </v>
   <v>       0.27196856       0.68761913       0.08863393 </v>
   <v>       0.72011663       0.18761913       0.37428180 </v>
   <v>       0.75468458       0.18761913       0.18384989 </v>
   <v>       0.40982860       0.18761913       0.24732719 </v>
   <v>       0.44439655       0.18761913       0.05689528 </v>
   <v>       0.89254462       0.68761913       0.34254314 </v>
   <v>       0.92711258       0.68761913       0.15211123 </v>
   <v>       0.02101885       0.22373113       0.00146664 </v>
   <v>       0.46916691       0.72373113       0.28711451 </v>
   <v>       0.50373487       0.72373113       0.09668260 </v>
   <v>       0.95188293       0.22373113       0.38233046 </v>
   <v>       0.98645089       0.22373113       0.19189855 </v>
   <v>       0.12431093       0.72373113       0.35059181 </v>
   <v>       0.15887888       0.72373113       0.16015990 </v>
   <v>       0.64159490       0.22373113       0.25537586 </v>
   <v>       0.67616286       0.22373113       0.06494395 </v>
   <v>       0.29673892       0.22373113       0.31885316 </v>
   <v>       0.33130688       0.22373113       0.12842125 </v>
   <v>       0.81402290       0.72373113       0.22363721 </v>
   <v>       0.84859085       0.72373113       0.03320530 </v>
   <v>       0.14885104       0.05551613       0.22393206 </v>
   <v>       0.63156706       0.55551613       0.31914801 </v>
   <v>       0.66613502       0.55551613       0.12871610 </v>
   <v>       0.28671108       0.55551613       0.38262532 </v>
   <v>       0.32127903       0.55551613       0.19219341 </v>
   <v>       0.35584699       0.55551613       0.00176149 </v>
   <v>       0.80399506       0.05551613       0.28740936 </v>
   <v>       0.83856301       0.05551613       0.09697745 </v>
   <v>       0.01099101       0.55551613       0.06523880 </v>
   <v>       0.45913907       0.05551613       0.35088666 </v>
   <v>       0.49370703       0.05551613       0.16045475 </v>
   <v>       0.97642305       0.55551613       0.25567071 </v>
   <v>       0.46916691       0.38730113       0.28711451 </v>
   <v>       0.50373487       0.38730113       0.09668260 </v>
   <v>       0.95188293       0.88730113       0.38233046 </v>
   <v>       0.98645089       0.88730113       0.19189855 </v>
   <v>       0.12431093       0.38730113       0.35059181 </v>
   <v>       0.15887888       0.38730113       0.16015990 </v>
   <v>       0.64159490       0.88730113       0.25537586 </v>
   <v>       0.67616286       0.88730113       0.06494395 </v>
   <v>       0.29673892       0.88730113       0.31885316 </v>
   <v>       0.33130688       0.88730113       0.12842125 </v>
   <v>       0.81402290       0.38730113       0.22363721 </v>
   <v>       0.84859085       0.38730113       0.03320530 </v>
  </varray>
 </structure>
</modeling>
