LAMMPS (5 Jun 2019)
OMP_NUM_THREADS environment is not set. Defaulting to 1 thread. (../comm.cpp:88)
  using 1 OpenMP thread(s) per MPI task
Reading data file ...
  triclinic box = (0 0 0) to (11.2565 10.0628 22.8836) with tilt (5.04456 0 0)
  1 by 1 by 1 MPI processor grid
  reading atoms ...
  104 atoms
  read_data CPU = 0.000871282 secs
69 atoms in group bulk
WARNING: Using 'neigh_modify every 1 delay 0 check yes' setting during minimization (../min.cpp:168)
Neighbor list info ...
  update every 1 steps, delay 0 steps, check yes
  max neighbors/atom: 2000, page size: 100000
  master list distance cutoff = 8.5
  ghost atom cutoff = 8.5
  binsize = 4.25, bins = 4 3 6
  1 neighbor lists, perpetual/occasional/extra = 1 0 0
  (1) pair eam/alloy, perpetual
      attributes: half, newton on
      pair build: half/bin/newton/tri
      stencil: half/bin/3d/newton/tri
      bin: standard
Setting up cg style minimization ...
  Unit style    : metal
  Current step  : 0
Per MPI rank memory allocation (min/avg/max) = 4.126 | 4.126 | 4.126 Mbytes
Step Temp E_pair E_mol TotEng Press 
       0            0   -438.30006            0   -438.30006   -138067.02 
      42            0   -468.74543            0   -468.74543   -54605.449 
Loop time of 0.041101 on 1 procs for 42 steps with 104 atoms

99.8% CPU use with 1 MPI tasks x 1 OpenMP threads

Minimization stats:
  Stopping criterion = energy tolerance
  Energy initial, next-to-last, final = 
        -438.300062143     -468.743112654     -468.745431019
  Force two-norm initial, final = 13.7502 0.276399
  Force max component initial, final = 2.97062 0.132437
  Final line search alpha, max atom move = 0.638097 0.0845079
  Iterations, force evaluations = 42 60

MPI task timing breakdown:
Section |  min time  |  avg time  |  max time  |%varavg| %total
---------------------------------------------------------------
Pair    | 0.037116   | 0.037116   | 0.037116   |   0.0 | 90.31
Neigh   | 0.0025961  | 0.0025961  | 0.0025961  |   0.0 |  6.32
Comm    | 0.00075682 | 0.00075682 | 0.00075682 |   0.0 |  1.84
Output  | 0          | 0          | 0          |   0.0 |  0.00
Modify  | 5.6259e-05 | 5.6259e-05 | 5.6259e-05 |   0.0 |  0.14
Other   |            | 0.0005754  |            |       |  1.40

Nlocal:    104 ave 104 max 104 min
Histogram: 1 0 0 0 0 0 0 0 0 0
Nghost:    1157 ave 1157 max 1157 min
Histogram: 1 0 0 0 0 0 0 0 0 0
Neighs:    7369 ave 7369 max 7369 min
Histogram: 1 0 0 0 0 0 0 0 0 0

Total # of neighbors = 7369
Ave neighs/atom = 70.8558
Neighbor list builds = 3
Dangerous builds = 0
System init for write_data ...
Total wall time: 0:00:00
