<?xml version="1.0" encoding="ISO-8859-1"?>
<modeling>
 <generator>
  <i name="program" type="string">vasp </i>
  <i name="version" type="string">5.4.4.18Apr17-6-g9f103f2a35  </i>
  <i name="subversion" type="string">(build Aug 13 2019 17:33:20) gamma-only         parallel </i>
  <i name="platform" type="string">LinuxIFC </i>
  <i name="date" type="string">2020 05 11 </i>
  <i name="time" type="string">02:07:36 </i>
 </generator>
 <incar>
  <i type="string" name="SYSTEM">"Millerite NiS"</i>
  <i type="string" name="PREC">normal</i>
  <i type="int" name="NSIM">     4</i>
  <i type="int" name="NELM">   100</i>
  <i name="ENCUT">    450.00000000</i>
  <i type="string" name="LREAL">A</i>
  <i type="int" name="ISMEAR">     0</i>
  <i type="int" name="NWRITE">     2</i>
  <i type="logical" name="LWAVE"> F  </i>
  <i type="logical" name="LCHARG"> F  </i>
  <v type="int" name="KPOINT_BSE">    -1     0     0     0</v>
  <i type="int" name="NELM">   100</i>
 </incar>
 <structure name="primitive_cell" >
  <crystal>
   <varray name="basis" >
    <v>      11.25646304       0.00000000       0.00000000 </v>
    <v>       5.04456212      10.06282034       0.00000000 </v>
    <v>       0.00000000       0.00000000      22.88364939 </v>
   </varray>
   <i name="volume">   2592.07135999 </i>
   <varray name="rec_basis" >
    <v>       0.08883785      -0.04453504       0.00000000 </v>
    <v>       0.00000000       0.09937572       0.00000000 </v>
    <v>       0.00000000       0.00000000       0.04369932 </v>
   </varray>
  </crystal>
  <varray name="positions" >
   <v>       0.26092070       0.47878036       0.29050611 </v>
   <v>       0.07287764      -0.33317657       0.30639927 </v>
   <v>       0.17409868       0.39738738       0.22126075 </v>
   <v>       0.34231368      -0.43439761       0.22126075 </v>
   <v>       0.43627354       0.47164251       0.34956450 </v>
   <v>       0.26805855       0.30342751       0.34956450 </v>
   <v>       0.36819893       0.23939913       0.25660749 </v>
   <v>      -0.49969806       0.37150212       0.25660749 </v>
   <v>       0.35488056       0.38482049       0.41880986 </v>
   <v>       0.16696083      -0.42725976       0.16220237 </v>
   <v>       0.16683750      -0.42713643       0.43470302 </v>
   <v>       0.47891775       0.26078330       0.17809552 </v>
   <v>      -0.42712237       0.16682343       0.30639927 </v>
   <v>       0.00030194       0.37150212       0.25660749 </v>
   <v>       0.09426181      -0.22245774       0.38491124 </v>
   <v>      -0.03784120      -0.35456074       0.38491124 </v>
   <v>       0.36819893      -0.26060087       0.25660749 </v>
   <v>       0.26805855      -0.19657249       0.34956450 </v>
   <v>      -0.06372646       0.47164251       0.34956450 </v>
   <v>       0.46215880       0.14543926       0.38491124 </v>
   <v>       0.40634206       0.46546199       0.12830375 </v>
   <v>       0.27423906       0.33335899       0.12830375 </v>
   <v>      -0.40573819       0.27754226       0.38491124 </v>
   <v>       0.09426181       0.27754226       0.38491124 </v>
   <v>       0.46215880      -0.35456074       0.38491124 </v>
   <v>       0.00030194      -0.12849788       0.25660749 </v>
   <v>      -0.13180107      -0.26060087       0.25660749 </v>
   <v>      -0.02108225      -0.23921670       0.17809552 </v>
   <v>       0.26035814      -0.34366299       0.11091590 </v>
   <v>       0.34231368       0.06560239       0.22126075 </v>
   <v>      -0.32590132       0.39738738       0.22126075 </v>
   <v>      -0.15768632      -0.43439761       0.22126075 </v>
   <v>       0.17409868      -0.10261262       0.22126075 </v>
   <v>       0.08498998       0.47942282       0.10246751 </v>
   <v>       0.39939962       0.21292446       0.46739271 </v>
   <v>       0.07287763       0.16682343       0.30639927 </v>
   <v>      -0.42712236      -0.33317657       0.30639927 </v>
   <v>      -0.46381078       0.36896679       0.46591799 </v>
   <v>       0.01708137       0.39287677       0.45972470 </v>
   <v>       0.04246328      -0.44644101       0.49479529 </v>
   <v>       0.17952802      -0.30526405       0.49823986 </v>
   <v>      -0.06372646      -0.02835749       0.34956450 </v>
   <v>      -0.23194145      -0.19657249       0.34956450 </v>
   <v>      -0.23194145       0.30342751       0.34956450 </v>
   <v>       0.43627354      -0.02835749       0.34956450 </v>
   <v>       0.36201842      -0.29053236       0.47786825 </v>
   <v>       0.47891775      -0.23921670       0.17809552 </v>
   <v>      -0.02108225       0.26078330       0.17809552 </v>
   <v>       0.27423907      -0.16664101       0.12830375 </v>
   <v>      -0.09365794       0.46546199       0.12830375 </v>
   <v>      -0.45759544       0.24796042       0.08994688 </v>
   <v>      -0.41872597       0.47821525       0.10536128 </v>
   <v>      -0.33303917       0.07274024       0.16220237 </v>
   <v>      -0.14511944      -0.11517951       0.41880986 </v>
   <v>       0.26092070      -0.02121964       0.29050611 </v>
   <v>      -0.23907930       0.47878036       0.29050611 </v>
   <v>       0.35577053       0.34724391       0.04803690 </v>
   <v>       0.17081045       0.07423979       0.40734526 </v>
   <v>       0.24835381       0.15956225       0.09295701 </v>
   <v>      -0.33316250       0.07286357       0.43470302 </v>
   <v>      -0.45717903      -0.45240911       0.49334716 </v>
   <v>       0.03023342      -0.12231736       0.47786825 </v>
   <v>      -0.13798158      -0.29053236       0.47786825 </v>
   <v>       0.16696083       0.07274024       0.16220237 </v>
   <v>       0.35488056      -0.11517951       0.41880986 </v>
   <v>      -0.14511944       0.38482049       0.41880986 </v>
   <v>      -0.23907930      -0.02121964       0.29050611 </v>
   <v>      -0.33303917      -0.42725976       0.16220237 </v>
   <v>      -0.33316250      -0.42713643       0.43470302 </v>
   <v>      -0.13180107       0.23939913       0.25660749 </v>
   <v>      -0.49969806      -0.12849788       0.25660749 </v>
   <v>       0.17415942       0.32880346       0.03948727 </v>
   <v>      -0.15768632       0.06560239       0.22126075 </v>
   <v>      -0.32590132      -0.10261262       0.22126075 </v>
   <v>      -0.22576093      -0.16664101       0.12830375 </v>
   <v>      -0.09365794      -0.03453801       0.12830375 </v>
   <v>      -0.03784120       0.14543926       0.38491124 </v>
   <v>      -0.22576094       0.33335899       0.12830375 </v>
   <v>       0.40634206      -0.03453801       0.12830375 </v>
   <v>      -0.40573819      -0.22245774       0.38491124 </v>
   <v>       0.41879049       0.13885053       0.05140968 </v>
   <v>      -0.29287809       0.19085616       0.48989161 </v>
   <v>       0.06473062      -0.33366863      -0.43918758 </v>
   <v>      -0.42554579      -0.00854784       0.10327883 </v>
   <v>      -0.43649751       0.04734963      -0.49897821 </v>
   <v>      -0.24220998      -0.34178069       0.10645986 </v>
   <v>       0.03468080       0.21251791       0.08796115 </v>
   <v>      -0.25164619       0.15956225       0.09295701 </v>
   <v>      -0.11217088      -0.14736597       0.06233088 </v>
   <v>       0.08013882      -0.00865276       0.09295701 </v>
   <v>      -0.09495371      -0.16547395      -0.47067452 </v>
   <v>       0.07279041       0.04041886       0.47663391 </v>
   <v>       0.39969460      -0.16148610       0.06339774 </v>
   <v>       0.43993015      -0.20090292      -0.46758583 </v>
   <v>       0.26544438      -0.03862104      -0.49314241 </v>
   <v>      -0.12900555       0.36864325       0.05467534 </v>
   <v>      -0.46976658      -0.12231736       0.47786825 </v>
   <v>      -0.11716460       0.20919347       0.46780662 </v>
   <v>      -0.29901189      -0.46173244       0.05851316 </v>
   <v>      -0.31695565      -0.30594812       0.49778950 </v>
   <v>      -0.28794235       0.01691507       0.05265597 </v>
   <v>       0.23166754       0.00749499       0.04940203 </v>
   <v>      -0.40255658      -0.36966254      -0.43822035 </v>
   <v>      -0.25958307       0.02224039      -0.45913313 </v>
  </varray>
 </structure>
 <varray name="primitive_index" >
  <v type="int" >        1 </v>
  <v type="int" >       79 </v>
  <v type="int" >       63 </v>
  <v type="int" >       87 </v>
  <v type="int" >       59 </v>
  <v type="int" >       64 </v>
  <v type="int" >        8 </v>
  <v type="int" >       23 </v>
  <v type="int" >        2 </v>
  <v type="int" >       31 </v>
  <v type="int" >       80 </v>
  <v type="int" >       56 </v>
  <v type="int" >       66 </v>
  <v type="int" >       10 </v>
  <v type="int" >       38 </v>
  <v type="int" >       48 </v>
  <v type="int" >       35 </v>
  <v type="int" >       90 </v>
  <v type="int" >       72 </v>
  <v type="int" >        9 </v>
  <v type="int" >       12 </v>
  <v type="int" >        7 </v>
  <v type="int" >       24 </v>
  <v type="int" >       11 </v>
  <v type="int" >       36 </v>
  <v type="int" >       37 </v>
  <v type="int" >       47 </v>
  <v type="int" >       95 </v>
  <v type="int" >       86 </v>
  <v type="int" >       61 </v>
  <v type="int" >       76 </v>
  <v type="int" >      100 </v>
  <v type="int" >       89 </v>
  <v type="int" >       62 </v>
  <v type="int" >       65 </v>
  <v type="int" >       53 </v>
  <v type="int" >       92 </v>
  <v type="int" >       71 </v>
  <v type="int" >       58 </v>
  <v type="int" >       32 </v>
  <v type="int" >       39 </v>
  <v type="int" >       98 </v>
  <v type="int" >      103 </v>
  <v type="int" >       77 </v>
  <v type="int" >       85 </v>
  <v type="int" >       91 </v>
  <v type="int" >       82 </v>
  <v type="int" >       69 </v>
  <v type="int" >       34 </v>
  <v type="int" >       26 </v>
  <v type="int" >       16 </v>
  <v type="int" >       75 </v>
  <v type="int" >       17 </v>
  <v type="int" >       42 </v>
  <v type="int" >       28 </v>
  <v type="int" >       14 </v>
  <v type="int" >       55 </v>
  <v type="int" >       54 </v>
  <v type="int" >       60 </v>
  <v type="int" >       67 </v>
  <v type="int" >       45 </v>
  <v type="int" >       84 </v>
  <v type="int" >      104 </v>
  <v type="int" >        4 </v>
  <v type="int" >       29 </v>
  <v type="int" >       15 </v>
  <v type="int" >       41 </v>
  <v type="int" >       44 </v>
  <v type="int" >       93 </v>
  <v type="int" >       21 </v>
  <v type="int" >       49 </v>
  <v type="int" >        6 </v>
  <v type="int" >       74 </v>
  <v type="int" >      102 </v>
  <v type="int" >       46 </v>
  <v type="int" >       52 </v>
  <v type="int" >       22 </v>
  <v type="int" >       20 </v>
  <v type="int" >       40 </v>
  <v type="int" >       50 </v>
  <v type="int" >       13 </v>
  <v type="int" >       25 </v>
  <v type="int" >       57 </v>
  <v type="int" >      101 </v>
  <v type="int" >       18 </v>
  <v type="int" >       99 </v>
  <v type="int" >        3 </v>
  <v type="int" >       73 </v>
  <v type="int" >       94 </v>
  <v type="int" >       88 </v>
  <v type="int" >       43 </v>
  <v type="int" >        5 </v>
  <v type="int" >       81 </v>
  <v type="int" >       30 </v>
  <v type="int" >       83 </v>
  <v type="int" >       68 </v>
  <v type="int" >       97 </v>
  <v type="int" >       78 </v>
  <v type="int" >       19 </v>
  <v type="int" >       51 </v>
  <v type="int" >       27 </v>
  <v type="int" >       33 </v>
  <v type="int" >       70 </v>
  <v type="int" >       96 </v>
 </varray>
 <kpoints>
  <generation param="Gamma">
   <v type="int" name="divisions">       1        1        1 </v>
   <v name="usershift">      0.00000000       0.00000000       0.00000000 </v>
   <v name="genvec1">      1.00000000       0.00000000       0.00000000 </v>
   <v name="genvec2">      0.00000000       1.00000000       0.00000000 </v>
   <v name="genvec3">      0.00000000       0.00000000       1.00000000 </v>
   <v name="shift">      0.00000000       0.00000000       0.00000000 </v>
  </generation>
  <varray name="kpointlist" >
   <v>       0.00000000       0.00000000       0.00000000 </v>
  </varray>
  <varray name="weights" >
   <v>       1.00000000 </v>
  </varray>
 </kpoints>
 <parameters>
  <separator name="general" >
   <i type="string" name="SYSTEM">"Millerite NiS"</i>
   <i type="logical" name="LCOMPAT"> F  </i>
  </separator>
  <separator name="electronic" >
   <i type="string" name="PREC">normal</i>
   <i name="ENMAX">    450.00000000</i>
   <i name="ENAUG">    703.44300000</i>
   <i name="EDIFF">      0.00010000</i>
   <i type="int" name="IALGO">    38</i>
   <i type="int" name="IWAVPR">    10</i>
   <i type="int" name="NBANDS">   686</i>
   <i name="NELECT">   1144.00000000</i>
   <i type="int" name="TURBO">     0</i>
   <i type="int" name="IRESTART">     0</i>
   <i type="int" name="NREBOOT">     0</i>
   <i type="int" name="NMIN">     0</i>
   <i name="EREF">      0.00000000</i>
   <separator name="electronic smearing" >
    <i type="int" name="ISMEAR">     0</i>
    <i name="SIGMA">      0.20000000</i>
    <i name="KSPACING">      0.50000000</i>
    <i type="logical" name="KGAMMA"> T  </i>
   </separator>
   <separator name="electronic projectors" >
    <i type="logical" name="LREAL"> T  </i>
    <v name="ROPT">     -0.00050000     -0.00050000</v>
    <i type="int" name="LMAXPAW">  -100</i>
    <i type="int" name="LMAXMIX">     2</i>
    <i type="logical" name="NLSPLINE"> F  </i>
   </separator>
   <separator name="electronic startup" >
    <i type="int" name="ISTART">     0</i>
    <i type="int" name="ICHARG">     2</i>
    <i type="int" name="INIWAV">     1</i>
   </separator>
   <separator name="electronic spin" >
    <i type="int" name="ISPIN">     1</i>
    <i type="logical" name="LNONCOLLINEAR"> F  </i>
    <v name="MAGMOM">      1.00000000      1.00000000      1.00000000      1.00000000      1.00000000      1.00000000      1.00000000      1.00000000      1.00000000      1.00000000      1.00000000      1.00000000      1.00000000      1.00000000      1.00000000      1.00000000      1.00000000      1.00000000      1.00000000      1.00000000
      1.00000000      1.00000000      1.00000000      1.00000000      1.00000000      1.00000000      1.00000000      1.00000000      1.00000000      1.00000000      1.00000000      1.00000000      1.00000000      1.00000000      1.00000000      1.00000000      1.00000000      1.00000000      1.00000000      1.00000000
      1.00000000      1.00000000      1.00000000      1.00000000      1.00000000      1.00000000      1.00000000      1.00000000      1.00000000      1.00000000      1.00000000      1.00000000      1.00000000      1.00000000      1.00000000      1.00000000      1.00000000      1.00000000      1.00000000      1.00000000
      1.00000000      1.00000000      1.00000000      1.00000000      1.00000000      1.00000000      1.00000000      1.00000000      1.00000000      1.00000000      1.00000000      1.00000000      1.00000000      1.00000000      1.00000000      1.00000000      1.00000000      1.00000000      1.00000000      1.00000000
      1.00000000      1.00000000      1.00000000      1.00000000      1.00000000      1.00000000      1.00000000      1.00000000      1.00000000      1.00000000      1.00000000      1.00000000      1.00000000      1.00000000      1.00000000      1.00000000      1.00000000      1.00000000      1.00000000      1.00000000
      1.00000000      1.00000000      1.00000000      1.00000000</v>
    <i name="NUPDOWN">     -1.00000000</i>
    <i type="logical" name="LSORBIT"> F  </i>
    <v name="SAXIS">      0.00000000      0.00000000      1.00000000</v>
    <i type="logical" name="LSPIRAL"> F  </i>
    <v name="QSPIRAL">      0.00000000      0.00000000      0.00000000</v>
    <i type="logical" name="LZEROZ"> F  </i>
   </separator>
   <separator name="electronic exchange-correlation" >
    <i type="logical" name="LASPH"> F  </i>
    <i type="logical" name="LMETAGGA"> F  </i>
   </separator>
   <separator name="electronic convergence" >
    <i type="int" name="NELM">   100</i>
    <i type="int" name="NELMDL">    -5</i>
    <i type="int" name="NELMIN">     2</i>
    <i name="ENINI">    450.00000000</i>
    <separator name="electronic convergence detail" >
     <i type="logical" name="LDIAG"> T  </i>
     <i type="logical" name="LSUBROT"> F  </i>
     <i name="WEIMIN">      0.00000000</i>
     <i name="EBREAK">      0.00000004</i>
     <i name="DEPER">      0.30000000</i>
     <i type="int" name="NRMM">     4</i>
     <i name="TIME">      0.40000000</i>
    </separator>
   </separator>
   <separator name="electronic mixer" >
    <i name="AMIX">      0.40000000</i>
    <i name="BMIX">      1.00000000</i>
    <i name="AMIN">      0.10000000</i>
    <i name="AMIX_MAG">      1.60000000</i>
    <i name="BMIX_MAG">      1.00000000</i>
    <separator name="electronic mixer details" >
     <i type="int" name="IMIX">     4</i>
     <i type="logical" name="MIXFIRST"> F  </i>
     <i type="int" name="MAXMIX">   -45</i>
     <i name="WC">    100.00000000</i>
     <i type="int" name="INIMIX">     1</i>
     <i type="int" name="MIXPRE">     1</i>
     <i type="int" name="MREMOVE">     5</i>
    </separator>
   </separator>
   <separator name="electronic dipolcorrection" >
    <i type="logical" name="LDIPOL"> F  </i>
    <i type="logical" name="LMONO"> F  </i>
    <i type="int" name="IDIPOL">     0</i>
    <i name="EPSILON">      1.00000000</i>
    <v name="DIPOL">   -100.00000000   -100.00000000   -100.00000000</v>
    <i name="EFIELD">      0.00000000</i>
   </separator>
  </separator>
  <separator name="grids" >
   <i type="int" name="NGX">    60</i>
   <i type="int" name="NGY">    60</i>
   <i type="int" name="NGZ">   120</i>
   <i type="int" name="NGXF">   120</i>
   <i type="int" name="NGYF">   120</i>
   <i type="int" name="NGZF">   240</i>
   <i type="logical" name="ADDGRID"> F  </i>
  </separator>
  <separator name="ionic" >
   <i type="int" name="NSW">     0</i>
   <i type="int" name="IBRION">    -1</i>
   <i type="int" name="MDALGO">     0</i>
   <i type="int" name="ISIF">     2</i>
   <i name="PSTRESS">      0.00000000</i>
   <i name="EDIFFG">      0.00100000</i>
   <i type="int" name="NFREE">     0</i>
   <i name="POTIM">      0.50000000</i>
   <i name="SMASS">     -3.00000000</i>
   <i name="SCALEE">      1.00000000</i>
  </separator>
  <separator name="ionic md" >
   <i name="TEBEG">      0.00010000</i>
   <i name="TEEND">      0.00010000</i>
   <i type="int" name="NBLOCK">     1</i>
   <i type="int" name="KBLOCK">     1</i>
   <i type="int" name="NPACO">   256</i>
   <i name="APACO">     16.00000000</i>
  </separator>
  <separator name="symmetry" >
   <i type="int" name="ISYM">     2</i>
   <i name="SYMPREC">      0.00001000</i>
  </separator>
  <separator name="dos" >
   <i type="int" name="LORBIT">     0</i>
   <v name="RWIGS">     -1.00000000     -1.00000000</v>
   <i type="int" name="NEDOS">   301</i>
   <i name="EMIN">     10.00000000</i>
   <i name="EMAX">    -10.00000000</i>
   <i name="EFERMI">      0.00000000</i>
  </separator>
  <separator name="writing" >
   <i type="int" name="NWRITE">     2</i>
   <i type="logical" name="LWAVE"> F  </i>
   <i type="logical" name="LDOWNSAMPLE"> F  </i>
   <i type="logical" name="LCHARG"> F  </i>
   <i type="logical" name="LPARD"> F  </i>
   <i type="logical" name="LVTOT"> F  </i>
   <i type="logical" name="LVHAR"> F  </i>
   <i type="logical" name="LELF"> F  </i>
   <i type="logical" name="LOPTICS"> F  </i>
   <v name="STM">      0.00000000      0.00000000      0.00000000      0.00000000      0.00000000      0.00000000      0.00000000</v>
  </separator>
  <separator name="performance" >
   <i type="int" name="NPAR">     2</i>
   <i type="int" name="NSIM">     4</i>
   <i type="int" name="NBLK">    -1</i>
   <i type="logical" name="LPLANE"> T  </i>
   <i type="logical" name="LSCALAPACK"> T  </i>
   <i type="logical" name="LSCAAWARE"> F  </i>
   <i type="logical" name="LSCALU"> F  </i>
   <i type="logical" name="LASYNC"> F  </i>
   <i type="logical" name="LORBITALREAL"> F  </i>
  </separator>
  <separator name="miscellaneous" >
   <i type="int" name="IDIOT">     3</i>
   <i type="int" name="ISPECIAL">     0</i>
   <i type="logical" name="LMUSIC"> F  </i>
   <v name="POMASS">     58.69000000     32.06600000</v>
   <v name="DARWINR">      0.00000000      0.00000000</v>
   <v name="DARWINV">      1.00000000      1.00000000</v>
   <i type="logical" name="LCORR"> T  </i>
  </separator>
  <i type="logical" name="GGA_COMPAT"> T  </i>
  <i type="logical" name="LBERRY"> F  </i>
  <i type="int" name="ICORELEVEL">     0</i>
  <i type="logical" name="LDAU"> F  </i>
  <i type="int" name="I_CONSTRAINED_M">     0</i>
  <separator name="electronic exchange-correlation" >
   <i type="string" name="GGA">--</i>
   <i type="int" name="VOSKOWN">     0</i>
   <i type="logical" name="LHFCALC"> F  </i>
   <i type="string" name="PRECFOCK"></i>
   <i type="logical" name="LSYMGRAD"> F  </i>
   <i type="logical" name="LHFONE"> F  </i>
   <i type="logical" name="LRHFCALC"> F  </i>
   <i type="logical" name="LTHOMAS"> F  </i>
   <i type="logical" name="LMODELHF"> F  </i>
   <i name="ENCUT4O">     -1.00000000</i>
   <i type="int" name="EXXOEP">     0</i>
   <i type="int" name="FOURORBIT">     0</i>
   <i name="AEXX">      0.00000000</i>
   <i name="HFALPHA">      0.00000000</i>
   <i name="MCALPHA">      0.00000000</i>
   <i name="ALDAX">      1.00000000</i>
   <i name="AGGAX">      1.00000000</i>
   <i name="ALDAC">      1.00000000</i>
   <i name="AGGAC">      1.00000000</i>
   <i type="int" name="NKREDX">     1</i>
   <i type="int" name="NKREDY">     1</i>
   <i type="int" name="NKREDZ">     1</i>
   <i type="logical" name="SHIFTRED"> F  </i>
   <i type="logical" name="ODDONLY"> F  </i>
   <i type="logical" name="EVENONLY"> F  </i>
   <i type="int" name="LMAXFOCK">     0</i>
   <i type="int" name="NMAXFOCKAE">     0</i>
   <i type="logical" name="LFOCKAEDFT"> F  </i>
   <i name="HFSCREEN">      0.00000000</i>
   <i name="HFSCREENC">      0.00000000</i>
   <i type="int" name="NBANDSGWLOW">     0</i>
  </separator>
  <separator name="vdW DFT" >
   <i type="logical" name="LUSE_VDW"> F  </i>
   <i name="Zab_VDW">     -0.84910000</i>
   <i name="PARAM1">      0.12340000</i>
   <i name="PARAM2">      1.00000000</i>
   <i name="PARAM3">      0.00000000</i>
  </separator>
  <separator name="model GW" >
   <i type="int" name="MODEL_GW">     0</i>
   <i name="MODEL_EPS0">     14.95425785</i>
   <i name="MODEL_ALPHA">      1.00000000</i>
  </separator>
  <separator name="linear response parameters" >
   <i type="logical" name="LEPSILON"> F  </i>
   <i type="logical" name="LRPA"> F  </i>
   <i type="logical" name="LNABLA"> F  </i>
   <i type="logical" name="LVEL"> F  </i>
   <i type="int" name="KINTER">     0</i>
   <i name="CSHIFT">      0.10000000</i>
   <i name="OMEGAMAX">     -1.00000000</i>
   <i name="DEG_THRESHOLD">      0.00200000</i>
   <i name="RTIME">     -0.10000000</i>
   <i name="WPLASMAI">      0.00000000</i>
   <v name="DFIELD">      0.00000000      0.00000000      0.00000000</v>
   <v name="WPLASMA">      0.00000000      0.00000000      0.00000000      0.00000000      0.00000000      0.00000000      0.00000000      0.00000000      0.00000000</v>
  </separator>
  <separator name="orbital magnetization" >
   <i type="logical" name="NUCIND"> F  </i>
   <v name="MAGPOS">      0.00000000      0.00000000      0.00000000</v>
   <i type="logical" name="LNICSALL"> T  </i>
   <i type="logical" name="ORBITALMAG"> F  </i>
   <i type="logical" name="LMAGBLOCH"> F  </i>
   <i type="logical" name="LCHIMAG"> F  </i>
   <i type="logical" name="LGAUGE"> T  </i>
   <i type="int" name="MAGATOM">     0</i>
   <v name="MAGDIPOL">      0.00000000      0.00000000      0.00000000</v>
   <v name="AVECCONST">      0.00000000      0.00000000      0.00000000</v>
  </separator>
  <separator name="response functions" >
   <i type="logical" name="LADDER"> F  </i>
   <i type="logical" name="LRPAFORCE"> F  </i>
   <i type="logical" name="LFXC"> F  </i>
   <i type="logical" name="LHARTREE"> T  </i>
   <i type="int" name="IBSE">     0</i>
   <v type="int" name="KPOINT">    -1     0     0     0</v>
   <i type="logical" name="LTCTE"> F  </i>
   <i type="logical" name="LTETE"> F  </i>
   <i type="logical" name="LTRIPLET"> F  </i>
   <i type="logical" name="LFXCEPS"> F  </i>
   <i type="logical" name="LFXHEG"> F  </i>
   <i type="int" name="NATURALO">     2</i>
   <i type="logical" name="L2ORDER"> F  </i>
   <i type="logical" name="LMP2LT"> F  </i>
   <i type="logical" name="LUSEW"> F  </i>
   <i name="ENCUTGW">     -2.00000000</i>
   <i name="ENCUTGWSOFT">     -2.00000000</i>
   <i name="ENCUTLF">     -1.00000000</i>
   <i type="int" name="LMAXMP2">    -1</i>
   <i name="SCISSOR">      0.00000000</i>
   <i type="int" name="NOMEGA">     0</i>
   <i type="int" name="NOMEGAR">     0</i>
   <i type="int" name="NBANDSGW">    -1</i>
   <i type="int" name="NBANDSO">    -1</i>
   <i type="int" name="NBANDSV">    -1</i>
   <i type="int" name="NELM">   100</i>
   <i type="int" name="NELMHF">     1</i>
   <i type="int" name="DIM">     3</i>
   <i type="int" name="ANTIRES">     0</i>
   <i name="OMEGAMAX">    -30.00000000</i>
   <i name="OMEGAMIN">    -30.00000000</i>
   <i name="OMEGATL">   -200.00000000</i>
   <i type="int" name="OMEGAGRID">   140</i>
   <i name="CSHIFT">     -0.10000000</i>
   <i type="logical" name="SELFENERGY"> F  </i>
   <i type="logical" name="LSPECTRAL"> F  </i>
   <i type="logical" name="LSPECTRALGW"> F  </i>
   <i type="logical" name="LSINGLES"> F  </i>
   <i type="logical" name="LFERMIGW"> F  </i>
   <i type="logical" name="ODDONLYGW"> F  </i>
   <i type="logical" name="EVENONLYGW"> F  </i>
   <i type="int" name="NKREDLFX">     1</i>
   <i type="int" name="NKREDLFY">     1</i>
   <i type="int" name="NKREDLFZ">     1</i>
   <i type="int" name="MAXMEM">  2800</i>
   <i type="int" name="TELESCOPE">     0</i>
   <i type="int" name="TAUPAR">     1</i>
   <i type="int" name="OMEGAPAR">    -1</i>
   <i name="LAMBDA">      1.00000000</i>
  </separator>
  <separator name="External order field" >
   <i name="OFIELD_KAPPA">      0.00000000</i>
   <v name="OFIELD_K">      0.00000000      0.00000000      0.00000000</v>
   <i name="OFIELD_Q6_NEAR">      0.00000000</i>
   <i name="OFIELD_Q6_FAR">      0.00000000</i>
   <i name="OFIELD_A">      0.00000000</i>
  </separator>
 </parameters>
 <atominfo>
  <atoms>     104 </atoms>
  <types>       2 </types>
  <array name="atoms" >
   <dimension dim="1">ion</dimension>
   <field type="string">element</field>
   <field type="int">atomtype</field>
   <set>
    <rc><c>Ni</c><c>   1</c></rc>
    <rc><c>Ni</c><c>   1</c></rc>
    <rc><c>Ni</c><c>   1</c></rc>
    <rc><c>Ni</c><c>   1</c></rc>
    <rc><c>Ni</c><c>   1</c></rc>
    <rc><c>Ni</c><c>   1</c></rc>
    <rc><c>Ni</c><c>   1</c></rc>
    <rc><c>Ni</c><c>   1</c></rc>
    <rc><c>Ni</c><c>   1</c></rc>
    <rc><c>Ni</c><c>   1</c></rc>
    <rc><c>Ni</c><c>   1</c></rc>
    <rc><c>Ni</c><c>   1</c></rc>
    <rc><c>Ni</c><c>   1</c></rc>
    <rc><c>Ni</c><c>   1</c></rc>
    <rc><c>Ni</c><c>   1</c></rc>
    <rc><c>Ni</c><c>   1</c></rc>
    <rc><c>Ni</c><c>   1</c></rc>
    <rc><c>Ni</c><c>   1</c></rc>
    <rc><c>Ni</c><c>   1</c></rc>
    <rc><c>Ni</c><c>   1</c></rc>
    <rc><c>Ni</c><c>   1</c></rc>
    <rc><c>Ni</c><c>   1</c></rc>
    <rc><c>Ni</c><c>   1</c></rc>
    <rc><c>Ni</c><c>   1</c></rc>
    <rc><c>Ni</c><c>   1</c></rc>
    <rc><c>Ni</c><c>   1</c></rc>
    <rc><c>Ni</c><c>   1</c></rc>
    <rc><c>Ni</c><c>   1</c></rc>
    <rc><c>Ni</c><c>   1</c></rc>
    <rc><c>Ni</c><c>   1</c></rc>
    <rc><c>Ni</c><c>   1</c></rc>
    <rc><c>Ni</c><c>   1</c></rc>
    <rc><c>Ni</c><c>   1</c></rc>
    <rc><c>Ni</c><c>   1</c></rc>
    <rc><c>Ni</c><c>   1</c></rc>
    <rc><c>Ni</c><c>   1</c></rc>
    <rc><c>Ni</c><c>   1</c></rc>
    <rc><c>Ni</c><c>   1</c></rc>
    <rc><c>Ni</c><c>   1</c></rc>
    <rc><c>Ni</c><c>   1</c></rc>
    <rc><c>Ni</c><c>   1</c></rc>
    <rc><c>Ni</c><c>   1</c></rc>
    <rc><c>Ni</c><c>   1</c></rc>
    <rc><c>Ni</c><c>   1</c></rc>
    <rc><c>Ni</c><c>   1</c></rc>
    <rc><c>Ni</c><c>   1</c></rc>
    <rc><c>Ni</c><c>   1</c></rc>
    <rc><c>Ni</c><c>   1</c></rc>
    <rc><c>Ni</c><c>   1</c></rc>
    <rc><c>Ni</c><c>   1</c></rc>
    <rc><c>Ni</c><c>   1</c></rc>
    <rc><c>Ni</c><c>   1</c></rc>
    <rc><c>S </c><c>   2</c></rc>
    <rc><c>S </c><c>   2</c></rc>
    <rc><c>S </c><c>   2</c></rc>
    <rc><c>S </c><c>   2</c></rc>
    <rc><c>S </c><c>   2</c></rc>
    <rc><c>S </c><c>   2</c></rc>
    <rc><c>S </c><c>   2</c></rc>
    <rc><c>S </c><c>   2</c></rc>
    <rc><c>S </c><c>   2</c></rc>
    <rc><c>S </c><c>   2</c></rc>
    <rc><c>S </c><c>   2</c></rc>
    <rc><c>S </c><c>   2</c></rc>
    <rc><c>S </c><c>   2</c></rc>
    <rc><c>S </c><c>   2</c></rc>
    <rc><c>S </c><c>   2</c></rc>
    <rc><c>S </c><c>   2</c></rc>
    <rc><c>S </c><c>   2</c></rc>
    <rc><c>S </c><c>   2</c></rc>
    <rc><c>S </c><c>   2</c></rc>
    <rc><c>S </c><c>   2</c></rc>
    <rc><c>S </c><c>   2</c></rc>
    <rc><c>S </c><c>   2</c></rc>
    <rc><c>S </c><c>   2</c></rc>
    <rc><c>S </c><c>   2</c></rc>
    <rc><c>S </c><c>   2</c></rc>
    <rc><c>S </c><c>   2</c></rc>
    <rc><c>S </c><c>   2</c></rc>
    <rc><c>S </c><c>   2</c></rc>
    <rc><c>S </c><c>   2</c></rc>
    <rc><c>S </c><c>   2</c></rc>
    <rc><c>S </c><c>   2</c></rc>
    <rc><c>S </c><c>   2</c></rc>
    <rc><c>S </c><c>   2</c></rc>
    <rc><c>S </c><c>   2</c></rc>
    <rc><c>S </c><c>   2</c></rc>
    <rc><c>S </c><c>   2</c></rc>
    <rc><c>S </c><c>   2</c></rc>
    <rc><c>S </c><c>   2</c></rc>
    <rc><c>S </c><c>   2</c></rc>
    <rc><c>S </c><c>   2</c></rc>
    <rc><c>S </c><c>   2</c></rc>
    <rc><c>S </c><c>   2</c></rc>
    <rc><c>S </c><c>   2</c></rc>
    <rc><c>S </c><c>   2</c></rc>
    <rc><c>S </c><c>   2</c></rc>
    <rc><c>S </c><c>   2</c></rc>
    <rc><c>S </c><c>   2</c></rc>
    <rc><c>S </c><c>   2</c></rc>
    <rc><c>S </c><c>   2</c></rc>
    <rc><c>S </c><c>   2</c></rc>
    <rc><c>S </c><c>   2</c></rc>
    <rc><c>S </c><c>   2</c></rc>
   </set>
  </array>
  <array name="atomtypes" >
   <dimension dim="1">type</dimension>
   <field type="int">atomspertype</field>
   <field type="string">element</field>
   <field>mass</field>
   <field>valence</field>
   <field type="string">pseudopotential</field>
   <set>
    <rc><c>  52</c><c>Ni</c><c>     58.69000000</c><c>     16.00000000</c><c>  PAW_PBE Ni_pv 06Sep2000               </c></rc>
    <rc><c>  52</c><c>S </c><c>     32.06600000</c><c>      6.00000000</c><c>  PAW_PBE S 06Sep2000                   </c></rc>
   </set>
  </array>
 </atominfo>
 <structure name="initialpos" >
  <crystal>
   <varray name="basis" >
    <v>      11.25646304       0.00000000       0.00000000 </v>
    <v>       5.04456212      10.06282034       0.00000000 </v>
    <v>       0.00000000       0.00000000      22.88364939 </v>
   </varray>
   <i name="volume">   2592.07135999 </i>
   <varray name="rec_basis" >
    <v>       0.08883785      -0.04453504       0.00000000 </v>
    <v>       0.00000000       0.09937572       0.00000000 </v>
    <v>       0.00000000       0.00000000       0.04369932 </v>
   </varray>
  </crystal>
  <varray name="positions" >
   <v>       0.26092070       0.47878036       0.29050611 </v>
   <v>       0.35488056       0.38482049       0.41880986 </v>
   <v>       0.03468080       0.21251791       0.08796115 </v>
   <v>       0.16696083       0.07274024       0.16220237 </v>
   <v>       0.07279041       0.04041886       0.47663391 </v>
   <v>       0.17415942       0.32880346       0.03948727 </v>
   <v>       0.27423906       0.33335899       0.12830375 </v>
   <v>       0.36819893       0.23939913       0.25660749 </v>
   <v>       0.46215880       0.14543926       0.38491124 </v>
   <v>       0.00030194       0.37150212       0.25660749 </v>
   <v>       0.09426181       0.27754226       0.38491124 </v>
   <v>       0.40634206       0.46546199       0.12830375 </v>
   <v>       0.41879049       0.13885053       0.05140968 </v>
   <v>       0.76092070       0.47878036       0.29050611 </v>
   <v>       0.85488056       0.38482049       0.41880986 </v>
   <v>       0.54240456       0.24796042       0.08994688 </v>
   <v>       0.66696083       0.07274024       0.16220237 </v>
   <v>       0.56350249       0.04734963       0.50102179 </v>
   <v>       0.70098811       0.53826756       0.05851316 </v>
   <v>       0.77423906       0.33335899       0.12830375 </v>
   <v>       0.86819893       0.23939913       0.25660749 </v>
   <v>       0.96215880       0.14543926       0.38491124 </v>
   <v>       0.50030194       0.37150212       0.25660749 </v>
   <v>       0.59426181       0.27754226       0.38491124 </v>
   <v>       0.70712191       0.19085616       0.48989161 </v>
   <v>       0.90634206       0.46546199       0.12830375 </v>
   <v>       0.71205765       0.01691507       0.05265597 </v>
   <v>       0.26092070       0.97878036       0.29050611 </v>
   <v>       0.35488056       0.88482049       0.41880986 </v>
   <v>       0.43993015       0.79909708       0.53241417 </v>
   <v>       0.16696083       0.57274024       0.16220237 </v>
   <v>       0.04246328       0.55355899       0.49479529 </v>
   <v>       0.23166754       0.00749499       0.04940203 </v>
   <v>       0.27423907       0.83335899       0.12830375 </v>
   <v>       0.36819893       0.73939913       0.25660749 </v>
   <v>       0.46215880       0.64543926       0.38491124 </v>
   <v>       0.00030194       0.87150212       0.25660749 </v>
   <v>       0.09426181       0.77754226       0.38491124 </v>
   <v>       0.17952802       0.69473595       0.49823986 </v>
   <v>       0.40634206       0.96546199       0.12830375 </v>
   <v>       0.76092070       0.97878036       0.29050611 </v>
   <v>       0.85488056       0.88482049       0.41880986 </v>
   <v>       0.90504629       0.83452605       0.52932548 </v>
   <v>       0.66696083       0.57274024       0.16220237 </v>
   <v>       0.54282097       0.54759089       0.49334716 </v>
   <v>       0.77423907       0.83335899       0.12830375 </v>
   <v>       0.86819893       0.73939913       0.25660749 </v>
   <v>       0.96215880       0.64543926       0.38491124 </v>
   <v>       0.50030194       0.87150212       0.25660749 </v>
   <v>       0.59426181       0.77754226       0.38491124 </v>
   <v>       0.68304435       0.69405188       0.49778950 </v>
   <v>       0.90634206       0.96546199       0.12830375 </v>
   <v>       0.07287763       0.16682343       0.30639927 </v>
   <v>       0.17081045       0.07423979       0.40734526 </v>
   <v>       0.35577053       0.34724391       0.04803690 </v>
   <v>       0.47891775       0.26078330       0.17809552 </v>
   <v>       0.06473062       0.66633137       0.56081242 </v>
   <v>       0.01708137       0.39287677       0.45972470 </v>
   <v>       0.43627354       0.47164251       0.34956450 </v>
   <v>       0.24835381       0.15956225       0.09295701 </v>
   <v>       0.34231368       0.06560239       0.22126075 </v>
   <v>       0.08498998       0.47942282       0.10246751 </v>
   <v>       0.17409868       0.39738738       0.22126075 </v>
   <v>       0.26805855       0.30342751       0.34956450 </v>
   <v>       0.39939962       0.21292446       0.46739271 </v>
   <v>       0.57287763       0.16682343       0.30639927 </v>
   <v>       0.66683750       0.07286357       0.43470302 </v>
   <v>       0.87099445       0.36864325       0.05467534 </v>
   <v>       0.97891775       0.26078330       0.17809552 </v>
   <v>       0.59744342       0.63033746       0.56177965 </v>
   <v>       0.53618922       0.36896679       0.46591799 </v>
   <v>       0.93627354       0.47164251       0.34956450 </v>
   <v>       0.74835381       0.15956225       0.09295701 </v>
   <v>       0.84231368       0.06560239       0.22126075 </v>
   <v>       0.58127403       0.47821525       0.10536128 </v>
   <v>       0.67409868       0.39738738       0.22126075 </v>
   <v>       0.76805855       0.30342751       0.34956450 </v>
   <v>       0.88283540       0.20919347       0.46780662 </v>
   <v>       0.07287764       0.66682343       0.30639927 </v>
   <v>       0.16683750       0.57286357       0.43470302 </v>
   <v>       0.39969460       0.83851390       0.06339774 </v>
   <v>       0.47891775       0.76078330       0.17809552 </v>
   <v>       0.26544438       0.96137896       0.50685759 </v>
   <v>       0.03023342       0.87768264       0.47786825 </v>
   <v>       0.43627354       0.97164251       0.34956450 </v>
   <v>       0.26035814       0.65633701       0.11091590 </v>
   <v>       0.34231368       0.56560239       0.22126075 </v>
   <v>       0.08013882       0.99134724       0.09295701 </v>
   <v>       0.17409868       0.89738738       0.22126075 </v>
   <v>       0.26805855       0.80342751       0.34956450 </v>
   <v>       0.36201842       0.70946764       0.47786825 </v>
   <v>       0.57287764       0.66682343       0.30639927 </v>
   <v>       0.66683750       0.57286357       0.43470302 </v>
   <v>       0.88782912       0.85263403       0.06233088 </v>
   <v>       0.97891775       0.76078330       0.17809552 </v>
   <v>       0.74041693       0.02224039       0.54086687 </v>
   <v>       0.53023342       0.87768264       0.47786825 </v>
   <v>       0.93627354       0.97164251       0.34956450 </v>
   <v>       0.75779002       0.65821931       0.10645986 </v>
   <v>       0.84231368       0.56560239       0.22126075 </v>
   <v>       0.57445421       0.99145216       0.10327883 </v>
   <v>       0.67409868       0.89738738       0.22126075 </v>
   <v>       0.76805855       0.80342751       0.34956450 </v>
   <v>       0.86201842       0.70946764       0.47786825 </v>
  </varray>
 </structure>
 <calculation>
  <scstep>
   <time name="dav">   15.68   15.68</time>
   <time name="total">   16.08   16.09</time>
   <energy>
    <i name="alphaZ">   2994.23548884 </i>
    <i name="ewald"> 339955.70240405 </i>
    <i name="hartreedc">-517493.26502983 </i>
    <i name="XCdc">   5315.57443752 </i>
    <i name="pawpsdc"> 162831.54814933 </i>
    <i name="pawaedc">-169926.62828172 </i>
    <i name="eentropy">     -0.43456704 </i>
    <i name="bandstr">  -5225.68720719 </i>
    <i name="atom"> 196448.20729987 </i>
    <i name="e_fr_energy">  14899.25269382 </i>
    <i name="e_wo_entrp">  14899.68726087 </i>
    <i name="e_0_energy">  14899.46997735 </i>
   </energy>
  </scstep>
  <scstep>
   <time name="dav">   13.88   13.89</time>
   <time name="total">   13.88   13.89</time>
   <energy>
    <i name="e_fr_energy">   1012.52321821 </i>
    <i name="e_wo_entrp">   1013.52621996 </i>
    <i name="e_0_energy">   1013.02471909 </i>
   </energy>
  </scstep>
  <scstep>
   <time name="dav">   14.87   14.87</time>
   <time name="total">   14.87   14.87</time>
   <energy>
    <i name="e_fr_energy">   -479.33708385 </i>
    <i name="e_wo_entrp">   -477.76477423 </i>
    <i name="e_0_energy">   -478.55092904 </i>
   </energy>
  </scstep>
  <scstep>
   <time name="dav">   14.90   14.91</time>
   <time name="total">   14.91   14.91</time>
   <energy>
    <i name="e_fr_energy">   -578.88542012 </i>
    <i name="e_wo_entrp">   -577.24372536 </i>
    <i name="e_0_energy">   -578.06457274 </i>
   </energy>
  </scstep>
  <scstep>
   <time name="dav">   16.92   16.93</time>
   <time name="total">   17.38   17.38</time>
   <energy>
    <i name="e_fr_energy">   -583.17241380 </i>
    <i name="e_wo_entrp">   -581.55335634 </i>
    <i name="e_0_energy">   -582.36288507 </i>
   </energy>
  </scstep>
  <scstep>
   <time name="dav">   16.14   16.14</time>
   <time name="total">   16.96   16.96</time>
   <energy>
    <i name="e_fr_energy">   -680.82415785 </i>
    <i name="e_wo_entrp">   -679.67312663 </i>
    <i name="e_0_energy">   -680.24864224 </i>
   </energy>
  </scstep>
  <scstep>
   <time name="dav">   14.88   14.88</time>
   <time name="total">   15.70   15.70</time>
   <energy>
    <i name="e_fr_energy">   -555.30662518 </i>
    <i name="e_wo_entrp">   -554.12654451 </i>
    <i name="e_0_energy">   -554.71658484 </i>
   </energy>
  </scstep>
  <scstep>
   <time name="dav">   17.28   17.28</time>
   <time name="total">   18.10   18.10</time>
   <energy>
    <i name="e_fr_energy">   -691.42667150 </i>
    <i name="e_wo_entrp">   -690.81015062 </i>
    <i name="e_0_energy">   -691.11841106 </i>
   </energy>
  </scstep>
  <scstep>
   <time name="dav">   16.51   16.52</time>
   <time name="total">   17.60   17.61</time>
   <energy>
    <i name="e_fr_energy">   -574.73289138 </i>
    <i name="e_wo_entrp">   -573.30593509 </i>
    <i name="e_0_energy">   -574.01941323 </i>
   </energy>
  </scstep>
  <scstep>
   <time name="dav">   17.98   17.99</time>
   <time name="total">   18.83   18.83</time>
   <energy>
    <i name="e_fr_energy">   -651.93518347 </i>
    <i name="e_wo_entrp">   -650.30276409 </i>
    <i name="e_0_energy">   -651.11897378 </i>
   </energy>
  </scstep>
  <scstep>
   <time name="dav">   17.38   17.39</time>
   <time name="total">   18.20   18.21</time>
   <energy>
    <i name="e_fr_energy">   -606.03392352 </i>
    <i name="e_wo_entrp">   -604.57420760 </i>
    <i name="e_0_energy">   -605.30406556 </i>
   </energy>
  </scstep>
  <scstep>
   <time name="dav">   18.02   18.03</time>
   <time name="total">   18.84   18.85</time>
   <energy>
    <i name="e_fr_energy">   -568.03077565 </i>
    <i name="e_wo_entrp">   -566.52756672 </i>
    <i name="e_0_energy">   -567.27917119 </i>
   </energy>
  </scstep>
  <scstep>
   <time name="dav">   17.48   17.48</time>
   <time name="total">   18.30   18.30</time>
   <energy>
    <i name="e_fr_energy">   -583.79592350 </i>
    <i name="e_wo_entrp">   -582.35768141 </i>
    <i name="e_0_energy">   -583.07680246 </i>
   </energy>
  </scstep>
  <scstep>
   <time name="dav">   17.48   17.48</time>
   <time name="total">   18.57   18.58</time>
   <energy>
    <i name="e_fr_energy">   -548.92658726 </i>
    <i name="e_wo_entrp">   -547.55043847 </i>
    <i name="e_0_energy">   -548.23851286 </i>
   </energy>
  </scstep>
  <scstep>
   <time name="dav">   17.40   17.41</time>
   <time name="total">   18.23   18.24</time>
   <energy>
    <i name="e_fr_energy">   -531.77228364 </i>
    <i name="e_wo_entrp">   -530.36878243 </i>
    <i name="e_0_energy">   -531.07053304 </i>
   </energy>
  </scstep>
  <scstep>
   <time name="dav">   17.45   17.46</time>
   <time name="total">   18.29   18.30</time>
   <energy>
    <i name="e_fr_energy">   -524.45593203 </i>
    <i name="e_wo_entrp">   -523.29369680 </i>
    <i name="e_0_energy">   -523.87481441 </i>
   </energy>
  </scstep>
  <scstep>
   <time name="dav">   17.35   17.35</time>
   <time name="total">   18.31   18.31</time>
   <energy>
    <i name="e_fr_energy">   -519.67301803 </i>
    <i name="e_wo_entrp">   -518.41206424 </i>
    <i name="e_0_energy">   -519.04254113 </i>
   </energy>
  </scstep>
  <scstep>
   <time name="dav">   16.90   16.90</time>
   <time name="total">   17.74   17.74</time>
   <energy>
    <i name="e_fr_energy">   -518.38922776 </i>
    <i name="e_wo_entrp">   -517.10962443 </i>
    <i name="e_0_energy">   -517.74942609 </i>
   </energy>
  </scstep>
  <scstep>
   <time name="dav">   16.26   16.27</time>
   <time name="total">   17.10   17.11</time>
   <energy>
    <i name="e_fr_energy">   -517.66794342 </i>
    <i name="e_wo_entrp">   -516.39799147 </i>
    <i name="e_0_energy">   -517.03296745 </i>
   </energy>
  </scstep>
  <scstep>
   <time name="dav">   17.37   17.39</time>
   <time name="total">   18.20   18.22</time>
   <energy>
    <i name="e_fr_energy">   -517.05875902 </i>
    <i name="e_wo_entrp">   -515.75652747 </i>
    <i name="e_0_energy">   -516.40764325 </i>
   </energy>
  </scstep>
  <scstep>
   <time name="dav">   17.89   17.94</time>
   <time name="total">   18.73   18.77</time>
   <energy>
    <i name="e_fr_energy">   -515.48982262 </i>
    <i name="e_wo_entrp">   -514.17618906 </i>
    <i name="e_0_energy">   -514.83300584 </i>
   </energy>
  </scstep>
  <scstep>
   <time name="dav">   17.35   17.36</time>
   <time name="total">   18.19   18.20</time>
   <energy>
    <i name="e_fr_energy">   -514.13668305 </i>
    <i name="e_wo_entrp">   -512.77812536 </i>
    <i name="e_0_energy">   -513.45740420 </i>
   </energy>
  </scstep>
  <scstep>
   <time name="dav">   18.22   18.23</time>
   <time name="total">   19.19   19.20</time>
   <energy>
    <i name="e_fr_energy">   -513.32669309 </i>
    <i name="e_wo_entrp">   -511.90614258 </i>
    <i name="e_0_energy">   -512.61641783 </i>
   </energy>
  </scstep>
  <scstep>
   <time name="dav">   16.85   16.85</time>
   <time name="total">   17.70   17.71</time>
   <energy>
    <i name="e_fr_energy">   -513.13851052 </i>
    <i name="e_wo_entrp">   -511.72785052 </i>
    <i name="e_0_energy">   -512.43318052 </i>
   </energy>
  </scstep>
  <scstep>
   <time name="dav">   15.73   15.74</time>
   <time name="total">   16.58   16.59</time>
   <energy>
    <i name="e_fr_energy">   -513.12332056 </i>
    <i name="e_wo_entrp">   -511.70832639 </i>
    <i name="e_0_energy">   -512.41582348 </i>
   </energy>
  </scstep>
  <scstep>
   <time name="dav">   15.95   15.95</time>
   <time name="total">   16.80   16.81</time>
   <energy>
    <i name="e_fr_energy">   -513.05701145 </i>
    <i name="e_wo_entrp">   -511.63962831 </i>
    <i name="e_0_energy">   -512.34831988 </i>
   </energy>
  </scstep>
  <scstep>
   <time name="dav">   17.09   17.09</time>
   <time name="total">   17.94   17.95</time>
   <energy>
    <i name="e_fr_energy">   -512.99862193 </i>
    <i name="e_wo_entrp">   -511.58838120 </i>
    <i name="e_0_energy">   -512.29350157 </i>
   </energy>
  </scstep>
  <scstep>
   <time name="dav">   17.16   17.16</time>
   <time name="total">   18.20   18.20</time>
   <energy>
    <i name="e_fr_energy">   -512.92966964 </i>
    <i name="e_wo_entrp">   -511.51222314 </i>
    <i name="e_0_energy">   -512.22094639 </i>
   </energy>
  </scstep>
  <scstep>
   <time name="dav">   16.86   16.87</time>
   <time name="total">   17.73   17.74</time>
   <energy>
    <i name="e_fr_energy">   -512.93170725 </i>
    <i name="e_wo_entrp">   -511.51359367 </i>
    <i name="e_0_energy">   -512.22265046 </i>
   </energy>
  </scstep>
  <scstep>
   <time name="dav">   15.42   15.43</time>
   <time name="total">   16.29   16.30</time>
   <energy>
    <i name="e_fr_energy">   -512.93109961 </i>
    <i name="e_wo_entrp">   -511.52512558 </i>
    <i name="e_0_energy">   -512.22811259 </i>
   </energy>
  </scstep>
  <scstep>
   <time name="dav">   17.27   17.28</time>
   <time name="total">   18.14   18.14</time>
   <energy>
    <i name="e_fr_energy">   -512.92178113 </i>
    <i name="e_wo_entrp">   -511.51970263 </i>
    <i name="e_0_energy">   -512.22074188 </i>
   </energy>
  </scstep>
  <scstep>
   <time name="dav">   16.67   16.68</time>
   <time name="total">   17.54   17.55</time>
   <energy>
    <i name="e_fr_energy">   -512.90388273 </i>
    <i name="e_wo_entrp">   -511.50253709 </i>
    <i name="e_0_energy">   -512.20320991 </i>
   </energy>
  </scstep>
  <scstep>
   <time name="dav">   17.20   17.21</time>
   <time name="total">   18.18   18.19</time>
   <energy>
    <i name="e_fr_energy">   -512.90146391 </i>
    <i name="e_wo_entrp">   -511.49441998 </i>
    <i name="e_0_energy">   -512.19794194 </i>
   </energy>
  </scstep>
  <scstep>
   <time name="dav">   17.17   17.18</time>
   <time name="total">   18.04   18.05</time>
   <energy>
    <i name="e_fr_energy">   -512.89994137 </i>
    <i name="e_wo_entrp">   -511.49168867 </i>
    <i name="e_0_energy">   -512.19581502 </i>
   </energy>
  </scstep>
  <scstep>
   <time name="dav">   17.15   17.16</time>
   <time name="total">   18.03   18.06</time>
   <energy>
    <i name="e_fr_energy">   -512.89724228 </i>
    <i name="e_wo_entrp">   -511.48804548 </i>
    <i name="e_0_energy">   -512.19264388 </i>
   </energy>
  </scstep>
  <scstep>
   <time name="dav">   15.96   15.96</time>
   <time name="total">   17.18   17.19</time>
   <energy>
    <i name="e_fr_energy">   -512.89537744 </i>
    <i name="e_wo_entrp">   -511.48774991 </i>
    <i name="e_0_energy">   -512.19156368 </i>
   </energy>
  </scstep>
  <scstep>
   <time name="dav">   17.08   17.09</time>
   <time name="total">   17.97   17.97</time>
   <energy>
    <i name="e_fr_energy">   -512.89428511 </i>
    <i name="e_wo_entrp">   -511.48533703 </i>
    <i name="e_0_energy">   -512.18981107 </i>
   </energy>
  </scstep>
  <scstep>
   <time name="dav">   15.02   15.03</time>
   <time name="total">   15.92   15.92</time>
   <energy>
    <i name="e_fr_energy">   -512.89368296 </i>
    <i name="e_wo_entrp">   -511.48428222 </i>
    <i name="e_0_energy">   -512.18898259 </i>
   </energy>
  </scstep>
  <scstep>
   <time name="dav">   11.73   11.74</time>
   <time name="total">   12.12   12.13</time>
   <energy>
    <i name="alphaZ">   2994.23548884 </i>
    <i name="ewald"> 339955.70240405 </i>
    <i name="hartreedc">-516401.45227721 </i>
    <i name="XCdc">   5271.07241048 </i>
    <i name="pawpsdc"> 199910.34721238 </i>
    <i name="pawaedc">-207113.31379170 </i>
    <i name="eentropy">     -1.40937656 </i>
    <i name="bandstr"> -21576.28297512 </i>
    <i name="atom"> 196448.20729987 </i>
    <i name="e_fr_energy">   -512.89360496 </i>
    <i name="e_wo_entrp">   -511.48422840 </i>
    <i name="e_0_energy">   -512.18891668 </i>
   </energy>
  </scstep>
  <structure>
   <crystal>
    <varray name="basis" >
     <v>      11.25646304       0.00000000       0.00000000 </v>
     <v>       5.04456212      10.06282034       0.00000000 </v>
     <v>       0.00000000       0.00000000      22.88364939 </v>
    </varray>
    <i name="volume">   2592.07135999 </i>
    <varray name="rec_basis" >
     <v>       0.08883785      -0.04453504       0.00000000 </v>
     <v>       0.00000000       0.09937572       0.00000000 </v>
     <v>       0.00000000       0.00000000       0.04369932 </v>
    </varray>
   </crystal>
   <varray name="positions" >
    <v>       0.26092070       0.47878036       0.29050611 </v>
    <v>       0.35488056       0.38482049       0.41880986 </v>
    <v>       0.03468080       0.21251791       0.08796115 </v>
    <v>       0.16696083       0.07274024       0.16220237 </v>
    <v>       0.07279041       0.04041886       0.47663391 </v>
    <v>       0.17415942       0.32880346       0.03948727 </v>
    <v>       0.27423906       0.33335899       0.12830375 </v>
    <v>       0.36819893       0.23939913       0.25660749 </v>
    <v>       0.46215880       0.14543926       0.38491124 </v>
    <v>       0.00030194       0.37150212       0.25660749 </v>
    <v>       0.09426181       0.27754226       0.38491124 </v>
    <v>       0.40634206       0.46546199       0.12830375 </v>
    <v>       0.41879049       0.13885053       0.05140968 </v>
    <v>       0.76092070       0.47878036       0.29050611 </v>
    <v>       0.85488056       0.38482049       0.41880986 </v>
    <v>       0.54240456       0.24796042       0.08994688 </v>
    <v>       0.66696083       0.07274024       0.16220237 </v>
    <v>       0.56350249       0.04734963       0.50102179 </v>
    <v>       0.70098811       0.53826756       0.05851316 </v>
    <v>       0.77423906       0.33335899       0.12830375 </v>
    <v>       0.86819893       0.23939913       0.25660749 </v>
    <v>       0.96215880       0.14543926       0.38491124 </v>
    <v>       0.50030194       0.37150212       0.25660749 </v>
    <v>       0.59426181       0.27754226       0.38491124 </v>
    <v>       0.70712191       0.19085616       0.48989161 </v>
    <v>       0.90634206       0.46546199       0.12830375 </v>
    <v>       0.71205765       0.01691507       0.05265597 </v>
    <v>       0.26092070       0.97878036       0.29050611 </v>
    <v>       0.35488056       0.88482049       0.41880986 </v>
    <v>       0.43993015       0.79909708       0.53241417 </v>
    <v>       0.16696083       0.57274024       0.16220237 </v>
    <v>       0.04246328       0.55355899       0.49479529 </v>
    <v>       0.23166754       0.00749499       0.04940203 </v>
    <v>       0.27423907       0.83335899       0.12830375 </v>
    <v>       0.36819893       0.73939913       0.25660749 </v>
    <v>       0.46215880       0.64543926       0.38491124 </v>
    <v>       0.00030194       0.87150212       0.25660749 </v>
    <v>       0.09426181       0.77754226       0.38491124 </v>
    <v>       0.17952802       0.69473595       0.49823986 </v>
    <v>       0.40634206       0.96546199       0.12830375 </v>
    <v>       0.76092070       0.97878036       0.29050611 </v>
    <v>       0.85488056       0.88482049       0.41880986 </v>
    <v>       0.90504629       0.83452605       0.52932548 </v>
    <v>       0.66696083       0.57274024       0.16220237 </v>
    <v>       0.54282097       0.54759089       0.49334716 </v>
    <v>       0.77423907       0.83335899       0.12830375 </v>
    <v>       0.86819893       0.73939913       0.25660749 </v>
    <v>       0.96215880       0.64543926       0.38491124 </v>
    <v>       0.50030194       0.87150212       0.25660749 </v>
    <v>       0.59426181       0.77754226       0.38491124 </v>
    <v>       0.68304435       0.69405188       0.49778950 </v>
    <v>       0.90634206       0.96546199       0.12830375 </v>
    <v>       0.07287763       0.16682343       0.30639927 </v>
    <v>       0.17081045       0.07423979       0.40734526 </v>
    <v>       0.35577053       0.34724391       0.04803690 </v>
    <v>       0.47891775       0.26078330       0.17809552 </v>
    <v>       0.06473062       0.66633137       0.56081242 </v>
    <v>       0.01708137       0.39287677       0.45972470 </v>
    <v>       0.43627354       0.47164251       0.34956450 </v>
    <v>       0.24835381       0.15956225       0.09295701 </v>
    <v>       0.34231368       0.06560239       0.22126075 </v>
    <v>       0.08498998       0.47942282       0.10246751 </v>
    <v>       0.17409868       0.39738738       0.22126075 </v>
    <v>       0.26805855       0.30342751       0.34956450 </v>
    <v>       0.39939962       0.21292446       0.46739271 </v>
    <v>       0.57287763       0.16682343       0.30639927 </v>
    <v>       0.66683750       0.07286357       0.43470302 </v>
    <v>       0.87099445       0.36864325       0.05467534 </v>
    <v>       0.97891775       0.26078330       0.17809552 </v>
    <v>       0.59744342       0.63033746       0.56177965 </v>
    <v>       0.53618922       0.36896679       0.46591799 </v>
    <v>       0.93627354       0.47164251       0.34956450 </v>
    <v>       0.74835381       0.15956225       0.09295701 </v>
    <v>       0.84231368       0.06560239       0.22126075 </v>
    <v>       0.58127403       0.47821525       0.10536128 </v>
    <v>       0.67409868       0.39738738       0.22126075 </v>
    <v>       0.76805855       0.30342751       0.34956450 </v>
    <v>       0.88283540       0.20919347       0.46780662 </v>
    <v>       0.07287764       0.66682343       0.30639927 </v>
    <v>       0.16683750       0.57286357       0.43470302 </v>
    <v>       0.39969460       0.83851390       0.06339774 </v>
    <v>       0.47891775       0.76078330       0.17809552 </v>
    <v>       0.26544438       0.96137896       0.50685759 </v>
    <v>       0.03023342       0.87768264       0.47786825 </v>
    <v>       0.43627354       0.97164251       0.34956450 </v>
    <v>       0.26035814       0.65633701       0.11091590 </v>
    <v>       0.34231368       0.56560239       0.22126075 </v>
    <v>       0.08013882       0.99134724       0.09295701 </v>
    <v>       0.17409868       0.89738738       0.22126075 </v>
    <v>       0.26805855       0.80342751       0.34956450 </v>
    <v>       0.36201842       0.70946764       0.47786825 </v>
    <v>       0.57287764       0.66682343       0.30639927 </v>
    <v>       0.66683750       0.57286357       0.43470302 </v>
    <v>       0.88782912       0.85263403       0.06233088 </v>
    <v>       0.97891775       0.76078330       0.17809552 </v>
    <v>       0.74041693       0.02224039       0.54086687 </v>
    <v>       0.53023342       0.87768264       0.47786825 </v>
    <v>       0.93627354       0.97164251       0.34956450 </v>
    <v>       0.75779002       0.65821931       0.10645986 </v>
    <v>       0.84231368       0.56560239       0.22126075 </v>
    <v>       0.57445421       0.99145216       0.10327883 </v>
    <v>       0.67409868       0.89738738       0.22126075 </v>
    <v>       0.76805855       0.80342751       0.34956450 </v>
    <v>       0.86201842       0.70946764       0.47786825 </v>
   </varray>
  </structure>
  <varray name="forces" >
   <v>       0.08704275      -0.07302441      -0.07808336 </v>
   <v>       0.36965937       0.66167314      -0.62924994 </v>
   <v>       0.14232856      -0.50163291      -1.03055294 </v>
   <v>      -0.05527133      -0.57499187       1.46292208 </v>
   <v>      -0.63416740       0.06162457       1.07658889 </v>
   <v>      -0.70544717      -0.13748167      -1.19878378 </v>
   <v>       0.59598901      -0.38152546       3.16615038 </v>
   <v>      -0.17323255      -0.01537958       0.11886753 </v>
   <v>       0.34724727      -0.54638583      -1.71928690 </v>
   <v>      -0.00094398       0.19102265       0.00839246 </v>
   <v>       0.64981599       0.68673125      -1.72429321 </v>
   <v>      -0.00109879       0.00553378       0.87802943 </v>
   <v>       0.29453533      -0.94491990      -0.69072989 </v>
   <v>       0.14985689      -0.32750559      -0.06003929 </v>
   <v>      -0.68627991       0.60058719      -0.96613855 </v>
   <v>       0.30237459       0.03297100      -1.24233285 </v>
   <v>       0.15700853      -0.04266335       1.65099417 </v>
   <v>      -1.11363765      -0.26619898       0.85154282 </v>
   <v>      -0.74572002       1.10319170      -1.81030929 </v>
   <v>      -0.07025631      -1.08043017       1.47845428 </v>
   <v>      -0.04549332       0.06334464       0.05602774 </v>
   <v>      -0.49497225      -0.09780635      -2.32229765 </v>
   <v>      -0.02500268       0.03624177      -0.09751207 </v>
   <v>       0.23214837      -0.36409625      -1.50350037 </v>
   <v>       0.37448436       0.66445489       0.80483424 </v>
   <v>       1.04375018      -0.34473853       1.55872926 </v>
   <v>      -0.91680917       0.63496202      -1.88316471 </v>
   <v>       0.12893991      -0.21801662      -0.10519844 </v>
   <v>       0.18733248      -0.12641305       0.32295029 </v>
   <v>      -0.47386051       0.54127021       1.82826352 </v>
   <v>      -0.42029092       0.13194766       1.43333577 </v>
   <v>      -0.56939585      -2.05333320       0.30339382 </v>
   <v>      -0.13709783       0.77263734      -1.91252589 </v>
   <v>      -0.70291699      -0.53374719       1.89061775 </v>
   <v>       0.01307119      -0.03507830      -0.01748817 </v>
   <v>       0.23641661      -0.02425742      -0.20662179 </v>
   <v>      -0.02017088      -0.10746750      -0.07499091 </v>
   <v>       0.07181744      -0.24781133      -0.06228426 </v>
   <v>       2.25802846      -0.44930726       0.26530902 </v>
   <v>       0.55747818      -0.02092134       1.50138754 </v>
   <v>       0.10312381      -0.21543297      -0.00827199 </v>
   <v>       0.03328365      -0.03759774      -0.50592693 </v>
   <v>      -0.55202037       1.21015072       1.18953472 </v>
   <v>      -0.56092430       0.57361141       2.17281915 </v>
   <v>      -1.03271314      -1.67751632      -0.09862509 </v>
   <v>      -0.65232783      -0.76264974       1.76721881 </v>
   <v>       0.04122482       0.04207457       0.06836303 </v>
   <v>       0.14684126       0.19732093      -0.29791259 </v>
   <v>       0.00441516      -0.12561264       0.00995625 </v>
   <v>      -0.01943387      -0.11075646      -0.10704268 </v>
   <v>       2.25411890       0.08960333       0.21884864 </v>
   <v>       1.18190019       0.52842091       1.75765145 </v>
   <v>      -0.11731737       0.20287401      -0.93475849 </v>
   <v>       0.62472273       0.13722163       0.28278668 </v>
   <v>       1.17449142       1.22294340      -2.75804549 </v>
   <v>      -0.04901449       0.07860407       1.08738031 </v>
   <v>       0.20662262      -0.86032645       3.81744738 </v>
   <v>       0.66924766      -0.59540660       2.54744363 </v>
   <v>      -0.16390821       0.40436965      -0.48984470 </v>
   <v>      -0.43903738       0.89813064       0.74922296 </v>
   <v>      -0.03670471       0.13196704      -0.02456953 </v>
   <v>      -1.32436756       1.62595013      -1.25683293 </v>
   <v>      -0.10207731      -0.20990320       0.45631307 </v>
   <v>      -0.08733089       0.31434134      -0.10009484 </v>
   <v>      -2.87345444       0.25307595       2.52737380 </v>
   <v>       0.15984544      -0.20399890      -0.12435093 </v>
   <v>       0.80893610      -1.39968989      -3.30267918 </v>
   <v>       0.43516179      -1.03967584      -3.28233639 </v>
   <v>      -0.03984448      -0.01484554       0.96482350 </v>
   <v>       0.58914676      -1.56477321       4.05322144 </v>
   <v>       0.03691578       1.43149598       2.00728125 </v>
   <v>      -0.19263020       0.29078535      -0.69076638 </v>
   <v>       2.17843721       1.07074934       0.02153886 </v>
   <v>       0.03460112       0.11655634      -0.04725669 </v>
   <v>      -1.61328810       0.31795856      -1.27244111 </v>
   <v>       0.00994368      -0.20270513       0.39413215 </v>
   <v>      -0.14501783       0.23684102      -0.16741714 </v>
   <v>      -0.67080697       0.30543347       2.49480711 </v>
   <v>       0.04811098       0.00880533      -0.03998888 </v>
   <v>       1.12402309      -1.22850818      -2.53629425 </v>
   <v>       1.31469604      -2.23433793      -2.88344920 </v>
   <v>       0.07439992      -0.02641386       0.80526579 </v>
   <v>      -0.03942803       2.13830130       1.53747810 </v>
   <v>       0.19476967       1.88472099      -1.55082244 </v>
   <v>       0.49911776      -0.21677353      -0.44397138 </v>
   <v>      -0.07928831       1.13168575      -2.30970345 </v>
   <v>       0.02525074      -0.10623828       0.84566702 </v>
   <v>      -1.88342271       0.11904474       0.19657362 </v>
   <v>       0.01382864      -0.00926582       0.18267730 </v>
   <v>      -0.15826634      -0.44028241      -0.24779487 </v>
   <v>      -2.70798622      -0.97928998      -1.35882354 </v>
   <v>       0.03845039       0.07113705      -0.05165559 </v>
   <v>       0.68769806      -1.26430743      -2.56695980 </v>
   <v>       1.32976433      -2.06629414      -3.41087397 </v>
   <v>       0.12407370      -0.00114429       0.32832636 </v>
   <v>       0.33810947       0.05569132       2.37207400 </v>
   <v>       1.82872343       2.17752170      -1.40010324 </v>
   <v>      -0.30790913      -0.18414531      -0.15595479 </v>
   <v>       0.49436842       1.70809176      -1.13349475 </v>
   <v>       0.10944759      -0.05648766       0.67452266 </v>
   <v>      -1.11361342      -0.49827096      -0.43703238 </v>
   <v>       0.08062611      -0.04718905       0.40662072 </v>
   <v>       0.09298311       0.02841781       0.00384354 </v>
   <v>      -2.35654791       0.70288217      -1.26652440 </v>
  </varray>
  <varray name="stress" >
   <v>      69.86900786      -1.78046671      -3.33462239 </v>
   <v>      -1.78046682      69.41804641      -0.43465381 </v>
   <v>      -3.33462299      -0.43465378      71.37674513 </v>
  </varray>
  <energy>
   <i name="e_fr_energy">   -512.89360496 </i>
   <i name="e_wo_entrp">   -512.18891668 </i>
   <i name="e_0_energy">     -1.40937656 </i>
  </energy>
  <time name="totalsc">  689.29  689.59</time>
  <eigenvalues>
   <array>
    <dimension dim="1">band</dimension>
    <dimension dim="2">kpoint</dimension>
    <dimension dim="3">spin</dimension>
    <field>eigene</field>
    <field>occ</field>
    <set>
     <set comment="spin 1">
      <set comment="kpoint 1">
       <r>  -62.6922    1.0000 </r>
       <r>  -62.6352    1.0000 </r>
       <r>  -62.5622    1.0000 </r>
       <r>  -62.5390    1.0000 </r>
       <r>  -62.5373    1.0000 </r>
       <r>  -62.5296    1.0000 </r>
       <r>  -62.5266    1.0000 </r>
       <r>  -62.5185    1.0000 </r>
       <r>  -62.5045    1.0000 </r>
       <r>  -62.4834    1.0000 </r>
       <r>  -62.4720    1.0000 </r>
       <r>  -62.4719    1.0000 </r>
       <r>  -62.4688    1.0000 </r>
       <r>  -62.4643    1.0000 </r>
       <r>  -62.4515    1.0000 </r>
       <r>  -62.4481    1.0000 </r>
       <r>  -62.4382    1.0000 </r>
       <r>  -62.4310    1.0000 </r>
       <r>  -62.4247    1.0000 </r>
       <r>  -62.4224    1.0000 </r>
       <r>  -62.4069    1.0000 </r>
       <r>  -62.3988    1.0000 </r>
       <r>  -62.3956    1.0000 </r>
       <r>  -62.3930    1.0000 </r>
       <r>  -62.3858    1.0000 </r>
       <r>  -62.3729    1.0000 </r>
       <r>  -62.3686    1.0000 </r>
       <r>  -62.3569    1.0000 </r>
       <r>  -62.3552    1.0000 </r>
       <r>  -62.3470    1.0000 </r>
       <r>  -62.3461    1.0000 </r>
       <r>  -62.3417    1.0000 </r>
       <r>  -62.3305    1.0000 </r>
       <r>  -62.3224    1.0000 </r>
       <r>  -62.3121    1.0000 </r>
       <r>  -62.3055    1.0000 </r>
       <r>  -62.2960    1.0000 </r>
       <r>  -62.2869    1.0000 </r>
       <r>  -62.2839    1.0000 </r>
       <r>  -62.2822    1.0000 </r>
       <r>  -62.2698    1.0000 </r>
       <r>  -62.2614    1.0000 </r>
       <r>  -62.2491    1.0000 </r>
       <r>  -62.2484    1.0000 </r>
       <r>  -62.2466    1.0000 </r>
       <r>  -62.2450    1.0000 </r>
       <r>  -62.2373    1.0000 </r>
       <r>  -62.2304    1.0000 </r>
       <r>  -62.2242    1.0000 </r>
       <r>  -62.2170    1.0000 </r>
       <r>  -62.2053    1.0000 </r>
       <r>  -62.2012    1.0000 </r>
       <r>  -62.1894    1.0000 </r>
       <r>  -62.1869    1.0000 </r>
       <r>  -62.1855    1.0000 </r>
       <r>  -62.1834    1.0000 </r>
       <r>  -62.1757    1.0000 </r>
       <r>  -62.1746    1.0000 </r>
       <r>  -62.1706    1.0000 </r>
       <r>  -62.1688    1.0000 </r>
       <r>  -62.1676    1.0000 </r>
       <r>  -62.1646    1.0000 </r>
       <r>  -62.1638    1.0000 </r>
       <r>  -62.1549    1.0000 </r>
       <r>  -62.1541    1.0000 </r>
       <r>  -62.1514    1.0000 </r>
       <r>  -62.1196    1.0000 </r>
       <r>  -62.1173    1.0000 </r>
       <r>  -62.0971    1.0000 </r>
       <r>  -62.0963    1.0000 </r>
       <r>  -62.0931    1.0000 </r>
       <r>  -62.0907    1.0000 </r>
       <r>  -62.0880    1.0000 </r>
       <r>  -62.0778    1.0000 </r>
       <r>  -62.0691    1.0000 </r>
       <r>  -62.0624    1.0000 </r>
       <r>  -62.0513    1.0000 </r>
       <r>  -62.0494    1.0000 </r>
       <r>  -62.0482    1.0000 </r>
       <r>  -62.0453    1.0000 </r>
       <r>  -62.0350    1.0000 </r>
       <r>  -62.0307    1.0000 </r>
       <r>  -62.0298    1.0000 </r>
       <r>  -62.0290    1.0000 </r>
       <r>  -62.0281    1.0000 </r>
       <r>  -62.0269    1.0000 </r>
       <r>  -62.0227    1.0000 </r>
       <r>  -62.0216    1.0000 </r>
       <r>  -62.0157    1.0000 </r>
       <r>  -62.0136    1.0000 </r>
       <r>  -62.0128    1.0000 </r>
       <r>  -62.0103    1.0000 </r>
       <r>  -62.0085    1.0000 </r>
       <r>  -62.0067    1.0000 </r>
       <r>  -62.0061    1.0000 </r>
       <r>  -62.0007    1.0000 </r>
       <r>  -61.9973    1.0000 </r>
       <r>  -61.9957    1.0000 </r>
       <r>  -61.9936    1.0000 </r>
       <r>  -61.9916    1.0000 </r>
       <r>  -61.9909    1.0000 </r>
       <r>  -61.9890    1.0000 </r>
       <r>  -61.9793    1.0000 </r>
       <r>  -61.9760    1.0000 </r>
       <r>  -61.9734    1.0000 </r>
       <r>  -61.9668    1.0000 </r>
       <r>  -61.9666    1.0000 </r>
       <r>  -61.9646    1.0000 </r>
       <r>  -61.9594    1.0000 </r>
       <r>  -61.9583    1.0000 </r>
       <r>  -61.9496    1.0000 </r>
       <r>  -61.9468    1.0000 </r>
       <r>  -61.9461    1.0000 </r>
       <r>  -61.9457    1.0000 </r>
       <r>  -61.9360    1.0000 </r>
       <r>  -61.9348    1.0000 </r>
       <r>  -61.9329    1.0000 </r>
       <r>  -61.9313    1.0000 </r>
       <r>  -61.9302    1.0000 </r>
       <r>  -61.9289    1.0000 </r>
       <r>  -61.9286    1.0000 </r>
       <r>  -61.9283    1.0000 </r>
       <r>  -61.9230    1.0000 </r>
       <r>  -61.9111    1.0000 </r>
       <r>  -61.9016    1.0000 </r>
       <r>  -61.8985    1.0000 </r>
       <r>  -61.8896    1.0000 </r>
       <r>  -61.8725    1.0000 </r>
       <r>  -61.8716    1.0000 </r>
       <r>  -61.8709    1.0000 </r>
       <r>  -61.8356    1.0000 </r>
       <r>  -61.8325    1.0000 </r>
       <r>  -61.8289    1.0000 </r>
       <r>  -61.8259    1.0000 </r>
       <r>  -61.8079    1.0000 </r>
       <r>  -61.8066    1.0000 </r>
       <r>  -61.7992    1.0000 </r>
       <r>  -61.7894    1.0000 </r>
       <r>  -61.7824    1.0000 </r>
       <r>  -61.7788    1.0000 </r>
       <r>  -61.7707    1.0000 </r>
       <r>  -61.7699    1.0000 </r>
       <r>  -61.7562    1.0000 </r>
       <r>  -61.7522    1.0000 </r>
       <r>  -61.7478    1.0000 </r>
       <r>  -61.7472    1.0000 </r>
       <r>  -61.7460    1.0000 </r>
       <r>  -61.7436    1.0000 </r>
       <r>  -61.7390    1.0000 </r>
       <r>  -61.7338    1.0000 </r>
       <r>  -61.6321    1.0000 </r>
       <r>  -61.5780    1.0000 </r>
       <r>  -61.5457    1.0000 </r>
       <r>  -61.5186    1.0000 </r>
       <r>  -61.4468    1.0000 </r>
       <r>  -61.3849    1.0000 </r>
       <r>  -14.2551    1.0000 </r>
       <r>  -14.1589    1.0000 </r>
       <r>  -13.7504    1.0000 </r>
       <r>  -13.6453    1.0000 </r>
       <r>  -13.4815    1.0000 </r>
       <r>  -13.4397    1.0000 </r>
       <r>  -13.3346    1.0000 </r>
       <r>  -13.1797    1.0000 </r>
       <r>  -13.1022    1.0000 </r>
       <r>  -13.0241    1.0000 </r>
       <r>  -12.8416    1.0000 </r>
       <r>  -12.8372    1.0000 </r>
       <r>  -12.7973    1.0000 </r>
       <r>  -12.6956    1.0000 </r>
       <r>  -12.6339    1.0000 </r>
       <r>  -12.5872    1.0000 </r>
       <r>  -12.5360    1.0000 </r>
       <r>  -12.4488    1.0000 </r>
       <r>  -12.3868    1.0000 </r>
       <r>  -12.3436    1.0000 </r>
       <r>  -12.3101    1.0000 </r>
       <r>  -12.2774    1.0000 </r>
       <r>  -12.1978    1.0000 </r>
       <r>  -12.1770    1.0000 </r>
       <r>  -12.1250    1.0000 </r>
       <r>  -12.1024    1.0000 </r>
       <r>  -12.0559    1.0000 </r>
       <r>  -12.0241    1.0000 </r>
       <r>  -11.9941    1.0000 </r>
       <r>  -11.9050    1.0000 </r>
       <r>  -11.8559    1.0000 </r>
       <r>  -11.8442    1.0000 </r>
       <r>  -11.8163    1.0000 </r>
       <r>  -11.7385    1.0000 </r>
       <r>  -11.6818    1.0000 </r>
       <r>  -11.6667    1.0000 </r>
       <r>  -11.5821    1.0000 </r>
       <r>  -11.5553    1.0000 </r>
       <r>  -11.5014    1.0000 </r>
       <r>  -11.4876    1.0000 </r>
       <r>  -11.4745    1.0000 </r>
       <r>  -11.4092    1.0000 </r>
       <r>  -11.3844    1.0000 </r>
       <r>  -11.3629    1.0000 </r>
       <r>  -11.3144    1.0000 </r>
       <r>  -11.2379    1.0000 </r>
       <r>  -11.2153    1.0000 </r>
       <r>  -11.1688    1.0000 </r>
       <r>  -11.0088    1.0000 </r>
       <r>  -10.9931    1.0000 </r>
       <r>  -10.9452    1.0000 </r>
       <r>  -10.8965    1.0000 </r>
       <r>   -6.4099    1.0000 </r>
       <r>   -6.1464    1.0000 </r>
       <r>   -5.9563    1.0000 </r>
       <r>   -5.7827    1.0000 </r>
       <r>   -5.7585    1.0000 </r>
       <r>   -5.6946    1.0000 </r>
       <r>   -5.6377    1.0000 </r>
       <r>   -5.5826    1.0000 </r>
       <r>   -5.5247    1.0000 </r>
       <r>   -5.4370    1.0000 </r>
       <r>   -5.3549    1.0000 </r>
       <r>   -5.3409    1.0000 </r>
       <r>   -5.2198    1.0000 </r>
       <r>   -5.1366    1.0000 </r>
       <r>   -5.1133    1.0000 </r>
       <r>   -5.0750    1.0000 </r>
       <r>   -5.0270    1.0000 </r>
       <r>   -4.9870    1.0000 </r>
       <r>   -4.9563    1.0000 </r>
       <r>   -4.9252    1.0000 </r>
       <r>   -4.8648    1.0000 </r>
       <r>   -4.8381    1.0000 </r>
       <r>   -4.8252    1.0000 </r>
       <r>   -4.7965    1.0000 </r>
       <r>   -4.7809    1.0000 </r>
       <r>   -4.7341    1.0000 </r>
       <r>   -4.7238    1.0000 </r>
       <r>   -4.7162    1.0000 </r>
       <r>   -4.6498    1.0000 </r>
       <r>   -4.6371    1.0000 </r>
       <r>   -4.5979    1.0000 </r>
       <r>   -4.5626    1.0000 </r>
       <r>   -4.5297    1.0000 </r>
       <r>   -4.5003    1.0000 </r>
       <r>   -4.4525    1.0000 </r>
       <r>   -4.4426    1.0000 </r>
       <r>   -4.4080    1.0000 </r>
       <r>   -4.3822    1.0000 </r>
       <r>   -4.3738    1.0000 </r>
       <r>   -4.3399    1.0000 </r>
       <r>   -4.2865    1.0000 </r>
       <r>   -4.2508    1.0000 </r>
       <r>   -4.2303    1.0000 </r>
       <r>   -4.1837    1.0000 </r>
       <r>   -4.1663    1.0000 </r>
       <r>   -4.1200    1.0000 </r>
       <r>   -4.0560    1.0000 </r>
       <r>   -4.0416    1.0000 </r>
       <r>   -4.0084    1.0000 </r>
       <r>   -3.9685    1.0000 </r>
       <r>   -3.9387    1.0000 </r>
       <r>   -3.9199    1.0000 </r>
       <r>   -3.8837    1.0000 </r>
       <r>   -3.8651    1.0000 </r>
       <r>   -3.8387    1.0000 </r>
       <r>   -3.7940    1.0000 </r>
       <r>   -3.7803    1.0000 </r>
       <r>   -3.7336    1.0000 </r>
       <r>   -3.7214    1.0000 </r>
       <r>   -3.6971    1.0000 </r>
       <r>   -3.6691    1.0000 </r>
       <r>   -3.6376    1.0000 </r>
       <r>   -3.6035    1.0000 </r>
       <r>   -3.5614    1.0000 </r>
       <r>   -3.5047    1.0000 </r>
       <r>   -3.4741    1.0000 </r>
       <r>   -3.4626    1.0000 </r>
       <r>   -3.4532    1.0000 </r>
       <r>   -3.4262    1.0000 </r>
       <r>   -3.3694    1.0000 </r>
       <r>   -3.3386    1.0000 </r>
       <r>   -3.3290    1.0000 </r>
       <r>   -3.3102    1.0000 </r>
       <r>   -3.2931    1.0000 </r>
       <r>   -3.2681    1.0000 </r>
       <r>   -3.2390    1.0000 </r>
       <r>   -3.2024    1.0000 </r>
       <r>   -3.1856    1.0000 </r>
       <r>   -3.1574    1.0000 </r>
       <r>   -3.1420    1.0000 </r>
       <r>   -3.1348    1.0000 </r>
       <r>   -3.1178    1.0000 </r>
       <r>   -3.0838    1.0000 </r>
       <r>   -3.0319    1.0000 </r>
       <r>   -3.0224    1.0000 </r>
       <r>   -3.0155    1.0000 </r>
       <r>   -2.9948    1.0000 </r>
       <r>   -2.9811    1.0000 </r>
       <r>   -2.9612    1.0000 </r>
       <r>   -2.9568    1.0000 </r>
       <r>   -2.9158    1.0000 </r>
       <r>   -2.9054    1.0000 </r>
       <r>   -2.8781    1.0000 </r>
       <r>   -2.8650    1.0000 </r>
       <r>   -2.8485    1.0000 </r>
       <r>   -2.8274    1.0000 </r>
       <r>   -2.8153    1.0000 </r>
       <r>   -2.7950    1.0000 </r>
       <r>   -2.7597    1.0000 </r>
       <r>   -2.7430    1.0000 </r>
       <r>   -2.7242    1.0000 </r>
       <r>   -2.6736    1.0000 </r>
       <r>   -2.6620    1.0000 </r>
       <r>   -2.6416    1.0000 </r>
       <r>   -2.6212    1.0000 </r>
       <r>   -2.6074    1.0000 </r>
       <r>   -2.5900    1.0000 </r>
       <r>   -2.5806    1.0000 </r>
       <r>   -2.5486    1.0000 </r>
       <r>   -2.5169    1.0000 </r>
       <r>   -2.5079    1.0000 </r>
       <r>   -2.4832    1.0000 </r>
       <r>   -2.4750    1.0000 </r>
       <r>   -2.4269    1.0000 </r>
       <r>   -2.3869    1.0000 </r>
       <r>   -2.3751    1.0000 </r>
       <r>   -2.3502    1.0000 </r>
       <r>   -2.3452    1.0000 </r>
       <r>   -2.3123    1.0000 </r>
       <r>   -2.2815    1.0000 </r>
       <r>   -2.2596    1.0000 </r>
       <r>   -2.2439    1.0000 </r>
       <r>   -2.2078    1.0000 </r>
       <r>   -2.1882    1.0000 </r>
       <r>   -2.1685    1.0000 </r>
       <r>   -2.1347    1.0000 </r>
       <r>   -2.1209    1.0000 </r>
       <r>   -2.1027    1.0000 </r>
       <r>   -2.0877    1.0000 </r>
       <r>   -2.0687    1.0000 </r>
       <r>   -2.0389    1.0000 </r>
       <r>   -2.0213    1.0000 </r>
       <r>   -2.0053    1.0000 </r>
       <r>   -1.9873    1.0000 </r>
       <r>   -1.9628    1.0000 </r>
       <r>   -1.9574    1.0000 </r>
       <r>   -1.9389    1.0000 </r>
       <r>   -1.9273    1.0000 </r>
       <r>   -1.9039    1.0000 </r>
       <r>   -1.8879    1.0000 </r>
       <r>   -1.8349    1.0000 </r>
       <r>   -1.8050    1.0000 </r>
       <r>   -1.7863    1.0000 </r>
       <r>   -1.7533    1.0000 </r>
       <r>   -1.7204    1.0000 </r>
       <r>   -1.7119    1.0000 </r>
       <r>   -1.6346    1.0000 </r>
       <r>   -1.5332    1.0000 </r>
       <r>   -1.4922    1.0000 </r>
       <r>   -1.4481    1.0000 </r>
       <r>   -1.4003    1.0000 </r>
       <r>   -1.3729    1.0000 </r>
       <r>   -1.3664    1.0000 </r>
       <r>   -1.3490    1.0000 </r>
       <r>   -1.3061    1.0000 </r>
       <r>   -1.3005    1.0000 </r>
       <r>   -1.2839    1.0000 </r>
       <r>   -1.2496    1.0000 </r>
       <r>   -1.2272    1.0000 </r>
       <r>   -1.1911    1.0000 </r>
       <r>   -1.1581    1.0000 </r>
       <r>   -1.1201    1.0000 </r>
       <r>   -1.1000    1.0000 </r>
       <r>   -1.0726    1.0000 </r>
       <r>   -1.0669    1.0000 </r>
       <r>   -1.0228    1.0000 </r>
       <r>   -1.0022    1.0000 </r>
       <r>   -1.0004    1.0000 </r>
       <r>   -0.9738    1.0000 </r>
       <r>   -0.9634    1.0000 </r>
       <r>   -0.9345    1.0000 </r>
       <r>   -0.9107    1.0000 </r>
       <r>   -0.8940    1.0000 </r>
       <r>   -0.8583    1.0000 </r>
       <r>   -0.8412    1.0000 </r>
       <r>   -0.8352    1.0000 </r>
       <r>   -0.8183    1.0000 </r>
       <r>   -0.7987    1.0000 </r>
       <r>   -0.7891    1.0000 </r>
       <r>   -0.7587    1.0000 </r>
       <r>   -0.7446    1.0000 </r>
       <r>   -0.7293    1.0000 </r>
       <r>   -0.7210    1.0000 </r>
       <r>   -0.7145    1.0000 </r>
       <r>   -0.6933    1.0000 </r>
       <r>   -0.6652    1.0000 </r>
       <r>   -0.6570    1.0000 </r>
       <r>   -0.6329    1.0000 </r>
       <r>   -0.6181    1.0000 </r>
       <r>   -0.6079    1.0000 </r>
       <r>   -0.5737    1.0000 </r>
       <r>   -0.5615    1.0000 </r>
       <r>   -0.5500    1.0000 </r>
       <r>   -0.5449    1.0000 </r>
       <r>   -0.5293    1.0000 </r>
       <r>   -0.5037    1.0000 </r>
       <r>   -0.4836    1.0000 </r>
       <r>   -0.4708    1.0000 </r>
       <r>   -0.4579    1.0000 </r>
       <r>   -0.4537    1.0000 </r>
       <r>   -0.4419    1.0000 </r>
       <r>   -0.4327    1.0000 </r>
       <r>   -0.4187    1.0000 </r>
       <r>   -0.4148    1.0000 </r>
       <r>   -0.4028    1.0000 </r>
       <r>   -0.3800    1.0000 </r>
       <r>   -0.3677    1.0000 </r>
       <r>   -0.3594    1.0000 </r>
       <r>   -0.3371    1.0000 </r>
       <r>   -0.3188    1.0000 </r>
       <r>   -0.3101    1.0000 </r>
       <r>   -0.3015    1.0000 </r>
       <r>   -0.2867    1.0000 </r>
       <r>   -0.2785    1.0000 </r>
       <r>   -0.2601    1.0000 </r>
       <r>   -0.2419    1.0000 </r>
       <r>   -0.2331    1.0000 </r>
       <r>   -0.2265    1.0000 </r>
       <r>   -0.2121    1.0000 </r>
       <r>   -0.1914    1.0000 </r>
       <r>   -0.1877    1.0000 </r>
       <r>   -0.1765    1.0000 </r>
       <r>   -0.1640    1.0000 </r>
       <r>   -0.1526    1.0000 </r>
       <r>   -0.1358    1.0000 </r>
       <r>   -0.1326    1.0000 </r>
       <r>   -0.1138    1.0000 </r>
       <r>   -0.1031    1.0000 </r>
       <r>   -0.0992    1.0000 </r>
[...]
       <r>   -55.5763     0.0000   312.0000 </r>
       <r>   -55.3163     0.0000   312.0000 </r>
       <r>   -55.0562     0.0000   312.0000 </r>
       <r>   -54.7962     0.0000   312.0000 </r>
       <r>   -54.5361     0.0000   312.0000 </r>
       <r>   -54.2761     0.0000   312.0000 </r>
       <r>   -54.0160     0.0000   312.0000 </r>
       <r>   -53.7560     0.0000   312.0000 </r>
       <r>   -53.4960     0.0000   312.0000 </r>
       <r>   -53.2359     0.0000   312.0000 </r>
       <r>   -52.9759     0.0000   312.0000 </r>
       <r>   -52.7158     0.0000   312.0000 </r>
       <r>   -52.4558     0.0000   312.0000 </r>
       <r>   -52.1957     0.0000   312.0000 </r>
       <r>   -51.9357     0.0000   312.0000 </r>
       <r>   -51.6756     0.0000   312.0000 </r>
       <r>   -51.4156     0.0000   312.0000 </r>
       <r>   -51.1555     0.0000   312.0000 </r>
       <r>   -50.8955     0.0000   312.0000 </r>
       <r>   -50.6354     0.0000   312.0000 </r>
       <r>   -50.3754     0.0000   312.0000 </r>
       <r>   -50.1153     0.0000   312.0000 </r>
       <r>   -49.8553     0.0000   312.0000 </r>
       <r>   -49.5952     0.0000   312.0000 </r>
       <r>   -49.3352     0.0000   312.0000 </r>
       <r>   -49.0751     0.0000   312.0000 </r>
       <r>   -48.8151     0.0000   312.0000 </r>
       <r>   -48.5551     0.0000   312.0000 </r>
       <r>   -48.2950     0.0000   312.0000 </r>
       <r>   -48.0350     0.0000   312.0000 </r>
       <r>   -47.7749     0.0000   312.0000 </r>
       <r>   -47.5149     0.0000   312.0000 </r>
       <r>   -47.2548     0.0000   312.0000 </r>
       <r>   -46.9948     0.0000   312.0000 </r>
       <r>   -46.7347     0.0000   312.0000 </r>
       <r>   -46.4747     0.0000   312.0000 </r>
       <r>   -46.2146     0.0000   312.0000 </r>
       <r>   -45.9546     0.0000   312.0000 </r>
       <r>   -45.6945     0.0000   312.0000 </r>
       <r>   -45.4345     0.0000   312.0000 </r>
       <r>   -45.1744     0.0000   312.0000 </r>
       <r>   -44.9144     0.0000   312.0000 </r>
       <r>   -44.6543     0.0000   312.0000 </r>
       <r>   -44.3943     0.0000   312.0000 </r>
       <r>   -44.1343     0.0000   312.0000 </r>
       <r>   -43.8742     0.0000   312.0000 </r>
       <r>   -43.6142     0.0000   312.0000 </r>
       <r>   -43.3541     0.0000   312.0000 </r>
       <r>   -43.0941     0.0000   312.0000 </r>
       <r>   -42.8340     0.0000   312.0000 </r>
       <r>   -42.5740     0.0000   312.0000 </r>
       <r>   -42.3139     0.0000   312.0000 </r>
       <r>   -42.0539     0.0000   312.0000 </r>
       <r>   -41.7938     0.0000   312.0000 </r>
       <r>   -41.5338     0.0000   312.0000 </r>
       <r>   -41.2737     0.0000   312.0000 </r>
       <r>   -41.0137     0.0000   312.0000 </r>
       <r>   -40.7536     0.0000   312.0000 </r>
       <r>   -40.4936     0.0000   312.0000 </r>
       <r>   -40.2335     0.0000   312.0000 </r>
       <r>   -39.9735     0.0000   312.0000 </r>
       <r>   -39.7134     0.0000   312.0000 </r>
       <r>   -39.4534     0.0000   312.0000 </r>
       <r>   -39.1934     0.0000   312.0000 </r>
       <r>   -38.9333     0.0000   312.0000 </r>
       <r>   -38.6733     0.0000   312.0000 </r>
       <r>   -38.4132     0.0000   312.0000 </r>
       <r>   -38.1532     0.0000   312.0000 </r>
       <r>   -37.8931     0.0000   312.0000 </r>
       <r>   -37.6331     0.0000   312.0000 </r>
       <r>   -37.3730     0.0000   312.0000 </r>
       <r>   -37.1130     0.0000   312.0000 </r>
       <r>   -36.8529     0.0000   312.0000 </r>
       <r>   -36.5929     0.0000   312.0000 </r>
       <r>   -36.3328     0.0000   312.0000 </r>
       <r>   -36.0728     0.0000   312.0000 </r>
       <r>   -35.8127     0.0000   312.0000 </r>
       <r>   -35.5527     0.0000   312.0000 </r>
       <r>   -35.2926     0.0000   312.0000 </r>
       <r>   -35.0326     0.0000   312.0000 </r>
       <r>   -34.7725     0.0000   312.0000 </r>
       <r>   -34.5125     0.0000   312.0000 </r>
       <r>   -34.2525     0.0000   312.0000 </r>
       <r>   -33.9924     0.0000   312.0000 </r>
       <r>   -33.7324     0.0000   312.0000 </r>
       <r>   -33.4723     0.0000   312.0000 </r>
       <r>   -33.2123     0.0000   312.0000 </r>
       <r>   -32.9522     0.0000   312.0000 </r>
       <r>   -32.6922     0.0000   312.0000 </r>
       <r>   -32.4321     0.0000   312.0000 </r>
       <r>   -32.1721     0.0000   312.0000 </r>
       <r>   -31.9120     0.0000   312.0000 </r>
       <r>   -31.6520     0.0000   312.0000 </r>
       <r>   -31.3919     0.0000   312.0000 </r>
       <r>   -31.1319     0.0000   312.0000 </r>
       <r>   -30.8718     0.0000   312.0000 </r>
       <r>   -30.6118     0.0000   312.0000 </r>
       <r>   -30.3517     0.0000   312.0000 </r>
       <r>   -30.0917     0.0000   312.0000 </r>
       <r>   -29.8316     0.0000   312.0000 </r>
       <r>   -29.5716     0.0000   312.0000 </r>
       <r>   -29.3116     0.0000   312.0000 </r>
       <r>   -29.0515     0.0000   312.0000 </r>
       <r>   -28.7915     0.0000   312.0000 </r>
       <r>   -28.5314     0.0000   312.0000 </r>
       <r>   -28.2714     0.0000   312.0000 </r>
       <r>   -28.0113     0.0000   312.0000 </r>
       <r>   -27.7513     0.0000   312.0000 </r>
       <r>   -27.4912     0.0000   312.0000 </r>
       <r>   -27.2312     0.0000   312.0000 </r>
       <r>   -26.9711     0.0000   312.0000 </r>
       <r>   -26.7111     0.0000   312.0000 </r>
       <r>   -26.4510     0.0000   312.0000 </r>
       <r>   -26.1910     0.0000   312.0000 </r>
       <r>   -25.9309     0.0000   312.0000 </r>
       <r>   -25.6709     0.0000   312.0000 </r>
       <r>   -25.4108     0.0000   312.0000 </r>
       <r>   -25.1508     0.0000   312.0000 </r>
       <r>   -24.8907     0.0000   312.0000 </r>
       <r>   -24.6307     0.0000   312.0000 </r>
       <r>   -24.3707     0.0000   312.0000 </r>
       <r>   -24.1106     0.0000   312.0000 </r>
       <r>   -23.8506     0.0000   312.0000 </r>
       <r>   -23.5905     0.0000   312.0000 </r>
       <r>   -23.3305     0.0000   312.0000 </r>
       <r>   -23.0704     0.0000   312.0000 </r>
       <r>   -22.8104     0.0000   312.0000 </r>
       <r>   -22.5503     0.0000   312.0000 </r>
       <r>   -22.2903     0.0000   312.0000 </r>
       <r>   -22.0302     0.0000   312.0000 </r>
       <r>   -21.7702     0.0000   312.0000 </r>
       <r>   -21.5101     0.0000   312.0000 </r>
       <r>   -21.2501     0.0000   312.0000 </r>
       <r>   -20.9900     0.0000   312.0000 </r>
       <r>   -20.7300     0.0000   312.0000 </r>
       <r>   -20.4699     0.0000   312.0000 </r>
       <r>   -20.2099     0.0000   312.0000 </r>
       <r>   -19.9499     0.0000   312.0000 </r>
       <r>   -19.6898     0.0000   312.0000 </r>
       <r>   -19.4298     0.0000   312.0000 </r>
       <r>   -19.1697     0.0000   312.0000 </r>
       <r>   -18.9097     0.0000   312.0000 </r>
       <r>   -18.6496     0.0000   312.0000 </r>
       <r>   -18.3896     0.0000   312.0000 </r>
       <r>   -18.1295     0.0000   312.0000 </r>
       <r>   -17.8695     0.0000   312.0000 </r>
       <r>   -17.6094     0.0000   312.0000 </r>
       <r>   -17.3494     0.0000   312.0000 </r>
       <r>   -17.0893     0.0000   312.0000 </r>
       <r>   -16.8293     0.0000   312.0000 </r>
       <r>   -16.5692     0.0000   312.0000 </r>
       <r>   -16.3092     0.0000   312.0000 </r>
       <r>   -16.0491     0.0000   312.0000 </r>
       <r>   -15.7891     0.0000   312.0000 </r>
       <r>   -15.5290     0.0000   312.0000 </r>
       <r>   -15.2690     0.0000   312.0000 </r>
       <r>   -15.0090     0.0000   312.0000 </r>
       <r>   -14.7489     0.0020   312.0005 </r>
       <r>   -14.4889     0.4519   312.1180 </r>
       <r>   -14.2288     6.3504   313.7694 </r>
       <r>   -13.9688     8.2847   315.9238 </r>
       <r>   -13.7087     8.2051   318.0575 </r>
       <r>   -13.4487    16.8113   322.4293 </r>
       <r>   -13.1886    18.9263   327.3510 </r>
       <r>   -12.9286    20.8358   332.7693 </r>
       <r>   -12.6685    28.7591   340.2480 </r>
       <r>   -12.4085    34.3829   349.1892 </r>
       <r>   -12.1484    43.4053   360.4767 </r>
       <r>   -11.8884    46.4571   372.5577 </r>
       <r>   -11.6283    44.7817   384.2031 </r>
       <r>   -11.3683    50.0567   397.2202 </r>
       <r>   -11.1082    39.4483   407.4786 </r>
       <r>   -10.8482    25.7426   414.1729 </r>
       <r>   -10.5881     6.8416   415.9520 </r>
       <r>   -10.3281     0.1842   415.9999 </r>
       <r>   -10.0681     0.0003   416.0000 </r>
       <r>    -9.8080     0.0000   416.0000 </r>
       <r>    -9.5480     0.0000   416.0000 </r>
       <r>    -9.2879     0.0000   416.0000 </r>
       <r>    -9.0279     0.0000   416.0000 </r>
       <r>    -8.7678     0.0000   416.0000 </r>
       <r>    -8.5078     0.0000   416.0000 </r>
       <r>    -8.2477     0.0000   416.0000 </r>
       <r>    -7.9877     0.0000   416.0000 </r>
       <r>    -7.7276     0.0000   416.0000 </r>
       <r>    -7.4676     0.0000   416.0000 </r>
       <r>    -7.2075     0.0000   416.0000 </r>
       <r>    -6.9475     0.0006   416.0001 </r>
       <r>    -6.6874     0.1910   416.0498 </r>
       <r>    -6.4274     3.4584   416.9492 </r>
       <r>    -6.1673     7.6661   418.9427 </r>
       <r>    -5.9073    12.0229   422.0692 </r>
       <r>    -5.6472    25.3138   428.6520 </r>
       <r>    -5.3872    30.6894   436.6327 </r>
       <r>    -5.1272    33.2098   445.2688 </r>
       <r>    -4.8671    52.3737   458.8885 </r>
       <r>    -4.6071    66.4852   476.1777 </r>
       <r>    -4.3470    65.2351   493.1420 </r>
       <r>    -4.0870    59.9511   508.7321 </r>
       <r>    -3.8269    64.0448   525.3868 </r>
       <r>    -3.5669    66.8659   542.7751 </r>
       <r>    -3.3068    72.4612   561.6184 </r>
       <r>    -3.0468    88.6769   584.6786 </r>
       <r>    -2.7867    98.0449   610.1749 </r>
       <r>    -2.5267    92.5488   634.2420 </r>
       <r>    -2.2666    86.7505   656.8012 </r>
       <r>    -2.0066    92.8786   680.9541 </r>
       <r>    -1.7465    80.4590   701.8772 </r>
       <r>    -1.4865    50.0973   714.9049 </r>
       <r>    -1.2264    66.7088   732.2523 </r>
       <r>    -0.9664    85.2656   754.4254 </r>
       <r>    -0.7063   109.2626   782.8389 </r>
       <r>    -0.4463   132.6944   817.3457 </r>
       <r>    -0.1863   157.2623   858.2413 </r>
       <r>     0.0738   179.8110   905.0007 </r>
       <r>     0.3338   194.4570   955.5687 </r>
       <r>     0.5939   195.6961  1006.4590 </r>
       <r>     0.8539   154.7052  1046.6896 </r>
       <r>     1.1140   109.6299  1075.1986 </r>
       <r>     1.3740    82.4218  1096.6321 </r>
       <r>     1.6341    71.2996  1115.1734 </r>
       <r>     1.8941    72.7370  1134.0885 </r>
       <r>     2.1542    70.1443  1152.3293 </r>
       <r>     2.4142    63.5248  1168.8488 </r>
       <r>     2.6743    70.5375  1187.1919 </r>
       <r>     2.9343    74.7531  1206.6312 </r>
       <r>     3.1944    66.8581  1224.0175 </r>
       <r>     3.4544    48.9115  1236.7368 </r>
       <r>     3.7145    33.7674  1245.5179 </r>
       <r>     3.9745     9.1403  1247.8948 </r>
       <r>     4.2346     0.5675  1248.0424 </r>
       <r>     4.4946     3.1120  1248.8517 </r>
       <r>     4.7546     4.3104  1249.9726 </r>
       <r>     5.0147     6.3838  1251.6327 </r>
       <r>     5.2747    13.1057  1255.0408 </r>
       <r>     5.5348    16.7280  1259.3908 </r>
       <r>     5.7948    18.4337  1264.1845 </r>
       <r>     6.0549    19.2334  1269.1861 </r>
       <r>     6.3149    31.8153  1277.4595 </r>
       <r>     6.5750    37.8755  1287.3090 </r>
       <r>     6.8350    34.5220  1296.2863 </r>
       <r>     7.0951    45.4043  1308.0936 </r>
       <r>     7.3551    49.6387  1321.0020 </r>
       <r>     7.6152    55.7966  1335.5117 </r>
       <r>     7.8752    56.9003  1350.3085 </r>
       <r>     8.1353    54.8087  1364.5614 </r>
       <r>     8.3953    26.4393  1371.4368 </r>
       <r>     8.6554     2.1503  1371.9960 </r>
       <r>     8.9154     0.0153  1372.0000 </r>
       <r>     9.1754     0.0000  1372.0000 </r>
       <r>     9.4355     0.0000  1372.0000 </r>
       <r>     9.6955     0.0000  1372.0000 </r>
       <r>     9.9556     0.0000  1372.0000 </r>
       <r>    10.2156     0.0000  1372.0000 </r>
       <r>    10.4757     0.0000  1372.0000 </r>
       <r>    10.7357     0.0000  1372.0000 </r>
       <r>    10.9958     0.0000  1372.0000 </r>
       <r>    11.2558     0.0000  1372.0000 </r>
       <r>    11.5159     0.0000  1372.0000 </r>
       <r>    11.7759     0.0000  1372.0000 </r>
      </set>
     </set>
    </array>
   </total>
  </dos>
 </calculation>
 <structure name="finalpos" >
  <crystal>
   <varray name="basis" >
    <v>      11.25646304       0.00000000       0.00000000 </v>
    <v>       5.04456212      10.06282034       0.00000000 </v>
    <v>       0.00000000       0.00000000      22.88364939 </v>
   </varray>
   <i name="volume">   2592.07135999 </i>
   <varray name="rec_basis" >
    <v>       0.08883785      -0.04453504       0.00000000 </v>
    <v>       0.00000000       0.09937572       0.00000000 </v>
    <v>       0.00000000       0.00000000       0.04369932 </v>
   </varray>
  </crystal>
  <varray name="positions" >
   <v>       0.26092070       0.47878036       0.29050611 </v>
   <v>       0.35488056       0.38482049       0.41880986 </v>
   <v>       0.03468080       0.21251791       0.08796115 </v>
   <v>       0.16696083       0.07274024       0.16220237 </v>
   <v>       0.07279041       0.04041886       0.47663391 </v>
   <v>       0.17415942       0.32880346       0.03948727 </v>
   <v>       0.27423906       0.33335899       0.12830375 </v>
   <v>       0.36819893       0.23939913       0.25660749 </v>
   <v>       0.46215880       0.14543926       0.38491124 </v>
   <v>       0.00030194       0.37150212       0.25660749 </v>
   <v>       0.09426181       0.27754226       0.38491124 </v>
   <v>       0.40634206       0.46546199       0.12830375 </v>
   <v>       0.41879049       0.13885053       0.05140968 </v>
   <v>       0.76092070       0.47878036       0.29050611 </v>
   <v>       0.85488056       0.38482049       0.41880986 </v>
   <v>       0.54240456       0.24796042       0.08994688 </v>
   <v>       0.66696083       0.07274024       0.16220237 </v>
   <v>       0.56350249       0.04734963       0.50102179 </v>
   <v>       0.70098811       0.53826756       0.05851316 </v>
   <v>       0.77423906       0.33335899       0.12830375 </v>
   <v>       0.86819893       0.23939913       0.25660749 </v>
   <v>       0.96215880       0.14543926       0.38491124 </v>
   <v>       0.50030194       0.37150212       0.25660749 </v>
   <v>       0.59426181       0.27754226       0.38491124 </v>
   <v>       0.70712191       0.19085616       0.48989161 </v>
   <v>       0.90634206       0.46546199       0.12830375 </v>
   <v>       0.71205765       0.01691507       0.05265597 </v>
   <v>       0.26092070       0.97878036       0.29050611 </v>
   <v>       0.35488056       0.88482049       0.41880986 </v>
   <v>       0.43993015       0.79909708       0.53241417 </v>
   <v>       0.16696083       0.57274024       0.16220237 </v>
   <v>       0.04246328       0.55355899       0.49479529 </v>
   <v>       0.23166754       0.00749499       0.04940203 </v>
   <v>       0.27423907       0.83335899       0.12830375 </v>
   <v>       0.36819893       0.73939913       0.25660749 </v>
   <v>       0.46215880       0.64543926       0.38491124 </v>
   <v>       0.00030194       0.87150212       0.25660749 </v>
   <v>       0.09426181       0.77754226       0.38491124 </v>
   <v>       0.17952802       0.69473595       0.49823986 </v>
   <v>       0.40634206       0.96546199       0.12830375 </v>
   <v>       0.76092070       0.97878036       0.29050611 </v>
   <v>       0.85488056       0.88482049       0.41880986 </v>
   <v>       0.90504629       0.83452605       0.52932548 </v>
   <v>       0.66696083       0.57274024       0.16220237 </v>
   <v>       0.54282097       0.54759089       0.49334716 </v>
   <v>       0.77423907       0.83335899       0.12830375 </v>
   <v>       0.86819893       0.73939913       0.25660749 </v>
   <v>       0.96215880       0.64543926       0.38491124 </v>
   <v>       0.50030194       0.87150212       0.25660749 </v>
   <v>       0.59426181       0.77754226       0.38491124 </v>
   <v>       0.68304435       0.69405188       0.49778950 </v>
   <v>       0.90634206       0.96546199       0.12830375 </v>
   <v>       0.07287763       0.16682343       0.30639927 </v>
   <v>       0.17081045       0.07423979       0.40734526 </v>
   <v>       0.35577053       0.34724391       0.04803690 </v>
   <v>       0.47891775       0.26078330       0.17809552 </v>
   <v>       0.06473062       0.66633137       0.56081242 </v>
   <v>       0.01708137       0.39287677       0.45972470 </v>
   <v>       0.43627354       0.47164251       0.34956450 </v>
   <v>       0.24835381       0.15956225       0.09295701 </v>
   <v>       0.34231368       0.06560239       0.22126075 </v>
   <v>       0.08498998       0.47942282       0.10246751 </v>
   <v>       0.17409868       0.39738738       0.22126075 </v>
   <v>       0.26805855       0.30342751       0.34956450 </v>
   <v>       0.39939962       0.21292446       0.46739271 </v>
   <v>       0.57287763       0.16682343       0.30639927 </v>
   <v>       0.66683750       0.07286357       0.43470302 </v>
   <v>       0.87099445       0.36864325       0.05467534 </v>
   <v>       0.97891775       0.26078330       0.17809552 </v>
   <v>       0.59744342       0.63033746       0.56177965 </v>
   <v>       0.53618922       0.36896679       0.46591799 </v>
   <v>       0.93627354       0.47164251       0.34956450 </v>
   <v>       0.74835381       0.15956225       0.09295701 </v>
   <v>       0.84231368       0.06560239       0.22126075 </v>
   <v>       0.58127403       0.47821525       0.10536128 </v>
   <v>       0.67409868       0.39738738       0.22126075 </v>
   <v>       0.76805855       0.30342751       0.34956450 </v>
   <v>       0.88283540       0.20919347       0.46780662 </v>
   <v>       0.07287764       0.66682343       0.30639927 </v>
   <v>       0.16683750       0.57286357       0.43470302 </v>
   <v>       0.39969460       0.83851390       0.06339774 </v>
   <v>       0.47891775       0.76078330       0.17809552 </v>
   <v>       0.26544438       0.96137896       0.50685759 </v>
   <v>       0.03023342       0.87768264       0.47786825 </v>
   <v>       0.43627354       0.97164251       0.34956450 </v>
   <v>       0.26035814       0.65633701       0.11091590 </v>
   <v>       0.34231368       0.56560239       0.22126075 </v>
   <v>       0.08013882       0.99134724       0.09295701 </v>
   <v>       0.17409868       0.89738738       0.22126075 </v>
   <v>       0.26805855       0.80342751       0.34956450 </v>
   <v>       0.36201842       0.70946764       0.47786825 </v>
   <v>       0.57287764       0.66682343       0.30639927 </v>
   <v>       0.66683750       0.57286357       0.43470302 </v>
   <v>       0.88782912       0.85263403       0.06233088 </v>
   <v>       0.97891775       0.76078330       0.17809552 </v>
   <v>       0.74041693       0.02224039       0.54086687 </v>
   <v>       0.53023342       0.87768264       0.47786825 </v>
   <v>       0.93627354       0.97164251       0.34956450 </v>
   <v>       0.75779002       0.65821931       0.10645986 </v>
   <v>       0.84231368       0.56560239       0.22126075 </v>
   <v>       0.57445421       0.99145216       0.10327883 </v>
   <v>       0.67409868       0.89738738       0.22126075 </v>
   <v>       0.76805855       0.80342751       0.34956450 </v>
   <v>       0.86201842       0.70946764       0.47786825 </v>
  </varray>
 </structure>
</modeling>
