<?xml version="1.0" encoding="ISO-8859-1"?>
<modeling>
 <generator>
  <i name="program" type="string">vasp </i>
  <i name="version" type="string">6.1.0  </i>
  <i name="subversion" type="string">28Jan20 (build Mar 31 2020 17:42:31) gamma-only                       parallel </i>
  <i name="platform" type="string">LinuxIFC </i>
  <i name="date" type="string">2020 04 12 </i>
  <i name="time" type="string">17:36:56 </i>
 </generator>
 <incar>
  <i type="string" name="SYSTEM">"Millerite NiS"</i>
  <i type="int" name="NSIM">     4</i>
  <i type="int" name="NELM">   100</i>
  <i name="ENCUT">    450.00000000</i>
  <i type="string" name="LREAL">A</i>
  <i type="int" name="ISMEAR">     0</i>
  <i type="int" name="NWRITE">     2</i>
  <i type="logical" name="LWAVE"> F  </i>
  <i type="logical" name="LCHARG"> F  </i>
  <i type="int" name="NCORE">     6</i>
  <i type="int" name="NELM">   100</i>
 </incar>
 <structure name="primitive_cell" >
  <crystal>
   <varray name="basis" >
    <v>       9.42510255       3.57329804       0.00000000 </v>
    <v>       0.00000000      10.07973298       0.00000000 </v>
    <v>       0.00000000       0.00000000      20.68350356 </v>
   </varray>
   <i name="volume">   1964.98490008 </i>
   <varray name="rec_basis" >
    <v>       0.10609964       0.00000000       0.00000000 </v>
    <v>      -0.03761267       0.09920898       0.00000000 </v>
    <v>       0.00000000       0.00000000       0.04834771 </v>
   </varray>
  </crystal>
  <varray name="positions" >
   <v>       0.24679038       0.94522030       0.00000000 </v>
   <v>       0.39705889       0.79495179       0.12693702 </v>
   <v>       0.54732740       0.64468328       0.25387405 </v>
   <v>       0.69759592       0.49441476       0.38081107 </v>
   <v>       0.84786443       0.34414625       0.50774810 </v>
   <v>       0.11381506       0.41152895       0.16924937 </v>
   <v>       0.26408358       0.26126044       0.29618639 </v>
   <v>       0.41435209       0.11099193       0.42312341 </v>
   <v>       0.96354655       0.56179746       0.04231234 </v>
   <v>       0.13110826       0.72756909       0.46543576 </v>
   <v>       0.83057123       0.02810611       0.21156171 </v>
   <v>       0.98083975       0.87783760       0.33849873 </v>
   <v>       0.35735705       0.57044763       0.09339950 </v>
   <v>       0.50762556       0.42017912       0.22033653 </v>
   <v>       0.65789407       0.26991061       0.34727355 </v>
   <v>       0.80816259       0.11964209       0.47421057 </v>
   <v>       0.07411322       0.18702479       0.13571184 </v>
   <v>       0.22438173       0.03675628       0.26264887 </v>
   <v>       0.37465024       0.88648777       0.38958589 </v>
   <v>       0.52491876       0.73621926       0.51652292 </v>
   <v>       0.09140642       0.50306493       0.43189823 </v>
   <v>       0.64060088       0.95387047       0.05108716 </v>
   <v>       0.79086939       0.80360196       0.17802418 </v>
   <v>       0.94113790       0.65333344       0.30496121 </v>
   <v>       0.03266674       0.15934394       0.44067305 </v>
   <v>       0.58186121       0.61014947       0.05986198 </v>
   <v>       0.73212972       0.45988096       0.18679900 </v>
   <v>       0.88239823       0.30961245       0.31373603 </v>
   <v>       0.29861738       0.22672664       0.10217432 </v>
   <v>       0.44888589       0.07645812       0.22911134 </v>
   <v>       0.59915440       0.92618961       0.35604837 </v>
   <v>       0.74942291       0.77592110       0.48298539 </v>
   <v>       0.01537355       0.84330380       0.14448666 </v>
   <v>       0.16564206       0.69303529       0.27142369 </v>
   <v>       0.31591057       0.54276677       0.39836071 </v>
   <v>       0.86510504       0.99357231       0.01754964 </v>
   <v>       0.03660483       0.95519385       0.49805764 </v>
   <v>       0.58579929       0.40599939       0.11724657 </v>
   <v>       0.73606781       0.25573087       0.24418359 </v>
   <v>       0.88633632       0.10546236       0.37112062 </v>
   <v>       0.15228695       0.17284506       0.03262188 </v>
   <v>       0.30255546       0.02257655       0.15955891 </v>
   <v>       0.45282398       0.87230804       0.28649593 </v>
   <v>       0.60309249       0.72203952       0.41343296 </v>
   <v>       0.01931164       0.63915371       0.20187125 </v>
   <v>       0.16958015       0.48888520       0.32880827 </v>
   <v>       0.31984866       0.33861669       0.45574530 </v>
   <v>       0.86904312       0.78942223       0.07493423 </v>
   <v>       0.48608562       0.84214306       0.03301497 </v>
   <v>       0.63635413       0.69187455       0.15995199 </v>
   <v>       0.78662264       0.54160604       0.28688901 </v>
   <v>       0.93689115       0.39133753       0.41382604 </v>
   <v>       0.20284179       0.45872023       0.07532731 </v>
   <v>       0.35311030       0.30845171       0.20226433 </v>
   <v>       0.50337881       0.15818320       0.32920136 </v>
   <v>       0.65364733       0.00791469       0.45613838 </v>
   <v>       0.06986647       0.92502888       0.24457667 </v>
   <v>       0.22013498       0.77476036       0.37151370 </v>
   <v>       0.37040350       0.62449185       0.49845072 </v>
   <v>       0.91959796       0.07529739       0.11763965 </v>
   <v>       0.20021045       0.79158823       0.07572039 </v>
   <v>       0.35047897       0.64131972       0.20265741 </v>
   <v>       0.50074748       0.49105120       0.32959444 </v>
   <v>       0.65101599       0.34078269       0.45653146 </v>
   <v>       0.06723514       0.25789688       0.24496975 </v>
   <v>       0.21750365       0.10762837       0.37190678 </v>
   <v>       0.36777216       0.95735985       0.49884380 </v>
   <v>       0.91696662       0.40816539       0.11803273 </v>
   <v>       0.48345428       0.17501107       0.03340805 </v>
   <v>       0.63372279       0.02474255       0.16034507 </v>
   <v>       0.78399131       0.87447404       0.28728210 </v>
   <v>       0.93425982       0.72420553       0.41421912 </v>
  </varray>
 </structure>
 <varray name="primitive_index" >
  <v type="int" >        1 </v>
  <v type="int" >        2 </v>
  <v type="int" >        3 </v>
  <v type="int" >        4 </v>
  <v type="int" >        5 </v>
  <v type="int" >        6 </v>
  <v type="int" >        7 </v>
  <v type="int" >        8 </v>
  <v type="int" >        9 </v>
  <v type="int" >       10 </v>
  <v type="int" >       11 </v>
  <v type="int" >       12 </v>
  <v type="int" >       13 </v>
  <v type="int" >       14 </v>
  <v type="int" >       15 </v>
  <v type="int" >       16 </v>
  <v type="int" >       17 </v>
  <v type="int" >       18 </v>
  <v type="int" >       19 </v>
  <v type="int" >       20 </v>
  <v type="int" >       21 </v>
  <v type="int" >       22 </v>
  <v type="int" >       23 </v>
  <v type="int" >       24 </v>
  <v type="int" >       25 </v>
  <v type="int" >       26 </v>
  <v type="int" >       27 </v>
  <v type="int" >       28 </v>
  <v type="int" >       29 </v>
  <v type="int" >       30 </v>
  <v type="int" >       31 </v>
  <v type="int" >       32 </v>
  <v type="int" >       33 </v>
  <v type="int" >       34 </v>
  <v type="int" >       35 </v>
  <v type="int" >       36 </v>
  <v type="int" >       37 </v>
  <v type="int" >       38 </v>
  <v type="int" >       39 </v>
  <v type="int" >       40 </v>
  <v type="int" >       41 </v>
  <v type="int" >       42 </v>
  <v type="int" >       43 </v>
  <v type="int" >       44 </v>
  <v type="int" >       45 </v>
  <v type="int" >       46 </v>
  <v type="int" >       47 </v>
  <v type="int" >       48 </v>
  <v type="int" >       49 </v>
  <v type="int" >       50 </v>
  <v type="int" >       51 </v>
  <v type="int" >       52 </v>
  <v type="int" >       53 </v>
  <v type="int" >       54 </v>
  <v type="int" >       55 </v>
  <v type="int" >       56 </v>
  <v type="int" >       57 </v>
  <v type="int" >       58 </v>
  <v type="int" >       59 </v>
  <v type="int" >       60 </v>
  <v type="int" >       61 </v>
  <v type="int" >       62 </v>
  <v type="int" >       63 </v>
  <v type="int" >       64 </v>
  <v type="int" >       65 </v>
  <v type="int" >       66 </v>
  <v type="int" >       67 </v>
  <v type="int" >       68 </v>
  <v type="int" >       69 </v>
  <v type="int" >       70 </v>
  <v type="int" >       71 </v>
  <v type="int" >       72 </v>
 </varray>
 <kpoints>
  <generation param="Gamma">
   <v type="int" name="divisions">       1        1        1 </v>
   <v name="usershift">      0.00000000       0.00000000       0.00000000 </v>
   <v name="genvec1">      1.00000000       0.00000000       0.00000000 </v>
   <v name="genvec2">     -0.00000000       1.00000000       0.00000000 </v>
   <v name="genvec3">      0.00000000       0.00000000       1.00000000 </v>
   <v name="shift">      0.00000000       0.00000000       0.00000000 </v>
  </generation>
  <varray name="kpointlist" >
   <v>       0.00000000       0.00000000       0.00000000 </v>
  </varray>
  <varray name="weights" >
   <v>       1.00000000 </v>
  </varray>
 </kpoints>
 <parameters>
  <separator name="general" >
   <i type="string" name="SYSTEM">"Millerite NiS"</i>
   <i type="logical" name="LCOMPAT"> F  </i>
  </separator>
  <separator name="electronic" >
   <i type="string" name="PREC">normal</i>
   <i name="ENMAX">    450.00000000</i>
   <i name="ENAUG">    703.44300000</i>
   <i name="EDIFF">      0.00010000</i>
   <i type="int" name="IALGO">    38</i>
   <i type="int" name="IWAVPR">    10</i>
   <i type="int" name="NBANDS">   480</i>
   <i type="int" name="NBANDSLOW">    -1</i>
   <i type="int" name="NBANDSHIGH">    -1</i>
   <i name="NELECT">    792.00000000</i>
   <i type="int" name="TURBO">     0</i>
   <i type="int" name="IRESTART">     0</i>
   <i type="int" name="NREBOOT">     0</i>
   <i type="int" name="NMIN">     0</i>
   <i name="EREF">      0.00000000</i>
   <separator name="electronic smearing" >
    <i type="int" name="ISMEAR">     0</i>
    <i name="SIGMA">      0.20000000</i>
    <i name="KSPACING">      0.50000000</i>
    <i type="logical" name="KGAMMA"> T  </i>
    <i type="logical" name="KBLOWUP"> T  </i>
   </separator>
   <separator name="electronic projectors" >
    <i type="logical" name="LREAL"> T  </i>
    <v name="ROPT">     -0.00050000     -0.00050000</v>
    <i type="int" name="LMAXPAW">  -100</i>
    <i type="int" name="LMAXMIX">     2</i>
    <i type="logical" name="NLSPLINE"> F  </i>
   </separator>
   <separator name="electronic startup" >
    <i type="int" name="ISTART">     0</i>
    <i type="int" name="ICHARG">     2</i>
    <i type="int" name="INIWAV">     1</i>
   </separator>
   <separator name="electronic spin" >
    <i type="int" name="ISPIN">     1</i>
    <i type="logical" name="LNONCOLLINEAR"> F  </i>
    <v name="MAGMOM">      1.00000000      1.00000000      1.00000000      1.00000000      1.00000000      1.00000000      1.00000000      1.00000000      1.00000000      1.00000000      1.00000000      1.00000000      1.00000000      1.00000000      1.00000000      1.00000000      1.00000000      1.00000000      1.00000000      1.00000000
      1.00000000      1.00000000      1.00000000      1.00000000      1.00000000      1.00000000      1.00000000      1.00000000      1.00000000      1.00000000      1.00000000      1.00000000      1.00000000      1.00000000      1.00000000      1.00000000      1.00000000      1.00000000      1.00000000      1.00000000
      1.00000000      1.00000000      1.00000000      1.00000000      1.00000000      1.00000000      1.00000000      1.00000000      1.00000000      1.00000000      1.00000000      1.00000000      1.00000000      1.00000000      1.00000000      1.00000000      1.00000000      1.00000000      1.00000000      1.00000000
      1.00000000      1.00000000      1.00000000      1.00000000      1.00000000      1.00000000      1.00000000      1.00000000      1.00000000      1.00000000      1.00000000      1.00000000</v>
    <i name="NUPDOWN">     -1.00000000</i>
    <i type="logical" name="LSORBIT"> F  </i>
    <v name="SAXIS">      0.00000000      0.00000000      1.00000000</v>
    <i type="logical" name="LSPIRAL"> F  </i>
    <v name="QSPIRAL">      0.00000000      0.00000000      0.00000000</v>
    <i type="logical" name="LZEROZ"> F  </i>
   </separator>
   <separator name="electronic exchange-correlation" >
    <i type="logical" name="LASPH"> F  </i>
    <i type="logical" name="LMETAGGA"> F  </i>
   </separator>
   <separator name="electronic convergence" >
    <i type="int" name="NELM">   100</i>
    <i type="int" name="NELMDL">    -5</i>
    <i type="int" name="NELMIN">     2</i>
    <i name="ENINI">    450.00000000</i>
    <separator name="electronic convergence detail" >
     <i type="logical" name="LDIAG"> T  </i>
     <i type="logical" name="LSUBROT"> F  </i>
     <i name="WEIMIN">      0.00000000</i>
     <i name="EBREAK">      0.00000005</i>
     <i name="DEPER">      0.30000000</i>
     <i type="int" name="NRMM">     4</i>
     <i name="TIME">      0.40000000</i>
    </separator>
   </separator>
   <separator name="electronic mixer" >
    <i name="AMIX">      0.40000000</i>
    <i name="BMIX">      1.00000000</i>
    <i name="AMIN">      0.10000000</i>
    <i name="AMIX_MAG">      1.60000000</i>
    <i name="BMIX_MAG">      1.00000000</i>
    <separator name="electronic mixer details" >
     <i type="int" name="IMIX">     4</i>
     <i type="logical" name="MIXFIRST"> F  </i>
     <i type="int" name="MAXMIX">   -45</i>
     <i name="WC">    100.00000000</i>
     <i type="int" name="INIMIX">     1</i>
     <i type="int" name="MIXPRE">     1</i>
     <i type="int" name="MREMOVE">     5</i>
    </separator>
   </separator>
   <separator name="electronic dipolcorrection" >
    <i type="logical" name="LDIPOL"> F  </i>
    <i type="logical" name="LMONO"> F  </i>
    <i type="int" name="IDIPOL">     0</i>
    <i name="EPSILON">      1.00000000</i>
    <v name="DIPOL">   -100.00000000   -100.00000000   -100.00000000</v>
    <i name="EFIELD">      0.00000000</i>
   </separator>
  </separator>
  <separator name="grids" >
   <i type="int" name="NGX">    54</i>
   <i type="int" name="NGY">    54</i>
   <i type="int" name="NGZ">   108</i>
   <i type="int" name="NGXF">   108</i>
   <i type="int" name="NGYF">   108</i>
   <i type="int" name="NGZF">   216</i>
   <i type="logical" name="ADDGRID"> F  </i>
  </separator>
  <separator name="ionic" >
   <i type="int" name="NSW">     0</i>
   <i type="int" name="IBRION">    -1</i>
   <i type="int" name="MDALGO">     0</i>
   <i type="int" name="ISIF">     2</i>
   <i name="PSTRESS">      0.00000000</i>
   <i name="EDIFFG">      0.00100000</i>
   <i type="int" name="NFREE">     0</i>
   <i name="POTIM">      0.50000000</i>
   <i name="SMASS">     -3.00000000</i>
   <i name="SCALEE">      1.00000000</i>
  </separator>
  <separator name="ionic md" >
   <i name="TEBEG">      0.00010000</i>
   <i name="TEEND">      0.00010000</i>
   <i type="int" name="NBLOCK">     1</i>
   <i type="int" name="KBLOCK">     1</i>
   <i type="int" name="NPACO">   256</i>
   <i name="APACO">     16.00000000</i>
  </separator>
  <separator name="symmetry" >
   <i type="int" name="ISYM">     2</i>
   <i name="SYMPREC">      0.00001000</i>
  </separator>
  <separator name="dos" >
   <i type="int" name="LORBIT">     0</i>
   <v name="RWIGS">     -1.00000000     -1.00000000</v>
   <i type="int" name="NEDOS">   301</i>
   <i name="EMIN">     10.00000000</i>
   <i name="EMAX">    -10.00000000</i>
   <i name="EFERMI">      0.00000000</i>
  </separator>
  <separator name="writing" >
   <i type="int" name="NWRITE">     2</i>
   <i type="logical" name="LWAVE"> F  </i>
   <i type="logical" name="LDOWNSAMPLE"> F  </i>
   <i type="logical" name="LCHARG"> F  </i>
   <i type="logical" name="LPARD"> F  </i>
   <i type="logical" name="LVTOT"> F  </i>
   <i type="logical" name="LVHAR"> F  </i>
   <i type="logical" name="LELF"> F  </i>
   <i type="logical" name="LOPTICS"> F  </i>
   <v name="STM">      0.00000000      0.00000000      0.00000000      0.00000000      0.00000000      0.00000000      0.00000000</v>
  </separator>
  <separator name="performance" >
   <i type="int" name="NPAR">     8</i>
   <i type="int" name="NSIM">     4</i>
   <i type="int" name="NBLK">    -1</i>
   <i type="logical" name="LPLANE"> T  </i>
   <i type="logical" name="LSCALAPACK"> T  </i>
   <i type="logical" name="LSCAAWARE"> F  </i>
   <i type="logical" name="LSCALU"> F  </i>
   <i type="logical" name="LASYNC"> F  </i>
   <i type="logical" name="LORBITALREAL"> F  </i>
  </separator>
  <separator name="miscellaneous" >
   <i type="int" name="IDIOT">     3</i>
   <i type="int" name="PHON_NSTRUCT">    -1</i>
   <i type="logical" name="LMUSIC"> F  </i>
   <v name="POMASS">     58.69000000     32.06600000</v>
   <v name="DARWINR">      0.00000000      0.00000000</v>
   <v name="DARWINV">      1.00000000      1.00000000</v>
   <i type="logical" name="LCORR"> T  </i>
  </separator>
  <i type="logical" name="GGA_COMPAT"> T  </i>
  <i type="logical" name="LBERRY"> F  </i>
  <i type="int" name="ICORELEVEL">     0</i>
  <i type="logical" name="LDAU"> F  </i>
  <i type="int" name="I_CONSTRAINED_M">     0</i>
  <separator name="electronic exchange-correlation" >
   <i type="string" name="GGA">--</i>
   <i type="int" name="VOSKOWN">     0</i>
   <i type="logical" name="LHFCALC"> F  </i>
   <i type="string" name="PRECFOCK"></i>
   <i type="logical" name="LSYMGRAD"> F  </i>
   <i type="logical" name="LHFONE"> F  </i>
   <i type="logical" name="LRHFCALC"> F  </i>
   <i type="logical" name="LTHOMAS"> F  </i>
   <i type="logical" name="LMODELHF"> F  </i>
   <i type="logical" name="LFOCKACE"> F  </i>
   <i name="ENCUT4O">     -1.00000000</i>
   <i type="int" name="EXXOEP">     0</i>
   <i type="int" name="FOURORBIT">     0</i>
   <i name="AEXX">      0.00000000</i>
   <i name="HFALPHA">      0.00000000</i>
   <i name="MCALPHA">      0.00000000</i>
   <i name="ALDAX">      1.00000000</i>
   <i name="AGGAX">      1.00000000</i>
   <i name="ALDAC">      1.00000000</i>
   <i name="AGGAC">      1.00000000</i>
   <i type="int" name="NKREDX">     1</i>
   <i type="int" name="NKREDY">     1</i>
   <i type="int" name="NKREDZ">     1</i>
   <i type="logical" name="SHIFTRED"> F  </i>
   <i type="logical" name="ODDONLY"> F  </i>
   <i type="logical" name="EVENONLY"> F  </i>
   <i type="int" name="LMAXFOCK">     0</i>
   <i type="int" name="NMAXFOCKAE">     0</i>
   <i type="logical" name="LFOCKAEDFT"> F  </i>
   <i name="HFSCREEN">      0.00000000</i>
   <i name="HFSCREENC">      0.00000000</i>
   <i type="int" name="NBANDSGWLOW">     0</i>
  </separator>
  <separator name="vdW DFT" >
   <i type="logical" name="LUSE_VDW"> F  </i>
   <i name="Zab_VDW">     -0.84910000</i>
   <i name="PARAM1">      0.12340000</i>
   <i name="PARAM2">      1.00000000</i>
   <i name="PARAM3">      0.00000000</i>
  </separator>
  <separator name="model GW" >
   <i type="int" name="MODEL_GW">     0</i>
   <i name="MODEL_EPS0">     16.37487417</i>
   <i name="MODEL_ALPHA">      1.00000000</i>
  </separator>
  <separator name="linear response parameters" >
   <i type="logical" name="LEPSILON"> F  </i>
   <i type="logical" name="LRPA"> F  </i>
   <i type="logical" name="LNABLA"> F  </i>
   <i type="logical" name="LVEL"> F  </i>
   <i type="int" name="KINTER">     0</i>
   <i name="CSHIFT">      0.10000000</i>
   <i name="OMEGAMAX">     -1.00000000</i>
   <i name="DEG_THRESHOLD">      0.00200000</i>
   <i name="RTIME">     -0.10000000</i>
   <i name="WPLASMAI">      0.00000000</i>
   <v name="DFIELD">      0.00000000      0.00000000      0.00000000</v>
   <v name="WPLASMA">      0.00000000      0.00000000      0.00000000      0.00000000      0.00000000      0.00000000      0.00000000      0.00000000      0.00000000</v>
  </separator>
  <separator name="orbital magnetization" >
   <i type="logical" name="NUCIND"> F  </i>
   <v name="MAGPOS">      0.00000000      0.00000000      0.00000000</v>
   <i type="logical" name="LNICSALL"> T  </i>
   <i type="logical" name="ORBITALMAG"> F  </i>
   <i type="logical" name="LMAGBLOCH"> F  </i>
   <i type="logical" name="LCHIMAG"> F  </i>
   <i type="logical" name="LGAUGE"> T  </i>
   <i type="int" name="MAGATOM">     0</i>
   <v name="MAGDIPOL">      0.00000000      0.00000000      0.00000000</v>
   <v name="AVECCONST">      0.00000000      0.00000000      0.00000000</v>
  </separator>
  <separator name="response functions" >
   <i type="logical" name="LFINITE_TEMPERATURE"> F  </i>
   <i type="logical" name="LADDER"> F  </i>
   <i type="logical" name="LRPAFORCE"> F  </i>
   <i type="logical" name="LFXC"> F  </i>
   <i type="logical" name="LHARTREE"> T  </i>
   <i type="int" name="IBSE">     0</i>
   <v type="int" name="KPOINT">    -1     0     0     0</v>
   <i type="logical" name="LTCTC"> F  </i>
   <i type="logical" name="LTCTE"> F  </i>
   <i type="logical" name="LTETE"> F  </i>
   <i type="logical" name="LTRIPLET"> F  </i>
   <i type="logical" name="LFXCEPS"> F  </i>
   <i type="logical" name="LFXHEG"> F  </i>
   <i type="int" name="NATURALO">     2</i>
   <i type="logical" name="LHOLEGF"> F  </i>
   <i type="logical" name="L2ORDER"> F  </i>
   <i type="logical" name="LDMP1"> F  </i>
   <i type="logical" name="LMP2LT"> F  </i>
   <i type="logical" name="LSMP2LT"> F  </i>
   <i type="logical" name="LGWLF"> F  </i>
   <i name="ENCUTGW">     -2.00000000</i>
   <i name="ENCUTGWSOFT">     -2.00000000</i>
   <i name="ENCUTLF">     -1.00000000</i>
   <i type="logical" name="LESF_SPLINES"> F  </i>
   <i type="int" name="LMAXMP2">    -1</i>
   <i name="SCISSOR">      0.00000000</i>
   <i type="int" name="NOMEGA">     0</i>
   <i type="int" name="NOMEGAR">     0</i>
   <i type="int" name="NBANDSGW">    -1</i>
   <i type="int" name="NBANDSO">    -1</i>
   <i type="int" name="NBANDSV">    -1</i>
   <i type="int" name="NELM">   100</i>
   <i type="int" name="NELMHF">     1</i>
   <i type="int" name="DIM">     3</i>
   <i type="int" name="IESPILON">     4</i>
   <i type="int" name="ANTIRES">     0</i>
   <i name="OMEGAMAX">    -30.00000000</i>
   <i name="OMEGAMIN">    -30.00000000</i>
   <i name="OMEGATL">   -200.00000000</i>
   <i type="int" name="OMEGAGRID">     0</i>
   <i name="CSHIFT">     -0.10000000</i>
   <i type="logical" name="LSELFENERGY"> F  </i>
   <i type="logical" name="LSPECTRAL"> F  </i>
   <i type="logical" name="LSPECTRALGW"> F  </i>
   <i type="logical" name="LSINGLES"> F  </i>
   <i type="logical" name="LFERMIGW"> F  </i>
   <i type="logical" name="ODDONLYGW"> F  </i>
   <i type="logical" name="EVENONLYGW"> F  </i>
   <i type="int" name="NKREDLFX">     1</i>
   <i type="int" name="NKREDLFY">     1</i>
   <i type="int" name="NKREDLFZ">     1</i>
   <i type="int" name="MAXMEM">  2800</i>
   <i type="int" name="TELESCOPE">     0</i>
   <i type="int" name="NTAUPAR">    -1</i>
   <i type="int" name="NOMEGAPAR">    -1</i>
   <i name="LAMBDA">      1.00000000</i>
  </separator>
  <separator name="External order field" >
   <i name="OFIELD_KAPPA">      0.00000000</i>
   <v name="OFIELD_K">      0.00000000      0.00000000      0.00000000</v>
   <i name="OFIELD_Q6_NEAR">      0.00000000</i>
   <i name="OFIELD_Q6_FAR">      0.00000000</i>
   <i name="OFIELD_A">      0.00000000</i>
  </separator>
 </parameters>
 <atominfo>
  <atoms>      72 </atoms>
  <types>       2 </types>
  <array name="atoms" >
   <dimension dim="1">ion</dimension>
   <field type="string">element</field>
   <field type="int">atomtype</field>
   <set>
    <rc><c>Ni</c><c>   1</c></rc>
    <rc><c>Ni</c><c>   1</c></rc>
    <rc><c>Ni</c><c>   1</c></rc>
    <rc><c>Ni</c><c>   1</c></rc>
    <rc><c>Ni</c><c>   1</c></rc>
    <rc><c>Ni</c><c>   1</c></rc>
    <rc><c>Ni</c><c>   1</c></rc>
    <rc><c>Ni</c><c>   1</c></rc>
    <rc><c>Ni</c><c>   1</c></rc>
    <rc><c>Ni</c><c>   1</c></rc>
    <rc><c>Ni</c><c>   1</c></rc>
    <rc><c>Ni</c><c>   1</c></rc>
    <rc><c>Ni</c><c>   1</c></rc>
    <rc><c>Ni</c><c>   1</c></rc>
    <rc><c>Ni</c><c>   1</c></rc>
    <rc><c>Ni</c><c>   1</c></rc>
    <rc><c>Ni</c><c>   1</c></rc>
    <rc><c>Ni</c><c>   1</c></rc>
    <rc><c>Ni</c><c>   1</c></rc>
    <rc><c>Ni</c><c>   1</c></rc>
    <rc><c>Ni</c><c>   1</c></rc>
    <rc><c>Ni</c><c>   1</c></rc>
    <rc><c>Ni</c><c>   1</c></rc>
    <rc><c>Ni</c><c>   1</c></rc>
    <rc><c>Ni</c><c>   1</c></rc>
    <rc><c>Ni</c><c>   1</c></rc>
    <rc><c>Ni</c><c>   1</c></rc>
    <rc><c>Ni</c><c>   1</c></rc>
    <rc><c>Ni</c><c>   1</c></rc>
    <rc><c>Ni</c><c>   1</c></rc>
    <rc><c>Ni</c><c>   1</c></rc>
    <rc><c>Ni</c><c>   1</c></rc>
    <rc><c>Ni</c><c>   1</c></rc>
    <rc><c>Ni</c><c>   1</c></rc>
    <rc><c>Ni</c><c>   1</c></rc>
    <rc><c>Ni</c><c>   1</c></rc>
    <rc><c>S </c><c>   2</c></rc>
    <rc><c>S </c><c>   2</c></rc>
    <rc><c>S </c><c>   2</c></rc>
    <rc><c>S </c><c>   2</c></rc>
    <rc><c>S </c><c>   2</c></rc>
    <rc><c>S </c><c>   2</c></rc>
    <rc><c>S </c><c>   2</c></rc>
    <rc><c>S </c><c>   2</c></rc>
    <rc><c>S </c><c>   2</c></rc>
    <rc><c>S </c><c>   2</c></rc>
    <rc><c>S </c><c>   2</c></rc>
    <rc><c>S </c><c>   2</c></rc>
    <rc><c>S </c><c>   2</c></rc>
    <rc><c>S </c><c>   2</c></rc>
    <rc><c>S </c><c>   2</c></rc>
    <rc><c>S </c><c>   2</c></rc>
    <rc><c>S </c><c>   2</c></rc>
    <rc><c>S </c><c>   2</c></rc>
    <rc><c>S </c><c>   2</c></rc>
    <rc><c>S </c><c>   2</c></rc>
    <rc><c>S </c><c>   2</c></rc>
    <rc><c>S </c><c>   2</c></rc>
    <rc><c>S </c><c>   2</c></rc>
    <rc><c>S </c><c>   2</c></rc>
    <rc><c>S </c><c>   2</c></rc>
    <rc><c>S </c><c>   2</c></rc>
    <rc><c>S </c><c>   2</c></rc>
    <rc><c>S </c><c>   2</c></rc>
    <rc><c>S </c><c>   2</c></rc>
    <rc><c>S </c><c>   2</c></rc>
    <rc><c>S </c><c>   2</c></rc>
    <rc><c>S </c><c>   2</c></rc>
    <rc><c>S </c><c>   2</c></rc>
    <rc><c>S </c><c>   2</c></rc>
    <rc><c>S </c><c>   2</c></rc>
    <rc><c>S </c><c>   2</c></rc>
   </set>
  </array>
  <array name="atomtypes" >
   <dimension dim="1">type</dimension>
   <field type="int">atomspertype</field>
   <field type="string">element</field>
   <field>mass</field>
   <field>valence</field>
   <field type="string">pseudopotential</field>
   <set>
    <rc><c>  36</c><c>Ni</c><c>     58.69000000</c><c>     16.00000000</c><c>  PAW_PBE Ni_pv 06Sep2000               </c></rc>
    <rc><c>  36</c><c>S </c><c>     32.06600000</c><c>      6.00000000</c><c>  PAW_PBE S 06Sep2000                   </c></rc>
   </set>
  </array>
 </atominfo>
 <structure name="initialpos" >
  <crystal>
   <varray name="basis" >
    <v>       9.42510255       3.57329804       0.00000000 </v>
    <v>       0.00000000      10.07973298       0.00000000 </v>
    <v>       0.00000000       0.00000000      20.68350356 </v>
   </varray>
   <i name="volume">   1964.98490008 </i>
   <varray name="rec_basis" >
    <v>       0.10609964       0.00000000       0.00000000 </v>
    <v>      -0.03761267       0.09920898       0.00000000 </v>
    <v>       0.00000000       0.00000000       0.04834771 </v>
   </varray>
  </crystal>
  <varray name="positions" >
   <v>       0.24679038       0.94522030       0.00000000 </v>
   <v>       0.39705889       0.79495179       0.12693702 </v>
   <v>       0.54732740       0.64468328       0.25387405 </v>
   <v>       0.69759592       0.49441476       0.38081107 </v>
   <v>       0.84786443       0.34414625       0.50774810 </v>
   <v>       0.11381506       0.41152895       0.16924937 </v>
   <v>       0.26408358       0.26126044       0.29618639 </v>
   <v>       0.41435209       0.11099193       0.42312341 </v>
   <v>       0.96354655       0.56179746       0.04231234 </v>
   <v>       0.13110826       0.72756909       0.46543576 </v>
   <v>       0.83057123       0.02810611       0.21156171 </v>
   <v>       0.98083975       0.87783760       0.33849873 </v>
   <v>       0.35735705       0.57044763       0.09339950 </v>
   <v>       0.50762556       0.42017912       0.22033653 </v>
   <v>       0.65789407       0.26991061       0.34727355 </v>
   <v>       0.80816259       0.11964209       0.47421057 </v>
   <v>       0.07411322       0.18702479       0.13571184 </v>
   <v>       0.22438173       0.03675628       0.26264887 </v>
   <v>       0.37465024       0.88648777       0.38958589 </v>
   <v>       0.52491876       0.73621926       0.51652292 </v>
   <v>       0.09140642       0.50306493       0.43189823 </v>
   <v>       0.64060088       0.95387047       0.05108716 </v>
   <v>       0.79086939       0.80360196       0.17802418 </v>
   <v>       0.94113790       0.65333344       0.30496121 </v>
   <v>       0.03266674       0.15934394       0.44067305 </v>
   <v>       0.58186121       0.61014947       0.05986198 </v>
   <v>       0.73212972       0.45988096       0.18679900 </v>
   <v>       0.88239823       0.30961245       0.31373603 </v>
   <v>       0.29861738       0.22672664       0.10217432 </v>
   <v>       0.44888589       0.07645812       0.22911134 </v>
   <v>       0.59915440       0.92618961       0.35604837 </v>
   <v>       0.74942291       0.77592110       0.48298539 </v>
   <v>       0.01537355       0.84330380       0.14448666 </v>
   <v>       0.16564206       0.69303529       0.27142369 </v>
   <v>       0.31591057       0.54276677       0.39836071 </v>
   <v>       0.86510504       0.99357231       0.01754964 </v>
   <v>       0.03660483       0.95519385       0.49805764 </v>
   <v>       0.58579929       0.40599939       0.11724657 </v>
   <v>       0.73606781       0.25573087       0.24418359 </v>
   <v>       0.88633632       0.10546236       0.37112062 </v>
   <v>       0.15228695       0.17284506       0.03262188 </v>
   <v>       0.30255546       0.02257655       0.15955891 </v>
   <v>       0.45282398       0.87230804       0.28649593 </v>
   <v>       0.60309249       0.72203952       0.41343296 </v>
   <v>       0.01931164       0.63915371       0.20187125 </v>
   <v>       0.16958015       0.48888520       0.32880827 </v>
   <v>       0.31984866       0.33861669       0.45574530 </v>
   <v>       0.86904312       0.78942223       0.07493423 </v>
   <v>       0.48608562       0.84214306       0.03301497 </v>
   <v>       0.63635413       0.69187455       0.15995199 </v>
   <v>       0.78662264       0.54160604       0.28688901 </v>
   <v>       0.93689115       0.39133753       0.41382604 </v>
   <v>       0.20284179       0.45872023       0.07532731 </v>
   <v>       0.35311030       0.30845171       0.20226433 </v>
   <v>       0.50337881       0.15818320       0.32920136 </v>
   <v>       0.65364733       0.00791469       0.45613838 </v>
   <v>       0.06986647       0.92502888       0.24457667 </v>
   <v>       0.22013498       0.77476036       0.37151370 </v>
   <v>       0.37040350       0.62449185       0.49845072 </v>
   <v>       0.91959796       0.07529739       0.11763965 </v>
   <v>       0.20021045       0.79158823       0.07572039 </v>
   <v>       0.35047897       0.64131972       0.20265741 </v>
   <v>       0.50074748       0.49105120       0.32959444 </v>
   <v>       0.65101599       0.34078269       0.45653146 </v>
   <v>       0.06723514       0.25789688       0.24496975 </v>
   <v>       0.21750365       0.10762837       0.37190678 </v>
   <v>       0.36777216       0.95735985       0.49884380 </v>
   <v>       0.91696662       0.40816539       0.11803273 </v>
   <v>       0.48345428       0.17501107       0.03340805 </v>
   <v>       0.63372279       0.02474255       0.16034507 </v>
   <v>       0.78399131       0.87447404       0.28728210 </v>
   <v>       0.93425982       0.72420553       0.41421912 </v>
  </varray>
 </structure>
 <calculation>
  <scstep>
   <time name="dav">    2.05    2.06</time>
   <time name="total">    2.11    2.12</time>
   <energy>
    <i name="alphaZ">   1893.09323658 </i>
    <i name="ewald"> 165481.58866904 </i>
    <i name="hartreedc">-288057.08936328 </i>
    <i name="XCdc">   3652.05212423 </i>
    <i name="pawpsdc"> 112729.53333415 </i>
    <i name="pawaedc">-117641.51188735 </i>
    <i name="eentropy">     -0.45604144 </i>
    <i name="bandstr">  -4377.64881367 </i>
    <i name="atom"> 136002.60505376 </i>
    <i name="e_fr_energy">   9682.16631201 </i>
    <i name="e_wo_entrp">   9682.62235345 </i>
    <i name="e_0_energy">   9682.39433273 </i>
   </energy>
  </scstep>
  <scstep>
   <time name="dav">    1.83    1.83</time>
   <time name="total">    1.83    1.84</time>
   <energy>
    <i name="e_fr_energy">    592.05639610 </i>
    <i name="e_wo_entrp">    592.85300793 </i>
    <i name="e_0_energy">    592.45470202 </i>
   </energy>
  </scstep>
  <scstep>
   <time name="dav">    1.91    1.92</time>
   <time name="total">    1.92    1.92</time>
   <energy>
    <i name="e_fr_energy">   -342.47096734 </i>
    <i name="e_wo_entrp">   -341.32130588 </i>
    <i name="e_0_energy">   -341.89613661 </i>
   </energy>
  </scstep>
  <scstep>
   <time name="dav">    1.97    1.97</time>
   <time name="total">    1.97    1.97</time>
   <energy>
    <i name="e_fr_energy">   -403.48205616 </i>
    <i name="e_wo_entrp">   -402.24385272 </i>
    <i name="e_0_energy">   -402.86295444 </i>
   </energy>
  </scstep>
  <scstep>
   <time name="dav">    2.15    2.15</time>
   <time name="total">    2.20    2.20</time>
   <energy>
    <i name="e_fr_energy">   -405.85474747 </i>
    <i name="e_wo_entrp">   -404.62728223 </i>
    <i name="e_0_energy">   -405.24101485 </i>
   </energy>
  </scstep>
  <scstep>
   <time name="dav">    1.99    2.00</time>
   <time name="total">    2.08    2.09</time>
   <energy>
    <i name="e_fr_energy">   -487.63206333 </i>
    <i name="e_wo_entrp">   -486.70433160 </i>
    <i name="e_0_energy">   -487.16819747 </i>
   </energy>
  </scstep>
  <scstep>
   <time name="dav">    1.99    2.00</time>
   <time name="total">    2.08    2.09</time>
   <energy>
    <i name="e_fr_energy">   -374.52749274 </i>
    <i name="e_wo_entrp">   -373.61197607 </i>
    <i name="e_0_energy">   -374.06973440 </i>
   </energy>
  </scstep>
  <scstep>
   <time name="dav">    2.25    2.25</time>
   <time name="total">    2.33    2.34</time>
   <energy>
    <i name="e_fr_energy">   -428.68518383 </i>
    <i name="e_wo_entrp">   -427.42458060 </i>
    <i name="e_0_energy">   -428.05488221 </i>
   </energy>
  </scstep>
  <scstep>
   <time name="dav">    2.11    2.11</time>
   <time name="total">    2.20    2.20</time>
   <energy>
    <i name="e_fr_energy">   -373.95545227 </i>
    <i name="e_wo_entrp">   -372.40077341 </i>
    <i name="e_0_energy">   -373.17811284 </i>
   </energy>
  </scstep>
  <scstep>
   <time name="dav">    2.28    2.29</time>
   <time name="total">    2.37    2.37</time>
   <energy>
    <i name="e_fr_energy">   -379.42597742 </i>
    <i name="e_wo_entrp">   -378.41487470 </i>
    <i name="e_0_energy">   -378.92042606 </i>
   </energy>
  </scstep>
  <scstep>
   <time name="dav">    2.20    2.21</time>
   <time name="total">    2.29    2.30</time>
   <energy>
    <i name="e_fr_energy">   -382.23705480 </i>
    <i name="e_wo_entrp">   -380.96475741 </i>
    <i name="e_0_energy">   -381.60090610 </i>
   </energy>
  </scstep>
  <scstep>
   <time name="dav">    2.21    2.22</time>
   <time name="total">    2.30    2.31</time>
   <energy>
    <i name="e_fr_energy">   -367.54305608 </i>
    <i name="e_wo_entrp">   -366.59685370 </i>
    <i name="e_0_energy">   -367.06995489 </i>
   </energy>
  </scstep>
  <scstep>
   <time name="dav">    2.18    2.19</time>
   <time name="total">    2.27    2.28</time>
   <energy>
    <i name="e_fr_energy">   -362.64601514 </i>
    <i name="e_wo_entrp">   -361.74863474 </i>
    <i name="e_0_energy">   -362.19732494 </i>
   </energy>
  </scstep>
  <scstep>
   <time name="dav">    2.18    2.18</time>
   <time name="total">    2.27    2.27</time>
   <energy>
    <i name="e_fr_energy">   -361.64444112 </i>
    <i name="e_wo_entrp">   -360.67693704 </i>
    <i name="e_0_energy">   -361.16068908 </i>
   </energy>
  </scstep>
  <scstep>
   <time name="dav">    2.06    2.07</time>
   <time name="total">    2.15    2.15</time>
   <energy>
    <i name="e_fr_energy">   -358.17700405 </i>
    <i name="e_wo_entrp">   -357.24272292 </i>
    <i name="e_0_energy">   -357.70986349 </i>
   </energy>
  </scstep>
  <scstep>
   <time name="dav">    2.24    2.25</time>
   <time name="total">    2.34    2.34</time>
   <energy>
    <i name="e_fr_energy">   -357.70401303 </i>
    <i name="e_wo_entrp">   -356.75851118 </i>
    <i name="e_0_energy">   -357.23126211 </i>
   </energy>
  </scstep>
  <scstep>
   <time name="dav">    2.17    2.18</time>
   <time name="total">    2.26    2.27</time>
   <energy>
    <i name="e_fr_energy">   -357.23578374 </i>
    <i name="e_wo_entrp">   -356.27279560 </i>
    <i name="e_0_energy">   -356.75428967 </i>
   </energy>
  </scstep>
  <scstep>
   <time name="dav">    2.20    2.21</time>
   <time name="total">    2.30    2.30</time>
   <energy>
    <i name="e_fr_energy">   -356.92206581 </i>
    <i name="e_wo_entrp">   -355.98664724 </i>
    <i name="e_0_energy">   -356.45435652 </i>
   </energy>
  </scstep>
  <scstep>
   <time name="dav">    2.24    2.25</time>
   <time name="total">    2.34    2.34</time>
   <energy>
    <i name="e_fr_energy">   -356.47542155 </i>
    <i name="e_wo_entrp">   -355.50662293 </i>
    <i name="e_0_energy">   -355.99102224 </i>
   </energy>
  </scstep>
  <scstep>
   <time name="dav">    2.22    2.23</time>
   <time name="total">    2.32    2.33</time>
   <energy>
    <i name="e_fr_energy">   -356.30358918 </i>
    <i name="e_wo_entrp">   -355.32897773 </i>
    <i name="e_0_energy">   -355.81628345 </i>
   </energy>
  </scstep>
  <scstep>
   <time name="dav">    2.22    2.22</time>
   <time name="total">    2.31    2.31</time>
   <energy>
    <i name="e_fr_energy">   -356.13762402 </i>
    <i name="e_wo_entrp">   -355.15236883 </i>
    <i name="e_0_energy">   -355.64499642 </i>
   </energy>
  </scstep>
  <scstep>
   <time name="dav">    2.21    2.22</time>
   <time name="total">    2.30    2.31</time>
   <energy>
    <i name="e_fr_energy">   -356.12224481 </i>
    <i name="e_wo_entrp">   -355.11188375 </i>
    <i name="e_0_energy">   -355.61706428 </i>
   </energy>
  </scstep>
  <scstep>
   <time name="dav">    2.14    2.14</time>
   <time name="total">    2.23    2.23</time>
   <energy>
    <i name="e_fr_energy">   -356.02384244 </i>
    <i name="e_wo_entrp">   -355.02521038 </i>
    <i name="e_0_energy">   -355.52452641 </i>
   </energy>
  </scstep>
  <scstep>
   <time name="dav">    2.24    2.24</time>
   <time name="total">    2.33    2.33</time>
   <energy>
    <i name="e_fr_energy">   -356.02531419 </i>
    <i name="e_wo_entrp">   -355.00445233 </i>
    <i name="e_0_energy">   -355.51488326 </i>
   </energy>
  </scstep>
  <scstep>
   <time name="dav">    2.23    2.23</time>
   <time name="total">    2.32    2.32</time>
   <energy>
    <i name="e_fr_energy">   -355.97946001 </i>
    <i name="e_wo_entrp">   -354.94682529 </i>
    <i name="e_0_energy">   -355.46314265 </i>
   </energy>
  </scstep>
  <scstep>
   <time name="dav">    2.13    2.14</time>
   <time name="total">    2.23    2.23</time>
   <energy>
    <i name="e_fr_energy">   -355.98230445 </i>
    <i name="e_wo_entrp">   -354.95492433 </i>
    <i name="e_0_energy">   -355.46861439 </i>
   </energy>
  </scstep>
  <scstep>
   <time name="dav">    2.16    2.17</time>
   <time name="total">    2.26    2.26</time>
   <energy>
    <i name="e_fr_energy">   -355.97543202 </i>
    <i name="e_wo_entrp">   -354.93748674 </i>
    <i name="e_0_energy">   -355.45645938 </i>
   </energy>
  </scstep>
  <scstep>
   <time name="dav">    2.14    2.15</time>
   <time name="total">    2.24    2.24</time>
   <energy>
    <i name="e_fr_energy">   -355.96885958 </i>
    <i name="e_wo_entrp">   -354.93855353 </i>
    <i name="e_0_energy">   -355.45370655 </i>
   </energy>
  </scstep>
  <scstep>
   <time name="dav">    2.24    2.24</time>
   <time name="total">    2.33    2.34</time>
   <energy>
    <i name="e_fr_energy">   -355.97165324 </i>
    <i name="e_wo_entrp">   -354.94711353 </i>
    <i name="e_0_energy">   -355.45938339 </i>
   </energy>
  </scstep>
  <scstep>
   <time name="dav">    2.17    2.18</time>
   <time name="total">    2.27    2.28</time>
   <energy>
    <i name="e_fr_energy">   -355.96705496 </i>
    <i name="e_wo_entrp">   -354.94236303 </i>
    <i name="e_0_energy">   -355.45470900 </i>
   </energy>
  </scstep>
  <scstep>
   <time name="dav">    2.18    2.19</time>
   <time name="total">    2.27    2.28</time>
   <energy>
    <i name="e_fr_energy">   -355.96727700 </i>
    <i name="e_wo_entrp">   -354.94191473 </i>
    <i name="e_0_energy">   -355.45459587 </i>
   </energy>
  </scstep>
  <scstep>
   <time name="dav">    2.05    2.05</time>
   <time name="total">    2.14    2.15</time>
   <energy>
    <i name="e_fr_energy">   -355.96680769 </i>
    <i name="e_wo_entrp">   -354.94225739 </i>
    <i name="e_0_energy">   -355.45453254 </i>
   </energy>
  </scstep>
  <scstep>
   <time name="dav">    1.67    1.67</time>
   <time name="total">    1.72    1.72</time>
   <energy>
    <i name="alphaZ">   1893.09323658 </i>
    <i name="ewald"> 165481.58866904 </i>
    <i name="hartreedc">-287347.49057594 </i>
    <i name="XCdc">   3622.75417758 </i>
    <i name="pawpsdc"> 130574.75748174 </i>
    <i name="pawaedc">-135544.48884957 </i>
    <i name="eentropy">     -1.02584218 </i>
    <i name="bandstr"> -15037.76021397 </i>
    <i name="atom"> 136002.60505376 </i>
    <i name="e_fr_energy">   -355.96686298 </i>
    <i name="e_wo_entrp">   -354.94102080 </i>
    <i name="e_0_energy">   -355.45394189 </i>
   </energy>
  </scstep>
  <structure>
   <crystal>
    <varray name="basis" >
     <v>       9.42510255       3.57329804       0.00000000 </v>
     <v>       0.00000000      10.07973298       0.00000000 </v>
     <v>       0.00000000       0.00000000      20.68350356 </v>
    </varray>
    <i name="volume">   1964.98490008 </i>
    <varray name="rec_basis" >
     <v>       0.10609964       0.00000000       0.00000000 </v>
     <v>      -0.03761267       0.09920898       0.00000000 </v>
     <v>       0.00000000       0.00000000       0.04834771 </v>
    </varray>
   </crystal>
   <varray name="positions" >
    <v>       0.24679038       0.94522030       0.00000000 </v>
    <v>       0.39705889       0.79495179       0.12693702 </v>
    <v>       0.54732740       0.64468328       0.25387405 </v>
    <v>       0.69759592       0.49441476       0.38081107 </v>
    <v>       0.84786443       0.34414625       0.50774810 </v>
    <v>       0.11381506       0.41152895       0.16924937 </v>
    <v>       0.26408358       0.26126044       0.29618639 </v>
    <v>       0.41435209       0.11099193       0.42312341 </v>
    <v>       0.96354655       0.56179746       0.04231234 </v>
    <v>       0.13110826       0.72756909       0.46543576 </v>
    <v>       0.83057123       0.02810611       0.21156171 </v>
    <v>       0.98083975       0.87783760       0.33849873 </v>
    <v>       0.35735705       0.57044763       0.09339950 </v>
    <v>       0.50762556       0.42017912       0.22033653 </v>
    <v>       0.65789407       0.26991061       0.34727355 </v>
    <v>       0.80816259       0.11964209       0.47421057 </v>
    <v>       0.07411322       0.18702479       0.13571184 </v>
    <v>       0.22438173       0.03675628       0.26264887 </v>
    <v>       0.37465024       0.88648777       0.38958589 </v>
    <v>       0.52491876       0.73621926       0.51652292 </v>
    <v>       0.09140642       0.50306493       0.43189823 </v>
    <v>       0.64060088       0.95387047       0.05108716 </v>
    <v>       0.79086939       0.80360196       0.17802418 </v>
    <v>       0.94113790       0.65333344       0.30496121 </v>
    <v>       0.03266674       0.15934394       0.44067305 </v>
    <v>       0.58186121       0.61014947       0.05986198 </v>
    <v>       0.73212972       0.45988096       0.18679900 </v>
    <v>       0.88239823       0.30961245       0.31373603 </v>
    <v>       0.29861738       0.22672664       0.10217432 </v>
    <v>       0.44888589       0.07645812       0.22911134 </v>
    <v>       0.59915440       0.92618961       0.35604837 </v>
    <v>       0.74942291       0.77592110       0.48298539 </v>
    <v>       0.01537355       0.84330380       0.14448666 </v>
    <v>       0.16564206       0.69303529       0.27142369 </v>
    <v>       0.31591057       0.54276677       0.39836071 </v>
    <v>       0.86510504       0.99357231       0.01754964 </v>
    <v>       0.03660483       0.95519385       0.49805764 </v>
    <v>       0.58579929       0.40599939       0.11724657 </v>
    <v>       0.73606781       0.25573087       0.24418359 </v>
    <v>       0.88633632       0.10546236       0.37112062 </v>
    <v>       0.15228695       0.17284506       0.03262188 </v>
    <v>       0.30255546       0.02257655       0.15955891 </v>
    <v>       0.45282398       0.87230804       0.28649593 </v>
    <v>       0.60309249       0.72203952       0.41343296 </v>
    <v>       0.01931164       0.63915371       0.20187125 </v>
    <v>       0.16958015       0.48888520       0.32880827 </v>
    <v>       0.31984866       0.33861669       0.45574530 </v>
    <v>       0.86904312       0.78942223       0.07493423 </v>
    <v>       0.48608562       0.84214306       0.03301497 </v>
    <v>       0.63635413       0.69187455       0.15995199 </v>
    <v>       0.78662264       0.54160604       0.28688901 </v>
    <v>       0.93689115       0.39133753       0.41382604 </v>
    <v>       0.20284179       0.45872023       0.07532731 </v>
    <v>       0.35311030       0.30845171       0.20226433 </v>
    <v>       0.50337881       0.15818320       0.32920136 </v>
    <v>       0.65364733       0.00791469       0.45613838 </v>
    <v>       0.06986647       0.92502888       0.24457667 </v>
    <v>       0.22013498       0.77476036       0.37151370 </v>
    <v>       0.37040350       0.62449185       0.49845072 </v>
    <v>       0.91959796       0.07529739       0.11763965 </v>
    <v>       0.20021045       0.79158823       0.07572039 </v>
    <v>       0.35047897       0.64131972       0.20265741 </v>
    <v>       0.50074748       0.49105120       0.32959444 </v>
    <v>       0.65101599       0.34078269       0.45653146 </v>
    <v>       0.06723514       0.25789688       0.24496975 </v>
    <v>       0.21750365       0.10762837       0.37190678 </v>
    <v>       0.36777216       0.95735985       0.49884380 </v>
    <v>       0.91696662       0.40816539       0.11803273 </v>
    <v>       0.48345428       0.17501107       0.03340805 </v>
    <v>       0.63372279       0.02474255       0.16034507 </v>
    <v>       0.78399131       0.87447404       0.28728210 </v>
    <v>       0.93425982       0.72420553       0.41421912 </v>
   </varray>
  </structure>
  <varray name="forces" >
   <v>       0.09490794       0.43667796       1.98217601 </v>
   <v>      -0.23803170       0.00613530      -0.09529672 </v>
   <v>      -0.02583028      -0.13981457      -0.04505840 </v>
   <v>       0.10158572      -0.14766316       0.41431695 </v>
   <v>      -0.55776086      -0.14163438      -1.79627929 </v>
   <v>      -0.08697087       0.05452233      -0.09588894 </v>
   <v>      -0.01527853      -0.16301302      -0.09965871 </v>
   <v>      -0.02119938       0.07236473       0.57610107 </v>
   <v>       0.35581562       0.15144849       1.82244239 </v>
   <v>       0.38835097       0.81931318      -0.45465265 </v>
   <v>      -0.23127436       0.02370836      -0.25130854 </v>
   <v>       0.04694260      -0.21189645      -0.10406184 </v>
   <v>      -0.42845193      -0.19613297       0.43484174 </v>
   <v>      -0.04691504       0.24590059      -0.22487356 </v>
   <v>       0.31740956       0.00343055       0.17319635 </v>
   <v>       0.25981400      -0.57236312      -0.80771061 </v>
   <v>      -0.00202486      -0.21775299      -0.30389366 </v>
   <v>       0.05088064       0.05744489       0.04748141 </v>
   <v>       0.05370179      -0.07628308       0.52137335 </v>
   <v>      -1.33464317       0.34542939      -1.76202924 </v>
   <v>       0.10539455      -0.58359573      -0.69178278 </v>
   <v>      -0.76204932       0.64348872       0.51960317 </v>
   <v>      -0.20262275       0.06102204       0.08834641 </v>
   <v>       0.09505470       0.06941417       0.02878252 </v>
   <v>      -0.28605156      -0.81743431      -0.44062533 </v>
   <v>      -0.23694626       0.18118574       1.21138645 </v>
   <v>      -0.14104474       0.14978630      -0.31211324 </v>
   <v>      -0.05904142      -0.15926037      -0.08131579 </v>
   <v>       0.18761447      -0.02991337      -0.69287542 </v>
   <v>      -0.00703052      -0.04986057      -0.12229527 </v>
   <v>       0.20257833       0.07707883       0.16123807 </v>
   <v>      -0.66552324       0.47863411      -1.69193810 </v>
   <v>      -0.00108069       0.44502881      -0.06713741 </v>
   <v>      -0.00341442       0.00168778      -0.00325072 </v>
   <v>      -0.04764809      -0.17087369       0.51259915 </v>
   <v>       0.16494580      -0.49837750       2.16446634 </v>
   <v>      -0.61348238       1.04768087       0.31917374 </v>
   <v>      -0.54284027       0.55431255      -1.41610551 </v>
   <v>      -0.03720837       0.00135249      -0.05063817 </v>
   <v>      -0.08437895       0.26596688       0.03020048 </v>
   <v>       0.54870369      -1.19516209      -0.42216532 </v>
   <v>       0.02953933       0.16381911      -0.02207312 </v>
   <v>       0.03922190       0.01292494       0.15689468 </v>
   <v>       0.44703675       0.12737012       1.07564980 </v>
   <v>      -0.06235303       0.12083894      -0.14733718 </v>
   <v>       0.20718925       0.30149685       0.09482651 </v>
   <v>      -0.56480130       0.85230381       0.35571349 </v>
   <v>      -0.28486273      -0.15584101      -2.05501971 </v>
   <v>       0.12187003      -0.50124402      -0.53830370 </v>
   <v>      -0.12113948      -0.20510362      -0.04082411 </v>
   <v>       0.04475347       0.08091634       0.20093550 </v>
   <v>       0.45182606      -0.12474488       1.59603564 </v>
   <v>      -0.15806555       0.37022320      -0.38729853 </v>
   <v>      -0.00874816      -0.15544743       0.10738686 </v>
   <v>      -0.03047220      -0.08022880       0.02706595 </v>
   <v>       0.27868196      -0.42018569       0.70352426 </v>
   <v>       0.09136582       0.00973669       0.19815690 </v>
   <v>       0.04077087      -0.26572067       0.01106593 </v>
   <v>      -0.57923808      -0.06159403       0.13813716 </v>
   <v>       0.10016844      -0.28421809      -0.87934513 </v>
   <v>       0.60046459       0.14565236      -0.78127503 </v>
   <v>       0.24917863       0.22855211       0.11993559 </v>
   <v>       0.10213054       0.03959829      -0.04098974 </v>
   <v>       0.60844125       0.12310171       0.68287181 </v>
   <v>       0.02451691       0.05518784      -0.21633284 </v>
   <v>       0.10601666       0.15828426       0.11443391 </v>
   <v>       0.42953290      -0.43537238      -0.55609413 </v>
   <v>       0.08775559       0.56011845      -0.60518800 </v>
   <v>       0.59306490      -0.83927907       0.35227431 </v>
   <v>       0.31666705      -0.38273952       0.30009992 </v>
   <v>       0.18209308       0.04868861      -0.04054542 </v>
   <v>       0.36243813      -0.30907811       1.10084805 </v>
  </varray>
  <varray name="stress" >
   <v>     -23.27062567       3.58724228      -7.75675854 </v>
   <v>       3.58724246     -24.32494342       5.69520551 </v>
   <v>      -7.75675864       5.69520545     -17.95490051 </v>
  </varray>
  <energy>
   <i name="e_fr_energy">   -355.96686298 </i>
   <i name="e_wo_entrp">   -354.94102080 </i>
   <i name="e_0_energy">   -355.45394189 </i>
  </energy>
  <time name="totalsc">   74.53   74.80</time>
  <eigenvalues>
   <array>
    <dimension dim="1">band</dimension>
    <dimension dim="2">kpoint</dimension>
    <dimension dim="3">spin</dimension>
    <field>eigene</field>
    <field>occ</field>
    <set>
     <set comment="spin 1">
      <set comment="kpoint 1">
       <r>  -62.7233    1.0000 </r>
       <r>  -62.7214    1.0000 </r>
       <r>  -62.7183    1.0000 </r>
       <r>  -62.7175    1.0000 </r>
       <r>  -62.7013    1.0000 </r>
       <r>  -62.6994    1.0000 </r>
       <r>  -62.6980    1.0000 </r>
       <r>  -62.6898    1.0000 </r>
       <r>  -62.6871    1.0000 </r>
       <r>  -62.6863    1.0000 </r>
       <r>  -62.6796    1.0000 </r>
       <r>  -62.6704    1.0000 </r>
       <r>  -62.6686    1.0000 </r>
       <r>  -62.6660    1.0000 </r>
       <r>  -62.6652    1.0000 </r>
       <r>  -62.6539    1.0000 </r>
       <r>  -62.6538    1.0000 </r>
       <r>  -62.6534    1.0000 </r>
       <r>  -62.6532    1.0000 </r>
       <r>  -62.6524    1.0000 </r>
       <r>  -62.6521    1.0000 </r>
       <r>  -62.6500    1.0000 </r>
       <r>  -62.6448    1.0000 </r>
       <r>  -62.6420    1.0000 </r>
       <r>  -62.6410    1.0000 </r>
       <r>  -62.6369    1.0000 </r>
       <r>  -62.6353    1.0000 </r>
       <r>  -62.6318    1.0000 </r>
       <r>  -62.6302    1.0000 </r>
       <r>  -62.6246    1.0000 </r>
       <r>  -62.6243    1.0000 </r>
       <r>  -62.6226    1.0000 </r>
       <r>  -62.6219    1.0000 </r>
       <r>  -62.6170    1.0000 </r>
       <r>  -62.6149    1.0000 </r>
       <r>  -62.6118    1.0000 </r>
       <r>  -62.6074    1.0000 </r>
       <r>  -62.6025    1.0000 </r>
       <r>  -62.5987    1.0000 </r>
       <r>  -62.5937    1.0000 </r>
       <r>  -62.5922    1.0000 </r>
       <r>  -62.5893    1.0000 </r>
       <r>  -62.5824    1.0000 </r>
       <r>  -62.5688    1.0000 </r>
       <r>  -62.5591    1.0000 </r>
       <r>  -62.5579    1.0000 </r>
       <r>  -62.5533    1.0000 </r>
       <r>  -62.5532    1.0000 </r>
       <r>  -62.5477    1.0000 </r>
       <r>  -62.5216    1.0000 </r>
       <r>  -62.5180    1.0000 </r>
       <r>  -62.5040    1.0000 </r>
       <r>  -62.5036    1.0000 </r>
       <r>  -62.4969    1.0000 </r>
       <r>  -62.4862    1.0000 </r>
       <r>  -62.4730    1.0000 </r>
       <r>  -62.4680    1.0000 </r>
       <r>  -62.4676    1.0000 </r>
       <r>  -62.4581    1.0000 </r>
       <r>  -62.4450    1.0000 </r>
       <r>  -62.4383    1.0000 </r>
       <r>  -62.4369    1.0000 </r>
       <r>  -62.4345    1.0000 </r>
       <r>  -62.4278    1.0000 </r>
       <r>  -62.4173    1.0000 </r>
       <r>  -62.4035    1.0000 </r>
       <r>  -62.4024    1.0000 </r>
       <r>  -62.3983    1.0000 </r>
       <r>  -62.3905    1.0000 </r>
       <r>  -62.3805    1.0000 </r>
       <r>  -62.3701    1.0000 </r>
       <r>  -62.3568    1.0000 </r>
       <r>  -62.3459    1.0000 </r>
       <r>  -62.3308    1.0000 </r>
       <r>  -62.3227    1.0000 </r>
       <r>  -62.3124    1.0000 </r>
       <r>  -62.2959    1.0000 </r>
       <r>  -62.2784    1.0000 </r>
       <r>  -62.2616    1.0000 </r>
       <r>  -62.2077    1.0000 </r>
       <r>  -62.1914    1.0000 </r>
       <r>  -62.1734    1.0000 </r>
       <r>  -62.1707    1.0000 </r>
       <r>  -62.1516    1.0000 </r>
       <r>  -62.1339    1.0000 </r>
       <r>  -62.0442    1.0000 </r>
       <r>  -61.9911    1.0000 </r>
       <r>  -61.9618    1.0000 </r>
       <r>  -61.9403    1.0000 </r>
       <r>  -61.8763    1.0000 </r>
       <r>  -61.8668    1.0000 </r>
       <r>  -61.8553    1.0000 </r>
       <r>  -61.7977    1.0000 </r>
       <r>  -61.7403    1.0000 </r>
       <r>  -61.7255    1.0000 </r>
       <r>  -61.6853    1.0000 </r>
       <r>  -61.6581    1.0000 </r>
       <r>  -61.6083    1.0000 </r>
       <r>  -61.5565    1.0000 </r>
       <r>  -61.5331    1.0000 </r>
       <r>  -61.5313    1.0000 </r>
       <r>  -61.5029    1.0000 </r>
       <r>  -61.3375    1.0000 </r>
       <r>  -61.3328    1.0000 </r>
       <r>  -61.3316    1.0000 </r>
       <r>  -61.3071    1.0000 </r>
       <r>  -61.2346    1.0000 </r>
       <r>  -61.0583    1.0000 </r>
       <r>  -14.0030    1.0000 </r>
       <r>  -13.3318    1.0000 </r>
       <r>  -13.1974    1.0000 </r>
       <r>  -13.1673    1.0000 </r>
       <r>  -13.0342    1.0000 </r>
       <r>  -12.9734    1.0000 </r>
       <r>  -12.7778    1.0000 </r>
       <r>  -12.7630    1.0000 </r>
       <r>  -12.6320    1.0000 </r>
       <r>  -12.6101    1.0000 </r>
       <r>  -12.5764    1.0000 </r>
       <r>  -12.5132    1.0000 </r>
       <r>  -12.4442    1.0000 </r>
       <r>  -12.2795    1.0000 </r>
       <r>  -12.2339    1.0000 </r>
       <r>  -12.1719    1.0000 </r>
       <r>  -12.1517    1.0000 </r>
       <r>  -12.1193    1.0000 </r>
       <r>  -12.0739    1.0000 </r>
       <r>  -12.0437    1.0000 </r>
       <r>  -11.9406    1.0000 </r>
       <r>  -11.8895    1.0000 </r>
       <r>  -11.8212    1.0000 </r>
       <r>  -11.7176    1.0000 </r>
       <r>  -11.6712    1.0000 </r>
       <r>  -11.6587    1.0000 </r>
       <r>  -11.5687    1.0000 </r>
       <r>  -11.4995    1.0000 </r>
       <r>  -11.4745    1.0000 </r>
       <r>  -11.4403    1.0000 </r>
       <r>  -11.1946    1.0000 </r>
       <r>  -11.1564    1.0000 </r>
       <r>  -10.9443    1.0000 </r>
       <r>  -10.7974    1.0000 </r>
       <r>  -10.6581    1.0000 </r>
       <r>  -10.4052    1.0000 </r>
       <r>   -5.7464    1.0000 </r>
       <r>   -5.7034    1.0000 </r>
       <r>   -5.6645    1.0000 </r>
       <r>   -5.4205    1.0000 </r>
       <r>   -5.3704    1.0000 </r>
       <r>   -5.1840    1.0000 </r>
       <r>   -5.1411    1.0000 </r>
       <r>   -5.1204    1.0000 </r>
       <r>   -5.0975    1.0000 </r>
       <r>   -4.9659    1.0000 </r>
       <r>   -4.9087    1.0000 </r>
       <r>   -4.8933    1.0000 </r>
       <r>   -4.8548    1.0000 </r>
       <r>   -4.8403    1.0000 </r>
       <r>   -4.7982    1.0000 </r>
       <r>   -4.7660    1.0000 </r>
       <r>   -4.7446    1.0000 </r>
       <r>   -4.6796    1.0000 </r>
       <r>   -4.6532    1.0000 </r>
       <r>   -4.5997    1.0000 </r>
       <r>   -4.5722    1.0000 </r>
       <r>   -4.5394    1.0000 </r>
       <r>   -4.5157    1.0000 </r>
       <r>   -4.4126    1.0000 </r>
       <r>   -4.4011    1.0000 </r>
       <r>   -4.3773    1.0000 </r>
       <r>   -4.3468    1.0000 </r>
       <r>   -4.3164    1.0000 </r>
       <r>   -4.2055    1.0000 </r>
       <r>   -4.0897    1.0000 </r>
       <r>   -4.0521    1.0000 </r>
       <r>   -3.9797    1.0000 </r>
       <r>   -3.9388    1.0000 </r>
       <r>   -3.9085    1.0000 </r>
       <r>   -3.8641    1.0000 </r>
       <r>   -3.8303    1.0000 </r>
       <r>   -3.7499    1.0000 </r>
       <r>   -3.7222    1.0000 </r>
       <r>   -3.6682    1.0000 </r>
       <r>   -3.6539    1.0000 </r>
       <r>   -3.5708    1.0000 </r>
       <r>   -3.5462    1.0000 </r>
       <r>   -3.4764    1.0000 </r>
       <r>   -3.4333    1.0000 </r>
       <r>   -3.3679    1.0000 </r>
       <r>   -3.3469    1.0000 </r>
       <r>   -3.2681    1.0000 </r>
       <r>   -3.2324    1.0000 </r>
       <r>   -3.1911    1.0000 </r>
       <r>   -3.1584    1.0000 </r>
       <r>   -3.1194    1.0000 </r>
       <r>   -3.1142    1.0000 </r>
       <r>   -3.0728    1.0000 </r>
       <r>   -3.0437    1.0000 </r>
       <r>   -3.0253    1.0000 </r>
       <r>   -3.0106    1.0000 </r>
       <r>   -2.9537    1.0000 </r>
       <r>   -2.9390    1.0000 </r>
       <r>   -2.9147    1.0000 </r>
       <r>   -2.8936    1.0000 </r>
       <r>   -2.8635    1.0000 </r>
       <r>   -2.8503    1.0000 </r>
       <r>   -2.8310    1.0000 </r>
       <r>   -2.7758    1.0000 </r>
       <r>   -2.7539    1.0000 </r>
       <r>   -2.7176    1.0000 </r>
       <r>   -2.7058    1.0000 </r>
       <r>   -2.6752    1.0000 </r>
       <r>   -2.6499    1.0000 </r>
       <r>   -2.6186    1.0000 </r>
       <r>   -2.5944    1.0000 </r>
       <r>   -2.5851    1.0000 </r>
       <r>   -2.5611    1.0000 </r>
       <r>   -2.5330    1.0000 </r>
       <r>   -2.5054    1.0000 </r>
       <r>   -2.4894    1.0000 </r>
       <r>   -2.4575    1.0000 </r>
       <r>   -2.4390    1.0000 </r>
       <r>   -2.4193    1.0000 </r>
       <r>   -2.4077    1.0000 </r>
       <r>   -2.3841    1.0000 </r>
       <r>   -2.3505    1.0000 </r>
       <r>   -2.3258    1.0000 </r>
       <r>   -2.2947    1.0000 </r>
       <r>   -2.2363    1.0000 </r>
       <r>   -2.2132    1.0000 </r>
       <r>   -2.1793    1.0000 </r>
       <r>   -2.1775    1.0000 </r>
       <r>   -2.1690    1.0000 </r>
       <r>   -2.0777    1.0000 </r>
       <r>   -2.0281    1.0000 </r>
       <r>   -1.9977    1.0000 </r>
       <r>   -1.9498    1.0000 </r>
       <r>   -1.8926    1.0000 </r>
       <r>   -1.8738    1.0000 </r>
       <r>   -1.8362    1.0000 </r>
       <r>   -1.7119    1.0000 </r>
       <r>   -1.6809    1.0000 </r>
       <r>   -1.6148    1.0000 </r>
       <r>   -1.5459    1.0000 </r>
       <r>   -1.5163    1.0000 </r>
       <r>   -1.5077    1.0000 </r>
       <r>   -1.4110    1.0000 </r>
       <r>   -1.3957    1.0000 </r>
       <r>   -1.3526    1.0000 </r>
       <r>   -1.3259    1.0000 </r>
       <r>   -1.2939    1.0000 </r>
       <r>   -1.2688    1.0000 </r>
       <r>   -1.2468    1.0000 </r>
       <r>   -1.2274    1.0000 </r>
       <r>   -1.2021    1.0000 </r>
       <r>   -1.1763    1.0000 </r>
       <r>   -1.1213    1.0000 </r>
       <r>   -1.0606    1.0000 </r>
       <r>   -1.0462    1.0000 </r>
       <r>   -1.0271    1.0000 </r>
       <r>   -1.0172    1.0000 </r>
       <r>   -1.0126    1.0000 </r>
       <r>   -0.9928    1.0000 </r>
       <r>   -0.9465    1.0000 </r>
       <r>   -0.9449    1.0000 </r>
       <r>   -0.9231    1.0000 </r>
       <r>   -0.8869    1.0000 </r>
       <r>   -0.8580    1.0000 </r>
       <r>   -0.8388    1.0000 </r>
       <r>   -0.8236    1.0000 </r>
       <r>   -0.8059    1.0000 </r>
       <r>   -0.7833    1.0000 </r>
       <r>   -0.7777    1.0000 </r>
       <r>   -0.7574    1.0000 </r>
       <r>   -0.7341    1.0000 </r>
       <r>   -0.7134    1.0000 </r>
       <r>   -0.6993    1.0000 </r>
       <r>   -0.6679    1.0000 </r>
       <r>   -0.6571    1.0000 </r>
       <r>   -0.6280    1.0000 </r>
       <r>   -0.6150    1.0000 </r>
       <r>   -0.5935    1.0000 </r>
       <r>   -0.5820    1.0000 </r>
       <r>   -0.5548    1.0000 </r>
       <r>   -0.5226    1.0000 </r>
       <r>   -0.5204    1.0000 </r>
       <r>   -0.5064    1.0000 </r>
       <r>   -0.4880    1.0000 </r>
       <r>   -0.4655    1.0000 </r>
       <r>   -0.4480    1.0000 </r>
       <r>   -0.4380    1.0000 </r>
       <r>   -0.4214    1.0000 </r>
       <r>   -0.4183    1.0000 </r>
       <r>   -0.4053    1.0000 </r>
       <r>   -0.3911    1.0000 </r>
       <r>   -0.3869    1.0000 </r>
       <r>   -0.3646    1.0000 </r>
       <r>   -0.3631    1.0000 </r>
       <r>   -0.3578    1.0000 </r>
       <r>   -0.3445    1.0000 </r>
       <r>   -0.3378    1.0000 </r>
       <r>   -0.3272    1.0000 </r>
       <r>   -0.3117    1.0000 </r>
       <r>   -0.2892    1.0000 </r>
       <r>   -0.2829    1.0000 </r>
       <r>   -0.2684    1.0000 </r>
       <r>   -0.2633    1.0000 </r>
       <r>   -0.2516    1.0000 </r>
       <r>   -0.2460    1.0000 </r>
       <r>   -0.2392    1.0000 </r>
       <r>   -0.2256    1.0000 </r>
       <r>   -0.2128    1.0000 </r>
       <r>   -0.1984    1.0000 </r>
       <r>   -0.1939    1.0000 </r>
       <r>   -0.1905    1.0000 </r>
       <r>   -0.1702    1.0000 </r>
       <r>   -0.1664    1.0000 </r>
       <r>   -0.1543    1.0000 </r>
       <r>   -0.1500    1.0000 </r>
       <r>   -0.1310    1.0000 </r>
       <r>   -0.1280    1.0000 </r>
       <r>   -0.1039    1.0000 </r>
       <r>   -0.0922    1.0000 </r>
       <r>   -0.0827    1.0000 </r>
       <r>   -0.0649    1.0000 </r>
       <r>   -0.0546    1.0000 </r>
       <r>   -0.0471    1.0000 </r>
       <r>   -0.0424    1.0000 </r>
       <r>   -0.0270    1.0000 </r>
       <r>   -0.0142    1.0000 </r>
       <r>    0.0042    1.0000 </r>
       <r>    0.0177    1.0000 </r>
       <r>    0.0350    1.0000 </r>
       <r>    0.0446    1.0000 </r>
       <r>    0.0491    1.0000 </r>
       <r>    0.0632    1.0000 </r>
       <r>    0.0821    1.0000 </r>
       <r>    0.0892    1.0000 </r>
       <r>    0.0961    1.0000 </r>
       <r>    0.1199    1.0000 </r>
       <r>    0.1341    1.0000 </r>
       <r>    0.1429    1.0000 </r>
       <r>    0.1547    1.0000 </r>
       <r>    0.1825    1.0000 </r>
       <r>    0.1960    1.0000 </r>
       <r>    0.2201    1.0000 </r>
       <r>    0.2328    1.0000 </r>
       <r>    0.2782    1.0000 </r>
       <r>    0.2856    1.0000 </r>
       <r>    0.3103    1.0000 </r>
       <r>    0.3325    1.0000 </r>
       <r>    0.3452    1.0000 </r>
       <r>    0.3581    1.0000 </r>
       <r>    0.3759    1.0000 </r>
       <r>    0.4017    1.0000 </r>
       <r>    0.4138    1.0000 </r>
       <r>    0.4199    1.0000 </r>
       <r>    0.4586    1.0000 </r>
       <r>    0.4640    1.0000 </r>
       <r>    0.4886    1.0000 </r>
       <r>    0.5116    1.0000 </r>
       <r>    0.5258    1.0000 </r>
       <r>    0.5453    1.0000 </r>
       <r>    0.5666    1.0000 </r>
       <r>    0.5733    1.0000 </r>
       <r>    0.6046    1.0000 </r>
       <r>    0.6181    1.0000 </r>
       <r>    0.6358    1.0000 </r>
       <r>    0.6636    1.0000 </r>
       <r>    0.6844    1.0000 </r>
       <r>    0.6950    1.0000 </r>
       <r>    0.7145    1.0000 </r>
       <r>    0.7241    1.0000 </r>
       <r>    0.7634    1.0000 </r>
       <r>    0.7749    1.0000 </r>
       <r>    0.7835    1.0000 </r>
       <r>    0.8046    1.0000 </r>
       <r>    0.8214    1.0000 </r>
       <r>    0.8413    1.0000 </r>
       <r>    0.9024    0.9999 </r>
       <r>    0.9105    0.9999 </r>
       <r>    0.9283    0.9999 </r>
       <r>    0.9524    0.9998 </r>
       <r>    0.9785    0.9995 </r>
       <r>    1.0215    0.9987 </r>
       <r>    1.0251    0.9986 </r>
       <r>    1.1005    0.9930 </r>
       <r>    1.1182    0.9901 </r>
       <r>    1.1994    0.9605 </r>
       <r>    1.2276    0.9404 </r>
       <r>    1.2440    0.9253 </r>
       <r>    1.2749    0.8893 </r>
       <r>    1.2919    0.8650 </r>
       <r>    1.3243    0.8090 </r>
       <r>    1.3709    0.7069 </r>
       <r>    1.4162    0.5887 </r>
       <r>    1.4888    0.3860 </r>
       <r>    1.5192    0.3069 </r>
       <r>    1.5649    0.2040 </r>
       <r>    1.5968    0.1462 </r>
       <r>    1.6064    0.1311 </r>
       <r>    1.6605    0.0664 </r>
       <r>    1.6946    0.0405 </r>
       <r>    1.7154    0.0292 </r>
       <r>    1.7640    0.0127 </r>
       <r>    1.8216    0.0041 </r>
       <r>    1.8401    0.0028 </r>
       <r>    1.8522    0.0021 </r>
       <r>    1.8560    0.0020 </r>
       <r>    1.8968    0.0008 </r>
       <r>    1.9325    0.0003 </r>
       <r>    1.9691    0.0001 </r>
       <r>    2.0221    0.0000 </r>
       <r>    2.0381    0.0000 </r>
       <r>    2.0677    0.0000 </r>
       <r>    2.1353    0.0000 </r>
       <r>    2.1586    0.0000 </r>
       <r>    2.1785    0.0000 </r>
       <r>    2.2061    0.0000 </r>
       <r>    2.2497    0.0000 </r>
       <r>    2.2931    0.0000 </r>
       <r>    2.3000    0.0000 </r>
       <r>    2.3420    0.0000 </r>
       <r>    2.3875    0.0000 </r>
       <r>    2.4019    0.0000 </r>
       <r>    2.4369    0.0000 </r>
       <r>    2.4788    0.0000 </r>
       <r>    2.4879    0.0000 </r>
       <r>    2.5200    0.0000 </r>
       <r>    2.5507    0.0000 </r>
       <r>    2.6052    0.0000 </r>
       <r>    2.6662    0.0000 </r>
       <r>    2.9107    0.0000 </r>
       <r>    3.2295    0.0000 </r>
       <r>    3.5970    0.0000 </r>
       <r>    3.9191    0.0000 </r>
       <r>    4.2099    0.0000 </r>
       <r>    4.5788    0.0000 </r>
       <r>    4.6212    0.0000 </r>
       <r>    4.7372    0.0000 </r>
       <r>    4.8209    0.0000 </r>
       <r>    4.9004    0.0000 </r>
       <r>    4.9498    0.0000 </r>
       <r>    5.2076    0.0000 </r>
       <r>    5.3500    0.0000 </r>
       <r>    5.4408    0.0000 </r>
       <r>    5.4956    0.0000 </r>
       <r>    5.6042    0.0000 </r>
       <r>    5.7668    0.0000 </r>
       <r>    5.9231    0.0000 </r>
       <r>    5.9630    0.0000 </r>
       <r>    6.0132    0.0000 </r>
       <r>    6.0471    0.0000 </r>
       <r>    6.1044    0.0000 </r>
       <r>    6.2211    0.0000 </r>
       <r>    6.2686    0.0000 </r>
       <r>    6.3276    0.0000 </r>
       <r>    6.4289    0.0000 </r>
       <r>    6.5161    0.0000 </r>
       <r>    6.5719    0.0000 </r>
       <r>    6.6477    0.0000 </r>
       <r>    6.6771    0.0000 </r>
       <r>    6.7385    0.0000 </r>
       <r>    6.8210    0.0000 </r>
       <r>    6.8983    0.0000 </r>
       <r>    6.9456    0.0000 </r>
       <r>    6.9568    0.0000 </r>
       <r>    7.0226    0.0000 </r>
       <r>    7.0634    0.0000 </r>
       <r>    7.1581    0.0000 </r>
       <r>    7.1839    0.0000 </r>
       <r>    7.2280    0.0000 </r>
       <r>    7.2364    0.0000 </r>
       <r>    7.3030    0.0000 </r>
       <r>    7.3594    0.0000 </r>
       <r>    7.3776    0.0000 </r>
       <r>    7.4198    0.0000 </r>
       <r>    7.5251    0.0000 </r>
       <r>    7.6031    0.0000 </r>
       <r>    7.6240    0.0000 </r>
      </set>
     </set>
    </set>
   </array>
  </eigenvalues>
  <separator name="orbital magnetization" >
   <v name="MAGDIPOLOUT">      0.00000000      0.00000000      0.00000000</v>
  </separator>
  <dos>
   <i name="efermi">      1.44787914 </i>
   <total>
    <array>
     <dimension dim="1">gridpoints</dimension>
     <dimension dim="2">spin</dimension>
     <field>energy</field>
     <field>total</field>
     <field>integrated</field>
     <set>
      <set comment="spin 1">
       <r>   -66.2406     0.0000     0.0000 </r>
       <r>   -65.9827     0.0000     0.0000 </r>
       <r>   -65.7248     0.0000     0.0000 </r>
       <r>   -65.4668     0.0000     0.0000 </r>
       <r>   -65.2089     0.0000     0.0000 </r>
       <r>   -64.9509     0.0000     0.0000 </r>
       <r>   -64.6930     0.0000     0.0000 </r>
       <r>   -64.4351     0.0000     0.0000 </r>
       <r>   -64.1771     0.0000     0.0000 </r>
       <r>   -63.9192     0.0000     0.0000 </r>
       <r>   -63.6612     0.0000     0.0000 </r>
       <r>   -63.4033     0.0000     0.0000 </r>
       <r>   -63.1454     0.1207     0.0312 </r>
       <r>   -62.8874    18.0252     4.6806 </r>
       <r>   -62.6295   200.3194    56.3509 </r>
       <r>   -62.3715   291.2305   131.4709 </r>
       <r>   -62.1136   133.0005   165.7770 </r>
       <r>   -61.8557    60.9190   181.4904 </r>
       <r>   -61.5977    54.7258   195.6064 </r>
       <r>   -61.3398    45.6895   207.3915 </r>
       <r>   -61.0818    26.5726   214.2457 </r>
       <r>   -60.8239     6.4032   215.8973 </r>
       <r>   -60.5660     0.3962   215.9995 </r>
       <r>   -60.3080     0.0019   216.0000 </r>
       <r>   -60.0501     0.0000   216.0000 </r>
       <r>   -59.7921     0.0000   216.0000 </r>
       <r>   -59.5342     0.0000   216.0000 </r>
       <r>   -59.2763     0.0000   216.0000 </r>
       <r>   -59.0183     0.0000   216.0000 </r>
       <r>   -58.7604     0.0000   216.0000 </r>
       <r>   -58.5024     0.0000   216.0000 </r>
       <r>   -58.2445     0.0000   216.0000 </r>
       <r>   -57.9866     0.0000   216.0000 </r>
       <r>   -57.7286     0.0000   216.0000 </r>
       <r>   -57.4707     0.0000   216.0000 </r>
       <r>   -57.2127     0.0000   216.0000 </r>
       <r>   -56.9548     0.0000   216.0000 </r>
       <r>   -56.6969     0.0000   216.0000 </r>
       <r>   -56.4389     0.0000   216.0000 </r>
       <r>   -56.1810     0.0000   216.0000 </r>
       <r>   -55.9230     0.0000   216.0000 </r>
       <r>   -55.6651     0.0000   216.0000 </r>
       <r>   -55.4072     0.0000   216.0000 </r>
       <r>   -55.1492     0.0000   216.0000 </r>
       <r>   -54.8913     0.0000   216.0000 </r>
       <r>   -54.6333     0.0000   216.0000 </r>
       <r>   -54.3754     0.0000   216.0000 </r>
       <r>   -54.1175     0.0000   216.0000 </r>
       <r>   -53.8595     0.0000   216.0000 </r>
       <r>   -53.6016     0.0000   216.0000 </r>
       <r>   -53.3436     0.0000   216.0000 </r>
       <r>   -53.0857     0.0000   216.0000 </r>
       <r>   -52.8278     0.0000   216.0000 </r>
       <r>   -52.5698     0.0000   216.0000 </r>
       <r>   -52.3119     0.0000   216.0000 </r>
       <r>   -52.0539     0.0000   216.0000 </r>
       <r>   -51.7960     0.0000   216.0000 </r>
       <r>   -51.5381     0.0000   216.0000 </r>
       <r>   -51.2801     0.0000   216.0000 </r>
       <r>   -51.0222     0.0000   216.0000 </r>
       <r>   -50.7642     0.0000   216.0000 </r>
       <r>   -50.5063     0.0000   216.0000 </r>
       <r>   -50.2484     0.0000   216.0000 </r>
       <r>   -49.9904     0.0000   216.0000 </r>
       <r>   -49.7325     0.0000   216.0000 </r>
       <r>   -49.4745     0.0000   216.0000 </r>
       <r>   -49.2166     0.0000   216.0000 </r>
       <r>   -48.9587     0.0000   216.0000 </r>
       <r>   -48.7007     0.0000   216.0000 </r>
       <r>   -48.4428     0.0000   216.0000 </r>
       <r>   -48.1849     0.0000   216.0000 </r>
       <r>   -47.9269     0.0000   216.0000 </r>
       <r>   -47.6690     0.0000   216.0000 </r>
       <r>   -47.4110     0.0000   216.0000 </r>
       <r>   -47.1531     0.0000   216.0000 </r>
       <r>   -46.8952     0.0000   216.0000 </r>
       <r>   -46.6372     0.0000   216.0000 </r>
       <r>   -46.3793     0.0000   216.0000 </r>
       <r>   -46.1213     0.0000   216.0000 </r>
       <r>   -45.8634     0.0000   216.0000 </r>
       <r>   -45.6055     0.0000   216.0000 </r>
       <r>   -45.3475     0.0000   216.0000 </r>
       <r>   -45.0896     0.0000   216.0000 </r>
       <r>   -44.8316     0.0000   216.0000 </r>
       <r>   -44.5737     0.0000   216.0000 </r>
       <r>   -44.3158     0.0000   216.0000 </r>
       <r>   -44.0578     0.0000   216.0000 </r>
       <r>   -43.7999     0.0000   216.0000 </r>
       <r>   -43.5419     0.0000   216.0000 </r>
       <r>   -43.2840     0.0000   216.0000 </r>
       <r>   -43.0261     0.0000   216.0000 </r>
       <r>   -42.7681     0.0000   216.0000 </r>
       <r>   -42.5102     0.0000   216.0000 </r>
       <r>   -42.2522     0.0000   216.0000 </r>
       <r>   -41.9943     0.0000   216.0000 </r>
       <r>   -41.7364     0.0000   216.0000 </r>
       <r>   -41.4784     0.0000   216.0000 </r>
       <r>   -41.2205     0.0000   216.0000 </r>
       <r>   -40.9625     0.0000   216.0000 </r>
       <r>   -40.7046     0.0000   216.0000 </r>
       <r>   -40.4467     0.0000   216.0000 </r>
       <r>   -40.1887     0.0000   216.0000 </r>
       <r>   -39.9308     0.0000   216.0000 </r>
       <r>   -39.6728     0.0000   216.0000 </r>
       <r>   -39.4149     0.0000   216.0000 </r>
       <r>   -39.1570     0.0000   216.0000 </r>
       <r>   -38.8990     0.0000   216.0000 </r>
       <r>   -38.6411     0.0000   216.0000 </r>
       <r>   -38.3831     0.0000   216.0000 </r>
       <r>   -38.1252     0.0000   216.0000 </r>
       <r>   -37.8673     0.0000   216.0000 </r>
       <r>   -37.6093     0.0000   216.0000 </r>
       <r>   -37.3514     0.0000   216.0000 </r>
       <r>   -37.0934     0.0000   216.0000 </r>
       <r>   -36.8355     0.0000   216.0000 </r>
       <r>   -36.5776     0.0000   216.0000 </r>
       <r>   -36.3196     0.0000   216.0000 </r>
       <r>   -36.0617     0.0000   216.0000 </r>
       <r>   -35.8037     0.0000   216.0000 </r>
       <r>   -35.5458     0.0000   216.0000 </r>
       <r>   -35.2879     0.0000   216.0000 </r>
       <r>   -35.0299     0.0000   216.0000 </r>
       <r>   -34.7720     0.0000   216.0000 </r>
       <r>   -34.5140     0.0000   216.0000 </r>
       <r>   -34.2561     0.0000   216.0000 </r>
       <r>   -33.9982     0.0000   216.0000 </r>
       <r>   -33.7402     0.0000   216.0000 </r>
       <r>   -33.4823     0.0000   216.0000 </r>
       <r>   -33.2243     0.0000   216.0000 </r>
       <r>   -32.9664     0.0000   216.0000 </r>
       <r>   -32.7085     0.0000   216.0000 </r>
       <r>   -32.4505     0.0000   216.0000 </r>
       <r>   -32.1926     0.0000   216.0000 </r>
       <r>   -31.9346     0.0000   216.0000 </r>
       <r>   -31.6767     0.0000   216.0000 </r>
       <r>   -31.4188     0.0000   216.0000 </r>
       <r>   -31.1608     0.0000   216.0000 </r>
       <r>   -30.9029     0.0000   216.0000 </r>
       <r>   -30.6449     0.0000   216.0000 </r>
       <r>   -30.3870     0.0000   216.0000 </r>
       <r>   -30.1291     0.0000   216.0000 </r>
       <r>   -29.8711     0.0000   216.0000 </r>
       <r>   -29.6132     0.0000   216.0000 </r>
       <r>   -29.3552     0.0000   216.0000 </r>
       <r>   -29.0973     0.0000   216.0000 </r>
       <r>   -28.8394     0.0000   216.0000 </r>
       <r>   -28.5814     0.0000   216.0000 </r>
       <r>   -28.3235     0.0000   216.0000 </r>
       <r>   -28.0655     0.0000   216.0000 </r>
       <r>   -27.8076     0.0000   216.0000 </r>
       <r>   -27.5497     0.0000   216.0000 </r>
       <r>   -27.2917     0.0000   216.0000 </r>
       <r>   -27.0338     0.0000   216.0000 </r>
       <r>   -26.7758     0.0000   216.0000 </r>
       <r>   -26.5179     0.0000   216.0000 </r>
       <r>   -26.2600     0.0000   216.0000 </r>
       <r>   -26.0020     0.0000   216.0000 </r>
       <r>   -25.7441     0.0000   216.0000 </r>
       <r>   -25.4861     0.0000   216.0000 </r>
       <r>   -25.2282     0.0000   216.0000 </r>
       <r>   -24.9703     0.0000   216.0000 </r>
       <r>   -24.7123     0.0000   216.0000 </r>
       <r>   -24.4544     0.0000   216.0000 </r>
       <r>   -24.1964     0.0000   216.0000 </r>
       <r>   -23.9385     0.0000   216.0000 </r>
       <r>   -23.6806     0.0000   216.0000 </r>
       <r>   -23.4226     0.0000   216.0000 </r>
       <r>   -23.1647     0.0000   216.0000 </r>
       <r>   -22.9067     0.0000   216.0000 </r>
       <r>   -22.6488     0.0000   216.0000 </r>
       <r>   -22.3909     0.0000   216.0000 </r>
       <r>   -22.1329     0.0000   216.0000 </r>
       <r>   -21.8750     0.0000   216.0000 </r>
       <r>   -21.6170     0.0000   216.0000 </r>
       <r>   -21.3591     0.0000   216.0000 </r>
       <r>   -21.1012     0.0000   216.0000 </r>
       <r>   -20.8432     0.0000   216.0000 </r>
       <r>   -20.5853     0.0000   216.0000 </r>
       <r>   -20.3273     0.0000   216.0000 </r>
       <r>   -20.0694     0.0000   216.0000 </r>
       <r>   -19.8115     0.0000   216.0000 </r>
       <r>   -19.5535     0.0000   216.0000 </r>
       <r>   -19.2956     0.0000   216.0000 </r>
       <r>   -19.0376     0.0000   216.0000 </r>
       <r>   -18.7797     0.0000   216.0000 </r>
       <r>   -18.5218     0.0000   216.0000 </r>
       <r>   -18.2638     0.0000   216.0000 </r>
       <r>   -18.0059     0.0000   216.0000 </r>
       <r>   -17.7479     0.0000   216.0000 </r>
       <r>   -17.4900     0.0000   216.0000 </r>
       <r>   -17.2321     0.0000   216.0000 </r>
       <r>   -16.9741     0.0000   216.0000 </r>
       <r>   -16.7162     0.0000   216.0000 </r>
       <r>   -16.4583     0.0000   216.0000 </r>
       <r>   -16.2003     0.0000   216.0000 </r>
       <r>   -15.9424     0.0000   216.0000 </r>
       <r>   -15.6844     0.0000   216.0000 </r>
       <r>   -15.4265     0.0000   216.0000 </r>
       <r>   -15.1686     0.0000   216.0000 </r>
       <r>   -14.9106     0.0000   216.0000 </r>
       <r>   -14.6527     0.0000   216.0000 </r>
       <r>   -14.3947     0.0217   216.0056 </r>
       <r>   -14.1368     1.3130   216.3443 </r>
       <r>   -13.8789     4.9468   217.6203 </r>
       <r>   -13.6209     1.6202   218.0382 </r>
       <r>   -13.3630     4.7368   219.2600 </r>
       <r>   -13.1050    17.3061   223.7239 </r>
       <r>   -12.8471    19.9951   228.8815 </r>
       <r>   -12.5892    26.8899   235.8174 </r>
       <r>   -12.3312    28.3558   243.1315 </r>
       <r>   -12.0733    35.3651   252.2536 </r>
       <r>   -11.8153    33.9696   261.0157 </r>
       <r>   -11.5574    32.8383   269.4860 </r>
       <r>   -11.2995    25.2952   276.0107 </r>
       <r>   -11.0415    14.9977   279.8792 </r>
       <r>   -10.7836    12.8464   283.1928 </r>
       <r>   -10.5256    10.8358   285.9878 </r>
       <r>   -10.2677     6.4952   287.6631 </r>
       <r>   -10.0098     1.2860   287.9948 </r>
       <r>    -9.7518     0.0201   288.0000 </r>
       <r>    -9.4939     0.0000   288.0000 </r>
       <r>    -9.2359     0.0000   288.0000 </r>
       <r>    -8.9780     0.0000   288.0000 </r>
       <r>    -8.7201     0.0000   288.0000 </r>
       <r>    -8.4621     0.0000   288.0000 </r>
       <r>    -8.2042     0.0000   288.0000 </r>
       <r>    -7.9462     0.0000   288.0000 </r>
       <r>    -7.6883     0.0000   288.0000 </r>
       <r>    -7.4304     0.0000   288.0000 </r>
       <r>    -7.1724     0.0000   288.0000 </r>
       <r>    -6.9145     0.0000   288.0000 </r>
       <r>    -6.6565     0.0000   288.0000 </r>
       <r>    -6.3986     0.0000   288.0000 </r>
       <r>    -6.1407     0.0312   288.0081 </r>
       <r>    -5.8827     2.5432   288.6640 </r>
       <r>    -5.6248    14.7814   292.4768 </r>
       <r>    -5.3668    16.4034   296.7078 </r>
       <r>    -5.1089    25.4675   303.2769 </r>
       <r>    -4.8510    42.2377   314.1717 </r>
       <r>    -4.5930    52.7446   327.7766 </r>
       <r>    -4.3351    47.1071   339.9274 </r>
       <r>    -4.0771    33.8009   348.6460 </r>
       <r>    -3.8192    39.2445   358.7687 </r>
       <r>    -3.5613    42.5540   369.7451 </r>
       <r>    -3.3033    42.3319   380.6642 </r>
       <r>    -3.0454    58.5746   395.7729 </r>
       <r>    -2.7874    73.9280   414.8419 </r>
       <r>    -2.5295    79.6939   435.3981 </r>
       <r>    -2.2716    77.0784   455.2797 </r>
       <r>    -2.0136    56.3963   469.8266 </r>
       <r>    -1.7557    40.8562   480.3650 </r>
       <r>    -1.4977    39.9209   490.6622 </r>
       <r>    -1.2398    57.9423   505.6079 </r>
       <r>    -0.9819    76.1007   525.2373 </r>
       <r>    -0.7239    96.2026   550.0517 </r>
       <r>    -0.4660   119.2815   580.8192 </r>
       <r>    -0.2080   166.8301   623.8513 </r>
       <r>     0.0499   166.6863   666.8464 </r>
       <r>     0.3078   126.0843   699.3685 </r>
       <r>     0.5658   107.5375   727.1067 </r>
       <r>     0.8237    99.8173   752.8536 </r>
       <r>     1.0817    73.7613   771.8795 </r>
       <r>     1.3396    56.1572   786.3647 </r>
       <r>     1.5975    52.3582   799.8700 </r>
       <r>     1.8555    59.7631   815.2852 </r>
       <r>     2.1134    60.9767   831.0136 </r>
       <r>     2.3714    60.9646   846.7388 </r>
       <r>     2.6293    50.9938   859.8921 </r>
       <r>     2.8872    18.5676   864.6814 </r>
       <r>     3.1452     6.8732   866.4543 </r>
       <r>     3.4031     5.8009   867.9506 </r>
       <r>     3.6611     5.6779   869.4151 </r>
       <r>     3.9190     6.2074   871.0163 </r>
       <r>     4.1769     6.7363   872.7538 </r>
       <r>     4.4349     6.4774   874.4246 </r>
       <r>     4.6928    15.0114   878.2966 </r>
       <r>     4.9508    21.4925   883.8404 </r>
       <r>     5.2087    13.6804   887.3691 </r>
       <r>     5.4666    17.4577   891.8722 </r>
       <r>     5.7246    18.0798   896.5357 </r>
       <r>     5.9825    22.4088   902.3158 </r>
       <r>     6.2405    30.0119   910.0571 </r>
       <r>     6.4984    27.3393   917.1090 </r>
       <r>     6.7563    31.2730   925.1755 </r>
       <r>     7.0143    36.3922   934.5625 </r>
       <r>     7.2722    42.1866   945.4441 </r>
       <r>     7.5302    37.0317   954.9961 </r>
       <r>     7.7881    17.4007   959.4844 </r>
       <r>     8.0460     1.9802   959.9952 </r>
       <r>     8.3040     0.0187   960.0000 </r>
       <r>     8.5619     0.0000   960.0000 </r>
       <r>     8.8199     0.0000   960.0000 </r>
       <r>     9.0778     0.0000   960.0000 </r>
       <r>     9.3357     0.0000   960.0000 </r>
       <r>     9.5937     0.0000   960.0000 </r>
       <r>     9.8516     0.0000   960.0000 </r>
       <r>    10.1096     0.0000   960.0000 </r>
       <r>    10.3675     0.0000   960.0000 </r>
       <r>    10.6254     0.0000   960.0000 </r>
       <r>    10.8834     0.0000   960.0000 </r>
       <r>    11.1413     0.0000   960.0000 </r>
      </set>
     </set>
    </array>
   </total>
  </dos>
 </calculation>
 <structure name="finalpos" >
  <crystal>
   <varray name="basis" >
    <v>       9.42510255       3.57329804       0.00000000 </v>
    <v>       0.00000000      10.07973298       0.00000000 </v>
    <v>       0.00000000       0.00000000      20.68350356 </v>
   </varray>
   <i name="volume">   1964.98490008 </i>
   <varray name="rec_basis" >
    <v>       0.10609964       0.00000000       0.00000000 </v>
    <v>      -0.03761267       0.09920898       0.00000000 </v>
    <v>       0.00000000       0.00000000       0.04834771 </v>
   </varray>
  </crystal>
  <varray name="positions" >
   <v>       0.24679038       0.94522030       0.00000000 </v>
   <v>       0.39705889       0.79495179       0.12693702 </v>
   <v>       0.54732740       0.64468328       0.25387405 </v>
   <v>       0.69759592       0.49441476       0.38081107 </v>
   <v>       0.84786443       0.34414625       0.50774810 </v>
   <v>       0.11381506       0.41152895       0.16924937 </v>
   <v>       0.26408358       0.26126044       0.29618639 </v>
   <v>       0.41435209       0.11099193       0.42312341 </v>
   <v>       0.96354655       0.56179746       0.04231234 </v>
   <v>       0.13110826       0.72756909       0.46543576 </v>
   <v>       0.83057123       0.02810611       0.21156171 </v>
   <v>       0.98083975       0.87783760       0.33849873 </v>
   <v>       0.35735705       0.57044763       0.09339950 </v>
   <v>       0.50762556       0.42017912       0.22033653 </v>
   <v>       0.65789407       0.26991061       0.34727355 </v>
   <v>       0.80816259       0.11964209       0.47421057 </v>
   <v>       0.07411322       0.18702479       0.13571184 </v>
   <v>       0.22438173       0.03675628       0.26264887 </v>
   <v>       0.37465024       0.88648777       0.38958589 </v>
   <v>       0.52491876       0.73621926       0.51652292 </v>
   <v>       0.09140642       0.50306493       0.43189823 </v>
   <v>       0.64060088       0.95387047       0.05108716 </v>
   <v>       0.79086939       0.80360196       0.17802418 </v>
   <v>       0.94113790       0.65333344       0.30496121 </v>
   <v>       0.03266674       0.15934394       0.44067305 </v>
   <v>       0.58186121       0.61014947       0.05986198 </v>
   <v>       0.73212972       0.45988096       0.18679900 </v>
   <v>       0.88239823       0.30961245       0.31373603 </v>
   <v>       0.29861738       0.22672664       0.10217432 </v>
   <v>       0.44888589       0.07645812       0.22911134 </v>
   <v>       0.59915440       0.92618961       0.35604837 </v>
   <v>       0.74942291       0.77592110       0.48298539 </v>
   <v>       0.01537355       0.84330380       0.14448666 </v>
   <v>       0.16564206       0.69303529       0.27142369 </v>
   <v>       0.31591057       0.54276677       0.39836071 </v>
   <v>       0.86510504       0.99357231       0.01754964 </v>
   <v>       0.03660483       0.95519385       0.49805764 </v>
   <v>       0.58579929       0.40599939       0.11724657 </v>
   <v>       0.73606781       0.25573087       0.24418359 </v>
   <v>       0.88633632       0.10546236       0.37112062 </v>
   <v>       0.15228695       0.17284506       0.03262188 </v>
   <v>       0.30255546       0.02257655       0.15955891 </v>
   <v>       0.45282398       0.87230804       0.28649593 </v>
   <v>       0.60309249       0.72203952       0.41343296 </v>
   <v>       0.01931164       0.63915371       0.20187125 </v>
   <v>       0.16958015       0.48888520       0.32880827 </v>
   <v>       0.31984866       0.33861669       0.45574530 </v>
   <v>       0.86904312       0.78942223       0.07493423 </v>
   <v>       0.48608562       0.84214306       0.03301497 </v>
   <v>       0.63635413       0.69187455       0.15995199 </v>
   <v>       0.78662264       0.54160604       0.28688901 </v>
   <v>       0.93689115       0.39133753       0.41382604 </v>
   <v>       0.20284179       0.45872023       0.07532731 </v>
   <v>       0.35311030       0.30845171       0.20226433 </v>
   <v>       0.50337881       0.15818320       0.32920136 </v>
   <v>       0.65364733       0.00791469       0.45613838 </v>
   <v>       0.06986647       0.92502888       0.24457667 </v>
   <v>       0.22013498       0.77476036       0.37151370 </v>
   <v>       0.37040350       0.62449185       0.49845072 </v>
   <v>       0.91959796       0.07529739       0.11763965 </v>
   <v>       0.20021045       0.79158823       0.07572039 </v>
   <v>       0.35047897       0.64131972       0.20265741 </v>
   <v>       0.50074748       0.49105120       0.32959444 </v>
   <v>       0.65101599       0.34078269       0.45653146 </v>
   <v>       0.06723514       0.25789688       0.24496975 </v>
   <v>       0.21750365       0.10762837       0.37190678 </v>
   <v>       0.36777216       0.95735985       0.49884380 </v>
   <v>       0.91696662       0.40816539       0.11803273 </v>
   <v>       0.48345428       0.17501107       0.03340805 </v>
   <v>       0.63372279       0.02474255       0.16034507 </v>
   <v>       0.78399131       0.87447404       0.28728210 </v>
   <v>       0.93425982       0.72420553       0.41421912 </v>
  </varray>
 </structure>
</modeling>
