LAMMPS (5 Jun 2019)
OMP_NUM_THREADS environment is not set. Defaulting to 1 thread. (../comm.cpp:88)
  using 1 OpenMP thread(s) per MPI task
Reading data file ...
  triclinic box = (0 0 0) to (11.4528 8.70073 20.5008) with tilt (-4.0054 0 0)
  1 by 1 by 1 MPI processor grid
  reading atoms ...
  72 atoms
  read_data CPU = 0.000784725 secs
42 atoms in group bulk
WARNING: Using 'neigh_modify every 1 delay 0 check yes' setting during minimization (../min.cpp:168)
Neighbor list info ...
  update every 1 steps, delay 0 steps, check yes
  max neighbors/atom: 2000, page size: 100000
  master list distance cutoff = 8.5
  ghost atom cutoff = 8.5
  binsize = 4.25, bins = 4 3 5
  1 neighbor lists, perpetual/occasional/extra = 1 0 0
  (1) pair eam/alloy, perpetual
      attributes: half, newton on
      pair build: half/bin/newton/tri
      stencil: half/bin/3d/newton/tri
      bin: standard
Setting up cg style minimization ...
  Unit style    : metal
  Current step  : 0
Per MPI rank memory allocation (min/avg/max) = 4.119 | 4.119 | 4.119 Mbytes
Step Temp E_pair E_mol TotEng Press 
       0            0   -303.61889            0   -303.61889   -124419.14 
      29            0   -322.48311            0   -322.48311   -44994.649 
Loop time of 0.0195592 on 1 procs for 29 steps with 72 atoms

99.1% CPU use with 1 MPI tasks x 1 OpenMP threads

Minimization stats:
  Stopping criterion = energy tolerance
  Energy initial, next-to-last, final = 
        -303.618888097     -322.480555259     -322.483110966
  Force two-norm initial, final = 12.1408 0.258222
  Force max component initial, final = 2.87329 0.0996253
  Final line search alpha, max atom move = 0.483845 0.0482032
  Iterations, force evaluations = 29 42

MPI task timing breakdown:
Section |  min time  |  avg time  |  max time  |%varavg| %total
---------------------------------------------------------------
Pair    | 0.018221   | 0.018221   | 0.018221   |   0.0 | 93.16
Neigh   | 0.00053549 | 0.00053549 | 0.00053549 |   0.0 |  2.74
Comm    | 0.00041736 | 0.00041736 | 0.00041736 |   0.0 |  2.13
Output  | 0          | 0          | 0          |   0.0 |  0.00
Modify  | 2.8636e-05 | 2.8636e-05 | 2.8636e-05 |   0.0 |  0.15
Other   |            | 0.0003564  |            |       |  1.82

Nlocal:    72 ave 72 max 72 min
Histogram: 1 0 0 0 0 0 0 0 0 0
Nghost:    977 ave 977 max 977 min
Histogram: 1 0 0 0 0 0 0 0 0 0
Neighs:    4640 ave 4640 max 4640 min
Histogram: 1 0 0 0 0 0 0 0 0 0

Total # of neighbors = 4640
Ave neighs/atom = 64.4444
Neighbor list builds = 1
Dangerous builds = 0
System init for write_data ...
Total wall time: 0:00:00
