<?xml version="1.0" encoding="ISO-8859-1"?>
<modeling>
 <generator>
  <i name="program" type="string">vasp </i>
  <i name="version" type="string">6.1.0  </i>
  <i name="subversion" type="string">28Jan20 (build Mar 31 2020 17:42:31) gamma-only                       parallel </i>
  <i name="platform" type="string">LinuxIFC </i>
  <i name="date" type="string">2020 04 12 </i>
  <i name="time" type="string">11:08:38 </i>
 </generator>
 <incar>
  <i type="string" name="SYSTEM">"Millerite NiS"</i>
  <i type="int" name="NSIM">     4</i>
  <i type="int" name="NELM">   100</i>
  <i name="ENCUT">    450.00000000</i>
  <i type="string" name="LREAL">A</i>
  <i type="int" name="ISMEAR">     0</i>
  <i type="int" name="NWRITE">     2</i>
  <i type="logical" name="LWAVE"> F  </i>
  <i type="logical" name="LCHARG"> F  </i>
  <i type="int" name="NCORE">     6</i>
  <i type="int" name="NELM">   100</i>
 </incar>
 <structure name="primitive_cell" >
  <crystal>
   <varray name="basis" >
    <v>      16.88469405       0.00000000       0.00000000 </v>
    <v>       0.00000000       9.57841000       0.00000000 </v>
    <v>       0.00000000       0.00000000      16.65464569 </v>
   </varray>
   <i name="volume">   2693.53123734 </i>
   <varray name="rec_basis" >
    <v>       0.05922524       0.00000000       0.00000000 </v>
    <v>       0.00000000       0.10440146       0.00000000 </v>
    <v>       0.00000000       0.00000000       0.06004331 </v>
   </varray>
  </crystal>
  <varray name="positions" >
   <v>       0.78004630       0.14529696       0.12347080 </v>
   <v>       0.81461426       0.14529696       0.30867699 </v>
   <v>       0.26276233       0.64529696       0.03086770 </v>
   <v>       0.29733028       0.64529696       0.21607389 </v>
   <v>       0.43519032       0.14529696       0.06173540 </v>
   <v>       0.46975828       0.14529696       0.24694159 </v>
   <v>       0.95247430       0.64529696       0.15433850 </v>
   <v>       0.98704225       0.64529696       0.33954469 </v>
   <v>       0.09033433       0.14529696       0.00000000 </v>
   <v>       0.12490229       0.14529696       0.18520619 </v>
   <v>       0.15947025       0.14529696       0.37041239 </v>
   <v>       0.60761831       0.64529696       0.09260310 </v>
   <v>       0.64218627       0.64529696       0.27780929 </v>
   <v>       0.94215073       0.01319396       0.28421070 </v>
   <v>       0.39029880       0.51319396       0.00640140 </v>
   <v>       0.42486675       0.51319396       0.19160760 </v>
   <v>       0.45943471       0.51319396       0.37681380 </v>
   <v>       0.56272679       0.01319396       0.03726910 </v>
   <v>       0.59729475       0.01319396       0.22247530 </v>
   <v>       0.08001077       0.51319396       0.12987220 </v>
   <v>       0.11457872       0.51319396       0.31507840 </v>
   <v>       0.25243876       0.01319396       0.16073990 </v>
   <v>       0.28700672       0.01319396       0.34594610 </v>
   <v>       0.73515478       0.51319396       0.06813680 </v>
   <v>       0.76972274       0.51319396       0.25334300 </v>
   <v>       0.90758277       0.27739996       0.09900450 </v>
   <v>       0.94215073       0.27739996       0.28421070 </v>
   <v>       0.39029880       0.77739996       0.00640140 </v>
   <v>       0.42486675       0.77739996       0.19160760 </v>
   <v>       0.45943471       0.77739996       0.37681380 </v>
   <v>       0.56272679       0.27739996       0.03726910 </v>
   <v>       0.59729475       0.27739996       0.22247530 </v>
   <v>       0.08001077       0.77739996       0.12987220 </v>
   <v>       0.25243876       0.27739996       0.16073990 </v>
   <v>       0.28700672       0.27739996       0.34594610 </v>
   <v>       0.73515478       0.77739996       0.06813680 </v>
   <v>       0.76972274       0.77739996       0.25334300 </v>
   <v>       0.02602916       0.14529696       0.36869923 </v>
   <v>       0.99146120       0.14529696       0.18349304 </v>
   <v>       0.47417722       0.64529696       0.09088994 </v>
   <v>       0.50874518       0.64529696       0.27609614 </v>
   <v>       0.64660522       0.14529696       0.12175764 </v>
   <v>       0.68117317       0.14529696       0.30696383 </v>
   <v>       0.12932124       0.64529696       0.02915454 </v>
   <v>       0.16388920       0.64529696       0.21436074 </v>
   <v>       0.19845715       0.64529696       0.39956693 </v>
   <v>       0.30174923       0.14529696       0.06002224 </v>
   <v>       0.33631719       0.14529696       0.24522844 </v>
   <v>       0.81903321       0.64529696       0.15262534 </v>
   <v>       0.85360117       0.64529696       0.33783153 </v>
   <v>       0.79449310       0.31351196       0.02944130 </v>
   <v>       0.82906105       0.31351196       0.21464750 </v>
   <v>       0.31177707       0.81351196       0.12204440 </v>
   <v>       0.34634503       0.81351196       0.30725060 </v>
   <v>       0.48420507       0.31351196       0.15291210 </v>
   <v>       0.51877302       0.31351196       0.33811830 </v>
   <v>       0.00148905       0.81351196       0.24551520 </v>
   <v>       0.96692109       0.81351196       0.06030900 </v>
   <v>       0.13934908       0.31351196       0.09117670 </v>
   <v>       0.17391704       0.31351196       0.27638290 </v>
   <v>       0.65663306       0.81351196       0.18377980 </v>
   <v>       0.69120102       0.81351196       0.36898599 </v>
   <v>       0.31177707       0.47708196       0.12204440 </v>
   <v>       0.34634503       0.47708196       0.30725060 </v>
   <v>       0.79449310       0.97708196       0.02944130 </v>
   <v>       0.82906105       0.97708196       0.21464750 </v>
   <v>       0.00148905       0.47708196       0.24551520 </v>
   <v>       0.96692109       0.47708196       0.06030900 </v>
   <v>       0.48420507       0.97708196       0.15291210 </v>
   <v>       0.51877302       0.97708196       0.33811830 </v>
   <v>       0.65663306       0.47708196       0.18377980 </v>
   <v>       0.69120102       0.47708196       0.36898599 </v>
   <v>       0.13934908       0.97708196       0.09117670 </v>
   <v>       0.17391704       0.97708196       0.27638290 </v>
  </varray>
 </structure>
 <varray name="primitive_index" >
  <v type="int" >        1 </v>
  <v type="int" >        2 </v>
  <v type="int" >        3 </v>
  <v type="int" >        4 </v>
  <v type="int" >        5 </v>
  <v type="int" >        6 </v>
  <v type="int" >        7 </v>
  <v type="int" >        8 </v>
  <v type="int" >        9 </v>
  <v type="int" >       10 </v>
  <v type="int" >       11 </v>
  <v type="int" >       12 </v>
  <v type="int" >       13 </v>
  <v type="int" >       14 </v>
  <v type="int" >       15 </v>
  <v type="int" >       16 </v>
  <v type="int" >       17 </v>
  <v type="int" >       18 </v>
  <v type="int" >       19 </v>
  <v type="int" >       20 </v>
  <v type="int" >       21 </v>
  <v type="int" >       22 </v>
  <v type="int" >       23 </v>
  <v type="int" >       24 </v>
  <v type="int" >       25 </v>
  <v type="int" >       26 </v>
  <v type="int" >       27 </v>
  <v type="int" >       28 </v>
  <v type="int" >       29 </v>
  <v type="int" >       30 </v>
  <v type="int" >       31 </v>
  <v type="int" >       32 </v>
  <v type="int" >       33 </v>
  <v type="int" >       34 </v>
  <v type="int" >       35 </v>
  <v type="int" >       36 </v>
  <v type="int" >       37 </v>
  <v type="int" >       38 </v>
  <v type="int" >       39 </v>
  <v type="int" >       40 </v>
  <v type="int" >       41 </v>
  <v type="int" >       42 </v>
  <v type="int" >       43 </v>
  <v type="int" >       44 </v>
  <v type="int" >       45 </v>
  <v type="int" >       46 </v>
  <v type="int" >       47 </v>
  <v type="int" >       48 </v>
  <v type="int" >       49 </v>
  <v type="int" >       50 </v>
  <v type="int" >       51 </v>
  <v type="int" >       52 </v>
  <v type="int" >       53 </v>
  <v type="int" >       54 </v>
  <v type="int" >       55 </v>
  <v type="int" >       56 </v>
  <v type="int" >       57 </v>
  <v type="int" >       58 </v>
  <v type="int" >       59 </v>
  <v type="int" >       60 </v>
  <v type="int" >       61 </v>
  <v type="int" >       62 </v>
  <v type="int" >       63 </v>
  <v type="int" >       64 </v>
  <v type="int" >       65 </v>
  <v type="int" >       66 </v>
  <v type="int" >       67 </v>
  <v type="int" >       68 </v>
  <v type="int" >       69 </v>
  <v type="int" >       70 </v>
  <v type="int" >       71 </v>
  <v type="int" >       72 </v>
  <v type="int" >       73 </v>
  <v type="int" >       74 </v>
 </varray>
 <kpoints>
  <generation param="Gamma">
   <v type="int" name="divisions">       1        1        1 </v>
   <v name="usershift">      0.00000000       0.00000000       0.00000000 </v>
   <v name="genvec1">      1.00000000       0.00000000       0.00000000 </v>
   <v name="genvec2">      0.00000000       1.00000000       0.00000000 </v>
   <v name="genvec3">      0.00000000       0.00000000       1.00000000 </v>
   <v name="shift">      0.00000000       0.00000000       0.00000000 </v>
  </generation>
  <varray name="kpointlist" >
   <v>       0.00000000       0.00000000       0.00000000 </v>
  </varray>
  <varray name="weights" >
   <v>       1.00000000 </v>
  </varray>
 </kpoints>
 <parameters>
  <separator name="general" >
   <i type="string" name="SYSTEM">"Millerite NiS"</i>
   <i type="logical" name="LCOMPAT"> F  </i>
  </separator>
  <separator name="electronic" >
   <i type="string" name="PREC">normal</i>
   <i name="ENMAX">    450.00000000</i>
   <i name="ENAUG">    703.44300000</i>
   <i name="EDIFF">      0.00010000</i>
   <i type="int" name="IALGO">    38</i>
   <i type="int" name="IWAVPR">    10</i>
   <i type="int" name="NBANDS">   488</i>
   <i type="int" name="NBANDSLOW">    -1</i>
   <i type="int" name="NBANDSHIGH">    -1</i>
   <i name="NELECT">    814.00000000</i>
   <i type="int" name="TURBO">     0</i>
   <i type="int" name="IRESTART">     0</i>
   <i type="int" name="NREBOOT">     0</i>
   <i type="int" name="NMIN">     0</i>
   <i name="EREF">      0.00000000</i>
   <separator name="electronic smearing" >
    <i type="int" name="ISMEAR">     0</i>
    <i name="SIGMA">      0.20000000</i>
    <i name="KSPACING">      0.50000000</i>
    <i type="logical" name="KGAMMA"> T  </i>
    <i type="logical" name="KBLOWUP"> T  </i>
   </separator>
   <separator name="electronic projectors" >
    <i type="logical" name="LREAL"> T  </i>
    <v name="ROPT">     -0.00050000     -0.00050000</v>
    <i type="int" name="LMAXPAW">  -100</i>
    <i type="int" name="LMAXMIX">     2</i>
    <i type="logical" name="NLSPLINE"> F  </i>
   </separator>
   <separator name="electronic startup" >
    <i type="int" name="ISTART">     0</i>
    <i type="int" name="ICHARG">     2</i>
    <i type="int" name="INIWAV">     1</i>
   </separator>
   <separator name="electronic spin" >
    <i type="int" name="ISPIN">     1</i>
    <i type="logical" name="LNONCOLLINEAR"> F  </i>
    <v name="MAGMOM">      1.00000000      1.00000000      1.00000000      1.00000000      1.00000000      1.00000000      1.00000000      1.00000000      1.00000000      1.00000000      1.00000000      1.00000000      1.00000000      1.00000000      1.00000000      1.00000000      1.00000000      1.00000000      1.00000000      1.00000000
      1.00000000      1.00000000      1.00000000      1.00000000      1.00000000      1.00000000      1.00000000      1.00000000      1.00000000      1.00000000      1.00000000      1.00000000      1.00000000      1.00000000      1.00000000      1.00000000      1.00000000      1.00000000      1.00000000      1.00000000
      1.00000000      1.00000000      1.00000000      1.00000000      1.00000000      1.00000000      1.00000000      1.00000000      1.00000000      1.00000000      1.00000000      1.00000000      1.00000000      1.00000000      1.00000000      1.00000000      1.00000000      1.00000000      1.00000000      1.00000000
      1.00000000      1.00000000      1.00000000      1.00000000      1.00000000      1.00000000      1.00000000      1.00000000      1.00000000      1.00000000      1.00000000      1.00000000      1.00000000      1.00000000</v>
    <i name="NUPDOWN">     -1.00000000</i>
    <i type="logical" name="LSORBIT"> F  </i>
    <v name="SAXIS">      0.00000000      0.00000000      1.00000000</v>
    <i type="logical" name="LSPIRAL"> F  </i>
    <v name="QSPIRAL">      0.00000000      0.00000000      0.00000000</v>
    <i type="logical" name="LZEROZ"> F  </i>
   </separator>
   <separator name="electronic exchange-correlation" >
    <i type="logical" name="LASPH"> F  </i>
    <i type="logical" name="LMETAGGA"> F  </i>
   </separator>
   <separator name="electronic convergence" >
    <i type="int" name="NELM">   100</i>
    <i type="int" name="NELMDL">    -5</i>
    <i type="int" name="NELMIN">     2</i>
    <i name="ENINI">    450.00000000</i>
    <separator name="electronic convergence detail" >
     <i type="logical" name="LDIAG"> T  </i>
     <i type="logical" name="LSUBROT"> F  </i>
     <i name="WEIMIN">      0.00000000</i>
     <i name="EBREAK">      0.00000005</i>
     <i name="DEPER">      0.30000000</i>
     <i type="int" name="NRMM">     4</i>
     <i name="TIME">      0.40000000</i>
    </separator>
   </separator>
   <separator name="electronic mixer" >
    <i name="AMIX">      0.40000000</i>
    <i name="BMIX">      1.00000000</i>
    <i name="AMIN">      0.10000000</i>
    <i name="AMIX_MAG">      1.60000000</i>
    <i name="BMIX_MAG">      1.00000000</i>
    <separator name="electronic mixer details" >
     <i type="int" name="IMIX">     4</i>
     <i type="logical" name="MIXFIRST"> F  </i>
     <i type="int" name="MAXMIX">   -45</i>
     <i name="WC">    100.00000000</i>
     <i type="int" name="INIMIX">     1</i>
     <i type="int" name="MIXPRE">     1</i>
     <i type="int" name="MREMOVE">     5</i>
    </separator>
   </separator>
   <separator name="electronic dipolcorrection" >
    <i type="logical" name="LDIPOL"> F  </i>
    <i type="logical" name="LMONO"> F  </i>
    <i type="int" name="IDIPOL">     0</i>
    <i name="EPSILON">      1.00000000</i>
    <v name="DIPOL">   -100.00000000   -100.00000000   -100.00000000</v>
    <i name="EFIELD">      0.00000000</i>
   </separator>
  </separator>
  <separator name="grids" >
   <i type="int" name="NGX">    90</i>
   <i type="int" name="NGY">    50</i>
   <i type="int" name="NGZ">    90</i>
   <i type="int" name="NGXF">   180</i>
   <i type="int" name="NGYF">   100</i>
   <i type="int" name="NGZF">   180</i>
   <i type="logical" name="ADDGRID"> F  </i>
  </separator>
  <separator name="ionic" >
   <i type="int" name="NSW">     0</i>
   <i type="int" name="IBRION">    -1</i>
   <i type="int" name="MDALGO">     0</i>
   <i type="int" name="ISIF">     2</i>
   <i name="PSTRESS">      0.00000000</i>
   <i name="EDIFFG">      0.00100000</i>
   <i type="int" name="NFREE">     0</i>
   <i name="POTIM">      0.50000000</i>
   <i name="SMASS">     -3.00000000</i>
   <i name="SCALEE">      1.00000000</i>
  </separator>
  <separator name="ionic md" >
   <i name="TEBEG">      0.00010000</i>
   <i name="TEEND">      0.00010000</i>
   <i type="int" name="NBLOCK">     1</i>
   <i type="int" name="KBLOCK">     1</i>
   <i type="int" name="NPACO">   256</i>
   <i name="APACO">     16.00000000</i>
  </separator>
  <separator name="symmetry" >
   <i type="int" name="ISYM">     2</i>
   <i name="SYMPREC">      0.00001000</i>
  </separator>
  <separator name="dos" >
   <i type="int" name="LORBIT">     0</i>
   <v name="RWIGS">     -1.00000000     -1.00000000</v>
   <i type="int" name="NEDOS">   301</i>
   <i name="EMIN">     10.00000000</i>
   <i name="EMAX">    -10.00000000</i>
   <i name="EFERMI">      0.00000000</i>
  </separator>
  <separator name="writing" >
   <i type="int" name="NWRITE">     2</i>
   <i type="logical" name="LWAVE"> F  </i>
   <i type="logical" name="LDOWNSAMPLE"> F  </i>
   <i type="logical" name="LCHARG"> F  </i>
   <i type="logical" name="LPARD"> F  </i>
   <i type="logical" name="LVTOT"> F  </i>
   <i type="logical" name="LVHAR"> F  </i>
   <i type="logical" name="LELF"> F  </i>
   <i type="logical" name="LOPTICS"> F  </i>
   <v name="STM">      0.00000000      0.00000000      0.00000000      0.00000000      0.00000000      0.00000000      0.00000000</v>
  </separator>
  <separator name="performance" >
   <i type="int" name="NPAR">     8</i>
   <i type="int" name="NSIM">     4</i>
   <i type="int" name="NBLK">    -1</i>
   <i type="logical" name="LPLANE"> T  </i>
   <i type="logical" name="LSCALAPACK"> T  </i>
   <i type="logical" name="LSCAAWARE"> F  </i>
   <i type="logical" name="LSCALU"> F  </i>
   <i type="logical" name="LASYNC"> F  </i>
   <i type="logical" name="LORBITALREAL"> F  </i>
  </separator>
  <separator name="miscellaneous" >
   <i type="int" name="IDIOT">     3</i>
   <i type="int" name="PHON_NSTRUCT">    -1</i>
   <i type="logical" name="LMUSIC"> F  </i>
   <v name="POMASS">     58.69000000     32.06600000</v>
   <v name="DARWINR">      0.00000000      0.00000000</v>
   <v name="DARWINV">      1.00000000      1.00000000</v>
   <i type="logical" name="LCORR"> T  </i>
  </separator>
  <i type="logical" name="GGA_COMPAT"> T  </i>
  <i type="logical" name="LBERRY"> F  </i>
  <i type="int" name="ICORELEVEL">     0</i>
  <i type="logical" name="LDAU"> F  </i>
  <i type="int" name="I_CONSTRAINED_M">     0</i>
  <separator name="electronic exchange-correlation" >
   <i type="string" name="GGA">--</i>
   <i type="int" name="VOSKOWN">     0</i>
   <i type="logical" name="LHFCALC"> F  </i>
   <i type="string" name="PRECFOCK"></i>
   <i type="logical" name="LSYMGRAD"> F  </i>
   <i type="logical" name="LHFONE"> F  </i>
   <i type="logical" name="LRHFCALC"> F  </i>
   <i type="logical" name="LTHOMAS"> F  </i>
   <i type="logical" name="LMODELHF"> F  </i>
   <i type="logical" name="LFOCKACE"> F  </i>
   <i name="ENCUT4O">     -1.00000000</i>
   <i type="int" name="EXXOEP">     0</i>
   <i type="int" name="FOURORBIT">     0</i>
   <i name="AEXX">      0.00000000</i>
   <i name="HFALPHA">      0.00000000</i>
   <i name="MCALPHA">      0.00000000</i>
   <i name="ALDAX">      1.00000000</i>
   <i name="AGGAX">      1.00000000</i>
   <i name="ALDAC">      1.00000000</i>
   <i name="AGGAC">      1.00000000</i>
   <i type="int" name="NKREDX">     1</i>
   <i type="int" name="NKREDY">     1</i>
   <i type="int" name="NKREDZ">     1</i>
   <i type="logical" name="SHIFTRED"> F  </i>
   <i type="logical" name="ODDONLY"> F  </i>
   <i type="logical" name="EVENONLY"> F  </i>
   <i type="int" name="LMAXFOCK">     0</i>
   <i type="int" name="NMAXFOCKAE">     0</i>
   <i type="logical" name="LFOCKAEDFT"> F  </i>
   <i name="HFSCREEN">      0.00000000</i>
   <i name="HFSCREENC">      0.00000000</i>
   <i type="int" name="NBANDSGWLOW">     0</i>
  </separator>
  <separator name="vdW DFT" >
   <i type="logical" name="LUSE_VDW"> F  </i>
   <i name="Zab_VDW">     -0.84910000</i>
   <i name="PARAM1">      0.12340000</i>
   <i name="PARAM2">      1.00000000</i>
   <i name="PARAM3">      0.00000000</i>
  </separator>
  <separator name="model GW" >
   <i type="int" name="MODEL_GW">     0</i>
   <i name="MODEL_EPS0">     21.83944246</i>
   <i name="MODEL_ALPHA">      1.00000000</i>
  </separator>
  <separator name="linear response parameters" >
   <i type="logical" name="LEPSILON"> F  </i>
   <i type="logical" name="LRPA"> F  </i>
   <i type="logical" name="LNABLA"> F  </i>
   <i type="logical" name="LVEL"> F  </i>
   <i type="int" name="KINTER">     0</i>
   <i name="CSHIFT">      0.10000000</i>
   <i name="OMEGAMAX">     -1.00000000</i>
   <i name="DEG_THRESHOLD">      0.00200000</i>
   <i name="RTIME">     -0.10000000</i>
   <i name="WPLASMAI">      0.00000000</i>
   <v name="DFIELD">      0.00000000      0.00000000      0.00000000</v>
   <v name="WPLASMA">      0.00000000      0.00000000      0.00000000      0.00000000      0.00000000      0.00000000      0.00000000      0.00000000      0.00000000</v>
  </separator>
  <separator name="orbital magnetization" >
   <i type="logical" name="NUCIND"> F  </i>
   <v name="MAGPOS">      0.00000000      0.00000000      0.00000000</v>
   <i type="logical" name="LNICSALL"> T  </i>
   <i type="logical" name="ORBITALMAG"> F  </i>
   <i type="logical" name="LMAGBLOCH"> F  </i>
   <i type="logical" name="LCHIMAG"> F  </i>
   <i type="logical" name="LGAUGE"> T  </i>
   <i type="int" name="MAGATOM">     0</i>
   <v name="MAGDIPOL">      0.00000000      0.00000000      0.00000000</v>
   <v name="AVECCONST">      0.00000000      0.00000000      0.00000000</v>
  </separator>
  <separator name="response functions" >
   <i type="logical" name="LFINITE_TEMPERATURE"> F  </i>
   <i type="logical" name="LADDER"> F  </i>
   <i type="logical" name="LRPAFORCE"> F  </i>
   <i type="logical" name="LFXC"> F  </i>
   <i type="logical" name="LHARTREE"> T  </i>
   <i type="int" name="IBSE">     0</i>
   <v type="int" name="KPOINT">    -1     0     0     0</v>
   <i type="logical" name="LTCTC"> F  </i>
   <i type="logical" name="LTCTE"> F  </i>
   <i type="logical" name="LTETE"> F  </i>
   <i type="logical" name="LTRIPLET"> F  </i>
   <i type="logical" name="LFXCEPS"> F  </i>
   <i type="logical" name="LFXHEG"> F  </i>
   <i type="int" name="NATURALO">     2</i>
   <i type="logical" name="LHOLEGF"> F  </i>
   <i type="logical" name="L2ORDER"> F  </i>
   <i type="logical" name="LDMP1"> F  </i>
   <i type="logical" name="LMP2LT"> F  </i>
   <i type="logical" name="LSMP2LT"> F  </i>
   <i type="logical" name="LGWLF"> F  </i>
   <i name="ENCUTGW">     -2.00000000</i>
   <i name="ENCUTGWSOFT">     -2.00000000</i>
   <i name="ENCUTLF">     -1.00000000</i>
   <i type="logical" name="LESF_SPLINES"> F  </i>
   <i type="int" name="LMAXMP2">    -1</i>
   <i name="SCISSOR">      0.00000000</i>
   <i type="int" name="NOMEGA">     0</i>
   <i type="int" name="NOMEGAR">     0</i>
   <i type="int" name="NBANDSGW">    -1</i>
   <i type="int" name="NBANDSO">    -1</i>
   <i type="int" name="NBANDSV">    -1</i>
   <i type="int" name="NELM">   100</i>
   <i type="int" name="NELMHF">     1</i>
   <i type="int" name="DIM">     3</i>
   <i type="int" name="IESPILON">     4</i>
   <i type="int" name="ANTIRES">     0</i>
   <i name="OMEGAMAX">    -30.00000000</i>
   <i name="OMEGAMIN">    -30.00000000</i>
   <i name="OMEGATL">   -200.00000000</i>
   <i type="int" name="OMEGAGRID">     0</i>
   <i name="CSHIFT">     -0.10000000</i>
   <i type="logical" name="LSELFENERGY"> F  </i>
   <i type="logical" name="LSPECTRAL"> F  </i>
   <i type="logical" name="LSPECTRALGW"> F  </i>
   <i type="logical" name="LSINGLES"> F  </i>
   <i type="logical" name="LFERMIGW"> F  </i>
   <i type="logical" name="ODDONLYGW"> F  </i>
   <i type="logical" name="EVENONLYGW"> F  </i>
   <i type="int" name="NKREDLFX">     1</i>
   <i type="int" name="NKREDLFY">     1</i>
   <i type="int" name="NKREDLFZ">     1</i>
   <i type="int" name="MAXMEM">  2800</i>
   <i type="int" name="TELESCOPE">     0</i>
   <i type="int" name="NTAUPAR">    -1</i>
   <i type="int" name="NOMEGAPAR">    -1</i>
   <i name="LAMBDA">      1.00000000</i>
  </separator>
  <separator name="External order field" >
   <i name="OFIELD_KAPPA">      0.00000000</i>
   <v name="OFIELD_K">      0.00000000      0.00000000      0.00000000</v>
   <i name="OFIELD_Q6_NEAR">      0.00000000</i>
   <i name="OFIELD_Q6_FAR">      0.00000000</i>
   <i name="OFIELD_A">      0.00000000</i>
  </separator>
 </parameters>
 <atominfo>
  <atoms>      74 </atoms>
  <types>       2 </types>
  <array name="atoms" >
   <dimension dim="1">ion</dimension>
   <field type="string">element</field>
   <field type="int">atomtype</field>
   <set>
    <rc><c>Ni</c><c>   1</c></rc>
    <rc><c>Ni</c><c>   1</c></rc>
    <rc><c>Ni</c><c>   1</c></rc>
    <rc><c>Ni</c><c>   1</c></rc>
    <rc><c>Ni</c><c>   1</c></rc>
    <rc><c>Ni</c><c>   1</c></rc>
    <rc><c>Ni</c><c>   1</c></rc>
    <rc><c>Ni</c><c>   1</c></rc>
    <rc><c>Ni</c><c>   1</c></rc>
    <rc><c>Ni</c><c>   1</c></rc>
    <rc><c>Ni</c><c>   1</c></rc>
    <rc><c>Ni</c><c>   1</c></rc>
    <rc><c>Ni</c><c>   1</c></rc>
    <rc><c>Ni</c><c>   1</c></rc>
    <rc><c>Ni</c><c>   1</c></rc>
    <rc><c>Ni</c><c>   1</c></rc>
    <rc><c>Ni</c><c>   1</c></rc>
    <rc><c>Ni</c><c>   1</c></rc>
    <rc><c>Ni</c><c>   1</c></rc>
    <rc><c>Ni</c><c>   1</c></rc>
    <rc><c>Ni</c><c>   1</c></rc>
    <rc><c>Ni</c><c>   1</c></rc>
    <rc><c>Ni</c><c>   1</c></rc>
    <rc><c>Ni</c><c>   1</c></rc>
    <rc><c>Ni</c><c>   1</c></rc>
    <rc><c>Ni</c><c>   1</c></rc>
    <rc><c>Ni</c><c>   1</c></rc>
    <rc><c>Ni</c><c>   1</c></rc>
    <rc><c>Ni</c><c>   1</c></rc>
    <rc><c>Ni</c><c>   1</c></rc>
    <rc><c>Ni</c><c>   1</c></rc>
    <rc><c>Ni</c><c>   1</c></rc>
    <rc><c>Ni</c><c>   1</c></rc>
    <rc><c>Ni</c><c>   1</c></rc>
    <rc><c>Ni</c><c>   1</c></rc>
    <rc><c>Ni</c><c>   1</c></rc>
    <rc><c>Ni</c><c>   1</c></rc>
    <rc><c>S </c><c>   2</c></rc>
    <rc><c>S </c><c>   2</c></rc>
    <rc><c>S </c><c>   2</c></rc>
    <rc><c>S </c><c>   2</c></rc>
    <rc><c>S </c><c>   2</c></rc>
    <rc><c>S </c><c>   2</c></rc>
    <rc><c>S </c><c>   2</c></rc>
    <rc><c>S </c><c>   2</c></rc>
    <rc><c>S </c><c>   2</c></rc>
    <rc><c>S </c><c>   2</c></rc>
    <rc><c>S </c><c>   2</c></rc>
    <rc><c>S </c><c>   2</c></rc>
    <rc><c>S </c><c>   2</c></rc>
    <rc><c>S </c><c>   2</c></rc>
    <rc><c>S </c><c>   2</c></rc>
    <rc><c>S </c><c>   2</c></rc>
    <rc><c>S </c><c>   2</c></rc>
    <rc><c>S </c><c>   2</c></rc>
    <rc><c>S </c><c>   2</c></rc>
    <rc><c>S </c><c>   2</c></rc>
    <rc><c>S </c><c>   2</c></rc>
    <rc><c>S </c><c>   2</c></rc>
    <rc><c>S </c><c>   2</c></rc>
    <rc><c>S </c><c>   2</c></rc>
    <rc><c>S </c><c>   2</c></rc>
    <rc><c>S </c><c>   2</c></rc>
    <rc><c>S </c><c>   2</c></rc>
    <rc><c>S </c><c>   2</c></rc>
    <rc><c>S </c><c>   2</c></rc>
    <rc><c>S </c><c>   2</c></rc>
    <rc><c>S </c><c>   2</c></rc>
    <rc><c>S </c><c>   2</c></rc>
    <rc><c>S </c><c>   2</c></rc>
    <rc><c>S </c><c>   2</c></rc>
    <rc><c>S </c><c>   2</c></rc>
    <rc><c>S </c><c>   2</c></rc>
    <rc><c>S </c><c>   2</c></rc>
   </set>
  </array>
  <array name="atomtypes" >
   <dimension dim="1">type</dimension>
   <field type="int">atomspertype</field>
   <field type="string">element</field>
   <field>mass</field>
   <field>valence</field>
   <field type="string">pseudopotential</field>
   <set>
    <rc><c>  37</c><c>Ni</c><c>     58.69000000</c><c>     16.00000000</c><c>  PAW_PBE Ni_pv 06Sep2000               </c></rc>
    <rc><c>  37</c><c>S </c><c>     32.06600000</c><c>      6.00000000</c><c>  PAW_PBE S 06Sep2000                   </c></rc>
   </set>
  </array>
 </atominfo>
 <structure name="initialpos" >
  <crystal>
   <varray name="basis" >
    <v>      16.88469405       0.00000000       0.00000000 </v>
    <v>       0.00000000       9.57841000       0.00000000 </v>
    <v>       0.00000000       0.00000000      16.65464569 </v>
   </varray>
   <i name="volume">   2693.53123734 </i>
   <varray name="rec_basis" >
    <v>       0.05922524       0.00000000       0.00000000 </v>
    <v>       0.00000000       0.10440146       0.00000000 </v>
    <v>       0.00000000       0.00000000       0.06004331 </v>
   </varray>
  </crystal>
  <varray name="positions" >
   <v>       0.78004630       0.14529696       0.12347080 </v>
   <v>       0.81461426       0.14529696       0.30867699 </v>
   <v>       0.26276233       0.64529696       0.03086770 </v>
   <v>       0.29733028       0.64529696       0.21607389 </v>
   <v>       0.43519032       0.14529696       0.06173540 </v>
   <v>       0.46975828       0.14529696       0.24694159 </v>
   <v>       0.95247430       0.64529696       0.15433850 </v>
   <v>       0.98704225       0.64529696       0.33954469 </v>
   <v>       0.09033433       0.14529696       0.00000000 </v>
   <v>       0.12490229       0.14529696       0.18520619 </v>
   <v>       0.15947025       0.14529696       0.37041239 </v>
   <v>       0.60761831       0.64529696       0.09260310 </v>
   <v>       0.64218627       0.64529696       0.27780929 </v>
   <v>       0.94215073       0.01319396       0.28421070 </v>
   <v>       0.39029880       0.51319396       0.00640140 </v>
   <v>       0.42486675       0.51319396       0.19160760 </v>
   <v>       0.45943471       0.51319396       0.37681380 </v>
   <v>       0.56272679       0.01319396       0.03726910 </v>
   <v>       0.59729475       0.01319396       0.22247530 </v>
   <v>       0.08001077       0.51319396       0.12987220 </v>
   <v>       0.11457872       0.51319396       0.31507840 </v>
   <v>       0.25243876       0.01319396       0.16073990 </v>
   <v>       0.28700672       0.01319396       0.34594610 </v>
   <v>       0.73515478       0.51319396       0.06813680 </v>
   <v>       0.76972274       0.51319396       0.25334300 </v>
   <v>       0.90758277       0.27739996       0.09900450 </v>
   <v>       0.94215073       0.27739996       0.28421070 </v>
   <v>       0.39029880       0.77739996       0.00640140 </v>
   <v>       0.42486675       0.77739996       0.19160760 </v>
   <v>       0.45943471       0.77739996       0.37681380 </v>
   <v>       0.56272679       0.27739996       0.03726910 </v>
   <v>       0.59729475       0.27739996       0.22247530 </v>
   <v>       0.08001077       0.77739996       0.12987220 </v>
   <v>       0.25243876       0.27739996       0.16073990 </v>
   <v>       0.28700672       0.27739996       0.34594610 </v>
   <v>       0.73515478       0.77739996       0.06813680 </v>
   <v>       0.76972274       0.77739996       0.25334300 </v>
   <v>       0.02602916       0.14529696       0.36869923 </v>
   <v>       0.99146120       0.14529696       0.18349304 </v>
   <v>       0.47417722       0.64529696       0.09088994 </v>
   <v>       0.50874518       0.64529696       0.27609614 </v>
   <v>       0.64660522       0.14529696       0.12175764 </v>
   <v>       0.68117317       0.14529696       0.30696383 </v>
   <v>       0.12932124       0.64529696       0.02915454 </v>
   <v>       0.16388920       0.64529696       0.21436074 </v>
   <v>       0.19845715       0.64529696       0.39956693 </v>
   <v>       0.30174923       0.14529696       0.06002224 </v>
   <v>       0.33631719       0.14529696       0.24522844 </v>
   <v>       0.81903321       0.64529696       0.15262534 </v>
   <v>       0.85360117       0.64529696       0.33783153 </v>
   <v>       0.79449310       0.31351196       0.02944130 </v>
   <v>       0.82906105       0.31351196       0.21464750 </v>
   <v>       0.31177707       0.81351196       0.12204440 </v>
   <v>       0.34634503       0.81351196       0.30725060 </v>
   <v>       0.48420507       0.31351196       0.15291210 </v>
   <v>       0.51877302       0.31351196       0.33811830 </v>
   <v>       0.00148905       0.81351196       0.24551520 </v>
   <v>       0.96692109       0.81351196       0.06030900 </v>
   <v>       0.13934908       0.31351196       0.09117670 </v>
   <v>       0.17391704       0.31351196       0.27638290 </v>
   <v>       0.65663306       0.81351196       0.18377980 </v>
   <v>       0.69120102       0.81351196       0.36898599 </v>
   <v>       0.31177707       0.47708196       0.12204440 </v>
   <v>       0.34634503       0.47708196       0.30725060 </v>
   <v>       0.79449310       0.97708196       0.02944130 </v>
   <v>       0.82906105       0.97708196       0.21464750 </v>
   <v>       0.00148905       0.47708196       0.24551520 </v>
   <v>       0.96692109       0.47708196       0.06030900 </v>
   <v>       0.48420507       0.97708196       0.15291210 </v>
   <v>       0.51877302       0.97708196       0.33811830 </v>
   <v>       0.65663306       0.47708196       0.18377980 </v>
   <v>       0.69120102       0.47708196       0.36898599 </v>
   <v>       0.13934908       0.97708196       0.09117670 </v>
   <v>       0.17391704       0.97708196       0.27638290 </v>
  </varray>
 </structure>
 <calculation>
  <scstep>
   <time name="dav">    2.83    2.84</time>
   <time name="total">    2.89    2.90</time>
   <energy>
    <i name="alphaZ">   1458.83996183 </i>
    <i name="ewald"> 113349.01094418 </i>
    <i name="hartreedc">-237579.18762638 </i>
    <i name="XCdc">   3738.24677793 </i>
    <i name="pawpsdc"> 115860.90926010 </i>
    <i name="pawaedc">-120909.33166199 </i>
    <i name="eentropy">     -0.53980539 </i>
    <i name="bandstr">  -6892.22788152 </i>
    <i name="atom"> 139780.45519414 </i>
    <i name="e_fr_energy">   8806.17516292 </i>
    <i name="e_wo_entrp">   8806.71496830 </i>
    <i name="e_0_energy">   8806.44506561 </i>
   </energy>
  </scstep>
  <scstep>
   <time name="dav">    2.46    2.47</time>
   <time name="total">    2.46    2.47</time>
   <energy>
    <i name="e_fr_energy">    495.65854076 </i>
    <i name="e_wo_entrp">    496.69342682 </i>
    <i name="e_0_energy">    496.17598379 </i>
   </energy>
  </scstep>
  <scstep>
   <time name="dav">    2.72    2.73</time>
   <time name="total">    2.72    2.73</time>
   <energy>
    <i name="e_fr_energy">   -354.51691356 </i>
    <i name="e_wo_entrp">   -352.77612414 </i>
    <i name="e_0_energy">   -353.64651885 </i>
   </energy>
  </scstep>
  <scstep>
   <time name="dav">    2.69    2.70</time>
   <time name="total">    2.69    2.70</time>
   <energy>
    <i name="e_fr_energy">   -404.05063146 </i>
    <i name="e_wo_entrp">   -402.23084245 </i>
    <i name="e_0_energy">   -403.14073696 </i>
   </energy>
  </scstep>
  <scstep>
   <time name="dav">    2.84    2.85</time>
   <time name="total">    2.90    2.91</time>
   <energy>
    <i name="e_fr_energy">   -405.67611931 </i>
    <i name="e_wo_entrp">   -403.85447159 </i>
    <i name="e_0_energy">   -404.76529545 </i>
   </energy>
  </scstep>
  <scstep>
   <time name="dav">    2.75    2.76</time>
   <time name="total">    2.88    2.89</time>
   <energy>
    <i name="e_fr_energy">   -534.84464038 </i>
    <i name="e_wo_entrp">   -533.85715376 </i>
    <i name="e_0_energy">   -534.35089707 </i>
   </energy>
  </scstep>
  <scstep>
   <time name="dav">    2.85    2.85</time>
   <time name="total">    2.97    2.98</time>
   <energy>
    <i name="e_fr_energy">   -384.12951076 </i>
    <i name="e_wo_entrp">   -382.79071205 </i>
    <i name="e_0_energy">   -383.46011140 </i>
   </energy>
  </scstep>
  <scstep>
   <time name="dav">    3.24    3.25</time>
   <time name="total">    3.37    3.38</time>
   <energy>
    <i name="e_fr_energy">   -387.25716713 </i>
    <i name="e_wo_entrp">   -385.36101571 </i>
    <i name="e_0_energy">   -386.30909142 </i>
   </energy>
  </scstep>
  <scstep>
   <time name="dav">    3.04    3.05</time>
   <time name="total">    3.17    3.17</time>
   <energy>
    <i name="e_fr_energy">   -367.07264354 </i>
    <i name="e_wo_entrp">   -365.43450810 </i>
    <i name="e_0_energy">   -366.25357582 </i>
   </energy>
  </scstep>
  <scstep>
   <time name="dav">    3.26    3.27</time>
   <time name="total">    3.39    3.40</time>
   <energy>
    <i name="e_fr_energy">   -377.04275429 </i>
    <i name="e_wo_entrp">   -375.43788675 </i>
    <i name="e_0_energy">   -376.24032052 </i>
   </energy>
  </scstep>
  <scstep>
   <time name="dav">    3.16    3.17</time>
   <time name="total">    3.29    3.30</time>
   <energy>
    <i name="e_fr_energy">   -370.19496785 </i>
    <i name="e_wo_entrp">   -368.69458252 </i>
    <i name="e_0_energy">   -369.44477518 </i>
   </energy>
  </scstep>
  <scstep>
   <time name="dav">    3.16    3.17</time>
   <time name="total">    3.29    3.29</time>
   <energy>
    <i name="e_fr_energy">   -359.76527086 </i>
    <i name="e_wo_entrp">   -358.49483217 </i>
    <i name="e_0_energy">   -359.13005151 </i>
   </energy>
  </scstep>
  <scstep>
   <time name="dav">    3.07    3.08</time>
   <time name="total">    3.20    3.20</time>
   <energy>
    <i name="e_fr_energy">   -356.68931197 </i>
    <i name="e_wo_entrp">   -355.46530207 </i>
    <i name="e_0_energy">   -356.07730702 </i>
   </energy>
  </scstep>
  <scstep>
   <time name="dav">    3.16    3.17</time>
   <time name="total">    3.29    3.29</time>
   <energy>
    <i name="e_fr_energy">   -355.39362834 </i>
    <i name="e_wo_entrp">   -354.12430416 </i>
    <i name="e_0_energy">   -354.75896625 </i>
   </energy>
  </scstep>
  <scstep>
   <time name="dav">    3.10    3.11</time>
   <time name="total">    3.22    3.23</time>
   <energy>
    <i name="e_fr_energy">   -353.01295474 </i>
    <i name="e_wo_entrp">   -351.74453415 </i>
    <i name="e_0_energy">   -352.37874444 </i>
   </energy>
  </scstep>
  <scstep>
   <time name="dav">    3.05    3.05</time>
   <time name="total">    3.17    3.18</time>
   <energy>
    <i name="e_fr_energy">   -352.18785248 </i>
    <i name="e_wo_entrp">   -350.84803160 </i>
    <i name="e_0_energy">   -351.51794204 </i>
   </energy>
  </scstep>
  <scstep>
   <time name="dav">    3.11    3.12</time>
   <time name="total">    3.23    3.24</time>
   <energy>
    <i name="e_fr_energy">   -351.57863754 </i>
    <i name="e_wo_entrp">   -350.23727353 </i>
    <i name="e_0_energy">   -350.90795553 </i>
   </energy>
  </scstep>
  <scstep>
   <time name="dav">    3.02    3.02</time>
   <time name="total">    3.14    3.15</time>
   <energy>
    <i name="e_fr_energy">   -350.53656107 </i>
    <i name="e_wo_entrp">   -349.16054129 </i>
    <i name="e_0_energy">   -349.84855118 </i>
   </energy>
  </scstep>
  <scstep>
   <time name="dav">    3.08    3.08</time>
   <time name="total">    3.20    3.21</time>
   <energy>
    <i name="e_fr_energy">   -350.16704452 </i>
    <i name="e_wo_entrp">   -348.81956017 </i>
    <i name="e_0_energy">   -349.49330235 </i>
   </energy>
  </scstep>
  <scstep>
   <time name="dav">    3.07    3.08</time>
   <time name="total">    3.20    3.21</time>
   <energy>
    <i name="e_fr_energy">   -349.93397907 </i>
    <i name="e_wo_entrp">   -348.53321974 </i>
    <i name="e_0_energy">   -349.23359941 </i>
   </energy>
  </scstep>
  <scstep>
   <time name="dav">    2.95    2.96</time>
   <time name="total">    3.08    3.09</time>
   <energy>
    <i name="e_fr_energy">   -349.75217563 </i>
    <i name="e_wo_entrp">   -348.35163629 </i>
    <i name="e_0_energy">   -349.05190596 </i>
   </energy>
  </scstep>
  <scstep>
   <time name="dav">    3.04    3.05</time>
   <time name="total">    3.17    3.17</time>
   <energy>
    <i name="e_fr_energy">   -349.63152955 </i>
    <i name="e_wo_entrp">   -348.17306391 </i>
    <i name="e_0_energy">   -348.90229673 </i>
   </energy>
  </scstep>
  <scstep>
   <time name="dav">    3.01    3.02</time>
   <time name="total">    3.14    3.15</time>
   <energy>
    <i name="e_fr_energy">   -349.59303223 </i>
    <i name="e_wo_entrp">   -348.11478943 </i>
    <i name="e_0_energy">   -348.85391083 </i>
   </energy>
  </scstep>
  <scstep>
   <time name="dav">    2.94    2.95</time>
   <time name="total">    3.07    3.07</time>
   <energy>
    <i name="e_fr_energy">   -349.47126023 </i>
    <i name="e_wo_entrp">   -348.01187527 </i>
    <i name="e_0_energy">   -348.74156775 </i>
   </energy>
  </scstep>
  <scstep>
   <time name="dav">    2.91    2.91</time>
   <time name="total">    3.03    3.04</time>
   <energy>
    <i name="e_fr_energy">   -349.54201048 </i>
    <i name="e_wo_entrp">   -348.01354154 </i>
    <i name="e_0_energy">   -348.77777601 </i>
   </energy>
  </scstep>
  <scstep>
   <time name="dav">    3.04    3.05</time>
   <time name="total">    3.17    3.18</time>
   <energy>
    <i name="e_fr_energy">   -349.44624707 </i>
    <i name="e_wo_entrp">   -347.93777013 </i>
    <i name="e_0_energy">   -348.69200860 </i>
   </energy>
  </scstep>
  <scstep>
   <time name="dav">    2.89    2.90</time>
   <time name="total">    3.02    3.03</time>
   <energy>
    <i name="e_fr_energy">   -349.44816419 </i>
    <i name="e_wo_entrp">   -347.90858961 </i>
    <i name="e_0_energy">   -348.67837690 </i>
   </energy>
  </scstep>
  <scstep>
   <time name="dav">    3.03    3.04</time>
   <time name="total">    3.16    3.17</time>
   <energy>
    <i name="e_fr_energy">   -349.42848000 </i>
    <i name="e_wo_entrp">   -347.90728557 </i>
    <i name="e_0_energy">   -348.66788278 </i>
   </energy>
  </scstep>
  <scstep>
   <time name="dav">    2.92    2.92</time>
   <time name="total">    3.04    3.06</time>
   <energy>
    <i name="e_fr_energy">   -349.42209253 </i>
    <i name="e_wo_entrp">   -347.89594039 </i>
    <i name="e_0_energy">   -348.65901646 </i>
   </energy>
  </scstep>
  <scstep>
   <time name="dav">    2.97    2.97</time>
   <time name="total">    3.09    3.10</time>
   <energy>
    <i name="e_fr_energy">   -349.42004964 </i>
    <i name="e_wo_entrp">   -347.90054376 </i>
    <i name="e_0_energy">   -348.66029670 </i>
   </energy>
  </scstep>
  <scstep>
   <time name="dav">    2.97    2.98</time>
   <time name="total">    3.10    3.10</time>
   <energy>
    <i name="e_fr_energy">   -349.40366873 </i>
    <i name="e_wo_entrp">   -347.88683516 </i>
    <i name="e_0_energy">   -348.64525195 </i>
   </energy>
  </scstep>
  <scstep>
   <time name="dav">    2.97    2.98</time>
   <time name="total">    3.10    3.10</time>
   <energy>
    <i name="e_fr_energy">   -349.40024515 </i>
    <i name="e_wo_entrp">   -347.88863958 </i>
    <i name="e_0_energy">   -348.64444237 </i>
   </energy>
  </scstep>
  <scstep>
   <time name="dav">    2.98    2.99</time>
   <time name="total">    3.11    3.12</time>
   <energy>
    <i name="e_fr_energy">   -349.39475921 </i>
    <i name="e_wo_entrp">   -347.89595847 </i>
    <i name="e_0_energy">   -348.64535884 </i>
   </energy>
  </scstep>
  <scstep>
   <time name="dav">    2.93    2.93</time>
   <time name="total">    3.06    3.06</time>
   <energy>
    <i name="e_fr_energy">   -349.39447649 </i>
    <i name="e_wo_entrp">   -347.89627363 </i>
    <i name="e_0_energy">   -348.64537506 </i>
   </energy>
  </scstep>
  <scstep>
   <time name="dav">    2.77    2.77</time>
   <time name="total">    2.90    2.90</time>
   <energy>
    <i name="e_fr_energy">   -349.39365787 </i>
    <i name="e_wo_entrp">   -347.89476432 </i>
    <i name="e_0_energy">   -348.64421109 </i>
   </energy>
  </scstep>
  <scstep>
   <time name="dav">    2.73    2.73</time>
   <time name="total">    2.86    2.86</time>
   <energy>
    <i name="e_fr_energy">   -349.39322288 </i>
    <i name="e_wo_entrp">   -347.89829796 </i>
    <i name="e_0_energy">   -348.64576042 </i>
   </energy>
  </scstep>
  <scstep>
   <time name="dav">    3.00    3.01</time>
   <time name="total">    3.13    3.14</time>
   <energy>
    <i name="e_fr_energy">   -349.39372495 </i>
    <i name="e_wo_entrp">   -347.90632344 </i>
    <i name="e_0_energy">   -348.65002420 </i>
   </energy>
  </scstep>
  <scstep>
   <time name="dav">    2.64    2.65</time>
   <time name="total">    2.77    2.78</time>
   <energy>
    <i name="e_fr_energy">   -349.39395802 </i>
    <i name="e_wo_entrp">   -347.90655436 </i>
    <i name="e_0_energy">   -348.65025619 </i>
   </energy>
  </scstep>
  <scstep>
   <time name="dav">    2.23    2.23</time>
   <time name="total">    2.36    2.36</time>
   <energy>
    <i name="e_fr_energy">   -349.39414783 </i>
    <i name="e_wo_entrp">   -347.90631481 </i>
    <i name="e_0_energy">   -348.65023132 </i>
   </energy>
  </scstep>
  <scstep>
   <time name="dav">    1.92    1.92</time>
   <time name="total">    1.98    1.99</time>
   <energy>
    <i name="alphaZ">   1458.83996183 </i>
    <i name="ewald"> 113349.01094418 </i>
    <i name="hartreedc">-236906.02693483 </i>
    <i name="XCdc">   3709.84425795 </i>
    <i name="pawpsdc"> 131899.08116306 </i>
    <i name="pawaedc">-137002.92728374 </i>
    <i name="eentropy">     -1.48857676 </i>
    <i name="bandstr"> -16636.18292484 </i>
    <i name="atom"> 139780.45519414 </i>
    <i name="e_fr_energy">   -349.39419900 </i>
    <i name="e_wo_entrp">   -347.90562224 </i>
    <i name="e_0_energy">   -348.64991062 </i>
   </energy>
  </scstep>
  <structure>
   <crystal>
    <varray name="basis" >
     <v>      16.88469405       0.00000000       0.00000000 </v>
     <v>       0.00000000       9.57841000       0.00000000 </v>
     <v>       0.00000000       0.00000000      16.65464569 </v>
    </varray>
    <i name="volume">   2693.53123734 </i>
    <varray name="rec_basis" >
     <v>       0.05922524       0.00000000       0.00000000 </v>
     <v>       0.00000000       0.10440146       0.00000000 </v>
     <v>       0.00000000       0.00000000       0.06004331 </v>
    </varray>
   </crystal>
   <varray name="positions" >
    <v>       0.78004630       0.14529696       0.12347080 </v>
    <v>       0.81461426       0.14529696       0.30867699 </v>
    <v>       0.26276233       0.64529696       0.03086770 </v>
    <v>       0.29733028       0.64529696       0.21607389 </v>
    <v>       0.43519032       0.14529696       0.06173540 </v>
    <v>       0.46975828       0.14529696       0.24694159 </v>
    <v>       0.95247430       0.64529696       0.15433850 </v>
    <v>       0.98704225       0.64529696       0.33954469 </v>
    <v>       0.09033433       0.14529696       0.00000000 </v>
    <v>       0.12490229       0.14529696       0.18520619 </v>
    <v>       0.15947025       0.14529696       0.37041239 </v>
    <v>       0.60761831       0.64529696       0.09260310 </v>
    <v>       0.64218627       0.64529696       0.27780929 </v>
    <v>       0.94215073       0.01319396       0.28421070 </v>
    <v>       0.39029880       0.51319396       0.00640140 </v>
    <v>       0.42486675       0.51319396       0.19160760 </v>
    <v>       0.45943471       0.51319396       0.37681380 </v>
    <v>       0.56272679       0.01319396       0.03726910 </v>
    <v>       0.59729475       0.01319396       0.22247530 </v>
    <v>       0.08001077       0.51319396       0.12987220 </v>
    <v>       0.11457872       0.51319396       0.31507840 </v>
    <v>       0.25243876       0.01319396       0.16073990 </v>
    <v>       0.28700672       0.01319396       0.34594610 </v>
    <v>       0.73515478       0.51319396       0.06813680 </v>
    <v>       0.76972274       0.51319396       0.25334300 </v>
    <v>       0.90758277       0.27739996       0.09900450 </v>
    <v>       0.94215073       0.27739996       0.28421070 </v>
    <v>       0.39029880       0.77739996       0.00640140 </v>
    <v>       0.42486675       0.77739996       0.19160760 </v>
    <v>       0.45943471       0.77739996       0.37681380 </v>
    <v>       0.56272679       0.27739996       0.03726910 </v>
    <v>       0.59729475       0.27739996       0.22247530 </v>
    <v>       0.08001077       0.77739996       0.12987220 </v>
    <v>       0.25243876       0.27739996       0.16073990 </v>
    <v>       0.28700672       0.27739996       0.34594610 </v>
    <v>       0.73515478       0.77739996       0.06813680 </v>
    <v>       0.76972274       0.77739996       0.25334300 </v>
    <v>       0.02602916       0.14529696       0.36869923 </v>
    <v>       0.99146120       0.14529696       0.18349304 </v>
    <v>       0.47417722       0.64529696       0.09088994 </v>
    <v>       0.50874518       0.64529696       0.27609614 </v>
    <v>       0.64660522       0.14529696       0.12175764 </v>
    <v>       0.68117317       0.14529696       0.30696383 </v>
    <v>       0.12932124       0.64529696       0.02915454 </v>
    <v>       0.16388920       0.64529696       0.21436074 </v>
    <v>       0.19845715       0.64529696       0.39956693 </v>
    <v>       0.30174923       0.14529696       0.06002224 </v>
    <v>       0.33631719       0.14529696       0.24522844 </v>
    <v>       0.81903321       0.64529696       0.15262534 </v>
    <v>       0.85360117       0.64529696       0.33783153 </v>
    <v>       0.79449310       0.31351196       0.02944130 </v>
    <v>       0.82906105       0.31351196       0.21464750 </v>
    <v>       0.31177707       0.81351196       0.12204440 </v>
    <v>       0.34634503       0.81351196       0.30725060 </v>
    <v>       0.48420507       0.31351196       0.15291210 </v>
    <v>       0.51877302       0.31351196       0.33811830 </v>
    <v>       0.00148905       0.81351196       0.24551520 </v>
    <v>       0.96692109       0.81351196       0.06030900 </v>
    <v>       0.13934908       0.31351196       0.09117670 </v>
    <v>       0.17391704       0.31351196       0.27638290 </v>
    <v>       0.65663306       0.81351196       0.18377980 </v>
    <v>       0.69120102       0.81351196       0.36898599 </v>
    <v>       0.31177707       0.47708196       0.12204440 </v>
    <v>       0.34634503       0.47708196       0.30725060 </v>
    <v>       0.79449310       0.97708196       0.02944130 </v>
    <v>       0.82906105       0.97708196       0.21464750 </v>
    <v>       0.00148905       0.47708196       0.24551520 </v>
    <v>       0.96692109       0.47708196       0.06030900 </v>
    <v>       0.48420507       0.97708196       0.15291210 </v>
    <v>       0.51877302       0.97708196       0.33811830 </v>
    <v>       0.65663306       0.47708196       0.18377980 </v>
    <v>       0.69120102       0.47708196       0.36898599 </v>
    <v>       0.13934908       0.97708196       0.09117670 </v>
    <v>       0.17391704       0.97708196       0.27638290 </v>
   </varray>
  </structure>
  <varray name="forces" >
   <v>       0.67641628      -0.33669636      -0.31655357 </v>
   <v>      -1.04890676      -0.18177321      -1.64032074 </v>
   <v>      -0.33808037       0.01050112       1.15074661 </v>
   <v>       0.02293794      -0.03328304       0.14235206 </v>
   <v>      -0.31530408       0.00753341       0.84089725 </v>
   <v>      -0.22450019       0.00939152       0.19775452 </v>
   <v>      -0.10158354       0.38773075      -0.23633586 </v>
   <v>      -0.91376642       0.16848418      -1.57051852 </v>
   <v>       0.86860139       0.04985070       2.19974533 </v>
   <v>      -0.04003653       0.08847278       0.25990549 </v>
   <v>      -0.61412409      -0.02544077      -1.65343286 </v>
   <v>       0.09870568       0.00304355       0.82327414 </v>
   <v>       0.08344200       0.02311325       0.64501537 </v>
   <v>       0.61802694       0.29788699      -0.78733687 </v>
   <v>      -0.02227258       0.63964006       1.71032467 </v>
   <v>      -0.14187552      -0.25561486       0.04281150 </v>
   <v>      -0.19978699      -0.41797248      -2.02176814 </v>
   <v>      -0.19111492       0.50912595       1.61060132 </v>
   <v>       0.10104834       0.00629466       0.16477637 </v>
   <v>       0.24252325      -0.03976549      -0.37703130 </v>
   <v>       1.40458722       1.13787057      -0.00769142 </v>
   <v>       0.19902530       0.10038227      -0.07143463 </v>
   <v>      -0.21014980      -0.21419093      -1.61775970 </v>
   <v>       0.18488749      -0.35909773       0.88610659 </v>
   <v>       0.24560197      -0.00820925       0.35117105 </v>
   <v>      -0.24062474       0.66541739       0.47825515 </v>
   <v>       0.83103415      -0.56551414      -0.59822646 </v>
   <v>       0.00885359      -0.63453067       1.70389794 </v>
   <v>      -0.17441611       0.25090825       0.08240690 </v>
   <v>      -0.20922888       0.41314801      -2.03075639 </v>
   <v>      -0.25458245      -0.51145739       1.62021836 </v>
   <v>       0.11167793      -0.02659455       0.19503868 </v>
   <v>      -0.00291761       0.20580241      -0.11024772 </v>
   <v>       0.34346527       0.03081483      -0.25953785 </v>
   <v>      -0.11406717       0.16888493      -1.52783694 </v>
   <v>       0.41608367       0.64893350       0.76023867 </v>
   <v>       0.22389052       0.15261674       0.45955530 </v>
   <v>      -1.04997572      -0.07423162      -0.07730157 </v>
   <v>      -0.08893655       0.50636111      -0.28938797 </v>
   <v>       0.39586392       0.00602268      -1.59476461 </v>
   <v>      -0.11129585       0.01534599       1.28968187 </v>
   <v>      -0.53008009      -0.01815365      -0.97622037 </v>
   <v>       0.23507053      -0.01054378       0.31602818 </v>
   <v>       1.13090442       0.11609712       0.28955371 </v>
   <v>      -0.22566116      -0.32008234       0.24172514 </v>
   <v>      -1.65186508      -1.17042483      -1.19224909 </v>
   <v>       1.31185429      -0.01252022      -0.06221873 </v>
   <v>       0.08383726       0.03445877       1.16279635 </v>
   <v>      -0.59315029      -0.01178432      -0.67098734 </v>
   <v>      -0.01876695       0.05355140       0.05947246 </v>
   <v>       0.15767348       0.45628158       0.49570619 </v>
   <v>       0.19214577      -0.54666364       0.97385240 </v>
   <v>      -0.10677903      -0.15329317      -1.10052722 </v>
   <v>       0.39843789       0.01881000       0.80832834 </v>
   <v>       0.04641048      -0.25048602      -0.89016724 </v>
   <v>      -0.01361904      -0.25097193       0.07106663 </v>
   <v>      -0.27377038      -0.54972860       0.46741821 </v>
   <v>       0.29490481      -0.33285200       0.45143951 </v>
   <v>      -0.77716364      -0.62319654      -0.60429501 </v>
   <v>       0.04541779      -0.06677519       0.86574182 </v>
   <v>       0.10843421      -0.45692606      -0.59113560 </v>
   <v>       0.22779592      -0.95793368      -1.30266817 </v>
   <v>      -0.14411700       0.19611427      -1.07365142 </v>
   <v>       0.39195850       0.00628337       0.85755013 </v>
   <v>      -0.71183184      -0.90107065       0.44516797 </v>
   <v>      -0.04361323       0.52303913       1.60965340 </v>
   <v>       0.04370196       0.35753989       1.10074656 </v>
   <v>       0.09240557      -0.59303715       0.37607099 </v>
   <v>       0.04157609       0.25030703      -0.89198692 </v>
   <v>      -0.01336822       0.20995404       0.05177378 </v>
   <v>       0.08021559       0.44842032      -0.66290817 </v>
   <v>       0.23550301       0.93311528      -1.27340262 </v>
   <v>      -0.75600207       0.50542712      -0.60951572 </v>
   <v>       0.27241448       0.29783935       0.43130980 </v>
  </varray>
  <varray name="stress" >
   <v>     -25.70455626       0.02425064      -8.24738839 </v>
   <v>       0.02425049     -26.27025238      -0.66029893 </v>
   <v>      -8.24738831      -0.66029881     -38.21587954 </v>
  </varray>
  <energy>
   <i name="e_fr_energy">   -349.39419900 </i>
   <i name="e_wo_entrp">   -347.90562224 </i>
   <i name="e_0_energy">   -348.64991062 </i>
  </energy>
  <time name="totalsc">  123.30  123.68</time>
  <eigenvalues>
   <array>
    <dimension dim="1">band</dimension>
    <dimension dim="2">kpoint</dimension>
    <dimension dim="3">spin</dimension>
    <field>eigene</field>
    <field>occ</field>
    <set>
     <set comment="spin 1">
      <set comment="kpoint 1">
       <r>  -64.4487    1.0000 </r>
       <r>  -64.4471    1.0000 </r>
       <r>  -64.4428    1.0000 </r>
       <r>  -64.4162    1.0000 </r>
       <r>  -64.4139    1.0000 </r>
       <r>  -64.4069    1.0000 </r>
       <r>  -64.3881    1.0000 </r>
       <r>  -64.3714    1.0000 </r>
       <r>  -64.3625    1.0000 </r>
       <r>  -64.3615    1.0000 </r>
       <r>  -64.3602    1.0000 </r>
       <r>  -64.3600    1.0000 </r>
       <r>  -64.3593    1.0000 </r>
       <r>  -64.3582    1.0000 </r>
       <r>  -64.3574    1.0000 </r>
       <r>  -64.3424    1.0000 </r>
       <r>  -64.3396    1.0000 </r>
       <r>  -64.3345    1.0000 </r>
       <r>  -64.3249    1.0000 </r>
       <r>  -64.3238    1.0000 </r>
       <r>  -64.3229    1.0000 </r>
       <r>  -64.3205    1.0000 </r>
       <r>  -64.3058    1.0000 </r>
       <r>  -64.3041    1.0000 </r>
       <r>  -64.3025    1.0000 </r>
       <r>  -64.2885    1.0000 </r>
       <r>  -64.2844    1.0000 </r>
       <r>  -64.2821    1.0000 </r>
       <r>  -64.2786    1.0000 </r>
       <r>  -64.2731    1.0000 </r>
       <r>  -64.2727    1.0000 </r>
       <r>  -64.2560    1.0000 </r>
       <r>  -64.2542    1.0000 </r>
       <r>  -64.2343    1.0000 </r>
       <r>  -64.2079    1.0000 </r>
       <r>  -64.2069    1.0000 </r>
       <r>  -64.1975    1.0000 </r>
       <r>  -64.1971    1.0000 </r>
       <r>  -64.1815    1.0000 </r>
       <r>  -64.1786    1.0000 </r>
       <r>  -64.1601    1.0000 </r>
       <r>  -64.1573    1.0000 </r>
       <r>  -64.1555    1.0000 </r>
       <r>  -64.1536    1.0000 </r>
       <r>  -64.1527    1.0000 </r>
       <r>  -64.1456    1.0000 </r>
       <r>  -64.1399    1.0000 </r>
       <r>  -64.1302    1.0000 </r>
       <r>  -64.1161    1.0000 </r>
       <r>  -64.1039    1.0000 </r>
       <r>  -64.0845    1.0000 </r>
       <r>  -64.0843    1.0000 </r>
       <r>  -64.0561    1.0000 </r>
       <r>  -64.0424    1.0000 </r>
       <r>  -64.0091    1.0000 </r>
       <r>  -63.9663    1.0000 </r>
       <r>  -63.9470    1.0000 </r>
       <r>  -63.9430    1.0000 </r>
       <r>  -63.9119    1.0000 </r>
       <r>  -63.8984    1.0000 </r>
       <r>  -63.8897    1.0000 </r>
       <r>  -63.8698    1.0000 </r>
       <r>  -63.8564    1.0000 </r>
       <r>  -63.8468    1.0000 </r>
       <r>  -63.8412    1.0000 </r>
       <r>  -63.7862    1.0000 </r>
       <r>  -63.7553    1.0000 </r>
       <r>  -63.7526    1.0000 </r>
       <r>  -63.7491    1.0000 </r>
       <r>  -63.7190    1.0000 </r>
       <r>  -63.7060    1.0000 </r>
       <r>  -63.7019    1.0000 </r>
       <r>  -63.6848    1.0000 </r>
       <r>  -63.6752    1.0000 </r>
       <r>  -63.6611    1.0000 </r>
       <r>  -63.6601    1.0000 </r>
       <r>  -63.6546    1.0000 </r>
       <r>  -63.6503    1.0000 </r>
       <r>  -63.6339    1.0000 </r>
       <r>  -63.6283    1.0000 </r>
       <r>  -63.6085    1.0000 </r>
       <r>  -63.6058    1.0000 </r>
       <r>  -63.5951    1.0000 </r>
       <r>  -63.5721    1.0000 </r>
       <r>  -63.5184    1.0000 </r>
       <r>  -63.5029    1.0000 </r>
       <r>  -63.4955    1.0000 </r>
       <r>  -63.4515    1.0000 </r>
       <r>  -63.4424    1.0000 </r>
       <r>  -63.4312    1.0000 </r>
       <r>  -63.4004    1.0000 </r>
       <r>  -63.3668    1.0000 </r>
       <r>  -63.3209    1.0000 </r>
       <r>  -63.3140    1.0000 </r>
       <r>  -63.3117    1.0000 </r>
       <r>  -63.3111    1.0000 </r>
       <r>  -63.1982    1.0000 </r>
       <r>  -63.1960    1.0000 </r>
       <r>  -63.1849    1.0000 </r>
       <r>  -63.1803    1.0000 </r>
       <r>  -63.1184    1.0000 </r>
       <r>  -63.0905    1.0000 </r>
       <r>  -63.0822    1.0000 </r>
       <r>  -63.0657    1.0000 </r>
       <r>  -63.0583    1.0000 </r>
       <r>  -63.0498    1.0000 </r>
       <r>  -63.0416    1.0000 </r>
       <r>  -63.0220    1.0000 </r>
       <r>  -62.9153    1.0000 </r>
       <r>  -62.8664    1.0000 </r>
       <r>  -62.5396    1.0000 </r>
       <r>  -15.2686    1.0000 </r>
       <r>  -14.9601    1.0000 </r>
       <r>  -14.8848    1.0000 </r>
       <r>  -14.5916    1.0000 </r>
       <r>  -14.4426    1.0000 </r>
       <r>  -14.3006    1.0000 </r>
       <r>  -14.2750    1.0000 </r>
       <r>  -14.2226    1.0000 </r>
       <r>  -14.1113    1.0000 </r>
       <r>  -14.0492    1.0000 </r>
       <r>  -13.9726    1.0000 </r>
       <r>  -13.9531    1.0000 </r>
       <r>  -13.8233    1.0000 </r>
       <r>  -13.8157    1.0000 </r>
       <r>  -13.7204    1.0000 </r>
       <r>  -13.6616    1.0000 </r>
       <r>  -13.6119    1.0000 </r>
       <r>  -13.5343    1.0000 </r>
       <r>  -13.4105    1.0000 </r>
       <r>  -13.3344    1.0000 </r>
       <r>  -13.3002    1.0000 </r>
       <r>  -13.2521    1.0000 </r>
       <r>  -13.1720    1.0000 </r>
       <r>  -13.1122    1.0000 </r>
       <r>  -13.0670    1.0000 </r>
       <r>  -12.9113    1.0000 </r>
       <r>  -12.8149    1.0000 </r>
       <r>  -12.7780    1.0000 </r>
       <r>  -12.6682    1.0000 </r>
       <r>  -12.4914    1.0000 </r>
       <r>  -12.4796    1.0000 </r>
       <r>  -12.4152    1.0000 </r>
       <r>  -12.2893    1.0000 </r>
       <r>  -12.1450    1.0000 </r>
       <r>  -12.0428    1.0000 </r>
       <r>  -11.8759    1.0000 </r>
       <r>  -11.2759    1.0000 </r>
       <r>   -7.0550    1.0000 </r>
       <r>   -6.9992    1.0000 </r>
       <r>   -6.9437    1.0000 </r>
       <r>   -6.8011    1.0000 </r>
       <r>   -6.7605    1.0000 </r>
       <r>   -6.6721    1.0000 </r>
       <r>   -6.5651    1.0000 </r>
       <r>   -6.4310    1.0000 </r>
       <r>   -6.4207    1.0000 </r>
       <r>   -6.3847    1.0000 </r>
       <r>   -6.3553    1.0000 </r>
       <r>   -6.2466    1.0000 </r>
       <r>   -6.2411    1.0000 </r>
       <r>   -6.2080    1.0000 </r>
       <r>   -6.0936    1.0000 </r>
       <r>   -6.0691    1.0000 </r>
       <r>   -6.0633    1.0000 </r>
       <r>   -5.9856    1.0000 </r>
       <r>   -5.9322    1.0000 </r>
       <r>   -5.8945    1.0000 </r>
       <r>   -5.8629    1.0000 </r>
       <r>   -5.8363    1.0000 </r>
       <r>   -5.8221    1.0000 </r>
       <r>   -5.7478    1.0000 </r>
       <r>   -5.6915    1.0000 </r>
       <r>   -5.6722    1.0000 </r>
       <r>   -5.6241    1.0000 </r>
       <r>   -5.5534    1.0000 </r>
       <r>   -5.4935    1.0000 </r>
       <r>   -5.4808    1.0000 </r>
       <r>   -5.4532    1.0000 </r>
       <r>   -5.4324    1.0000 </r>
       <r>   -5.3599    1.0000 </r>
       <r>   -5.2800    1.0000 </r>
       <r>   -5.2509    1.0000 </r>
       <r>   -5.2292    1.0000 </r>
       <r>   -5.1956    1.0000 </r>
       <r>   -5.1481    1.0000 </r>
       <r>   -5.1054    1.0000 </r>
       <r>   -5.0290    1.0000 </r>
       <r>   -5.0216    1.0000 </r>
       <r>   -4.9930    1.0000 </r>
       <r>   -4.9363    1.0000 </r>
       <r>   -4.8900    1.0000 </r>
       <r>   -4.8532    1.0000 </r>
       <r>   -4.7962    1.0000 </r>
       <r>   -4.7281    1.0000 </r>
       <r>   -4.6898    1.0000 </r>
       <r>   -4.6794    1.0000 </r>
       <r>   -4.6463    1.0000 </r>
       <r>   -4.6329    1.0000 </r>
       <r>   -4.6050    1.0000 </r>
       <r>   -4.5418    1.0000 </r>
       <r>   -4.5243    1.0000 </r>
       <r>   -4.5144    1.0000 </r>
       <r>   -4.4608    1.0000 </r>
       <r>   -4.4208    1.0000 </r>
       <r>   -4.3703    1.0000 </r>
       <r>   -4.3295    1.0000 </r>
       <r>   -4.2709    1.0000 </r>
       <r>   -4.2420    1.0000 </r>
       <r>   -4.2309    1.0000 </r>
       <r>   -4.2008    1.0000 </r>
       <r>   -4.1634    1.0000 </r>
       <r>   -4.1202    1.0000 </r>
       <r>   -4.0962    1.0000 </r>
       <r>   -4.0937    1.0000 </r>
       <r>   -4.0467    1.0000 </r>
       <r>   -4.0179    1.0000 </r>
       <r>   -4.0059    1.0000 </r>
       <r>   -3.9908    1.0000 </r>
       <r>   -3.9599    1.0000 </r>
       <r>   -3.9450    1.0000 </r>
       <r>   -3.9133    1.0000 </r>
       <r>   -3.8680    1.0000 </r>
       <r>   -3.8274    1.0000 </r>
       <r>   -3.8104    1.0000 </r>
       <r>   -3.7499    1.0000 </r>
       <r>   -3.7182    1.0000 </r>
       <r>   -3.6683    1.0000 </r>
       <r>   -3.6400    1.0000 </r>
       <r>   -3.6144    1.0000 </r>
       <r>   -3.5848    1.0000 </r>
       <r>   -3.5649    1.0000 </r>
       <r>   -3.5030    1.0000 </r>
       <r>   -3.4337    1.0000 </r>
       <r>   -3.4012    1.0000 </r>
       <r>   -3.3803    1.0000 </r>
       <r>   -3.3598    1.0000 </r>
       <r>   -3.3205    1.0000 </r>
       <r>   -3.2794    1.0000 </r>
       <r>   -3.2681    1.0000 </r>
       <r>   -3.2299    1.0000 </r>
       <r>   -3.2085    1.0000 </r>
       <r>   -3.1878    1.0000 </r>
       <r>   -3.1550    1.0000 </r>
       <r>   -3.1055    1.0000 </r>
       <r>   -3.0533    1.0000 </r>
       <r>   -3.0012    1.0000 </r>
       <r>   -2.9753    1.0000 </r>
       <r>   -2.9348    1.0000 </r>
       <r>   -2.8653    1.0000 </r>
       <r>   -2.8470    1.0000 </r>
       <r>   -2.8280    1.0000 </r>
       <r>   -2.8211    1.0000 </r>
       <r>   -2.7934    1.0000 </r>
       <r>   -2.7456    1.0000 </r>
       <r>   -2.7225    1.0000 </r>
       <r>   -2.6843    1.0000 </r>
       <r>   -2.6711    1.0000 </r>
       <r>   -2.6426    1.0000 </r>
       <r>   -2.6124    1.0000 </r>
       <r>   -2.5757    1.0000 </r>
       <r>   -2.5414    1.0000 </r>
       <r>   -2.5304    1.0000 </r>
       <r>   -2.5130    1.0000 </r>
       <r>   -2.5106    1.0000 </r>
       <r>   -2.4708    1.0000 </r>
       <r>   -2.4532    1.0000 </r>
       <r>   -2.4387    1.0000 </r>
       <r>   -2.4242    1.0000 </r>
       <r>   -2.4055    1.0000 </r>
       <r>   -2.3765    1.0000 </r>
       <r>   -2.3675    1.0000 </r>
       <r>   -2.3634    1.0000 </r>
       <r>   -2.3521    1.0000 </r>
       <r>   -2.3209    1.0000 </r>
       <r>   -2.3098    1.0000 </r>
       <r>   -2.2952    1.0000 </r>
       <r>   -2.2719    1.0000 </r>
       <r>   -2.2525    1.0000 </r>
       <r>   -2.2335    1.0000 </r>
       <r>   -2.2253    1.0000 </r>
       <r>   -2.2139    1.0000 </r>
       <r>   -2.1977    1.0000 </r>
       <r>   -2.1938    1.0000 </r>
       <r>   -2.1712    1.0000 </r>
       <r>   -2.1578    1.0000 </r>
       <r>   -2.1462    1.0000 </r>
       <r>   -2.1267    1.0000 </r>
       <r>   -2.1116    1.0000 </r>
       <r>   -2.1091    1.0000 </r>
       <r>   -2.0913    1.0000 </r>
       <r>   -2.0808    1.0000 </r>
       <r>   -2.0628    1.0000 </r>
       <r>   -2.0483    1.0000 </r>
       <r>   -2.0373    1.0000 </r>
       <r>   -2.0177    1.0000 </r>
       <r>   -2.0074    1.0000 </r>
       <r>   -1.9981    1.0000 </r>
       <r>   -1.9875    1.0000 </r>
       <r>   -1.9572    1.0000 </r>
       <r>   -1.9514    1.0000 </r>
       <r>   -1.9356    1.0000 </r>
       <r>   -1.9296    1.0000 </r>
       <r>   -1.9229    1.0000 </r>
       <r>   -1.9127    1.0000 </r>
       <r>   -1.9116    1.0000 </r>
       <r>   -1.9022    1.0000 </r>
       <r>   -1.8945    1.0000 </r>
       <r>   -1.8816    1.0000 </r>
       <r>   -1.8730    1.0000 </r>
       <r>   -1.8582    1.0000 </r>
       <r>   -1.8401    1.0000 </r>
       <r>   -1.8377    1.0000 </r>
       <r>   -1.8205    1.0000 </r>
       <r>   -1.8115    1.0000 </r>
       <r>   -1.7986    1.0000 </r>
       <r>   -1.7862    1.0000 </r>
       <r>   -1.7845    1.0000 </r>
       <r>   -1.7683    1.0000 </r>
       <r>   -1.7590    1.0000 </r>
       <r>   -1.7374    1.0000 </r>
       <r>   -1.7246    1.0000 </r>
       <r>   -1.7114    1.0000 </r>
       <r>   -1.7047    1.0000 </r>
       <r>   -1.6962    1.0000 </r>
       <r>   -1.6822    1.0000 </r>
       <r>   -1.6688    1.0000 </r>
       <r>   -1.6545    1.0000 </r>
       <r>   -1.6423    1.0000 </r>
       <r>   -1.6183    1.0000 </r>
       <r>   -1.6138    1.0000 </r>
       <r>   -1.6008    1.0000 </r>
       <r>   -1.5978    1.0000 </r>
       <r>   -1.5698    1.0000 </r>
       <r>   -1.5582    1.0000 </r>
       <r>   -1.5546    1.0000 </r>
       <r>   -1.5414    1.0000 </r>
       <r>   -1.5289    1.0000 </r>
       <r>   -1.5173    1.0000 </r>
       <r>   -1.5029    1.0000 </r>
       <r>   -1.4794    1.0000 </r>
       <r>   -1.4701    1.0000 </r>
       <r>   -1.4566    1.0000 </r>
       <r>   -1.4336    1.0000 </r>
       <r>   -1.4156    1.0000 </r>
       <r>   -1.4066    1.0000 </r>
       <r>   -1.3978    1.0000 </r>
       <r>   -1.3730    1.0000 </r>
       <r>   -1.3651    1.0000 </r>
       <r>   -1.3572    1.0000 </r>
       <r>   -1.3363    1.0000 </r>
       <r>   -1.3198    1.0000 </r>
       <r>   -1.3111    1.0000 </r>
       <r>   -1.3016    1.0000 </r>
       <r>   -1.2776    1.0000 </r>
       <r>   -1.2425    1.0000 </r>
       <r>   -1.2219    1.0000 </r>
       <r>   -1.2003    1.0000 </r>
       <r>   -1.1932    1.0000 </r>
       <r>   -1.1844    1.0000 </r>
       <r>   -1.1711    1.0000 </r>
       <r>   -1.1527    1.0000 </r>
       <r>   -1.1429    1.0000 </r>
       <r>   -1.1167    1.0000 </r>
       <r>   -1.1079    1.0000 </r>
       <r>   -1.0880    1.0000 </r>
       <r>   -1.0655    1.0000 </r>
       <r>   -1.0398    1.0000 </r>
       <r>   -1.0372    1.0000 </r>
       <r>   -1.0159    1.0000 </r>
       <r>   -1.0020    1.0000 </r>
       <r>   -0.9889    1.0000 </r>
       <r>   -0.9688    1.0000 </r>
       <r>   -0.9546    1.0000 </r>
       <r>   -0.9449    1.0000 </r>
       <r>   -0.9386    1.0000 </r>
       <r>   -0.9269    1.0000 </r>
       <r>   -0.9189    1.0000 </r>
       <r>   -0.8951    1.0000 </r>
       <r>   -0.8911    1.0000 </r>
       <r>   -0.8649    0.9999 </r>
       <r>   -0.8504    0.9999 </r>
       <r>   -0.8345    0.9999 </r>
       <r>   -0.8030    0.9997 </r>
       <r>   -0.7879    0.9996 </r>
       <r>   -0.7571    0.9991 </r>
       <r>   -0.7547    0.9990 </r>
       <r>   -0.7456    0.9988 </r>
       <r>   -0.7262    0.9981 </r>
       <r>   -0.7044    0.9969 </r>
       <r>   -0.6835    0.9952 </r>
       <r>   -0.6755    0.9943 </r>
       <r>   -0.6452    0.9898 </r>
       <r>   -0.6314    0.9868 </r>
       <r>   -0.6167    0.9829 </r>
       <r>   -0.6058    0.9793 </r>
       <r>   -0.5777    0.9672 </r>
       <r>   -0.5567    0.9547 </r>
       <r>   -0.5252    0.9292 </r>
       <r>   -0.5128    0.9165 </r>
       <r>   -0.4727    0.8641 </r>
       <r>   -0.4550    0.8348 </r>
       <r>   -0.4295    0.7860 </r>
       <r>   -0.4092    0.7420 </r>
       <r>   -0.3961    0.7111 </r>
       <r>   -0.3772    0.6639 </r>
       <r>   -0.3537    0.6014 </r>
       <r>   -0.3412    0.5669 </r>
       <r>   -0.2865    0.4136 </r>
       <r>   -0.2499    0.3167 </r>
       <r>   -0.2253    0.2575 </r>
       <r>   -0.1975    0.1984 </r>
       <r>   -0.1583    0.1304 </r>
       <r>   -0.1235    0.0853 </r>
       <r>   -0.1065    0.0680 </r>
       <r>   -0.0685    0.0392 </r>
       <r>   -0.0021    0.0129 </r>
       <r>    0.0108    0.0102 </r>
       <r>    0.0416    0.0056 </r>
       <r>    0.0602    0.0038 </r>
       <r>    0.1200    0.0010 </r>
       <r>    0.1350    0.0007 </r>
       <r>    0.2116    0.0001 </r>
       <r>    0.2397    0.0000 </r>
       <r>    0.2818    0.0000 </r>
       <r>    0.2866    0.0000 </r>
       <r>    0.3344    0.0000 </r>
       <r>    0.3864    0.0000 </r>
       <r>    0.3913    0.0000 </r>
       <r>    0.4173    0.0000 </r>
       <r>    0.4567    0.0000 </r>
       <r>    0.5233    0.0000 </r>
       <r>    0.5814    0.0000 </r>
       <r>    0.5844    0.0000 </r>
       <r>    0.6425    0.0000 </r>
       <r>    0.6727    0.0000 </r>
       <r>    0.7106    0.0000 </r>
       <r>    0.7333    0.0000 </r>
       <r>    0.7515    0.0000 </r>
       <r>    0.7871    0.0000 </r>
       <r>    0.8286    0.0000 </r>
       <r>    0.8410    0.0000 </r>
       <r>    0.8708    0.0000 </r>
       <r>    0.9122    0.0000 </r>
       <r>    0.9476    0.0000 </r>
       <r>    0.9581    0.0000 </r>
       <r>    0.9839    0.0000 </r>
       <r>    1.1370    0.0000 </r>
       <r>    1.5240    0.0000 </r>
       <r>    1.6559    0.0000 </r>
       <r>    1.6588    0.0000 </r>
       <r>    2.1304    0.0000 </r>
       <r>    2.4492    0.0000 </r>
       <r>    2.4878    0.0000 </r>
       <r>    2.6345    0.0000 </r>
       <r>    2.7793    0.0000 </r>
       <r>    3.3951    0.0000 </r>
       <r>    3.4867    0.0000 </r>
       <r>    3.6649    0.0000 </r>
       <r>    3.7441    0.0000 </r>
       <r>    3.8229    0.0000 </r>
       <r>    3.9078    0.0000 </r>
       <r>    4.0458    0.0000 </r>
       <r>    4.1291    0.0000 </r>
       <r>    4.1496    0.0000 </r>
       <r>    4.1905    0.0000 </r>
       <r>    4.2568    0.0000 </r>
       <r>    4.2864    0.0000 </r>
       <r>    4.3670    0.0000 </r>
       <r>    4.3793    0.0000 </r>
       <r>    4.4660    0.0000 </r>
       <r>    4.5755    0.0000 </r>
       <r>    4.6441    0.0000 </r>
       <r>    4.6593    0.0000 </r>
       <r>    4.6920    0.0000 </r>
       <r>    4.7822    0.0000 </r>
       <r>    4.8255    0.0000 </r>
       <r>    4.9358    0.0000 </r>
       <r>    4.9550    0.0000 </r>
       <r>    4.9786    0.0000 </r>
       <r>    5.1133    0.0000 </r>
       <r>    5.1887    0.0000 </r>
       <r>    5.2307    0.0000 </r>
       <r>    5.2495    0.0000 </r>
       <r>    5.2843    0.0000 </r>
       <r>    5.3053    0.0000 </r>
       <r>    5.3842    0.0000 </r>
       <r>    5.4261    0.0000 </r>
      </set>
     </set>
    </set>
   </array>
  </eigenvalues>
  <separator name="orbital magnetization" >
   <v name="MAGDIPOLOUT">      0.00000000      0.00000000      0.00000000</v>
  </separator>
  <dos>
   <i name="efermi">     -0.31734792 </i>
   <total>
    <array>
     <dimension dim="1">gridpoints</dimension>
     <dimension dim="2">spin</dimension>
     <field>energy</field>
     <field>total</field>
     <field>integrated</field>
     <set>
      <set comment="spin 1">
       <r>   -67.9425     0.0000     0.0000 </r>
       <r>   -67.6863     0.0000     0.0000 </r>
       <r>   -67.4300     0.0000     0.0000 </r>
       <r>   -67.1738     0.0000     0.0000 </r>
       <r>   -66.9176     0.0000     0.0000 </r>
       <r>   -66.6614     0.0000     0.0000 </r>
       <r>   -66.4052     0.0000     0.0000 </r>
       <r>   -66.1490     0.0000     0.0000 </r>
       <r>   -65.8928     0.0000     0.0000 </r>
       <r>   -65.6366     0.0000     0.0000 </r>
       <r>   -65.3804     0.0000     0.0000 </r>
       <r>   -65.1242     0.0000     0.0000 </r>
       <r>   -64.8680     0.0676     0.0173 </r>
       <r>   -64.6118     9.7637     2.5189 </r>
       <r>   -64.3556   122.6268    33.9368 </r>
       <r>   -64.0993   222.7113    90.9971 </r>
       <r>   -63.8431   139.9154   126.8445 </r>
       <r>   -63.5869   129.0816   159.9162 </r>
       <r>   -63.3307   100.2959   185.6127 </r>
       <r>   -63.0745    79.2102   205.9070 </r>
       <r>   -62.8183    47.5892   218.0997 </r>
       <r>   -62.5621    10.6404   220.8258 </r>
       <r>   -62.3059     4.1983   221.9015 </r>
       <r>   -62.0497     0.3825   221.9995 </r>
       <r>   -61.7935     0.0021   222.0000 </r>
       <r>   -61.5373     0.0000   222.0000 </r>
       <r>   -61.2811     0.0000   222.0000 </r>
       <r>   -61.0249     0.0000   222.0000 </r>
       <r>   -60.7686     0.0000   222.0000 </r>
       <r>   -60.5124     0.0000   222.0000 </r>
       <r>   -60.2562     0.0000   222.0000 </r>
       <r>   -60.0000     0.0000   222.0000 </r>
       <r>   -59.7438     0.0000   222.0000 </r>
       <r>   -59.4876     0.0000   222.0000 </r>
       <r>   -59.2314     0.0000   222.0000 </r>
       <r>   -58.9752     0.0000   222.0000 </r>
       <r>   -58.7190     0.0000   222.0000 </r>
       <r>   -58.4628     0.0000   222.0000 </r>
       <r>   -58.2066     0.0000   222.0000 </r>
       <r>   -57.9504     0.0000   222.0000 </r>
       <r>   -57.6942     0.0000   222.0000 </r>
       <r>   -57.4379     0.0000   222.0000 </r>
       <r>   -57.1817     0.0000   222.0000 </r>
       <r>   -56.9255     0.0000   222.0000 </r>
       <r>   -56.6693     0.0000   222.0000 </r>
       <r>   -56.4131     0.0000   222.0000 </r>
       <r>   -56.1569     0.0000   222.0000 </r>
       <r>   -55.9007     0.0000   222.0000 </r>
       <r>   -55.6445     0.0000   222.0000 </r>
       <r>   -55.3883     0.0000   222.0000 </r>
       <r>   -55.1321     0.0000   222.0000 </r>
       <r>   -54.8759     0.0000   222.0000 </r>
       <r>   -54.6197     0.0000   222.0000 </r>
       <r>   -54.3635     0.0000   222.0000 </r>
       <r>   -54.1073     0.0000   222.0000 </r>
       <r>   -53.8510     0.0000   222.0000 </r>
       <r>   -53.5948     0.0000   222.0000 </r>
       <r>   -53.3386     0.0000   222.0000 </r>
       <r>   -53.0824     0.0000   222.0000 </r>
       <r>   -52.8262     0.0000   222.0000 </r>
       <r>   -52.5700     0.0000   222.0000 </r>
       <r>   -52.3138     0.0000   222.0000 </r>
       <r>   -52.0576     0.0000   222.0000 </r>
       <r>   -51.8014     0.0000   222.0000 </r>
       <r>   -51.5452     0.0000   222.0000 </r>
       <r>   -51.2890     0.0000   222.0000 </r>
       <r>   -51.0328     0.0000   222.0000 </r>
       <r>   -50.7766     0.0000   222.0000 </r>
       <r>   -50.5203     0.0000   222.0000 </r>
       <r>   -50.2641     0.0000   222.0000 </r>
       <r>   -50.0079     0.0000   222.0000 </r>
       <r>   -49.7517     0.0000   222.0000 </r>
       <r>   -49.4955     0.0000   222.0000 </r>
       <r>   -49.2393     0.0000   222.0000 </r>
       <r>   -48.9831     0.0000   222.0000 </r>
       <r>   -48.7269     0.0000   222.0000 </r>
       <r>   -48.4707     0.0000   222.0000 </r>
       <r>   -48.2145     0.0000   222.0000 </r>
       <r>   -47.9583     0.0000   222.0000 </r>
       <r>   -47.7021     0.0000   222.0000 </r>
       <r>   -47.4459     0.0000   222.0000 </r>
       <r>   -47.1896     0.0000   222.0000 </r>
       <r>   -46.9334     0.0000   222.0000 </r>
       <r>   -46.6772     0.0000   222.0000 </r>
       <r>   -46.4210     0.0000   222.0000 </r>
       <r>   -46.1648     0.0000   222.0000 </r>
       <r>   -45.9086     0.0000   222.0000 </r>
       <r>   -45.6524     0.0000   222.0000 </r>
       <r>   -45.3962     0.0000   222.0000 </r>
       <r>   -45.1400     0.0000   222.0000 </r>
       <r>   -44.8838     0.0000   222.0000 </r>
       <r>   -44.6276     0.0000   222.0000 </r>
       <r>   -44.3714     0.0000   222.0000 </r>
       <r>   -44.1152     0.0000   222.0000 </r>
       <r>   -43.8589     0.0000   222.0000 </r>
       <r>   -43.6027     0.0000   222.0000 </r>
       <r>   -43.3465     0.0000   222.0000 </r>
       <r>   -43.0903     0.0000   222.0000 </r>
       <r>   -42.8341     0.0000   222.0000 </r>
       <r>   -42.5779     0.0000   222.0000 </r>
       <r>   -42.3217     0.0000   222.0000 </r>
       <r>   -42.0655     0.0000   222.0000 </r>
       <r>   -41.8093     0.0000   222.0000 </r>
       <r>   -41.5531     0.0000   222.0000 </r>
       <r>   -41.2969     0.0000   222.0000 </r>
       <r>   -41.0407     0.0000   222.0000 </r>
       <r>   -40.7845     0.0000   222.0000 </r>
       <r>   -40.5282     0.0000   222.0000 </r>
       <r>   -40.2720     0.0000   222.0000 </r>
       <r>   -40.0158     0.0000   222.0000 </r>
       <r>   -39.7596     0.0000   222.0000 </r>
       <r>   -39.5034     0.0000   222.0000 </r>
       <r>   -39.2472     0.0000   222.0000 </r>
       <r>   -38.9910     0.0000   222.0000 </r>
       <r>   -38.7348     0.0000   222.0000 </r>
       <r>   -38.4786     0.0000   222.0000 </r>
       <r>   -38.2224     0.0000   222.0000 </r>
       <r>   -37.9662     0.0000   222.0000 </r>
       <r>   -37.7100     0.0000   222.0000 </r>
       <r>   -37.4538     0.0000   222.0000 </r>
       <r>   -37.1975     0.0000   222.0000 </r>
       <r>   -36.9413     0.0000   222.0000 </r>
       <r>   -36.6851     0.0000   222.0000 </r>
       <r>   -36.4289     0.0000   222.0000 </r>
       <r>   -36.1727     0.0000   222.0000 </r>
       <r>   -35.9165     0.0000   222.0000 </r>
       <r>   -35.6603     0.0000   222.0000 </r>
       <r>   -35.4041     0.0000   222.0000 </r>
       <r>   -35.1479     0.0000   222.0000 </r>
       <r>   -34.8917     0.0000   222.0000 </r>
       <r>   -34.6355     0.0000   222.0000 </r>
       <r>   -34.3793     0.0000   222.0000 </r>
       <r>   -34.1231     0.0000   222.0000 </r>
       <r>   -33.8669     0.0000   222.0000 </r>
       <r>   -33.6106     0.0000   222.0000 </r>
       <r>   -33.3544     0.0000   222.0000 </r>
       <r>   -33.0982     0.0000   222.0000 </r>
       <r>   -32.8420     0.0000   222.0000 </r>
       <r>   -32.5858     0.0000   222.0000 </r>
       <r>   -32.3296     0.0000   222.0000 </r>
       <r>   -32.0734     0.0000   222.0000 </r>
       <r>   -31.8172     0.0000   222.0000 </r>
       <r>   -31.5610     0.0000   222.0000 </r>
       <r>   -31.3048     0.0000   222.0000 </r>
       <r>   -31.0486     0.0000   222.0000 </r>
       <r>   -30.7924     0.0000   222.0000 </r>
       <r>   -30.5362     0.0000   222.0000 </r>
       <r>   -30.2799     0.0000   222.0000 </r>
       <r>   -30.0237     0.0000   222.0000 </r>
       <r>   -29.7675     0.0000   222.0000 </r>
       <r>   -29.5113     0.0000   222.0000 </r>
       <r>   -29.2551     0.0000   222.0000 </r>
       <r>   -28.9989     0.0000   222.0000 </r>
       <r>   -28.7427     0.0000   222.0000 </r>
       <r>   -28.4865     0.0000   222.0000 </r>
       <r>   -28.2303     0.0000   222.0000 </r>
       <r>   -27.9741     0.0000   222.0000 </r>
       <r>   -27.7179     0.0000   222.0000 </r>
       <r>   -27.4617     0.0000   222.0000 </r>
       <r>   -27.2055     0.0000   222.0000 </r>
       <r>   -26.9492     0.0000   222.0000 </r>
       <r>   -26.6930     0.0000   222.0000 </r>
       <r>   -26.4368     0.0000   222.0000 </r>
       <r>   -26.1806     0.0000   222.0000 </r>
       <r>   -25.9244     0.0000   222.0000 </r>
       <r>   -25.6682     0.0000   222.0000 </r>
       <r>   -25.4120     0.0000   222.0000 </r>
       <r>   -25.1558     0.0000   222.0000 </r>
       <r>   -24.8996     0.0000   222.0000 </r>
       <r>   -24.6434     0.0000   222.0000 </r>
       <r>   -24.3872     0.0000   222.0000 </r>
       <r>   -24.1310     0.0000   222.0000 </r>
       <r>   -23.8748     0.0000   222.0000 </r>
       <r>   -23.6185     0.0000   222.0000 </r>
       <r>   -23.3623     0.0000   222.0000 </r>
       <r>   -23.1061     0.0000   222.0000 </r>
       <r>   -22.8499     0.0000   222.0000 </r>
       <r>   -22.5937     0.0000   222.0000 </r>
       <r>   -22.3375     0.0000   222.0000 </r>
       <r>   -22.0813     0.0000   222.0000 </r>
       <r>   -21.8251     0.0000   222.0000 </r>
       <r>   -21.5689     0.0000   222.0000 </r>
       <r>   -21.3127     0.0000   222.0000 </r>
       <r>   -21.0565     0.0000   222.0000 </r>
       <r>   -20.8003     0.0000   222.0000 </r>
       <r>   -20.5441     0.0000   222.0000 </r>
       <r>   -20.2878     0.0000   222.0000 </r>
       <r>   -20.0316     0.0000   222.0000 </r>
       <r>   -19.7754     0.0000   222.0000 </r>
       <r>   -19.5192     0.0000   222.0000 </r>
       <r>   -19.2630     0.0000   222.0000 </r>
       <r>   -19.0068     0.0000   222.0000 </r>
       <r>   -18.7506     0.0000   222.0000 </r>
       <r>   -18.4944     0.0000   222.0000 </r>
       <r>   -18.2382     0.0000   222.0000 </r>
       <r>   -17.9820     0.0000   222.0000 </r>
       <r>   -17.7258     0.0000   222.0000 </r>
       <r>   -17.4696     0.0000   222.0000 </r>
       <r>   -17.2134     0.0000   222.0000 </r>
       <r>   -16.9572     0.0000   222.0000 </r>
       <r>   -16.7009     0.0000   222.0000 </r>
       <r>   -16.4447     0.0000   222.0000 </r>
       <r>   -16.1885     0.0000   222.0000 </r>
       <r>   -15.9323     0.0000   222.0000 </r>
       <r>   -15.6761     0.0154   222.0040 </r>
       <r>   -15.4199     1.1008   222.2860 </r>
       <r>   -15.1637     5.6770   223.7405 </r>
       <r>   -14.9075     9.5165   226.1787 </r>
       <r>   -14.6513     9.8760   228.7090 </r>
       <r>   -14.3951    13.9555   232.2845 </r>
       <r>   -14.1389    24.9482   238.6764 </r>
       <r>   -13.8827    29.5095   246.2370 </r>
       <r>   -13.6265    30.0498   253.9360 </r>
       <r>   -13.3702    27.2611   260.9205 </r>
       <r>   -13.1140    29.8803   268.5760 </r>
       <r>   -12.8578    23.4416   274.5819 </r>
       <r>   -12.6016    21.2598   280.0288 </r>
       <r>   -12.3454    21.7028   285.5893 </r>
       <r>   -12.0892    17.1856   289.9923 </r>
       <r>   -11.8330    12.0189   293.0717 </r>
       <r>   -11.5768     3.6151   293.9979 </r>
       <r>   -11.3206     2.9435   294.7520 </r>
       <r>   -11.0644     4.3452   295.8653 </r>
       <r>   -10.8082     0.5221   295.9991 </r>
       <r>   -10.5520     0.0037   296.0000 </r>
       <r>   -10.2958     0.0000   296.0000 </r>
       <r>   -10.0395     0.0000   296.0000 </r>
       <r>    -9.7833     0.0000   296.0000 </r>
       <r>    -9.5271     0.0000   296.0000 </r>
       <r>    -9.2709     0.0000   296.0000 </r>
       <r>    -9.0147     0.0000   296.0000 </r>
       <r>    -8.7585     0.0000   296.0000 </r>
       <r>    -8.5023     0.0000   296.0000 </r>
       <r>    -8.2461     0.0000   296.0000 </r>
       <r>    -7.9899     0.0000   296.0000 </r>
       <r>    -7.7337     0.0000   296.0000 </r>
       <r>    -7.4775     0.0144   296.0037 </r>
       <r>    -7.2213     1.5853   296.4099 </r>
       <r>    -6.9651    13.9475   299.9833 </r>
       <r>    -6.7088    22.9032   305.8513 </r>
       <r>    -6.4526    26.4145   312.6189 </r>
       <r>    -6.1964    38.0894   322.3777 </r>
       <r>    -5.9402    43.7874   333.5963 </r>
       <r>    -5.6840    47.6490   345.8044 </r>
       <r>    -5.4278    45.9499   357.5771 </r>
       <r>    -5.1716    46.8172   369.5720 </r>
       <r>    -4.9154    47.4799   381.7367 </r>
       <r>    -4.6592    51.0866   394.8254 </r>
       <r>    -4.4030    57.0124   409.4325 </r>
       <r>    -4.1468    59.9484   424.7917 </r>
       <r>    -3.8906    69.8819   442.6959 </r>
       <r>    -3.6344    58.4289   457.6659 </r>
       <r>    -3.3781    55.6343   471.9198 </r>
       <r>    -3.1219    59.7453   487.2270 </r>
       <r>    -2.8657    56.2982   501.6510 </r>
       <r>    -2.6095    72.3387   520.1847 </r>
       <r>    -2.3533   101.9060   546.2938 </r>
       <r>    -2.0971   135.0318   580.8900 </r>
       <r>    -1.8409   164.3007   622.9851 </r>
       <r>    -1.5847   163.7620   664.9422 </r>
       <r>    -1.3285   140.2617   700.8783 </r>
       <r>    -1.0723   125.6012   733.0583 </r>
       <r>    -0.8161   126.1839   765.3875 </r>
       <r>    -0.5599   108.7012   793.2376 </r>
       <r>    -0.3037    84.9810   815.0104 </r>
       <r>    -0.0475    64.5461   831.5476 </r>
       <r>     0.2088    56.3016   845.9725 </r>
       <r>     0.4650    55.5821   860.2131 </r>
       <r>     0.7212    56.8304   874.7734 </r>
       <r>     0.9774    56.6214   889.2803 </r>
       <r>     1.2336    23.6238   895.3329 </r>
       <r>     1.4898     7.5524   897.2678 </r>
       <r>     1.7460    13.8974   900.8284 </r>
       <r>     2.0022     5.8872   902.3368 </r>
       <r>     2.2584     6.1991   903.9250 </r>
       <r>     2.5146    11.8393   906.9584 </r>
       <r>     2.7708    14.0149   910.5491 </r>
       <r>     3.0270     5.3701   911.9250 </r>
       <r>     3.2832     2.5846   912.5871 </r>
       <r>     3.5395    11.6074   915.5610 </r>
       <r>     3.7957    18.4412   920.2858 </r>
       <r>     4.0519    23.4004   926.2812 </r>
       <r>     4.3081    34.4767   935.1144 </r>
       <r>     4.5643    33.3116   943.6490 </r>
       <r>     4.8205    33.8885   952.3315 </r>
       <r>     5.0767    32.6295   960.6915 </r>
       <r>     5.3329    37.0020   970.1717 </r>
       <r>     5.5891    20.7762   975.4947 </r>
       <r>     5.8453     1.9551   975.9956 </r>
       <r>     6.1015     0.0171   976.0000 </r>
       <r>     6.3577     0.0000   976.0000 </r>
       <r>     6.6139     0.0000   976.0000 </r>
       <r>     6.8702     0.0000   976.0000 </r>
       <r>     7.1264     0.0000   976.0000 </r>
       <r>     7.3826     0.0000   976.0000 </r>
       <r>     7.6388     0.0000   976.0000 </r>
       <r>     7.8950     0.0000   976.0000 </r>
       <r>     8.1512     0.0000   976.0000 </r>
       <r>     8.4074     0.0000   976.0000 </r>
       <r>     8.6636     0.0000   976.0000 </r>
       <r>     8.9198     0.0000   976.0000 </r>
      </set>
     </set>
    </array>
   </total>
  </dos>
 </calculation>
 <structure name="finalpos" >
  <crystal>
   <varray name="basis" >
    <v>      16.88469405       0.00000000       0.00000000 </v>
    <v>       0.00000000       9.57841000       0.00000000 </v>
    <v>       0.00000000       0.00000000      16.65464569 </v>
   </varray>
   <i name="volume">   2693.53123734 </i>
   <varray name="rec_basis" >
    <v>       0.05922524       0.00000000       0.00000000 </v>
    <v>       0.00000000       0.10440146       0.00000000 </v>
    <v>       0.00000000       0.00000000       0.06004331 </v>
   </varray>
  </crystal>
  <varray name="positions" >
   <v>       0.78004630       0.14529696       0.12347080 </v>
   <v>       0.81461426       0.14529696       0.30867699 </v>
   <v>       0.26276233       0.64529696       0.03086770 </v>
   <v>       0.29733028       0.64529696       0.21607389 </v>
   <v>       0.43519032       0.14529696       0.06173540 </v>
   <v>       0.46975828       0.14529696       0.24694159 </v>
   <v>       0.95247430       0.64529696       0.15433850 </v>
   <v>       0.98704225       0.64529696       0.33954469 </v>
   <v>       0.09033433       0.14529696       0.00000000 </v>
   <v>       0.12490229       0.14529696       0.18520619 </v>
   <v>       0.15947025       0.14529696       0.37041239 </v>
   <v>       0.60761831       0.64529696       0.09260310 </v>
   <v>       0.64218627       0.64529696       0.27780929 </v>
   <v>       0.94215073       0.01319396       0.28421070 </v>
   <v>       0.39029880       0.51319396       0.00640140 </v>
   <v>       0.42486675       0.51319396       0.19160760 </v>
   <v>       0.45943471       0.51319396       0.37681380 </v>
   <v>       0.56272679       0.01319396       0.03726910 </v>
   <v>       0.59729475       0.01319396       0.22247530 </v>
   <v>       0.08001077       0.51319396       0.12987220 </v>
   <v>       0.11457872       0.51319396       0.31507840 </v>
   <v>       0.25243876       0.01319396       0.16073990 </v>
   <v>       0.28700672       0.01319396       0.34594610 </v>
   <v>       0.73515478       0.51319396       0.06813680 </v>
   <v>       0.76972274       0.51319396       0.25334300 </v>
   <v>       0.90758277       0.27739996       0.09900450 </v>
   <v>       0.94215073       0.27739996       0.28421070 </v>
   <v>       0.39029880       0.77739996       0.00640140 </v>
   <v>       0.42486675       0.77739996       0.19160760 </v>
   <v>       0.45943471       0.77739996       0.37681380 </v>
   <v>       0.56272679       0.27739996       0.03726910 </v>
   <v>       0.59729475       0.27739996       0.22247530 </v>
   <v>       0.08001077       0.77739996       0.12987220 </v>
   <v>       0.25243876       0.27739996       0.16073990 </v>
   <v>       0.28700672       0.27739996       0.34594610 </v>
   <v>       0.73515478       0.77739996       0.06813680 </v>
   <v>       0.76972274       0.77739996       0.25334300 </v>
   <v>       0.02602916       0.14529696       0.36869923 </v>
   <v>       0.99146120       0.14529696       0.18349304 </v>
   <v>       0.47417722       0.64529696       0.09088994 </v>
   <v>       0.50874518       0.64529696       0.27609614 </v>
   <v>       0.64660522       0.14529696       0.12175764 </v>
   <v>       0.68117317       0.14529696       0.30696383 </v>
   <v>       0.12932124       0.64529696       0.02915454 </v>
   <v>       0.16388920       0.64529696       0.21436074 </v>
   <v>       0.19845715       0.64529696       0.39956693 </v>
   <v>       0.30174923       0.14529696       0.06002224 </v>
   <v>       0.33631719       0.14529696       0.24522844 </v>
   <v>       0.81903321       0.64529696       0.15262534 </v>
   <v>       0.85360117       0.64529696       0.33783153 </v>
   <v>       0.79449310       0.31351196       0.02944130 </v>
   <v>       0.82906105       0.31351196       0.21464750 </v>
   <v>       0.31177707       0.81351196       0.12204440 </v>
   <v>       0.34634503       0.81351196       0.30725060 </v>
   <v>       0.48420507       0.31351196       0.15291210 </v>
   <v>       0.51877302       0.31351196       0.33811830 </v>
   <v>       0.00148905       0.81351196       0.24551520 </v>
   <v>       0.96692109       0.81351196       0.06030900 </v>
   <v>       0.13934908       0.31351196       0.09117670 </v>
   <v>       0.17391704       0.31351196       0.27638290 </v>
   <v>       0.65663306       0.81351196       0.18377980 </v>
   <v>       0.69120102       0.81351196       0.36898599 </v>
   <v>       0.31177707       0.47708196       0.12204440 </v>
   <v>       0.34634503       0.47708196       0.30725060 </v>
   <v>       0.79449310       0.97708196       0.02944130 </v>
   <v>       0.82906105       0.97708196       0.21464750 </v>
   <v>       0.00148905       0.47708196       0.24551520 </v>
   <v>       0.96692109       0.47708196       0.06030900 </v>
   <v>       0.48420507       0.97708196       0.15291210 </v>
   <v>       0.51877302       0.97708196       0.33811830 </v>
   <v>       0.65663306       0.47708196       0.18377980 </v>
   <v>       0.69120102       0.47708196       0.36898599 </v>
   <v>       0.13934908       0.97708196       0.09117670 </v>
   <v>       0.17391704       0.97708196       0.27638290 </v>
  </varray>
 </structure>
</modeling>
