 104 104   0   0
  0.2492376E+02  0.1125646E-08  0.1125646E-08  0.2288365E-08  0.5000000E-15
  1.000000000000000E-004
  CAR 
 "Millerite NiS"                         
     11.78651974    -66.16424250  301      2.11056954      1.00000000
    -66.164  0.0000E+00  0.0000E+00
    -65.904  0.0000E+00  0.0000E+00
    -65.645  0.0000E+00  0.0000E+00
    -65.385  0.0000E+00  0.0000E+00
    -65.125  0.0000E+00  0.0000E+00
    -64.865  0.0000E+00  0.0000E+00
    -64.605  0.0000E+00  0.0000E+00
    -64.345  0.0000E+00  0.0000E+00
    -64.086  0.0000E+00  0.0000E+00
    -63.826  0.0000E+00  0.0000E+00
    -63.566  0.1243E-09  0.3230E-10
    -63.306  0.7633E-05  0.1983E-05
    -63.046  0.2006E-01  0.5214E-02
    -62.786  0.2942E+01  0.7697E+00
    -62.527  0.4455E+02  0.1235E+02
    -62.267  0.1706E+03  0.5666E+02
    -62.007  0.3284E+03  0.1420E+03
    -61.747  0.4041E+03  0.2470E+03
    -61.487  0.1855E+03  0.2952E+03
    -61.227  0.4773E+02  0.3076E+03
    -60.968  0.1280E+02  0.3109E+03
    -60.708  0.3917E+01  0.3119E+03
    -60.448  0.2722E+00  0.3120E+03
    -60.188  0.1035E-02  0.3120E+03
    -59.928  0.1630E-06  0.3120E+03
    -59.668  0.9682E-12  0.3120E+03
    -59.409  0.0000E+00  0.3120E+03
    -59.149  0.0000E+00  0.3120E+03
    -58.889  0.0000E+00  0.3120E+03
    -58.629  0.0000E+00  0.3120E+03
    -58.369  0.0000E+00  0.3120E+03
    -58.109  0.0000E+00  0.3120E+03
    -57.849  0.0000E+00  0.3120E+03
    -57.590  0.0000E+00  0.3120E+03
    -57.330  0.0000E+00  0.3120E+03
    -57.070  0.0000E+00  0.3120E+03
    -56.810  0.0000E+00  0.3120E+03
    -56.550  0.0000E+00  0.3120E+03
    -56.290  0.0000E+00  0.3120E+03
    -56.031  0.0000E+00  0.3120E+03
    -55.771  0.0000E+00  0.3120E+03
    -55.511  0.0000E+00  0.3120E+03
    -55.251  0.0000E+00  0.3120E+03
    -54.991  0.0000E+00  0.3120E+03
    -54.731  0.0000E+00  0.3120E+03
    -54.472  0.0000E+00  0.3120E+03
    -54.212  0.0000E+00  0.3120E+03
    -53.952  0.0000E+00  0.3120E+03
    -53.692  0.0000E+00  0.3120E+03
    -53.432  0.0000E+00  0.3120E+03
    -53.172  0.0000E+00  0.3120E+03
    -52.913  0.0000E+00  0.3120E+03
    -52.653  0.0000E+00  0.3120E+03
    -52.393  0.0000E+00  0.3120E+03
    -52.133  0.0000E+00  0.3120E+03
    -51.873  0.0000E+00  0.3120E+03
    -51.613  0.0000E+00  0.3120E+03
    -51.354  0.0000E+00  0.3120E+03
    -51.094  0.0000E+00  0.3120E+03
    -50.834  0.0000E+00  0.3120E+03
    -50.574  0.0000E+00  0.3120E+03
    -50.314  0.0000E+00  0.3120E+03
    -50.054  0.0000E+00  0.3120E+03
    -49.795  0.0000E+00  0.3120E+03
    -49.535  0.0000E+00  0.3120E+03
    -49.275  0.0000E+00  0.3120E+03
    -49.015  0.0000E+00  0.3120E+03
    -48.755  0.0000E+00  0.3120E+03
    -48.495  0.0000E+00  0.3120E+03
    -48.236  0.0000E+00  0.3120E+03
    -47.976  0.0000E+00  0.3120E+03
    -47.716  0.0000E+00  0.3120E+03
    -47.456  0.0000E+00  0.3120E+03
    -47.196  0.0000E+00  0.3120E+03
    -46.936  0.0000E+00  0.3120E+03
    -46.677  0.0000E+00  0.3120E+03
    -46.417  0.0000E+00  0.3120E+03
    -46.157  0.0000E+00  0.3120E+03
    -45.897  0.0000E+00  0.3120E+03
    -45.637  0.0000E+00  0.3120E+03
    -45.377  0.0000E+00  0.3120E+03
    -45.118  0.0000E+00  0.3120E+03
    -44.858  0.0000E+00  0.3120E+03
    -44.598  0.0000E+00  0.3120E+03
    -44.338  0.0000E+00  0.3120E+03
    -44.078  0.0000E+00  0.3120E+03
    -43.818  0.0000E+00  0.3120E+03
    -43.559  0.0000E+00  0.3120E+03
    -43.299  0.0000E+00  0.3120E+03
    -43.039  0.0000E+00  0.3120E+03
    -42.779  0.0000E+00  0.3120E+03
    -42.519  0.0000E+00  0.3120E+03
    -42.259  0.0000E+00  0.3120E+03
    -42.000  0.0000E+00  0.3120E+03
    -41.740  0.0000E+00  0.3120E+03
    -41.480  0.0000E+00  0.3120E+03
    -41.220  0.0000E+00  0.3120E+03
    -40.960  0.0000E+00  0.3120E+03
    -40.700  0.0000E+00  0.3120E+03
    -40.440  0.0000E+00  0.3120E+03
    -40.181  0.0000E+00  0.3120E+03
    -39.921  0.0000E+00  0.3120E+03
    -39.661  0.0000E+00  0.3120E+03
    -39.401  0.0000E+00  0.3120E+03
    -39.141  0.0000E+00  0.3120E+03
    -38.881  0.0000E+00  0.3120E+03
    -38.622  0.0000E+00  0.3120E+03
    -38.362  0.0000E+00  0.3120E+03
    -38.102  0.0000E+00  0.3120E+03
    -37.842  0.0000E+00  0.3120E+03
    -37.582  0.0000E+00  0.3120E+03
    -37.322  0.0000E+00  0.3120E+03
    -37.063  0.0000E+00  0.3120E+03
    -36.803  0.0000E+00  0.3120E+03
    -36.543  0.0000E+00  0.3120E+03
    -36.283  0.0000E+00  0.3120E+03
    -36.023  0.0000E+00  0.3120E+03
    -35.763  0.0000E+00  0.3120E+03
    -35.504  0.0000E+00  0.3120E+03
    -35.244  0.0000E+00  0.3120E+03
    -34.984  0.0000E+00  0.3120E+03
    -34.724  0.0000E+00  0.3120E+03
    -34.464  0.0000E+00  0.3120E+03
    -34.204  0.0000E+00  0.3120E+03
    -33.945  0.0000E+00  0.3120E+03
    -33.685  0.0000E+00  0.3120E+03
    -33.425  0.0000E+00  0.3120E+03
    -33.165  0.0000E+00  0.3120E+03
    -32.905  0.0000E+00  0.3120E+03
    -32.645  0.0000E+00  0.3120E+03
    -32.386  0.0000E+00  0.3120E+03
    -32.126  0.0000E+00  0.3120E+03
    -31.866  0.0000E+00  0.3120E+03
    -31.606  0.0000E+00  0.3120E+03
    -31.346  0.0000E+00  0.3120E+03
    -31.086  0.0000E+00  0.3120E+03
    -30.827  0.0000E+00  0.3120E+03
    -30.567  0.0000E+00  0.3120E+03
    -30.307  0.0000E+00  0.3120E+03
    -30.047  0.0000E+00  0.3120E+03
    -29.787  0.0000E+00  0.3120E+03
    -29.527  0.0000E+00  0.3120E+03
    -29.268  0.0000E+00  0.3120E+03
    -29.008  0.0000E+00  0.3120E+03
    -28.748  0.0000E+00  0.3120E+03
    -28.488  0.0000E+00  0.3120E+03
    -28.228  0.0000E+00  0.3120E+03
    -27.968  0.0000E+00  0.3120E+03
    -27.709  0.0000E+00  0.3120E+03
    -27.449  0.0000E+00  0.3120E+03
    -27.189  0.0000E+00  0.3120E+03
    -26.929  0.0000E+00  0.3120E+03
    -26.669  0.0000E+00  0.3120E+03
    -26.409  0.0000E+00  0.3120E+03
    -26.150  0.0000E+00  0.3120E+03
    -25.890  0.0000E+00  0.3120E+03
    -25.630  0.0000E+00  0.3120E+03
    -25.370  0.0000E+00  0.3120E+03
    -25.110  0.0000E+00  0.3120E+03
    -24.850  0.0000E+00  0.3120E+03
    -24.591  0.0000E+00  0.3120E+03
    -24.331  0.0000E+00  0.3120E+03
    -24.071  0.0000E+00  0.3120E+03
    -23.811  0.0000E+00  0.3120E+03
    -23.551  0.0000E+00  0.3120E+03
    -23.291  0.0000E+00  0.3120E+03
    -23.031  0.0000E+00  0.3120E+03
    -22.772  0.0000E+00  0.3120E+03
    -22.512  0.0000E+00  0.3120E+03
    -22.252  0.0000E+00  0.3120E+03
    -21.992  0.0000E+00  0.3120E+03
    -21.732  0.0000E+00  0.3120E+03
    -21.472  0.0000E+00  0.3120E+03
    -21.213  0.0000E+00  0.3120E+03
    -20.953  0.0000E+00  0.3120E+03
    -20.693  0.0000E+00  0.3120E+03
    -20.433  0.0000E+00  0.3120E+03
    -20.173  0.0000E+00  0.3120E+03
    -19.913  0.0000E+00  0.3120E+03
    -19.654  0.0000E+00  0.3120E+03
    -19.394  0.0000E+00  0.3120E+03
    -19.134  0.0000E+00  0.3120E+03
    -18.874  0.0000E+00  0.3120E+03
    -18.614  0.0000E+00  0.3120E+03
    -18.354  0.0000E+00  0.3120E+03
    -18.095  0.0000E+00  0.3120E+03
    -17.835  0.0000E+00  0.3120E+03
    -17.575  0.0000E+00  0.3120E+03
    -17.315  0.0000E+00  0.3120E+03
    -17.055  0.0000E+00  0.3120E+03
    -16.795  0.0000E+00  0.3120E+03
    -16.536  0.0000E+00  0.3120E+03
    -16.276  0.0000E+00  0.3120E+03
    -16.016  0.0000E+00  0.3120E+03
    -15.756  0.0000E+00  0.3120E+03
    -15.496  0.0000E+00  0.3120E+03
    -15.236  0.4709E-11  0.3120E+03
    -14.977  0.5385E-06  0.3120E+03
    -14.717  0.2340E-02  0.3120E+03
    -14.457  0.4287E+00  0.3121E+03
    -14.197  0.4480E+01  0.3133E+03
    -13.937  0.7290E+01  0.3152E+03
    -13.677  0.9566E+01  0.3177E+03
    -13.418  0.1736E+02  0.3222E+03
    -13.158  0.2707E+02  0.3292E+03
    -12.898  0.2336E+02  0.3353E+03
    -12.638  0.2461E+02  0.3417E+03
    -12.378  0.3281E+02  0.3502E+03
    -12.118  0.3895E+02  0.3603E+03
    -11.859  0.4250E+02  0.3714E+03
    -11.599  0.3775E+02  0.3812E+03
    -11.339  0.4892E+02  0.3939E+03
    -11.079  0.4040E+02  0.4044E+03
    -10.819  0.2839E+02  0.4117E+03
    -10.559  0.1443E+02  0.4155E+03
    -10.300  0.1909E+01  0.4160E+03
    -10.040  0.2656E-01  0.4160E+03
     -9.780  0.1982E-04  0.4160E+03
     -9.520  0.6028E-09  0.4160E+03
     -9.260  0.8546E-15  0.4160E+03
     -9.000  0.0000E+00  0.4160E+03
     -8.741  0.0000E+00  0.4160E+03
     -8.481  0.0000E+00  0.4160E+03
     -8.221  0.0000E+00  0.4160E+03
     -7.961  0.0000E+00  0.4160E+03
     -7.701  0.0000E+00  0.4160E+03
     -7.441  0.0000E+00  0.4160E+03
     -7.181  0.1453E-13  0.4160E+03
     -6.922  0.6532E-08  0.4160E+03
     -6.662  0.1125E-03  0.4160E+03
     -6.402  0.8373E-01  0.4160E+03
     -6.142  0.3740E+01  0.4170E+03
     -5.882  0.1888E+02  0.4219E+03
     -5.622  0.2969E+02  0.4296E+03
     -5.363  0.3032E+02  0.4375E+03
     -5.103  0.3576E+02  0.4468E+03
     -4.843  0.4659E+02  0.4589E+03
     -4.583  0.5906E+02  0.4742E+03
     -4.323  0.6316E+02  0.4906E+03
     -4.063  0.6571E+02  0.5077E+03
     -3.804  0.6895E+02  0.5256E+03
     -3.544  0.6127E+02  0.5416E+03
     -3.284  0.6842E+02  0.5593E+03
     -3.024  0.7496E+02  0.5788E+03
     -2.764  0.8791E+02  0.6017E+03
     -2.504  0.9031E+02  0.6251E+03
     -2.245  0.8265E+02  0.6466E+03
     -1.985  0.8948E+02  0.6698E+03
     -1.725  0.8708E+02  0.6925E+03
     -1.465  0.6267E+02  0.7088E+03
     -1.205  0.6318E+02  0.7252E+03
     -0.945  0.8481E+02  0.7472E+03
     -0.686  0.1012E+03  0.7735E+03
     -0.426  0.1240E+03  0.8057E+03
     -0.166  0.1481E+03  0.8442E+03
      0.094  0.1741E+03  0.8894E+03
      0.354  0.1925E+03  0.9395E+03
      0.614  0.1931E+03  0.9896E+03
      0.873  0.1605E+03  0.1031E+04
      1.133  0.1231E+03  0.1063E+04
      1.393  0.9881E+02  0.1089E+04
      1.653  0.8384E+02  0.1111E+04
      1.913  0.7678E+02  0.1131E+04
      2.173  0.6627E+02  0.1148E+04
      2.432  0.6038E+02  0.1164E+04
      2.692  0.6647E+02  0.1181E+04
      2.952  0.7741E+02  0.1201E+04
      3.212  0.6924E+02  0.1219E+04
      3.472  0.4887E+02  0.1232E+04
      3.732  0.3791E+02  0.1242E+04
      3.991  0.2057E+02  0.1247E+04
      4.251  0.7568E+01  0.1249E+04
      4.511  0.5074E+01  0.1250E+04
      4.771  0.6323E+01  0.1252E+04
      5.031  0.9402E+01  0.1254E+04
      5.291  0.1765E+02  0.1259E+04
      5.550  0.2047E+02  0.1264E+04
      5.810  0.2131E+02  0.1270E+04
      6.070  0.1633E+02  0.1274E+04
      6.330  0.2564E+02  0.1281E+04
      6.590  0.3744E+02  0.1290E+04
      6.850  0.3276E+02  0.1299E+04
      7.109  0.3982E+02  0.1309E+04
      7.369  0.5368E+02  0.1323E+04
      7.629  0.5206E+02  0.1337E+04
      7.889  0.5626E+02  0.1351E+04
      8.149  0.5341E+02  0.1365E+04
      8.409  0.2417E+02  0.1371E+04
      8.668  0.2037E+01  0.1372E+04
      8.928  0.1455E-01  0.1372E+04
      9.188  0.5704E-05  0.1372E+04
      9.448  0.9709E-10  0.1372E+04
      9.708  0.0000E+00  0.1372E+04
      9.968  0.0000E+00  0.1372E+04
     10.228  0.0000E+00  0.1372E+04
     10.487  0.0000E+00  0.1372E+04
     10.747  0.0000E+00  0.1372E+04
     11.007  0.0000E+00  0.1372E+04
     11.267  0.0000E+00  0.1372E+04
     11.527  0.0000E+00  0.1372E+04
     11.787  0.0000E+00  0.1372E+04
