<?xml version="1.0" encoding="ISO-8859-1"?>
<modeling>
 <generator>
  <i name="program" type="string">vasp </i>
  <i name="version" type="string">5.4.4.18Apr17-6-g9f103f2a35  </i>
  <i name="subversion" type="string">(build Aug 13 2019 17:33:20) gamma-only         parallel </i>
  <i name="platform" type="string">LinuxIFC </i>
  <i name="date" type="string">2020 05 11 </i>
  <i name="time" type="string">04:52:02 </i>
 </generator>
 <incar>
  <i type="string" name="SYSTEM">"Millerite NiS"</i>
  <i type="string" name="PREC">normal</i>
  <i type="int" name="NSIM">     4</i>
  <i type="int" name="NELM">   100</i>
  <i name="ENCUT">    450.00000000</i>
  <i type="string" name="LREAL">A</i>
  <i type="int" name="ISMEAR">     0</i>
  <i type="int" name="NWRITE">     2</i>
  <i type="logical" name="LWAVE"> F  </i>
  <i type="logical" name="LCHARG"> F  </i>
  <v type="int" name="KPOINT_BSE">    -1     0     0     0</v>
  <i type="int" name="NELM">   100</i>
 </incar>
 <structure name="primitive_cell" >
  <crystal>
   <varray name="basis" >
    <v>      11.25646304       0.00000000       0.00000000 </v>
    <v>       5.04456212      10.06282034       0.00000000 </v>
    <v>       0.00000000       0.00000000      22.88364939 </v>
   </varray>
   <i name="volume">   2592.07135999 </i>
   <varray name="rec_basis" >
    <v>       0.08883785      -0.04453504       0.00000000 </v>
    <v>       0.00000000       0.09937572       0.00000000 </v>
    <v>       0.00000000       0.00000000       0.04369932 </v>
   </varray>
  </crystal>
  <varray name="positions" >
   <v>       0.26092070       0.47878036       0.29050611 </v>
   <v>       0.07287764      -0.33317657       0.30639927 </v>
   <v>       0.17409868       0.39738738       0.22126075 </v>
   <v>       0.34231368      -0.43439761       0.22126075 </v>
   <v>       0.43627354       0.47164251       0.34956450 </v>
   <v>       0.26805855       0.30342751       0.34956450 </v>
   <v>       0.36819893       0.23939913       0.25660749 </v>
   <v>      -0.49969806       0.37150212       0.25660749 </v>
   <v>       0.16461074      -0.42464625       0.40928857 </v>
   <v>       0.35488056       0.38482049       0.41880986 </v>
   <v>       0.16696083      -0.42725976       0.16220237 </v>
   <v>       0.47891775       0.26078330       0.17809552 </v>
   <v>      -0.42712237       0.16682343       0.30639927 </v>
   <v>       0.00030194       0.37150212       0.25660749 </v>
   <v>       0.09426181      -0.22245774       0.38491124 </v>
   <v>      -0.03784120      -0.35456074       0.38491124 </v>
   <v>       0.36819893      -0.26060087       0.25660749 </v>
   <v>       0.26805855      -0.19657249       0.34956450 </v>
   <v>      -0.06372646       0.47164251       0.34956450 </v>
   <v>       0.46215880       0.14543926       0.38491124 </v>
   <v>       0.40634206       0.46546199       0.12830375 </v>
   <v>       0.27423906       0.33335899       0.12830375 </v>
   <v>      -0.40573819       0.27754226       0.38491124 </v>
   <v>       0.09426181       0.27754226       0.38491124 </v>
   <v>       0.46215880      -0.35456074       0.38491124 </v>
   <v>       0.00030194      -0.12849788       0.25660749 </v>
   <v>      -0.13180107      -0.26060087       0.25660749 </v>
   <v>      -0.02108225      -0.23921670       0.17809552 </v>
   <v>       0.08315092       0.47833421       0.11179240 </v>
   <v>       0.34231368       0.06560239       0.22126075 </v>
   <v>      -0.32590132       0.39738738       0.22126075 </v>
   <v>      -0.15768632      -0.43439761       0.22126075 </v>
   <v>       0.17409868      -0.10261262       0.22126075 </v>
   <v>      -0.47688294       0.38351228       0.45997596 </v>
   <v>       0.06350444      -0.44739887       0.48090547 </v>
   <v>       0.24968739      -0.33752765       0.09949196 </v>
   <v>       0.07287763       0.16682343       0.30639927 </v>
   <v>      -0.42712236      -0.33317657       0.30639927 </v>
   <v>       0.26176288       0.46459926      -0.49314397 </v>
   <v>       0.36201842       0.20946765       0.47786825 </v>
   <v>      -0.06372646      -0.02835749       0.34956450 </v>
   <v>      -0.23194145      -0.19657249       0.34956450 </v>
   <v>      -0.23194145       0.30342751       0.34956450 </v>
   <v>       0.43627354      -0.02835749       0.34956450 </v>
   <v>       0.03023343       0.37768264       0.47786825 </v>
   <v>       0.34431875       0.40892501       0.05661120 </v>
   <v>       0.47891775      -0.23921670       0.17809552 </v>
   <v>      -0.02108225       0.26078330       0.17809552 </v>
   <v>      -0.33639415       0.07464154       0.40954194 </v>
   <v>       0.27423907      -0.16664101       0.12830375 </v>
   <v>      -0.09365794       0.46546199       0.12830375 </v>
   <v>       0.25703797       0.15826566       0.10704642 </v>
   <v>       0.40342718      -0.27488510       0.47108430 </v>
   <v>      -0.33303917       0.07274024       0.16220237 </v>
   <v>      -0.14511944      -0.11517951       0.41880986 </v>
   <v>       0.26092070      -0.02121964       0.29050611 </v>
   <v>      -0.23907930       0.47878036       0.29050611 </v>
   <v>       0.44457975       0.31006024      -0.47970496 </v>
   <v>       0.02766511      -0.10922595       0.46086662 </v>
   <v>      -0.33424616      -0.42612879       0.40778432 </v>
   <v>      -0.41986118       0.49134724       0.09295701 </v>
   <v>      -0.13798158      -0.29053236       0.47786825 </v>
   <v>       0.16696083       0.07274024       0.16220237 </v>
   <v>       0.35488056      -0.11517951       0.41880986 </v>
   <v>      -0.14511944       0.38482049       0.41880986 </v>
   <v>      -0.23907930      -0.02121964       0.29050611 </v>
   <v>      -0.33303917      -0.42725976       0.16220237 </v>
   <v>       0.18517072       0.18905389       0.49975309 </v>
   <v>       0.16683750       0.07286357       0.43470302 </v>
   <v>       0.40115175      -0.43401249       0.03972904 </v>
   <v>      -0.13180107       0.23939913       0.25660749 </v>
   <v>      -0.49969806      -0.12849788       0.25660749 </v>
   <v>      -0.43793570       0.05053478       0.48106532 </v>
   <v>      -0.15768632       0.06560239       0.22126075 </v>
   <v>      -0.32590132      -0.10261262       0.22126075 </v>
   <v>      -0.22576093      -0.16664101       0.12830375 </v>
   <v>      -0.09365794      -0.03453801       0.12830375 </v>
   <v>      -0.03784120       0.14543926       0.38491124 </v>
   <v>      -0.22576094       0.33335899       0.12830375 </v>
   <v>       0.40634206      -0.03453801       0.12830375 </v>
   <v>      -0.40573819      -0.22245774       0.38491124 </v>
   <v>      -0.05287710      -0.18933566      -0.48137795 </v>
   <v>      -0.47301498      -0.30300268       0.08829215 </v>
   <v>      -0.24026432       0.15723163       0.10719848 </v>
   <v>       0.08692194      -0.04126297       0.09227686 </v>
   <v>      -0.41698369      -0.02219251       0.09990817 </v>
   <v>       0.22633860      -0.19400374       0.03336770 </v>
   <v>      -0.26050772      -0.33185885       0.09760269 </v>
   <v>      -0.13249588      -0.14896228       0.05407777 </v>
   <v>      -0.10188162       0.34196726       0.06373775 </v>
   <v>      -0.31007484      -0.32444664       0.47860014 </v>
   <v>      -0.13481170       0.20894250       0.46356840 </v>
   <v>      -0.06929427       0.29798058      -0.47572483 </v>
   <v>      -0.22490708       0.47874489      -0.49421265 </v>
   <v>      -0.46976658      -0.12231736       0.47786825 </v>
   <v>       0.38495789      -0.14525683       0.04979178 </v>
   <v>       0.35467917      -0.09793328      -0.48022343 </v>
   <v>       0.04434554       0.05618561       0.49705165 </v>
   <v>      -0.28804488       0.03373048       0.05680005 </v>
   <v>       0.21257531       0.02933829       0.05782824 </v>
   <v>      -0.23871619      -0.03730197      -0.49319172 </v>
   <v>      -0.26717005      -0.48684029       0.05084319 </v>
   <v>       0.18797291       0.04499475      -0.44376934 </v>
   <v>      -0.30785019      -0.17355853       0.03722805 </v>
  </varray>
 </structure>
 <varray name="primitive_index" >
  <v type="int" >        1 </v>
  <v type="int" >       79 </v>
  <v type="int" >       63 </v>
  <v type="int" >       87 </v>
  <v type="int" >       59 </v>
  <v type="int" >       64 </v>
  <v type="int" >        7 </v>
  <v type="int" >       23 </v>
  <v type="int" >       80 </v>
  <v type="int" >        2 </v>
  <v type="int" >       30 </v>
  <v type="int" >       56 </v>
  <v type="int" >       66 </v>
  <v type="int" >        9 </v>
  <v type="int" >       37 </v>
  <v type="int" >       48 </v>
  <v type="int" >       34 </v>
  <v type="int" >       90 </v>
  <v type="int" >       72 </v>
  <v type="int" >        8 </v>
  <v type="int" >       12 </v>
  <v type="int" >        6 </v>
  <v type="int" >       24 </v>
  <v type="int" >       10 </v>
  <v type="int" >       35 </v>
  <v type="int" >       36 </v>
  <v type="int" >       47 </v>
  <v type="int" >       95 </v>
  <v type="int" >       62 </v>
  <v type="int" >       61 </v>
  <v type="int" >       76 </v>
  <v type="int" >      100 </v>
  <v type="int" >       89 </v>
  <v type="int" >       71 </v>
  <v type="int" >       31 </v>
  <v type="int" >       86 </v>
  <v type="int" >       53 </v>
  <v type="int" >       92 </v>
  <v type="int" >       57 </v>
  <v type="int" >       65 </v>
  <v type="int" >       98 </v>
  <v type="int" >      103 </v>
  <v type="int" >       77 </v>
  <v type="int" >       85 </v>
  <v type="int" >       58 </v>
  <v type="int" >       55 </v>
  <v type="int" >       82 </v>
  <v type="int" >       69 </v>
  <v type="int" >       67 </v>
  <v type="int" >       33 </v>
  <v type="int" >       25 </v>
  <v type="int" >       60 </v>
  <v type="int" >       91 </v>
  <v type="int" >       17 </v>
  <v type="int" >       41 </v>
  <v type="int" >       27 </v>
  <v type="int" >       14 </v>
  <v type="int" >        3 </v>
  <v type="int" >       84 </v>
  <v type="int" >       93 </v>
  <v type="int" >       75 </v>
  <v type="int" >      104 </v>
  <v type="int" >        4 </v>
  <v type="int" >       28 </v>
  <v type="int" >       15 </v>
  <v type="int" >       40 </v>
  <v type="int" >       44 </v>
  <v type="int" >       11 </v>
  <v type="int" >       54 </v>
  <v type="int" >       39 </v>
  <v type="int" >       21 </v>
  <v type="int" >       49 </v>
  <v type="int" >       18 </v>
  <v type="int" >       74 </v>
  <v type="int" >      102 </v>
  <v type="int" >       46 </v>
  <v type="int" >       52 </v>
  <v type="int" >       22 </v>
  <v type="int" >       20 </v>
  <v type="int" >       38 </v>
  <v type="int" >       50 </v>
  <v type="int" >       42 </v>
  <v type="int" >       43 </v>
  <v type="int" >       73 </v>
  <v type="int" >       88 </v>
  <v type="int" >      101 </v>
  <v type="int" >       32 </v>
  <v type="int" >       99 </v>
  <v type="int" >       94 </v>
  <v type="int" >       68 </v>
  <v type="int" >       51 </v>
  <v type="int" >       78 </v>
  <v type="int" >       16 </v>
  <v type="int" >       70 </v>
  <v type="int" >       97 </v>
  <v type="int" >       81 </v>
  <v type="int" >       29 </v>
  <v type="int" >        5 </v>
  <v type="int" >       26 </v>
  <v type="int" >       13 </v>
  <v type="int" >       96 </v>
  <v type="int" >       19 </v>
  <v type="int" >       83 </v>
  <v type="int" >       45 </v>
 </varray>
 <kpoints>
  <generation param="Gamma">
   <v type="int" name="divisions">       1        1        1 </v>
   <v name="usershift">      0.00000000       0.00000000       0.00000000 </v>
   <v name="genvec1">      1.00000000       0.00000000       0.00000000 </v>
   <v name="genvec2">      0.00000000       1.00000000       0.00000000 </v>
   <v name="genvec3">      0.00000000       0.00000000       1.00000000 </v>
   <v name="shift">      0.00000000       0.00000000       0.00000000 </v>
  </generation>
  <varray name="kpointlist" >
   <v>       0.00000000       0.00000000       0.00000000 </v>
  </varray>
  <varray name="weights" >
   <v>       1.00000000 </v>
  </varray>
 </kpoints>
 <parameters>
  <separator name="general" >
   <i type="string" name="SYSTEM">"Millerite NiS"</i>
   <i type="logical" name="LCOMPAT"> F  </i>
  </separator>
  <separator name="electronic" >
   <i type="string" name="PREC">normal</i>
   <i name="ENMAX">    450.00000000</i>
   <i name="ENAUG">    703.44300000</i>
   <i name="EDIFF">      0.00010000</i>
   <i type="int" name="IALGO">    38</i>
   <i type="int" name="IWAVPR">    10</i>
   <i type="int" name="NBANDS">   686</i>
   <i name="NELECT">   1144.00000000</i>
   <i type="int" name="TURBO">     0</i>
   <i type="int" name="IRESTART">     0</i>
   <i type="int" name="NREBOOT">     0</i>
   <i type="int" name="NMIN">     0</i>
   <i name="EREF">      0.00000000</i>
   <separator name="electronic smearing" >
    <i type="int" name="ISMEAR">     0</i>
    <i name="SIGMA">      0.20000000</i>
    <i name="KSPACING">      0.50000000</i>
    <i type="logical" name="KGAMMA"> T  </i>
   </separator>
   <separator name="electronic projectors" >
    <i type="logical" name="LREAL"> T  </i>
    <v name="ROPT">     -0.00050000     -0.00050000</v>
    <i type="int" name="LMAXPAW">  -100</i>
    <i type="int" name="LMAXMIX">     2</i>
    <i type="logical" name="NLSPLINE"> F  </i>
   </separator>
   <separator name="electronic startup" >
    <i type="int" name="ISTART">     0</i>
    <i type="int" name="ICHARG">     2</i>
    <i type="int" name="INIWAV">     1</i>
   </separator>
   <separator name="electronic spin" >
    <i type="int" name="ISPIN">     1</i>
    <i type="logical" name="LNONCOLLINEAR"> F  </i>
    <v name="MAGMOM">      1.00000000      1.00000000      1.00000000      1.00000000      1.00000000      1.00000000      1.00000000      1.00000000      1.00000000      1.00000000      1.00000000      1.00000000      1.00000000      1.00000000      1.00000000      1.00000000      1.00000000      1.00000000      1.00000000      1.00000000
      1.00000000      1.00000000      1.00000000      1.00000000      1.00000000      1.00000000      1.00000000      1.00000000      1.00000000      1.00000000      1.00000000      1.00000000      1.00000000      1.00000000      1.00000000      1.00000000      1.00000000      1.00000000      1.00000000      1.00000000
      1.00000000      1.00000000      1.00000000      1.00000000      1.00000000      1.00000000      1.00000000      1.00000000      1.00000000      1.00000000      1.00000000      1.00000000      1.00000000      1.00000000      1.00000000      1.00000000      1.00000000      1.00000000      1.00000000      1.00000000
      1.00000000      1.00000000      1.00000000      1.00000000      1.00000000      1.00000000      1.00000000      1.00000000      1.00000000      1.00000000      1.00000000      1.00000000      1.00000000      1.00000000      1.00000000      1.00000000      1.00000000      1.00000000      1.00000000      1.00000000
      1.00000000      1.00000000      1.00000000      1.00000000      1.00000000      1.00000000      1.00000000      1.00000000      1.00000000      1.00000000      1.00000000      1.00000000      1.00000000      1.00000000      1.00000000      1.00000000      1.00000000      1.00000000      1.00000000      1.00000000
      1.00000000      1.00000000      1.00000000      1.00000000</v>
    <i name="NUPDOWN">     -1.00000000</i>
    <i type="logical" name="LSORBIT"> F  </i>
    <v name="SAXIS">      0.00000000      0.00000000      1.00000000</v>
    <i type="logical" name="LSPIRAL"> F  </i>
    <v name="QSPIRAL">      0.00000000      0.00000000      0.00000000</v>
    <i type="logical" name="LZEROZ"> F  </i>
   </separator>
   <separator name="electronic exchange-correlation" >
    <i type="logical" name="LASPH"> F  </i>
    <i type="logical" name="LMETAGGA"> F  </i>
   </separator>
   <separator name="electronic convergence" >
    <i type="int" name="NELM">   100</i>
    <i type="int" name="NELMDL">    -5</i>
    <i type="int" name="NELMIN">     2</i>
    <i name="ENINI">    450.00000000</i>
    <separator name="electronic convergence detail" >
     <i type="logical" name="LDIAG"> T  </i>
     <i type="logical" name="LSUBROT"> F  </i>
     <i name="WEIMIN">      0.00000000</i>
     <i name="EBREAK">      0.00000004</i>
     <i name="DEPER">      0.30000000</i>
     <i type="int" name="NRMM">     4</i>
     <i name="TIME">      0.40000000</i>
    </separator>
   </separator>
   <separator name="electronic mixer" >
    <i name="AMIX">      0.40000000</i>
    <i name="BMIX">      1.00000000</i>
    <i name="AMIN">      0.10000000</i>
    <i name="AMIX_MAG">      1.60000000</i>
    <i name="BMIX_MAG">      1.00000000</i>
    <separator name="electronic mixer details" >
     <i type="int" name="IMIX">     4</i>
     <i type="logical" name="MIXFIRST"> F  </i>
     <i type="int" name="MAXMIX">   -45</i>
     <i name="WC">    100.00000000</i>
     <i type="int" name="INIMIX">     1</i>
     <i type="int" name="MIXPRE">     1</i>
     <i type="int" name="MREMOVE">     5</i>
    </separator>
   </separator>
   <separator name="electronic dipolcorrection" >
    <i type="logical" name="LDIPOL"> F  </i>
    <i type="logical" name="LMONO"> F  </i>
    <i type="int" name="IDIPOL">     0</i>
    <i name="EPSILON">      1.00000000</i>
    <v name="DIPOL">   -100.00000000   -100.00000000   -100.00000000</v>
    <i name="EFIELD">      0.00000000</i>
   </separator>
  </separator>
  <separator name="grids" >
   <i type="int" name="NGX">    60</i>
   <i type="int" name="NGY">    60</i>
   <i type="int" name="NGZ">   120</i>
   <i type="int" name="NGXF">   120</i>
   <i type="int" name="NGYF">   120</i>
   <i type="int" name="NGZF">   240</i>
   <i type="logical" name="ADDGRID"> F  </i>
  </separator>
  <separator name="ionic" >
   <i type="int" name="NSW">     0</i>
   <i type="int" name="IBRION">    -1</i>
   <i type="int" name="MDALGO">     0</i>
   <i type="int" name="ISIF">     2</i>
   <i name="PSTRESS">      0.00000000</i>
   <i name="EDIFFG">      0.00100000</i>
   <i type="int" name="NFREE">     0</i>
   <i name="POTIM">      0.50000000</i>
   <i name="SMASS">     -3.00000000</i>
   <i name="SCALEE">      1.00000000</i>
  </separator>
  <separator name="ionic md" >
   <i name="TEBEG">      0.00010000</i>
   <i name="TEEND">      0.00010000</i>
   <i type="int" name="NBLOCK">     1</i>
   <i type="int" name="KBLOCK">     1</i>
   <i type="int" name="NPACO">   256</i>
   <i name="APACO">     16.00000000</i>
  </separator>
  <separator name="symmetry" >
   <i type="int" name="ISYM">     2</i>
   <i name="SYMPREC">      0.00001000</i>
  </separator>
  <separator name="dos" >
   <i type="int" name="LORBIT">     0</i>
   <v name="RWIGS">     -1.00000000     -1.00000000</v>
   <i type="int" name="NEDOS">   301</i>
   <i name="EMIN">     10.00000000</i>
   <i name="EMAX">    -10.00000000</i>
   <i name="EFERMI">      0.00000000</i>
  </separator>
  <separator name="writing" >
   <i type="int" name="NWRITE">     2</i>
   <i type="logical" name="LWAVE"> F  </i>
   <i type="logical" name="LDOWNSAMPLE"> F  </i>
   <i type="logical" name="LCHARG"> F  </i>
   <i type="logical" name="LPARD"> F  </i>
   <i type="logical" name="LVTOT"> F  </i>
   <i type="logical" name="LVHAR"> F  </i>
   <i type="logical" name="LELF"> F  </i>
   <i type="logical" name="LOPTICS"> F  </i>
   <v name="STM">      0.00000000      0.00000000      0.00000000      0.00000000      0.00000000      0.00000000      0.00000000</v>
  </separator>
  <separator name="performance" >
   <i type="int" name="NPAR">     2</i>
   <i type="int" name="NSIM">     4</i>
   <i type="int" name="NBLK">    -1</i>
   <i type="logical" name="LPLANE"> T  </i>
   <i type="logical" name="LSCALAPACK"> T  </i>
   <i type="logical" name="LSCAAWARE"> F  </i>
   <i type="logical" name="LSCALU"> F  </i>
   <i type="logical" name="LASYNC"> F  </i>
   <i type="logical" name="LORBITALREAL"> F  </i>
  </separator>
  <separator name="miscellaneous" >
   <i type="int" name="IDIOT">     3</i>
   <i type="int" name="ISPECIAL">     0</i>
   <i type="logical" name="LMUSIC"> F  </i>
   <v name="POMASS">     58.69000000     32.06600000</v>
   <v name="DARWINR">      0.00000000      0.00000000</v>
   <v name="DARWINV">      1.00000000      1.00000000</v>
   <i type="logical" name="LCORR"> T  </i>
  </separator>
  <i type="logical" name="GGA_COMPAT"> T  </i>
  <i type="logical" name="LBERRY"> F  </i>
  <i type="int" name="ICORELEVEL">     0</i>
  <i type="logical" name="LDAU"> F  </i>
  <i type="int" name="I_CONSTRAINED_M">     0</i>
  <separator name="electronic exchange-correlation" >
   <i type="string" name="GGA">--</i>
   <i type="int" name="VOSKOWN">     0</i>
   <i type="logical" name="LHFCALC"> F  </i>
   <i type="string" name="PRECFOCK"></i>
   <i type="logical" name="LSYMGRAD"> F  </i>
   <i type="logical" name="LHFONE"> F  </i>
   <i type="logical" name="LRHFCALC"> F  </i>
   <i type="logical" name="LTHOMAS"> F  </i>
   <i type="logical" name="LMODELHF"> F  </i>
   <i name="ENCUT4O">     -1.00000000</i>
   <i type="int" name="EXXOEP">     0</i>
   <i type="int" name="FOURORBIT">     0</i>
   <i name="AEXX">      0.00000000</i>
   <i name="HFALPHA">      0.00000000</i>
   <i name="MCALPHA">      0.00000000</i>
   <i name="ALDAX">      1.00000000</i>
   <i name="AGGAX">      1.00000000</i>
   <i name="ALDAC">      1.00000000</i>
   <i name="AGGAC">      1.00000000</i>
   <i type="int" name="NKREDX">     1</i>
   <i type="int" name="NKREDY">     1</i>
   <i type="int" name="NKREDZ">     1</i>
   <i type="logical" name="SHIFTRED"> F  </i>
   <i type="logical" name="ODDONLY"> F  </i>
   <i type="logical" name="EVENONLY"> F  </i>
   <i type="int" name="LMAXFOCK">     0</i>
   <i type="int" name="NMAXFOCKAE">     0</i>
   <i type="logical" name="LFOCKAEDFT"> F  </i>
   <i name="HFSCREEN">      0.00000000</i>
   <i name="HFSCREENC">      0.00000000</i>
   <i type="int" name="NBANDSGWLOW">     0</i>
  </separator>
  <separator name="vdW DFT" >
   <i type="logical" name="LUSE_VDW"> F  </i>
   <i name="Zab_VDW">     -0.84910000</i>
   <i name="PARAM1">      0.12340000</i>
   <i name="PARAM2">      1.00000000</i>
   <i name="PARAM3">      0.00000000</i>
  </separator>
  <separator name="model GW" >
   <i type="int" name="MODEL_GW">     0</i>
   <i name="MODEL_EPS0">     14.95425785</i>
   <i name="MODEL_ALPHA">      1.00000000</i>
  </separator>
  <separator name="linear response parameters" >
   <i type="logical" name="LEPSILON"> F  </i>
   <i type="logical" name="LRPA"> F  </i>
   <i type="logical" name="LNABLA"> F  </i>
   <i type="logical" name="LVEL"> F  </i>
   <i type="int" name="KINTER">     0</i>
   <i name="CSHIFT">      0.10000000</i>
   <i name="OMEGAMAX">     -1.00000000</i>
   <i name="DEG_THRESHOLD">      0.00200000</i>
   <i name="RTIME">     -0.10000000</i>
   <i name="WPLASMAI">      0.00000000</i>
   <v name="DFIELD">      0.00000000      0.00000000      0.00000000</v>
   <v name="WPLASMA">      0.00000000      0.00000000      0.00000000      0.00000000      0.00000000      0.00000000      0.00000000      0.00000000      0.00000000</v>
  </separator>
  <separator name="orbital magnetization" >
   <i type="logical" name="NUCIND"> F  </i>
   <v name="MAGPOS">      0.00000000      0.00000000      0.00000000</v>
   <i type="logical" name="LNICSALL"> T  </i>
   <i type="logical" name="ORBITALMAG"> F  </i>
   <i type="logical" name="LMAGBLOCH"> F  </i>
   <i type="logical" name="LCHIMAG"> F  </i>
   <i type="logical" name="LGAUGE"> T  </i>
   <i type="int" name="MAGATOM">     0</i>
   <v name="MAGDIPOL">      0.00000000      0.00000000      0.00000000</v>
   <v name="AVECCONST">      0.00000000      0.00000000      0.00000000</v>
  </separator>
  <separator name="response functions" >
   <i type="logical" name="LADDER"> F  </i>
   <i type="logical" name="LRPAFORCE"> F  </i>
   <i type="logical" name="LFXC"> F  </i>
   <i type="logical" name="LHARTREE"> T  </i>
   <i type="int" name="IBSE">     0</i>
   <v type="int" name="KPOINT">    -1     0     0     0</v>
   <i type="logical" name="LTCTE"> F  </i>
   <i type="logical" name="LTETE"> F  </i>
   <i type="logical" name="LTRIPLET"> F  </i>
   <i type="logical" name="LFXCEPS"> F  </i>
   <i type="logical" name="LFXHEG"> F  </i>
   <i type="int" name="NATURALO">     2</i>
   <i type="logical" name="L2ORDER"> F  </i>
   <i type="logical" name="LMP2LT"> F  </i>
   <i type="logical" name="LUSEW"> F  </i>
   <i name="ENCUTGW">     -2.00000000</i>
   <i name="ENCUTGWSOFT">     -2.00000000</i>
   <i name="ENCUTLF">     -1.00000000</i>
   <i type="int" name="LMAXMP2">    -1</i>
   <i name="SCISSOR">      0.00000000</i>
   <i type="int" name="NOMEGA">     0</i>
   <i type="int" name="NOMEGAR">     0</i>
   <i type="int" name="NBANDSGW">    -1</i>
   <i type="int" name="NBANDSO">    -1</i>
   <i type="int" name="NBANDSV">    -1</i>
   <i type="int" name="NELM">   100</i>
   <i type="int" name="NELMHF">     1</i>
   <i type="int" name="DIM">     3</i>
   <i type="int" name="ANTIRES">     0</i>
   <i name="OMEGAMAX">    -30.00000000</i>
   <i name="OMEGAMIN">    -30.00000000</i>
   <i name="OMEGATL">   -200.00000000</i>
   <i type="int" name="OMEGAGRID">   140</i>
   <i name="CSHIFT">     -0.10000000</i>
   <i type="logical" name="SELFENERGY"> F  </i>
   <i type="logical" name="LSPECTRAL"> F  </i>
   <i type="logical" name="LSPECTRALGW"> F  </i>
   <i type="logical" name="LSINGLES"> F  </i>
   <i type="logical" name="LFERMIGW"> F  </i>
   <i type="logical" name="ODDONLYGW"> F  </i>
   <i type="logical" name="EVENONLYGW"> F  </i>
   <i type="int" name="NKREDLFX">     1</i>
   <i type="int" name="NKREDLFY">     1</i>
   <i type="int" name="NKREDLFZ">     1</i>
   <i type="int" name="MAXMEM">  2800</i>
   <i type="int" name="TELESCOPE">     0</i>
   <i type="int" name="TAUPAR">     1</i>
   <i type="int" name="OMEGAPAR">    -1</i>
   <i name="LAMBDA">      1.00000000</i>
  </separator>
  <separator name="External order field" >
   <i name="OFIELD_KAPPA">      0.00000000</i>
   <v name="OFIELD_K">      0.00000000      0.00000000      0.00000000</v>
   <i name="OFIELD_Q6_NEAR">      0.00000000</i>
   <i name="OFIELD_Q6_FAR">      0.00000000</i>
   <i name="OFIELD_A">      0.00000000</i>
  </separator>
 </parameters>
 <atominfo>
  <atoms>     104 </atoms>
  <types>       2 </types>
  <array name="atoms" >
   <dimension dim="1">ion</dimension>
   <field type="string">element</field>
   <field type="int">atomtype</field>
   <set>
    <rc><c>Ni</c><c>   1</c></rc>
    <rc><c>Ni</c><c>   1</c></rc>
    <rc><c>Ni</c><c>   1</c></rc>
    <rc><c>Ni</c><c>   1</c></rc>
    <rc><c>Ni</c><c>   1</c></rc>
    <rc><c>Ni</c><c>   1</c></rc>
    <rc><c>Ni</c><c>   1</c></rc>
    <rc><c>Ni</c><c>   1</c></rc>
    <rc><c>Ni</c><c>   1</c></rc>
    <rc><c>Ni</c><c>   1</c></rc>
    <rc><c>Ni</c><c>   1</c></rc>
    <rc><c>Ni</c><c>   1</c></rc>
    <rc><c>Ni</c><c>   1</c></rc>
    <rc><c>Ni</c><c>   1</c></rc>
    <rc><c>Ni</c><c>   1</c></rc>
    <rc><c>Ni</c><c>   1</c></rc>
    <rc><c>Ni</c><c>   1</c></rc>
    <rc><c>Ni</c><c>   1</c></rc>
    <rc><c>Ni</c><c>   1</c></rc>
    <rc><c>Ni</c><c>   1</c></rc>
    <rc><c>Ni</c><c>   1</c></rc>
    <rc><c>Ni</c><c>   1</c></rc>
    <rc><c>Ni</c><c>   1</c></rc>
    <rc><c>Ni</c><c>   1</c></rc>
    <rc><c>Ni</c><c>   1</c></rc>
    <rc><c>Ni</c><c>   1</c></rc>
    <rc><c>Ni</c><c>   1</c></rc>
    <rc><c>Ni</c><c>   1</c></rc>
    <rc><c>Ni</c><c>   1</c></rc>
    <rc><c>Ni</c><c>   1</c></rc>
    <rc><c>Ni</c><c>   1</c></rc>
    <rc><c>Ni</c><c>   1</c></rc>
    <rc><c>Ni</c><c>   1</c></rc>
    <rc><c>Ni</c><c>   1</c></rc>
    <rc><c>Ni</c><c>   1</c></rc>
    <rc><c>Ni</c><c>   1</c></rc>
    <rc><c>Ni</c><c>   1</c></rc>
    <rc><c>Ni</c><c>   1</c></rc>
    <rc><c>Ni</c><c>   1</c></rc>
    <rc><c>Ni</c><c>   1</c></rc>
    <rc><c>Ni</c><c>   1</c></rc>
    <rc><c>Ni</c><c>   1</c></rc>
    <rc><c>Ni</c><c>   1</c></rc>
    <rc><c>Ni</c><c>   1</c></rc>
    <rc><c>Ni</c><c>   1</c></rc>
    <rc><c>Ni</c><c>   1</c></rc>
    <rc><c>Ni</c><c>   1</c></rc>
    <rc><c>Ni</c><c>   1</c></rc>
    <rc><c>Ni</c><c>   1</c></rc>
    <rc><c>Ni</c><c>   1</c></rc>
    <rc><c>Ni</c><c>   1</c></rc>
    <rc><c>Ni</c><c>   1</c></rc>
    <rc><c>S </c><c>   2</c></rc>
    <rc><c>S </c><c>   2</c></rc>
    <rc><c>S </c><c>   2</c></rc>
    <rc><c>S </c><c>   2</c></rc>
    <rc><c>S </c><c>   2</c></rc>
    <rc><c>S </c><c>   2</c></rc>
    <rc><c>S </c><c>   2</c></rc>
    <rc><c>S </c><c>   2</c></rc>
    <rc><c>S </c><c>   2</c></rc>
    <rc><c>S </c><c>   2</c></rc>
    <rc><c>S </c><c>   2</c></rc>
    <rc><c>S </c><c>   2</c></rc>
    <rc><c>S </c><c>   2</c></rc>
    <rc><c>S </c><c>   2</c></rc>
    <rc><c>S </c><c>   2</c></rc>
    <rc><c>S </c><c>   2</c></rc>
    <rc><c>S </c><c>   2</c></rc>
    <rc><c>S </c><c>   2</c></rc>
    <rc><c>S </c><c>   2</c></rc>
    <rc><c>S </c><c>   2</c></rc>
    <rc><c>S </c><c>   2</c></rc>
    <rc><c>S </c><c>   2</c></rc>
    <rc><c>S </c><c>   2</c></rc>
    <rc><c>S </c><c>   2</c></rc>
    <rc><c>S </c><c>   2</c></rc>
    <rc><c>S </c><c>   2</c></rc>
    <rc><c>S </c><c>   2</c></rc>
    <rc><c>S </c><c>   2</c></rc>
    <rc><c>S </c><c>   2</c></rc>
    <rc><c>S </c><c>   2</c></rc>
    <rc><c>S </c><c>   2</c></rc>
    <rc><c>S </c><c>   2</c></rc>
    <rc><c>S </c><c>   2</c></rc>
    <rc><c>S </c><c>   2</c></rc>
    <rc><c>S </c><c>   2</c></rc>
    <rc><c>S </c><c>   2</c></rc>
    <rc><c>S </c><c>   2</c></rc>
    <rc><c>S </c><c>   2</c></rc>
    <rc><c>S </c><c>   2</c></rc>
    <rc><c>S </c><c>   2</c></rc>
    <rc><c>S </c><c>   2</c></rc>
    <rc><c>S </c><c>   2</c></rc>
    <rc><c>S </c><c>   2</c></rc>
    <rc><c>S </c><c>   2</c></rc>
    <rc><c>S </c><c>   2</c></rc>
    <rc><c>S </c><c>   2</c></rc>
    <rc><c>S </c><c>   2</c></rc>
    <rc><c>S </c><c>   2</c></rc>
    <rc><c>S </c><c>   2</c></rc>
    <rc><c>S </c><c>   2</c></rc>
    <rc><c>S </c><c>   2</c></rc>
    <rc><c>S </c><c>   2</c></rc>
   </set>
  </array>
  <array name="atomtypes" >
   <dimension dim="1">type</dimension>
   <field type="int">atomspertype</field>
   <field type="string">element</field>
   <field>mass</field>
   <field>valence</field>
   <field type="string">pseudopotential</field>
   <set>
    <rc><c>  52</c><c>Ni</c><c>     58.69000000</c><c>     16.00000000</c><c>  PAW_PBE Ni_pv 06Sep2000               </c></rc>
    <rc><c>  52</c><c>S </c><c>     32.06600000</c><c>      6.00000000</c><c>  PAW_PBE S 06Sep2000                   </c></rc>
   </set>
  </array>
 </atominfo>
 <structure name="initialpos" >
  <crystal>
   <varray name="basis" >
    <v>      11.25646304       0.00000000       0.00000000 </v>
    <v>       5.04456212      10.06282034       0.00000000 </v>
    <v>       0.00000000       0.00000000      22.88364939 </v>
   </varray>
   <i name="volume">   2592.07135999 </i>
   <varray name="rec_basis" >
    <v>       0.08883785      -0.04453504       0.00000000 </v>
    <v>       0.00000000       0.09937572       0.00000000 </v>
    <v>       0.00000000       0.00000000       0.04369932 </v>
   </varray>
  </crystal>
  <varray name="positions" >
   <v>       0.26092070       0.47878036       0.29050611 </v>
   <v>       0.35488056       0.38482049       0.41880986 </v>
   <v>       0.44457975       0.31006024       0.52029504 </v>
   <v>       0.16696083       0.07274024       0.16220237 </v>
   <v>       0.04434554       0.05618561       0.49705165 </v>
   <v>       0.27423906       0.33335899       0.12830375 </v>
   <v>       0.36819893       0.23939913       0.25660749 </v>
   <v>       0.46215880       0.14543926       0.38491124 </v>
   <v>       0.00030194       0.37150212       0.25660749 </v>
   <v>       0.09426181       0.27754226       0.38491124 </v>
   <v>       0.18517072       0.18905389       0.49975309 </v>
   <v>       0.40634206       0.46546199       0.12830375 </v>
   <v>       0.21257531       0.02933829       0.05782824 </v>
   <v>       0.76092070       0.47878036       0.29050611 </v>
   <v>       0.85488056       0.38482049       0.41880986 </v>
   <v>       0.93070573       0.29798058       0.52427517 </v>
   <v>       0.66696083       0.07274024       0.16220237 </v>
   <v>       0.56206430       0.05053478       0.48106532 </v>
   <v>       0.73282995       0.51315971       0.05084319 </v>
   <v>       0.77423906       0.33335899       0.12830375 </v>
   <v>       0.86819893       0.23939913       0.25660749 </v>
   <v>       0.96215880       0.14543926       0.38491124 </v>
   <v>       0.50030194       0.37150212       0.25660749 </v>
   <v>       0.59426181       0.27754226       0.38491124 </v>
   <v>       0.90634206       0.46546199       0.12830375 </v>
   <v>       0.71195512       0.03373048       0.05680005 </v>
   <v>       0.26092070       0.97878036       0.29050611 </v>
   <v>       0.35488056       0.88482049       0.41880986 </v>
   <v>       0.35467917       0.90206672       0.51977657 </v>
   <v>       0.16696083       0.57274024       0.16220237 </v>
   <v>       0.06350444       0.55260113       0.48090547 </v>
   <v>       0.22633860       0.80599626       0.03336770 </v>
   <v>       0.27423907       0.83335899       0.12830375 </v>
   <v>       0.36819893       0.73939913       0.25660749 </v>
   <v>       0.46215880       0.64543926       0.38491124 </v>
   <v>       0.00030194       0.87150212       0.25660749 </v>
   <v>       0.09426181       0.77754226       0.38491124 </v>
   <v>       0.40634206       0.96546199       0.12830375 </v>
   <v>       0.40115175       0.56598751       0.03972904 </v>
   <v>       0.76092070       0.97878036       0.29050611 </v>
   <v>       0.85488056       0.88482049       0.41880986 </v>
   <v>       0.94712290       0.81066434       0.51862205 </v>
   <v>       0.52698502       0.69699732       0.08829215 </v>
   <v>       0.66696083       0.57274024       0.16220237 </v>
   <v>       0.69214981       0.82644147       0.03722805 </v>
   <v>       0.77423907       0.83335899       0.12830375 </v>
   <v>       0.86819893       0.73939913       0.25660749 </v>
   <v>       0.96215880       0.64543926       0.38491124 </v>
   <v>       0.50030194       0.87150212       0.25660749 </v>
   <v>       0.59426181       0.77754226       0.38491124 </v>
   <v>       0.68992516       0.67555336       0.47860014 </v>
   <v>       0.90634206       0.96546199       0.12830375 </v>
   <v>       0.07287763       0.16682343       0.30639927 </v>
   <v>       0.16683750       0.07286357       0.43470302 </v>
   <v>       0.34431875       0.40892501       0.05661120 </v>
   <v>       0.47891775       0.26078330       0.17809552 </v>
   <v>       0.26176288       0.46459926       0.50685603 </v>
   <v>       0.03023343       0.37768264       0.47786825 </v>
   <v>       0.43627354       0.47164251       0.34956450 </v>
   <v>       0.25703797       0.15826566       0.10704642 </v>
   <v>       0.34231368       0.06560239       0.22126075 </v>
   <v>       0.08315092       0.47833421       0.11179240 </v>
   <v>       0.17409868       0.39738738       0.22126075 </v>
   <v>       0.26805855       0.30342751       0.34956450 </v>
   <v>       0.36201842       0.20946765       0.47786825 </v>
   <v>       0.57287763       0.16682343       0.30639927 </v>
   <v>       0.66360585       0.07464154       0.40954194 </v>
   <v>       0.89811838       0.34196726       0.06373775 </v>
   <v>       0.97891775       0.26078330       0.17809552 </v>
   <v>       0.77509292       0.47874489       0.50578735 </v>
   <v>       0.52311706       0.38351228       0.45997596 </v>
   <v>       0.93627354       0.47164251       0.34956450 </v>
   <v>       0.75973568       0.15723163       0.10719848 </v>
   <v>       0.84231368       0.06560239       0.22126075 </v>
   <v>       0.58013882       0.49134724       0.09295701 </v>
   <v>       0.67409868       0.39738738       0.22126075 </v>
   <v>       0.76805855       0.30342751       0.34956450 </v>
   <v>       0.86518830       0.20894250       0.46356840 </v>
   <v>       0.07287764       0.66682343       0.30639927 </v>
   <v>       0.16461074       0.57535375       0.40928857 </v>
   <v>       0.38495789       0.85474317       0.04979178 </v>
   <v>       0.47891775       0.76078330       0.17809552 </v>
   <v>       0.18797291       0.04499475       0.55623066 </v>
   <v>       0.02766511       0.89077405       0.46086662 </v>
   <v>       0.43627354       0.97164251       0.34956450 </v>
   <v>       0.24968739       0.66247235       0.09949196 </v>
   <v>       0.34231368       0.56560239       0.22126075 </v>
   <v>       0.08692194       0.95873703       0.09227686 </v>
   <v>       0.17409868       0.89738738       0.22126075 </v>
   <v>       0.26805855       0.80342751       0.34956450 </v>
   <v>       0.40342718       0.72511490       0.47108430 </v>
   <v>       0.57287764       0.66682343       0.30639927 </v>
   <v>       0.66575384       0.57387121       0.40778432 </v>
   <v>       0.86750412       0.85103772       0.05407777 </v>
   <v>       0.97891775       0.76078330       0.17809552 </v>
   <v>       0.76128381       0.96269803       0.50680828 </v>
   <v>       0.53023342       0.87768264       0.47786825 </v>
   <v>       0.93627354       0.97164251       0.34956450 </v>
   <v>       0.73949228       0.66814115       0.09760269 </v>
   <v>       0.84231368       0.56560239       0.22126075 </v>
   <v>       0.58301631       0.97780749       0.09990817 </v>
   <v>       0.67409868       0.89738738       0.22126075 </v>
   <v>       0.76805855       0.80342751       0.34956450 </v>
   <v>       0.86201842       0.70946764       0.47786825 </v>
  </varray>
 </structure>
 <calculation>
  <scstep>
   <time name="dav">   15.68   15.68</time>
   <time name="total">   16.08   16.08</time>
   <energy>
    <i name="alphaZ">   2994.23548884 </i>
    <i name="ewald"> 336888.55418814 </i>
    <i name="hartreedc">-514419.25622844 </i>
    <i name="XCdc">   5315.89668540 </i>
    <i name="pawpsdc"> 162831.54814933 </i>
    <i name="pawaedc">-169926.62828172 </i>
    <i name="eentropy">     -0.42536932 </i>
    <i name="bandstr">  -5224.31548964 </i>
    <i name="atom"> 196448.20729987 </i>
    <i name="e_fr_energy">  14907.81644247 </i>
    <i name="e_wo_entrp">  14908.24181178 </i>
    <i name="e_0_energy">  14908.02912713 </i>
   </energy>
  </scstep>
  <scstep>
   <time name="dav">   13.98   13.99</time>
   <time name="total">   13.98   13.99</time>
   <energy>
    <i name="e_fr_energy">    995.23003966 </i>
    <i name="e_wo_entrp">    996.19615317 </i>
    <i name="e_0_energy">    995.71309641 </i>
   </energy>
  </scstep>
  <scstep>
   <time name="dav">   14.74   14.74</time>
   <time name="total">   14.74   14.74</time>
   <energy>
    <i name="e_fr_energy">   -474.42660037 </i>
    <i name="e_wo_entrp">   -473.04450697 </i>
    <i name="e_0_energy">   -473.73555367 </i>
   </energy>
  </scstep>
  <scstep>
   <time name="dav">   14.99   14.99</time>
   <time name="total">   14.99   14.99</time>
   <energy>
    <i name="e_fr_energy">   -571.67803611 </i>
    <i name="e_wo_entrp">   -570.21645250 </i>
    <i name="e_0_energy">   -570.94724430 </i>
   </energy>
  </scstep>
  <scstep>
   <time name="dav">   16.85   16.85</time>
   <time name="total">   17.30   17.30</time>
   <energy>
    <i name="e_fr_energy">   -575.71540818 </i>
    <i name="e_wo_entrp">   -574.25560048 </i>
    <i name="e_0_energy">   -574.98550433 </i>
   </energy>
  </scstep>
  <scstep>
   <time name="dav">   16.20   16.21</time>
   <time name="total">   17.07   17.08</time>
   <energy>
    <i name="e_fr_energy">   -675.44075921 </i>
    <i name="e_wo_entrp">   -674.31217673 </i>
    <i name="e_0_energy">   -674.87646797 </i>
   </energy>
  </scstep>
  <scstep>
   <time name="dav">   14.94   14.95</time>
   <time name="total">   15.78   15.79</time>
   <energy>
    <i name="e_fr_energy">   -544.48289175 </i>
    <i name="e_wo_entrp">   -543.53386187 </i>
    <i name="e_0_energy">   -544.00837681 </i>
   </energy>
  </scstep>
  <scstep>
   <time name="dav">   17.22   17.23</time>
   <time name="total">   18.07   18.08</time>
   <energy>
    <i name="e_fr_energy">   -674.41757896 </i>
    <i name="e_wo_entrp">   -673.52657465 </i>
    <i name="e_0_energy">   -673.97207680 </i>
   </energy>
  </scstep>
  <scstep>
   <time name="dav">   17.16   17.16</time>
   <time name="total">   18.10   18.11</time>
   <energy>
    <i name="e_fr_energy">   -605.06438019 </i>
    <i name="e_wo_entrp">   -603.36555848 </i>
    <i name="e_0_energy">   -604.21496933 </i>
   </energy>
  </scstep>
  <scstep>
   <time name="dav">   18.09   18.09</time>
   <time name="total">   18.91   18.91</time>
   <energy>
    <i name="e_fr_energy">   -606.93942623 </i>
    <i name="e_wo_entrp">   -605.07834603 </i>
    <i name="e_0_energy">   -606.00888613 </i>
   </energy>
  </scstep>
  <scstep>
   <time name="dav">   17.39   17.40</time>
   <time name="total">   18.43   18.44</time>
   <energy>
    <i name="e_fr_energy">   -596.12890184 </i>
    <i name="e_wo_entrp">   -594.67987426 </i>
    <i name="e_0_energy">   -595.40438805 </i>
   </energy>
  </scstep>
  <scstep>
   <time name="dav">   17.17   17.17</time>
   <time name="total">   18.00   18.00</time>
   <energy>
    <i name="e_fr_energy">   -557.25015621 </i>
    <i name="e_wo_entrp">   -556.03320181 </i>
    <i name="e_0_energy">   -556.64167901 </i>
   </energy>
  </scstep>
  <scstep>
   <time name="dav">   16.96   16.96</time>
   <time name="total">   17.78   17.79</time>
   <energy>
    <i name="e_fr_energy">   -552.12168966 </i>
    <i name="e_wo_entrp">   -550.66208209 </i>
    <i name="e_0_energy">   -551.39188587 </i>
   </energy>
  </scstep>
  <scstep>
   <time name="dav">   17.38   17.38</time>
   <time name="total">   18.47   18.47</time>
   <energy>
    <i name="e_fr_energy">   -546.63822643 </i>
    <i name="e_wo_entrp">   -545.12920582 </i>
    <i name="e_0_energy">   -545.88371612 </i>
   </energy>
  </scstep>
  <scstep>
   <time name="dav">   17.44   17.44</time>
   <time name="total">   18.27   18.27</time>
   <energy>
    <i name="e_fr_energy">   -525.29815092 </i>
    <i name="e_wo_entrp">   -524.13690987 </i>
    <i name="e_0_energy">   -524.71753040 </i>
   </energy>
  </scstep>
  <scstep>
   <time name="dav">   17.41   17.42</time>
   <time name="total">   18.24   18.25</time>
   <energy>
    <i name="e_fr_energy">   -519.42709154 </i>
    <i name="e_wo_entrp">   -518.31984897 </i>
    <i name="e_0_energy">   -518.87347025 </i>
   </energy>
  </scstep>
  <scstep>
   <time name="dav">   17.18   17.19</time>
   <time name="total">   18.24   18.25</time>
   <energy>
    <i name="e_fr_energy">   -515.83459337 </i>
    <i name="e_wo_entrp">   -514.71447623 </i>
    <i name="e_0_energy">   -515.27453480 </i>
   </energy>
  </scstep>
  <scstep>
   <time name="dav">   16.55   16.55</time>
   <time name="total">   17.41   17.42</time>
   <energy>
    <i name="e_fr_energy">   -514.75462482 </i>
    <i name="e_wo_entrp">   -513.59971052 </i>
    <i name="e_0_energy">   -514.17716767 </i>
   </energy>
  </scstep>
  <scstep>
   <time name="dav">   17.01   17.02</time>
   <time name="total">   17.86   17.87</time>
   <energy>
    <i name="e_fr_energy">   -513.57984380 </i>
    <i name="e_wo_entrp">   -512.41244648 </i>
    <i name="e_0_energy">   -512.99614514 </i>
   </energy>
  </scstep>
  <scstep>
   <time name="dav">   17.25   17.26</time>
   <time name="total">   18.10   18.11</time>
   <energy>
    <i name="e_fr_energy">   -512.74045322 </i>
    <i name="e_wo_entrp">   -511.55326698 </i>
    <i name="e_0_energy">   -512.14686010 </i>
   </energy>
  </scstep>
  <scstep>
   <time name="dav">   18.54   18.55</time>
   <time name="total">   19.49   19.50</time>
   <energy>
    <i name="e_fr_energy">   -510.74354558 </i>
    <i name="e_wo_entrp">   -509.51917698 </i>
    <i name="e_0_energy">   -510.13136128 </i>
   </energy>
  </scstep>
  <scstep>
   <time name="dav">   17.37   17.38</time>
   <time name="total">   18.22   18.22</time>
   <energy>
    <i name="e_fr_energy">   -509.50824552 </i>
    <i name="e_wo_entrp">   -508.27296664 </i>
    <i name="e_0_energy">   -508.89060608 </i>
   </energy>
  </scstep>
  <scstep>
   <time name="dav">   17.80   17.81</time>
   <time name="total">   18.65   18.66</time>
   <energy>
    <i name="e_fr_energy">   -508.21606794 </i>
    <i name="e_wo_entrp">   -506.94839804 </i>
    <i name="e_0_energy">   -507.58223299 </i>
   </energy>
  </scstep>
  <scstep>
   <time name="dav">   17.32   17.33</time>
   <time name="total">   18.17   18.18</time>
   <energy>
    <i name="e_fr_energy">   -507.84495865 </i>
    <i name="e_wo_entrp">   -506.56781709 </i>
    <i name="e_0_energy">   -507.20638787 </i>
   </energy>
  </scstep>
  <scstep>
   <time name="dav">   16.15   16.16</time>
   <time name="total">   17.00   17.01</time>
   <energy>
    <i name="e_fr_energy">   -507.89404108 </i>
    <i name="e_wo_entrp">   -506.61895873 </i>
    <i name="e_0_energy">   -507.25649990 </i>
   </energy>
  </scstep>
  <scstep>
   <time name="dav">   18.55   18.56</time>
   <time name="total">   19.40   19.41</time>
   <energy>
    <i name="e_fr_energy">   -507.34993093 </i>
    <i name="e_wo_entrp">   -506.08687073 </i>
    <i name="e_0_energy">   -506.71840083 </i>
   </energy>
  </scstep>
  <scstep>
   <time name="dav">   18.19   18.19</time>
   <time name="total">   19.04   19.04</time>
   <energy>
    <i name="e_fr_energy">   -507.01491125 </i>
    <i name="e_wo_entrp">   -505.72197024 </i>
    <i name="e_0_energy">   -506.36844074 </i>
   </energy>
  </scstep>
  <scstep>
   <time name="dav">   16.94   16.95</time>
   <time name="total">   18.07   18.07</time>
   <energy>
    <i name="e_fr_energy">   -506.98393525 </i>
    <i name="e_wo_entrp">   -505.67949539 </i>
    <i name="e_0_energy">   -506.33171532 </i>
   </energy>
  </scstep>
  <scstep>
   <time name="dav">   14.26   14.26</time>
   <time name="total">   15.11   15.12</time>
   <energy>
    <i name="e_fr_energy">   -506.97375307 </i>
    <i name="e_wo_entrp">   -505.67676768 </i>
    <i name="e_0_energy">   -506.32526037 </i>
   </energy>
  </scstep>
  <scstep>
   <time name="dav">   14.99   14.99</time>
   <time name="total">   15.85   15.85</time>
   <energy>
    <i name="e_fr_energy">   -506.97734285 </i>
    <i name="e_wo_entrp">   -505.68009201 </i>
    <i name="e_0_energy">   -506.32871743 </i>
   </energy>
  </scstep>
  <scstep>
   <time name="dav">   17.45   17.46</time>
   <time name="total">   18.48   18.49</time>
   <energy>
    <i name="e_fr_energy">   -506.97415765 </i>
    <i name="e_wo_entrp">   -505.68709976 </i>
    <i name="e_0_energy">   -506.33062871 </i>
   </energy>
  </scstep>
  <scstep>
   <time name="dav">   17.15   17.15</time>
   <time name="total">   18.02   18.03</time>
   <energy>
    <i name="e_fr_energy">   -506.96342466 </i>
    <i name="e_wo_entrp">   -505.67600076 </i>
    <i name="e_0_energy">   -506.31971271 </i>
   </energy>
  </scstep>
  <scstep>
   <time name="dav">   15.78   15.79</time>
   <time name="total">   16.65   16.66</time>
   <energy>
    <i name="e_fr_energy">   -506.96552702 </i>
    <i name="e_wo_entrp">   -505.67896997 </i>
    <i name="e_0_energy">   -506.32224850 </i>
   </energy>
  </scstep>
  <scstep>
   <time name="dav">   15.31   15.32</time>
   <time name="total">   16.20   16.20</time>
   <energy>
    <i name="e_fr_energy">   -506.96234347 </i>
    <i name="e_wo_entrp">   -505.67320875 </i>
    <i name="e_0_energy">   -506.31777611 </i>
   </energy>
  </scstep>
  <scstep>
   <time name="dav">   17.14   17.15</time>
   <time name="total">   18.01   18.02</time>
   <energy>
    <i name="e_fr_energy">   -506.96151357 </i>
    <i name="e_wo_entrp">   -505.67404083 </i>
    <i name="e_0_energy">   -506.31777720 </i>
   </energy>
  </scstep>
  <scstep>
   <time name="dav">   15.74   15.74</time>
   <time name="total">   16.62   16.62</time>
   <energy>
    <i name="e_fr_energy">   -506.96131009 </i>
    <i name="e_wo_entrp">   -505.67334575 </i>
    <i name="e_0_energy">   -506.31732792 </i>
   </energy>
  </scstep>
  <scstep>
   <time name="dav">   13.46   13.46</time>
   <time name="total">   14.35   14.36</time>
   <energy>
    <i name="e_fr_energy">   -506.96113611 </i>
    <i name="e_wo_entrp">   -505.67267596 </i>
    <i name="e_0_energy">   -506.31690604 </i>
   </energy>
  </scstep>
  <scstep>
   <time name="dav">   13.96   13.96</time>
   <time name="total">   14.36   14.36</time>
   <energy>
    <i name="alphaZ">   2994.23548884 </i>
    <i name="ewald"> 336888.55418814 </i>
    <i name="hartreedc">-513443.06787467 </i>
    <i name="XCdc">   5272.24836950 </i>
    <i name="pawpsdc"> 200340.01110635 </i>
    <i name="pawaedc">-207539.60758401 </i>
    <i name="eentropy">     -1.28917852 </i>
    <i name="bandstr"> -21466.25304602 </i>
    <i name="atom"> 196448.20729987 </i>
    <i name="e_fr_energy">   -506.96123053 </i>
    <i name="e_wo_entrp">   -505.67205201 </i>
    <i name="e_0_energy">   -506.31664127 </i>
   </energy>
  </scstep>
  <structure>
   <crystal>
    <varray name="basis" >
     <v>      11.25646304       0.00000000       0.00000000 </v>
     <v>       5.04456212      10.06282034       0.00000000 </v>
     <v>       0.00000000       0.00000000      22.88364939 </v>
    </varray>
    <i name="volume">   2592.07135999 </i>
    <varray name="rec_basis" >
     <v>       0.08883785      -0.04453504       0.00000000 </v>
     <v>       0.00000000       0.09937572       0.00000000 </v>
     <v>       0.00000000       0.00000000       0.04369932 </v>
    </varray>
   </crystal>
   <varray name="positions" >
    <v>       0.26092070       0.47878036       0.29050611 </v>
    <v>       0.35488056       0.38482049       0.41880986 </v>
    <v>       0.44457975       0.31006024       0.52029504 </v>
    <v>       0.16696083       0.07274024       0.16220237 </v>
    <v>       0.04434554       0.05618561       0.49705165 </v>
    <v>       0.27423906       0.33335899       0.12830375 </v>
    <v>       0.36819893       0.23939913       0.25660749 </v>
    <v>       0.46215880       0.14543926       0.38491124 </v>
    <v>       0.00030194       0.37150212       0.25660749 </v>
    <v>       0.09426181       0.27754226       0.38491124 </v>
    <v>       0.18517072       0.18905389       0.49975309 </v>
    <v>       0.40634206       0.46546199       0.12830375 </v>
    <v>       0.21257531       0.02933829       0.05782824 </v>
    <v>       0.76092070       0.47878036       0.29050611 </v>
    <v>       0.85488056       0.38482049       0.41880986 </v>
    <v>       0.93070573       0.29798058       0.52427517 </v>
    <v>       0.66696083       0.07274024       0.16220237 </v>
    <v>       0.56206430       0.05053478       0.48106532 </v>
    <v>       0.73282995       0.51315971       0.05084319 </v>
    <v>       0.77423906       0.33335899       0.12830375 </v>
    <v>       0.86819893       0.23939913       0.25660749 </v>
    <v>       0.96215880       0.14543926       0.38491124 </v>
    <v>       0.50030194       0.37150212       0.25660749 </v>
    <v>       0.59426181       0.27754226       0.38491124 </v>
    <v>       0.90634206       0.46546199       0.12830375 </v>
    <v>       0.71195512       0.03373048       0.05680005 </v>
    <v>       0.26092070       0.97878036       0.29050611 </v>
    <v>       0.35488056       0.88482049       0.41880986 </v>
    <v>       0.35467917       0.90206672       0.51977657 </v>
    <v>       0.16696083       0.57274024       0.16220237 </v>
    <v>       0.06350444       0.55260113       0.48090547 </v>
    <v>       0.22633860       0.80599626       0.03336770 </v>
    <v>       0.27423907       0.83335899       0.12830375 </v>
    <v>       0.36819893       0.73939913       0.25660749 </v>
    <v>       0.46215880       0.64543926       0.38491124 </v>
    <v>       0.00030194       0.87150212       0.25660749 </v>
    <v>       0.09426181       0.77754226       0.38491124 </v>
    <v>       0.40634206       0.96546199       0.12830375 </v>
    <v>       0.40115175       0.56598751       0.03972904 </v>
    <v>       0.76092070       0.97878036       0.29050611 </v>
    <v>       0.85488056       0.88482049       0.41880986 </v>
    <v>       0.94712290       0.81066434       0.51862205 </v>
    <v>       0.52698502       0.69699732       0.08829215 </v>
    <v>       0.66696083       0.57274024       0.16220237 </v>
    <v>       0.69214981       0.82644147       0.03722805 </v>
    <v>       0.77423907       0.83335899       0.12830375 </v>
    <v>       0.86819893       0.73939913       0.25660749 </v>
    <v>       0.96215880       0.64543926       0.38491124 </v>
    <v>       0.50030194       0.87150212       0.25660749 </v>
    <v>       0.59426181       0.77754226       0.38491124 </v>
    <v>       0.68992516       0.67555336       0.47860014 </v>
    <v>       0.90634206       0.96546199       0.12830375 </v>
    <v>       0.07287763       0.16682343       0.30639927 </v>
    <v>       0.16683750       0.07286357       0.43470302 </v>
    <v>       0.34431875       0.40892501       0.05661120 </v>
    <v>       0.47891775       0.26078330       0.17809552 </v>
    <v>       0.26176288       0.46459926       0.50685603 </v>
    <v>       0.03023343       0.37768264       0.47786825 </v>
    <v>       0.43627354       0.47164251       0.34956450 </v>
    <v>       0.25703797       0.15826566       0.10704642 </v>
    <v>       0.34231368       0.06560239       0.22126075 </v>
    <v>       0.08315092       0.47833421       0.11179240 </v>
    <v>       0.17409868       0.39738738       0.22126075 </v>
    <v>       0.26805855       0.30342751       0.34956450 </v>
    <v>       0.36201842       0.20946765       0.47786825 </v>
    <v>       0.57287763       0.16682343       0.30639927 </v>
    <v>       0.66360585       0.07464154       0.40954194 </v>
    <v>       0.89811838       0.34196726       0.06373775 </v>
    <v>       0.97891775       0.26078330       0.17809552 </v>
    <v>       0.77509292       0.47874489       0.50578735 </v>
    <v>       0.52311706       0.38351228       0.45997596 </v>
    <v>       0.93627354       0.47164251       0.34956450 </v>
    <v>       0.75973568       0.15723163       0.10719848 </v>
    <v>       0.84231368       0.06560239       0.22126075 </v>
    <v>       0.58013882       0.49134724       0.09295701 </v>
    <v>       0.67409868       0.39738738       0.22126075 </v>
    <v>       0.76805855       0.30342751       0.34956450 </v>
    <v>       0.86518830       0.20894250       0.46356840 </v>
    <v>       0.07287764       0.66682343       0.30639927 </v>
    <v>       0.16461074       0.57535375       0.40928857 </v>
    <v>       0.38495789       0.85474317       0.04979178 </v>
    <v>       0.47891775       0.76078330       0.17809552 </v>
    <v>       0.18797291       0.04499475       0.55623066 </v>
    <v>       0.02766511       0.89077405       0.46086662 </v>
    <v>       0.43627354       0.97164251       0.34956450 </v>
    <v>       0.24968739       0.66247235       0.09949196 </v>
    <v>       0.34231368       0.56560239       0.22126075 </v>
    <v>       0.08692194       0.95873703       0.09227686 </v>
    <v>       0.17409868       0.89738738       0.22126075 </v>
    <v>       0.26805855       0.80342751       0.34956450 </v>
    <v>       0.40342718       0.72511490       0.47108430 </v>
    <v>       0.57287764       0.66682343       0.30639927 </v>
    <v>       0.66575384       0.57387121       0.40778432 </v>
    <v>       0.86750412       0.85103772       0.05407777 </v>
    <v>       0.97891775       0.76078330       0.17809552 </v>
    <v>       0.76128381       0.96269803       0.50680828 </v>
    <v>       0.53023342       0.87768264       0.47786825 </v>
    <v>       0.93627354       0.97164251       0.34956450 </v>
    <v>       0.73949228       0.66814115       0.09760269 </v>
    <v>       0.84231368       0.56560239       0.22126075 </v>
    <v>       0.58301631       0.97780749       0.09990817 </v>
    <v>       0.67409868       0.89738738       0.22126075 </v>
    <v>       0.76805855       0.80342751       0.34956450 </v>
    <v>       0.86201842       0.70946764       0.47786825 </v>
   </varray>
  </structure>
  <varray name="forces" >
   <v>       0.12896466      -0.25512306      -0.07431612 </v>
   <v>      -0.72522996       0.15314076      -0.60572162 </v>
   <v>       0.60463879      -0.92535763       2.02955965 </v>
   <v>      -0.64332126       0.22194138       1.44714056 </v>
   <v>      -1.15572686      -0.28025255       0.25795437 </v>
   <v>       0.36818081      -0.64233107       1.25467902 </v>
   <v>      -0.05298259       0.09930773       0.07353619 </v>
   <v>      -1.11306763       0.09748405      -1.12405524 </v>
   <v>      -0.05710476      -0.07759851       0.09126535 </v>
   <v>       0.11193956      -0.21340403      -0.07926095 </v>
   <v>       0.66765933       0.88158480       0.06825209 </v>
   <v>       0.69437262      -0.44746771       3.53151153 </v>
   <v>      -0.22350442       0.87898253      -1.33247124 </v>
   <v>       0.14316147      -0.27745844      -0.14861165 </v>
   <v>       0.32719286       0.06516171      -0.19111319 </v>
   <v>       0.50794370      -0.79605916       1.83400892 </v>
   <v>      -0.55382115       0.37479452       1.61709402 </v>
   <v>      -0.44179949      -0.02781940       0.98407482 </v>
   <v>      -0.26427754       0.86194700      -1.70624797 </v>
   <v>      -0.56960050      -0.50046462       1.65091711 </v>
   <v>       0.02674452      -0.00908620       0.06953234 </v>
   <v>       0.78281110      -0.24510196      -1.54959762 </v>
   <v>      -0.06660245       0.01809744       0.03247629 </v>
   <v>       0.42286134      -0.18806847      -2.04377965 </v>
   <v>       0.65417846       0.30820864       1.91616049 </v>
   <v>      -0.46147264       1.36366482      -1.74646873 </v>
   <v>       0.05406075      -0.22126937      -0.15071493 </v>
   <v>       0.15507907       1.35139401      -2.59223858 </v>
   <v>       0.44510118      -0.84413407       0.45445585 </v>
   <v>       0.00375704       0.45216676       1.49611576 </v>
   <v>      -0.87422487      -0.07102045       1.03715742 </v>
   <v>      -0.50902124      -0.10663489      -1.23457303 </v>
   <v>       0.76161963      -0.76151904       3.21968964 </v>
   <v>      -0.14833909       0.01594985       0.15133019 </v>
   <v>      -0.70094251       0.11453233      -1.10677720 </v>
   <v>      -0.06013746       0.10080964       0.06067873 </v>
   <v>       0.58163340       0.44104499      -1.70172546 </v>
   <v>       0.58183861      -0.32735254       1.31145048 </v>
   <v>       0.67246459       0.42818076      -1.09831113 </v>
   <v>       0.24493945      -0.30533153      -0.16786345 </v>
   <v>      -0.12239334       0.23332977      -0.50627438 </v>
   <v>       0.83374950      -0.91353198       1.88192146 </v>
   <v>       0.59451736      -0.26862225      -0.99453131 </v>
   <v>       0.22176863      -0.46733330       2.03764644 </v>
   <v>      -0.81941287      -0.46521418      -1.29481192 </v>
   <v>       0.38922608      -0.89959476       4.01462349 </v>
   <v>       0.01433561       0.10879791       0.09511516 </v>
   <v>      -0.90861311       0.04797598      -1.10017035 </v>
   <v>       0.11170363       0.19748754       0.07209896 </v>
   <v>       0.18636467       1.03777773      -1.33042551 </v>
   <v>       0.44871943       0.59351289       1.38205664 </v>
   <v>       0.66588838      -0.85755862       0.95138759 </v>
   <v>       0.16748747      -0.13065551      -0.11069675 </v>
   <v>       1.00781264      -0.61624212      -3.06026311 </v>
   <v>      -0.48602592      -1.64352942      -3.74010857 </v>
   <v>       0.08999660      -0.19329125      -0.25347368 </v>
   <v>      -0.15317571       1.96335681       1.73741421 </v>
   <v>       1.96353380       1.27317292      -0.92133757 </v>
   <v>       0.08236450       0.22484825      -0.94560121 </v>
   <v>       0.54483053       1.39188193      -1.41011893 </v>
   <v>       0.04612849      -0.20001759       0.57372622 </v>
   <v>      -1.34488013       0.95502154      -2.36679837 </v>
   <v>       0.00194045      -0.14709494       0.67187374 </v>
   <v>      -0.36472300      -0.31371733      -0.26107872 </v>
   <v>      -0.91368387      -1.79019639      -0.30575010 </v>
   <v>       0.01429530       0.31111315      -0.86050543 </v>
   <v>       0.61838196       0.03303699       0.44050832 </v>
   <v>       1.43993676      -2.21987389      -3.05273842 </v>
   <v>      -0.02418824      -0.35535987       0.61487384 </v>
   <v>      -1.78801773       0.83062836       1.72284239 </v>
   <v>       2.89652308       1.03280446       1.60214829 </v>
   <v>       0.20786704      -0.08278738      -0.45712889 </v>
   <v>       0.46231367       1.64084645      -1.14021794 </v>
   <v>       0.19629110      -0.15587682       0.49500212 </v>
   <v>      -1.68404368      -1.32592500      -0.25769751 </v>
   <v>      -0.06454434       0.03509823       0.03111189 </v>
   <v>      -0.07600972      -0.08957180      -0.97988030 </v>
   <v>      -3.06119923      -0.57082253       1.04932058 </v>
   <v>      -0.08122603       0.24938098      -0.87667540 </v>
   <v>       0.54807562       0.02631284       0.43560105 </v>
   <v>       0.13000995       0.82342231      -3.49205921 </v>
   <v>      -0.17647725       0.16286321       1.14582021 </v>
   <v>      -0.04723034      -0.49338074       3.68997704 </v>
   <v>       1.39378565      -0.49274882       1.62969018 </v>
   <v>      -0.19863596       0.19671767      -0.18138750 </v>
   <v>      -0.75035624       0.96359124      -0.16057272 </v>
   <v>       0.29606317       0.24950504       0.18607329 </v>
   <v>      -1.69905054       1.09716439      -0.55243110 </v>
   <v>      -0.07189427       0.13687980      -0.00465077 </v>
   <v>       0.04511632       0.18088738      -0.19083088 </v>
   <v>      -1.81734243      -1.94026833       2.50108838 </v>
   <v>      -0.01157141       0.31263372      -1.04482792 </v>
   <v>      -0.26578335      -0.73166967       0.16341074 </v>
   <v>       2.23744014      -1.49263097      -2.94281672 </v>
   <v>       0.06095128      -0.07744801      -0.09856038 </v>
   <v>      -0.28323666       1.99095839       1.71054707 </v>
   <v>       0.58630415       0.13147541       0.43951826 </v>
   <v>      -0.01182046       0.13359903      -1.18068223 </v>
   <v>       1.08306942       0.25937706      -0.29783679 </v>
   <v>      -0.05215328       0.02104849       0.13144367 </v>
   <v>      -1.81074621       1.24771595      -0.45244497 </v>
   <v>      -0.03959422      -0.00244568       0.20579638 </v>
   <v>      -0.18993531      -0.09723959      -0.27955732 </v>
   <v>      -0.58879402      -1.76511412      -0.44288781 </v>
  </varray>
  <varray name="stress" >
   <v>      71.11837962      -1.81173507       0.56377516 </v>
   <v>      -1.81173479      72.65047636      -4.75612001 </v>
   <v>       0.56377453      -4.75611997      77.60880887 </v>
  </varray>
  <energy>
   <i name="e_fr_energy">   -506.96123053 </i>
   <i name="e_wo_entrp">   -506.31664127 </i>
   <i name="e_0_energy">     -1.28917852 </i>
  </energy>
  <time name="totalsc">  670.30  670.51</time>
  <eigenvalues>
   <array>
    <dimension dim="1">band</dimension>
    <dimension dim="2">kpoint</dimension>
    <dimension dim="3">spin</dimension>
    <field>eigene</field>
    <field>occ</field>
    <set>
     <set comment="spin 1">
      <set comment="kpoint 1">
       <r>  -62.6210    1.0000 </r>
       <r>  -62.5975    1.0000 </r>
       <r>  -62.5496    1.0000 </r>
       <r>  -62.5344    1.0000 </r>
       <r>  -62.5040    1.0000 </r>
       <r>  -62.4934    1.0000 </r>
       <r>  -62.4614    1.0000 </r>
       <r>  -62.4518    1.0000 </r>
       <r>  -62.4312    1.0000 </r>
       <r>  -62.4109    1.0000 </r>
       <r>  -62.4016    1.0000 </r>
       <r>  -62.3957    1.0000 </r>
       <r>  -62.3757    1.0000 </r>
       <r>  -62.3710    1.0000 </r>
       <r>  -62.3677    1.0000 </r>
       <r>  -62.3547    1.0000 </r>
       <r>  -62.3526    1.0000 </r>
       <r>  -62.3342    1.0000 </r>
       <r>  -62.3285    1.0000 </r>
       <r>  -62.3140    1.0000 </r>
       <r>  -62.2782    1.0000 </r>
       <r>  -62.2719    1.0000 </r>
       <r>  -62.2651    1.0000 </r>
       <r>  -62.2649    1.0000 </r>
       <r>  -62.2638    1.0000 </r>
       <r>  -62.2619    1.0000 </r>
       <r>  -62.2612    1.0000 </r>
       <r>  -62.2608    1.0000 </r>
       <r>  -62.2535    1.0000 </r>
       <r>  -62.2519    1.0000 </r>
       <r>  -62.2477    1.0000 </r>
       <r>  -62.2469    1.0000 </r>
       <r>  -62.2365    1.0000 </r>
       <r>  -62.2222    1.0000 </r>
       <r>  -62.2104    1.0000 </r>
       <r>  -62.2037    1.0000 </r>
       <r>  -62.1875    1.0000 </r>
       <r>  -62.1869    1.0000 </r>
       <r>  -62.1858    1.0000 </r>
       <r>  -62.1780    1.0000 </r>
       <r>  -62.1774    1.0000 </r>
       <r>  -62.1771    1.0000 </r>
       <r>  -62.1583    1.0000 </r>
       <r>  -62.1282    1.0000 </r>
       <r>  -62.1207    1.0000 </r>
       <r>  -62.1157    1.0000 </r>
       <r>  -62.1120    1.0000 </r>
       <r>  -62.1039    1.0000 </r>
       <r>  -62.1038    1.0000 </r>
       <r>  -62.1021    1.0000 </r>
       <r>  -62.0925    1.0000 </r>
       <r>  -62.0859    1.0000 </r>
       <r>  -62.0764    1.0000 </r>
       <r>  -62.0719    1.0000 </r>
       <r>  -62.0635    1.0000 </r>
       <r>  -62.0629    1.0000 </r>
       <r>  -62.0597    1.0000 </r>
       <r>  -62.0550    1.0000 </r>
       <r>  -62.0504    1.0000 </r>
       <r>  -62.0431    1.0000 </r>
       <r>  -62.0374    1.0000 </r>
       <r>  -62.0347    1.0000 </r>
       <r>  -62.0283    1.0000 </r>
       <r>  -62.0042    1.0000 </r>
       <r>  -61.9937    1.0000 </r>
       <r>  -61.9917    1.0000 </r>
       <r>  -61.9914    1.0000 </r>
       <r>  -61.9882    1.0000 </r>
       <r>  -61.9782    1.0000 </r>
       <r>  -61.9726    1.0000 </r>
       <r>  -61.9685    1.0000 </r>
       <r>  -61.9680    1.0000 </r>
       <r>  -61.9676    1.0000 </r>
       <r>  -61.9646    1.0000 </r>
       <r>  -61.9613    1.0000 </r>
       <r>  -61.9592    1.0000 </r>
       <r>  -61.9569    1.0000 </r>
       <r>  -61.9508    1.0000 </r>
       <r>  -61.9481    1.0000 </r>
       <r>  -61.9465    1.0000 </r>
       <r>  -61.9459    1.0000 </r>
       <r>  -61.9453    1.0000 </r>
       <r>  -61.9396    1.0000 </r>
       <r>  -61.9394    1.0000 </r>
       <r>  -61.9313    1.0000 </r>
       <r>  -61.9265    1.0000 </r>
       <r>  -61.9264    1.0000 </r>
       <r>  -61.9260    1.0000 </r>
       <r>  -61.9209    1.0000 </r>
       <r>  -61.9163    1.0000 </r>
       <r>  -61.9114    1.0000 </r>
       <r>  -61.9105    1.0000 </r>
       <r>  -61.9105    1.0000 </r>
       <r>  -61.9050    1.0000 </r>
       <r>  -61.9050    1.0000 </r>
       <r>  -61.9043    1.0000 </r>
       <r>  -61.9017    1.0000 </r>
       <r>  -61.8967    1.0000 </r>
       <r>  -61.8923    1.0000 </r>
       <r>  -61.8898    1.0000 </r>
       <r>  -61.8878    1.0000 </r>
       <r>  -61.8848    1.0000 </r>
       <r>  -61.8841    1.0000 </r>
       <r>  -61.8839    1.0000 </r>
       <r>  -61.8742    1.0000 </r>
       <r>  -61.8731    1.0000 </r>
       <r>  -61.8708    1.0000 </r>
       <r>  -61.8706    1.0000 </r>
       <r>  -61.8673    1.0000 </r>
       <r>  -61.8591    1.0000 </r>
       <r>  -61.8571    1.0000 </r>
       <r>  -61.8570    1.0000 </r>
       <r>  -61.8561    1.0000 </r>
       <r>  -61.8553    1.0000 </r>
       <r>  -61.8488    1.0000 </r>
       <r>  -61.8486    1.0000 </r>
       <r>  -61.8473    1.0000 </r>
       <r>  -61.8441    1.0000 </r>
       <r>  -61.8188    1.0000 </r>
       <r>  -61.8134    1.0000 </r>
       <r>  -61.8128    1.0000 </r>
       <r>  -61.8076    1.0000 </r>
       <r>  -61.7867    1.0000 </r>
       <r>  -61.7635    1.0000 </r>
       <r>  -61.7615    1.0000 </r>
       <r>  -61.7532    1.0000 </r>
       <r>  -61.7442    1.0000 </r>
       <r>  -61.7384    1.0000 </r>
       <r>  -61.7375    1.0000 </r>
       <r>  -61.7351    1.0000 </r>
       <r>  -61.7240    1.0000 </r>
       <r>  -61.7190    1.0000 </r>
       <r>  -61.7120    1.0000 </r>
       <r>  -61.7115    1.0000 </r>
       <r>  -61.7108    1.0000 </r>
       <r>  -61.7087    1.0000 </r>
       <r>  -61.6958    1.0000 </r>
       <r>  -61.6916    1.0000 </r>
       <r>  -61.6902    1.0000 </r>
       <r>  -61.6867    1.0000 </r>
       <r>  -61.6831    1.0000 </r>
       <r>  -61.6826    1.0000 </r>
       <r>  -61.6702    1.0000 </r>
       <r>  -61.6544    1.0000 </r>
       <r>  -61.6523    1.0000 </r>
       <r>  -61.6279    1.0000 </r>
       <r>  -61.6132    1.0000 </r>
       <r>  -61.5778    1.0000 </r>
       <r>  -61.4771    1.0000 </r>
       <r>  -61.4674    1.0000 </r>
       <r>  -61.4045    1.0000 </r>
       <r>  -61.3644    1.0000 </r>
       <r>  -61.3560    1.0000 </r>
       <r>  -61.3006    1.0000 </r>
       <r>  -61.2716    1.0000 </r>
       <r>  -60.9631    1.0000 </r>
       <r>  -14.2319    1.0000 </r>
       <r>  -13.9498    1.0000 </r>
       <r>  -13.7240    1.0000 </r>
       <r>  -13.5347    1.0000 </r>
       <r>  -13.4451    1.0000 </r>
       <r>  -13.3692    1.0000 </r>
       <r>  -13.2882    1.0000 </r>
       <r>  -13.2322    1.0000 </r>
       <r>  -13.2066    1.0000 </r>
       <r>  -13.1060    1.0000 </r>
       <r>  -12.9989    1.0000 </r>
       <r>  -12.9010    1.0000 </r>
       <r>  -12.8361    1.0000 </r>
       <r>  -12.6840    1.0000 </r>
       <r>  -12.6477    1.0000 </r>
       <r>  -12.6175    1.0000 </r>
       <r>  -12.4858    1.0000 </r>
       <r>  -12.4710    1.0000 </r>
       <r>  -12.4017    1.0000 </r>
       <r>  -12.3907    1.0000 </r>
       <r>  -12.2554    1.0000 </r>
       <r>  -12.2306    1.0000 </r>
       <r>  -12.2072    1.0000 </r>
       <r>  -12.1820    1.0000 </r>
       <r>  -12.0546    1.0000 </r>
       <r>  -12.0313    1.0000 </r>
       <r>  -12.0044    1.0000 </r>
       <r>  -11.9894    1.0000 </r>
       <r>  -11.9366    1.0000 </r>
       <r>  -11.9080    1.0000 </r>
       <r>  -11.8515    1.0000 </r>
       <r>  -11.7333    1.0000 </r>
       <r>  -11.6790    1.0000 </r>
       <r>  -11.6410    1.0000 </r>
       <r>  -11.5888    1.0000 </r>
       <r>  -11.5252    1.0000 </r>
       <r>  -11.4819    1.0000 </r>
       <r>  -11.4605    1.0000 </r>
       <r>  -11.4409    1.0000 </r>
       <r>  -11.4076    1.0000 </r>
       <r>  -11.3804    1.0000 </r>
       <r>  -11.3563    1.0000 </r>
       <r>  -11.2788    1.0000 </r>
       <r>  -11.2173    1.0000 </r>
       <r>  -11.2112    1.0000 </r>
       <r>  -11.1299    1.0000 </r>
       <r>  -11.0898    1.0000 </r>
       <r>  -10.9901    1.0000 </r>
       <r>  -10.9173    1.0000 </r>
       <r>  -10.8801    1.0000 </r>
       <r>  -10.7985    1.0000 </r>
       <r>  -10.6849    1.0000 </r>
       <r>   -6.0694    1.0000 </r>
       <r>   -5.9686    1.0000 </r>
       <r>   -5.9307    1.0000 </r>
       <r>   -5.8252    1.0000 </r>
       <r>   -5.7449    1.0000 </r>
       <r>   -5.6926    1.0000 </r>
       <r>   -5.6347    1.0000 </r>
       <r>   -5.6244    1.0000 </r>
       <r>   -5.5275    1.0000 </r>
       <r>   -5.4081    1.0000 </r>
       <r>   -5.3616    1.0000 </r>
       <r>   -5.3077    1.0000 </r>
       <r>   -5.2582    1.0000 </r>
       <r>   -5.2048    1.0000 </r>
       <r>   -5.1566    1.0000 </r>
       <r>   -5.0683    1.0000 </r>
       <r>   -5.0212    1.0000 </r>
       <r>   -4.9969    1.0000 </r>
       <r>   -4.9373    1.0000 </r>
       <r>   -4.9048    1.0000 </r>
       <r>   -4.8878    1.0000 </r>
       <r>   -4.8439    1.0000 </r>
       <r>   -4.7943    1.0000 </r>
       <r>   -4.7433    1.0000 </r>
       <r>   -4.7254    1.0000 </r>
       <r>   -4.6848    1.0000 </r>
       <r>   -4.6624    1.0000 </r>
       <r>   -4.6452    1.0000 </r>
       <r>   -4.5818    1.0000 </r>
       <r>   -4.5651    1.0000 </r>
       <r>   -4.5584    1.0000 </r>
       <r>   -4.4952    1.0000 </r>
       <r>   -4.4779    1.0000 </r>
       <r>   -4.4532    1.0000 </r>
       <r>   -4.4233    1.0000 </r>
       <r>   -4.3948    1.0000 </r>
       <r>   -4.3609    1.0000 </r>
       <r>   -4.3252    1.0000 </r>
       <r>   -4.2722    1.0000 </r>
       <r>   -4.2293    1.0000 </r>
       <r>   -4.2155    1.0000 </r>
       <r>   -4.1955    1.0000 </r>
       <r>   -4.1331    1.0000 </r>
       <r>   -4.1279    1.0000 </r>
       <r>   -4.0996    1.0000 </r>
       <r>   -4.0602    1.0000 </r>
       <r>   -4.0475    1.0000 </r>
       <r>   -4.0248    1.0000 </r>
       <r>   -3.9738    1.0000 </r>
       <r>   -3.9634    1.0000 </r>
       <r>   -3.9383    1.0000 </r>
       <r>   -3.9310    1.0000 </r>
       <r>   -3.8842    1.0000 </r>
       <r>   -3.8343    1.0000 </r>
       <r>   -3.8274    1.0000 </r>
       <r>   -3.8018    1.0000 </r>
       <r>   -3.7647    1.0000 </r>
       <r>   -3.7396    1.0000 </r>
       <r>   -3.6866    1.0000 </r>
       <r>   -3.6211    1.0000 </r>
       <r>   -3.6028    1.0000 </r>
       <r>   -3.5853    1.0000 </r>
       <r>   -3.5277    1.0000 </r>
       <r>   -3.5155    1.0000 </r>
       <r>   -3.4895    1.0000 </r>
       <r>   -3.4623    1.0000 </r>
       <r>   -3.4221    1.0000 </r>
       <r>   -3.3808    1.0000 </r>
       <r>   -3.3731    1.0000 </r>
       <r>   -3.3489    1.0000 </r>
       <r>   -3.3319    1.0000 </r>
       <r>   -3.2989    1.0000 </r>
       <r>   -3.2641    1.0000 </r>
       <r>   -3.2116    1.0000 </r>
       <r>   -3.1940    1.0000 </r>
       <r>   -3.1774    1.0000 </r>
       <r>   -3.1478    1.0000 </r>
       <r>   -3.1132    1.0000 </r>
       <r>   -3.1039    1.0000 </r>
       <r>   -3.0556    1.0000 </r>
       <r>   -3.0414    1.0000 </r>
       <r>   -3.0213    1.0000 </r>
       <r>   -2.9978    1.0000 </r>
       <r>   -2.9725    1.0000 </r>
       <r>   -2.9198    1.0000 </r>
       <r>   -2.9100    1.0000 </r>
       <r>   -2.8870    1.0000 </r>
       <r>   -2.8837    1.0000 </r>
       <r>   -2.8542    1.0000 </r>
       <r>   -2.8408    1.0000 </r>
       <r>   -2.8010    1.0000 </r>
       <r>   -2.7748    1.0000 </r>
       <r>   -2.7699    1.0000 </r>
       <r>   -2.7387    1.0000 </r>
       <r>   -2.7245    1.0000 </r>
       <r>   -2.7161    1.0000 </r>
       <r>   -2.6965    1.0000 </r>
       <r>   -2.6813    1.0000 </r>
       <r>   -2.6524    1.0000 </r>
       <r>   -2.6319    1.0000 </r>
       <r>   -2.6182    1.0000 </r>
       <r>   -2.5804    1.0000 </r>
       <r>   -2.5452    1.0000 </r>
       <r>   -2.5279    1.0000 </r>
       <r>   -2.5133    1.0000 </r>
       <r>   -2.4884    1.0000 </r>
       <r>   -2.4657    1.0000 </r>
       <r>   -2.4560    1.0000 </r>
       <r>   -2.4283    1.0000 </r>
       <r>   -2.3875    1.0000 </r>
       <r>   -2.3249    1.0000 </r>
       <r>   -2.3165    1.0000 </r>
       <r>   -2.3042    1.0000 </r>
       <r>   -2.2793    1.0000 </r>
       <r>   -2.2528    1.0000 </r>
       <r>   -2.2310    1.0000 </r>
       <r>   -2.2098    1.0000 </r>
       <r>   -2.2006    1.0000 </r>
       <r>   -2.1688    1.0000 </r>
       <r>   -2.1504    1.0000 </r>
       <r>   -2.1211    1.0000 </r>
       <r>   -2.1074    1.0000 </r>
       <r>   -2.0914    1.0000 </r>
       <r>   -2.0519    1.0000 </r>
       <r>   -2.0392    1.0000 </r>
       <r>   -2.0271    1.0000 </r>
       <r>   -1.9752    1.0000 </r>
       <r>   -1.9548    1.0000 </r>
       <r>   -1.9519    1.0000 </r>
       <r>   -1.9289    1.0000 </r>
       <r>   -1.9146    1.0000 </r>
       <r>   -1.8798    1.0000 </r>
       <r>   -1.8698    1.0000 </r>
       <r>   -1.8361    1.0000 </r>
       <r>   -1.8228    1.0000 </r>
       <r>   -1.8099    1.0000 </r>
       <r>   -1.7732    1.0000 </r>
       <r>   -1.7623    1.0000 </r>
       <r>   -1.7522    1.0000 </r>
       <r>   -1.7232    1.0000 </r>
       <r>   -1.6869    1.0000 </r>
       <r>   -1.6534    1.0000 </r>
       <r>   -1.6420    1.0000 </r>
       <r>   -1.5654    1.0000 </r>
       <r>   -1.5521    1.0000 </r>
       <r>   -1.4692    1.0000 </r>
       <r>   -1.4417    1.0000 </r>
       <r>   -1.4343    1.0000 </r>
       <r>   -1.3741    1.0000 </r>
       <r>   -1.3559    1.0000 </r>
       <r>   -1.3108    1.0000 </r>
       <r>   -1.2883    1.0000 </r>
       <r>   -1.2367    1.0000 </r>
       <r>   -1.2191    1.0000 </r>
       <r>   -1.1983    1.0000 </r>
       <r>   -1.1718    1.0000 </r>
       <r>   -1.1241    1.0000 </r>
       <r>   -1.1043    1.0000 </r>
       <r>   -1.0971    1.0000 </r>
       <r>   -1.0638    1.0000 </r>
       <r>   -1.0572    1.0000 </r>
       <r>   -1.0449    1.0000 </r>
       <r>   -1.0083    1.0000 </r>
       <r>   -0.9902    1.0000 </r>
       <r>   -0.9622    1.0000 </r>
       <r>   -0.9571    1.0000 </r>
       <r>   -0.9439    1.0000 </r>
       <r>   -0.9107    1.0000 </r>
       <r>   -0.8732    1.0000 </r>
       <r>   -0.8449    1.0000 </r>
       <r>   -0.8267    1.0000 </r>
       <r>   -0.8107    1.0000 </r>
       <r>   -0.7938    1.0000 </r>
       <r>   -0.7677    1.0000 </r>
       <r>   -0.7424    1.0000 </r>
       <r>   -0.7259    1.0000 </r>
       <r>   -0.7186    1.0000 </r>
       <r>   -0.7052    1.0000 </r>
       <r>   -0.6774    1.0000 </r>
       <r>   -0.6643    1.0000 </r>
       <r>   -0.6424    1.0000 </r>
       <r>   -0.6352    1.0000 </r>
       <r>   -0.6210    1.0000 </r>
       <r>   -0.6112    1.0000 </r>
       <r>   -0.5866    1.0000 </r>
       <r>   -0.5738    1.0000 </r>
       <r>   -0.5486    1.0000 </r>
       <r>   -0.5191    1.0000 </r>
       <r>   -0.5176    1.0000 </r>
       <r>   -0.4962    1.0000 </r>
       <r>   -0.4863    1.0000 </r>
       <r>   -0.4579    1.0000 </r>
       <r>   -0.4403    1.0000 </r>
       <r>   -0.4394    1.0000 </r>
       <r>   -0.4187    1.0000 </r>
       <r>   -0.4118    1.0000 </r>
       <r>   -0.3904    1.0000 </r>
       <r>   -0.3828    1.0000 </r>
       <r>   -0.3778    1.0000 </r>
       <r>   -0.3507    1.0000 </r>
       <r>   -0.3394    1.0000 </r>
       <r>   -0.3288    1.0000 </r>
       <r>   -0.3153    1.0000 </r>
       <r>   -0.3084    1.0000 </r>
       <r>   -0.2847    1.0000 </r>
       <r>   -0.2723    1.0000 </r>
       <r>   -0.2515    1.0000 </r>
       <r>   -0.2402    1.0000 </r>
       <r>   -0.2363    1.0000 </r>
       <r>   -0.2135    1.0000 </r>
       <r>   -0.2086    1.0000 </r>
       <r>   -0.1923    1.0000 </r>
       <r>   -0.1749    1.0000 </r>
       <r>   -0.1610    1.0000 </r>
       <r>   -0.1489    1.0000 </r>
       <r>   -0.1420    1.0000 </r>
       <r>   -0.1194    1.0000 </r>
       <r>   -0.1086    1.0000 </r>
       <r>   -0.0966    1.0000 </r>
       <r>   -0.0885    1.0000 </r>
       <r>   -0.0844    1.0000 </r>
       <r>   -0.0667    1.0000 </r>
       <r>   -0.0598    1.0000 </r>
       <r>   -0.0511    1.0000 </r>
       <r>   -0.0461    1.0000 </r>
       <r>   -0.0342    1.0000 </r>
       <r>   -0.0233    1.0000 </r>
       <r>   -0.0121    1.0000 </r>
       <r>    0.0059    1.0000 </r>
       <r>    0.0107    1.0000 </r>
       <r>    0.0228    1.0000 </r>
       <r>    0.0353    1.0000 </r>
       <r>    0.0555    1.0000 </r>
       <r>    0.0600    1.0000 </r>
       <r>    0.0804    1.0000 </r>
       <r>    0.0896    1.0000 </r>
       <r>    0.1007    1.0000 </r>
[...]
       <r>   -55.5110     0.0000   312.0000 </r>
       <r>   -55.2511     0.0000   312.0000 </r>
       <r>   -54.9913     0.0000   312.0000 </r>
       <r>   -54.7315     0.0000   312.0000 </r>
       <r>   -54.4716     0.0000   312.0000 </r>
       <r>   -54.2118     0.0000   312.0000 </r>
       <r>   -53.9520     0.0000   312.0000 </r>
       <r>   -53.6921     0.0000   312.0000 </r>
       <r>   -53.4323     0.0000   312.0000 </r>
       <r>   -53.1724     0.0000   312.0000 </r>
       <r>   -52.9126     0.0000   312.0000 </r>
       <r>   -52.6528     0.0000   312.0000 </r>
       <r>   -52.3929     0.0000   312.0000 </r>
       <r>   -52.1331     0.0000   312.0000 </r>
       <r>   -51.8733     0.0000   312.0000 </r>
       <r>   -51.6134     0.0000   312.0000 </r>
       <r>   -51.3536     0.0000   312.0000 </r>
       <r>   -51.0938     0.0000   312.0000 </r>
       <r>   -50.8339     0.0000   312.0000 </r>
       <r>   -50.5741     0.0000   312.0000 </r>
       <r>   -50.3143     0.0000   312.0000 </r>
       <r>   -50.0544     0.0000   312.0000 </r>
       <r>   -49.7946     0.0000   312.0000 </r>
       <r>   -49.5347     0.0000   312.0000 </r>
       <r>   -49.2749     0.0000   312.0000 </r>
       <r>   -49.0151     0.0000   312.0000 </r>
       <r>   -48.7552     0.0000   312.0000 </r>
       <r>   -48.4954     0.0000   312.0000 </r>
       <r>   -48.2356     0.0000   312.0000 </r>
       <r>   -47.9757     0.0000   312.0000 </r>
       <r>   -47.7159     0.0000   312.0000 </r>
       <r>   -47.4561     0.0000   312.0000 </r>
       <r>   -47.1962     0.0000   312.0000 </r>
       <r>   -46.9364     0.0000   312.0000 </r>
       <r>   -46.6766     0.0000   312.0000 </r>
       <r>   -46.4167     0.0000   312.0000 </r>
       <r>   -46.1569     0.0000   312.0000 </r>
       <r>   -45.8970     0.0000   312.0000 </r>
       <r>   -45.6372     0.0000   312.0000 </r>
       <r>   -45.3774     0.0000   312.0000 </r>
       <r>   -45.1175     0.0000   312.0000 </r>
       <r>   -44.8577     0.0000   312.0000 </r>
       <r>   -44.5979     0.0000   312.0000 </r>
       <r>   -44.3380     0.0000   312.0000 </r>
       <r>   -44.0782     0.0000   312.0000 </r>
       <r>   -43.8184     0.0000   312.0000 </r>
       <r>   -43.5585     0.0000   312.0000 </r>
       <r>   -43.2987     0.0000   312.0000 </r>
       <r>   -43.0388     0.0000   312.0000 </r>
       <r>   -42.7790     0.0000   312.0000 </r>
       <r>   -42.5192     0.0000   312.0000 </r>
       <r>   -42.2593     0.0000   312.0000 </r>
       <r>   -41.9995     0.0000   312.0000 </r>
       <r>   -41.7397     0.0000   312.0000 </r>
       <r>   -41.4798     0.0000   312.0000 </r>
       <r>   -41.2200     0.0000   312.0000 </r>
       <r>   -40.9602     0.0000   312.0000 </r>
       <r>   -40.7003     0.0000   312.0000 </r>
       <r>   -40.4405     0.0000   312.0000 </r>
       <r>   -40.1807     0.0000   312.0000 </r>
       <r>   -39.9208     0.0000   312.0000 </r>
       <r>   -39.6610     0.0000   312.0000 </r>
       <r>   -39.4011     0.0000   312.0000 </r>
       <r>   -39.1413     0.0000   312.0000 </r>
       <r>   -38.8815     0.0000   312.0000 </r>
       <r>   -38.6216     0.0000   312.0000 </r>
       <r>   -38.3618     0.0000   312.0000 </r>
       <r>   -38.1020     0.0000   312.0000 </r>
       <r>   -37.8421     0.0000   312.0000 </r>
       <r>   -37.5823     0.0000   312.0000 </r>
       <r>   -37.3225     0.0000   312.0000 </r>
       <r>   -37.0626     0.0000   312.0000 </r>
       <r>   -36.8028     0.0000   312.0000 </r>
       <r>   -36.5430     0.0000   312.0000 </r>
       <r>   -36.2831     0.0000   312.0000 </r>
       <r>   -36.0233     0.0000   312.0000 </r>
       <r>   -35.7634     0.0000   312.0000 </r>
       <r>   -35.5036     0.0000   312.0000 </r>
       <r>   -35.2438     0.0000   312.0000 </r>
       <r>   -34.9839     0.0000   312.0000 </r>
       <r>   -34.7241     0.0000   312.0000 </r>
       <r>   -34.4643     0.0000   312.0000 </r>
       <r>   -34.2044     0.0000   312.0000 </r>
       <r>   -33.9446     0.0000   312.0000 </r>
       <r>   -33.6848     0.0000   312.0000 </r>
       <r>   -33.4249     0.0000   312.0000 </r>
       <r>   -33.1651     0.0000   312.0000 </r>
       <r>   -32.9053     0.0000   312.0000 </r>
       <r>   -32.6454     0.0000   312.0000 </r>
       <r>   -32.3856     0.0000   312.0000 </r>
       <r>   -32.1257     0.0000   312.0000 </r>
       <r>   -31.8659     0.0000   312.0000 </r>
       <r>   -31.6061     0.0000   312.0000 </r>
       <r>   -31.3462     0.0000   312.0000 </r>
       <r>   -31.0864     0.0000   312.0000 </r>
       <r>   -30.8266     0.0000   312.0000 </r>
       <r>   -30.5667     0.0000   312.0000 </r>
       <r>   -30.3069     0.0000   312.0000 </r>
       <r>   -30.0471     0.0000   312.0000 </r>
       <r>   -29.7872     0.0000   312.0000 </r>
       <r>   -29.5274     0.0000   312.0000 </r>
       <r>   -29.2675     0.0000   312.0000 </r>
       <r>   -29.0077     0.0000   312.0000 </r>
       <r>   -28.7479     0.0000   312.0000 </r>
       <r>   -28.4880     0.0000   312.0000 </r>
       <r>   -28.2282     0.0000   312.0000 </r>
       <r>   -27.9684     0.0000   312.0000 </r>
       <r>   -27.7085     0.0000   312.0000 </r>
       <r>   -27.4487     0.0000   312.0000 </r>
       <r>   -27.1889     0.0000   312.0000 </r>
       <r>   -26.9290     0.0000   312.0000 </r>
       <r>   -26.6692     0.0000   312.0000 </r>
       <r>   -26.4094     0.0000   312.0000 </r>
       <r>   -26.1495     0.0000   312.0000 </r>
       <r>   -25.8897     0.0000   312.0000 </r>
       <r>   -25.6298     0.0000   312.0000 </r>
       <r>   -25.3700     0.0000   312.0000 </r>
       <r>   -25.1102     0.0000   312.0000 </r>
       <r>   -24.8503     0.0000   312.0000 </r>
       <r>   -24.5905     0.0000   312.0000 </r>
       <r>   -24.3307     0.0000   312.0000 </r>
       <r>   -24.0708     0.0000   312.0000 </r>
       <r>   -23.8110     0.0000   312.0000 </r>
       <r>   -23.5512     0.0000   312.0000 </r>
       <r>   -23.2913     0.0000   312.0000 </r>
       <r>   -23.0315     0.0000   312.0000 </r>
       <r>   -22.7717     0.0000   312.0000 </r>
       <r>   -22.5118     0.0000   312.0000 </r>
       <r>   -22.2520     0.0000   312.0000 </r>
       <r>   -21.9921     0.0000   312.0000 </r>
       <r>   -21.7323     0.0000   312.0000 </r>
       <r>   -21.4725     0.0000   312.0000 </r>
       <r>   -21.2126     0.0000   312.0000 </r>
       <r>   -20.9528     0.0000   312.0000 </r>
       <r>   -20.6930     0.0000   312.0000 </r>
       <r>   -20.4331     0.0000   312.0000 </r>
       <r>   -20.1733     0.0000   312.0000 </r>
       <r>   -19.9135     0.0000   312.0000 </r>
       <r>   -19.6536     0.0000   312.0000 </r>
       <r>   -19.3938     0.0000   312.0000 </r>
       <r>   -19.1339     0.0000   312.0000 </r>
       <r>   -18.8741     0.0000   312.0000 </r>
       <r>   -18.6143     0.0000   312.0000 </r>
       <r>   -18.3544     0.0000   312.0000 </r>
       <r>   -18.0946     0.0000   312.0000 </r>
       <r>   -17.8348     0.0000   312.0000 </r>
       <r>   -17.5749     0.0000   312.0000 </r>
       <r>   -17.3151     0.0000   312.0000 </r>
       <r>   -17.0553     0.0000   312.0000 </r>
       <r>   -16.7954     0.0000   312.0000 </r>
       <r>   -16.5356     0.0000   312.0000 </r>
       <r>   -16.2758     0.0000   312.0000 </r>
       <r>   -16.0159     0.0000   312.0000 </r>
       <r>   -15.7561     0.0000   312.0000 </r>
       <r>   -15.4962     0.0000   312.0000 </r>
       <r>   -15.2364     0.0000   312.0000 </r>
       <r>   -14.9766     0.0000   312.0000 </r>
       <r>   -14.7167     0.0023   312.0006 </r>
       <r>   -14.4569     0.4287   312.1120 </r>
       <r>   -14.1971     4.4795   313.2760 </r>
       <r>   -13.9372     7.2899   315.1701 </r>
       <r>   -13.6774     9.5656   317.6556 </r>
       <r>   -13.4176    17.3600   322.1664 </r>
       <r>   -13.1577    27.0725   329.2008 </r>
       <r>   -12.8979    23.3608   335.2708 </r>
       <r>   -12.6381    24.6136   341.6662 </r>
       <r>   -12.3782    32.8098   350.1914 </r>
       <r>   -12.1184    38.9463   360.3111 </r>
       <r>   -11.8585    42.5032   371.3549 </r>
       <r>   -11.5987    37.7498   381.1637 </r>
       <r>   -11.3389    48.9183   393.8744 </r>
       <r>   -11.0790    40.4033   404.3726 </r>
       <r>   -10.8192    28.3863   411.7484 </r>
       <r>   -10.5594    14.4268   415.4970 </r>
       <r>   -10.2995     1.9091   415.9931 </r>
       <r>   -10.0397     0.0266   416.0000 </r>
       <r>    -9.7799     0.0000   416.0000 </r>
       <r>    -9.5200     0.0000   416.0000 </r>
       <r>    -9.2602     0.0000   416.0000 </r>
       <r>    -9.0004     0.0000   416.0000 </r>
       <r>    -8.7405     0.0000   416.0000 </r>
       <r>    -8.4807     0.0000   416.0000 </r>
       <r>    -8.2208     0.0000   416.0000 </r>
       <r>    -7.9610     0.0000   416.0000 </r>
       <r>    -7.7012     0.0000   416.0000 </r>
       <r>    -7.4413     0.0000   416.0000 </r>
       <r>    -7.1815     0.0000   416.0000 </r>
       <r>    -6.9217     0.0000   416.0000 </r>
       <r>    -6.6618     0.0001   416.0000 </r>
       <r>    -6.4020     0.0837   416.0218 </r>
       <r>    -6.1422     3.7404   416.9937 </r>
       <r>    -5.8823    18.8764   421.8984 </r>
       <r>    -5.6225    29.6878   429.6124 </r>
       <r>    -5.3626    30.3230   437.4914 </r>
       <r>    -5.1028    35.7598   446.7831 </r>
       <r>    -4.8430    46.5874   458.8881 </r>
       <r>    -4.5831    59.0559   474.2330 </r>
       <r>    -4.3233    63.1632   490.6451 </r>
       <r>    -4.0635    65.7080   507.7184 </r>
       <r>    -3.8036    68.9457   525.6329 </r>
       <r>    -3.5438    61.2715   541.5534 </r>
       <r>    -3.2840    68.4187   559.3311 </r>
       <r>    -3.0241    74.9605   578.8085 </r>
       <r>    -2.7643    87.9084   601.6503 </r>
       <r>    -2.5045    90.3070   625.1153 </r>
       <r>    -2.2446    82.6495   646.5906 </r>
       <r>    -1.9848    89.4842   669.8418 </r>
       <r>    -1.7249    87.0773   692.4676 </r>
       <r>    -1.4651    62.6719   708.7520 </r>
       <r>    -1.2053    63.1755   725.1672 </r>
       <r>    -0.9454    84.8144   747.2050 </r>
       <r>    -0.6856   101.1627   773.4907 </r>
       <r>    -0.4258   123.9842   805.7063 </r>
       <r>    -0.1659   148.1346   844.1970 </r>
       <r>     0.0939   174.1416   889.4452 </r>
       <r>     0.3537   192.5295   939.4713 </r>
       <r>     0.6136   193.0638   989.6362 </r>
       <r>     0.8734   160.4901  1031.3372 </r>
       <r>     1.1332   123.1084  1063.3252 </r>
       <r>     1.3931    98.8064  1088.9987 </r>
       <r>     1.6529    83.8385  1110.7829 </r>
       <r>     1.9128    76.7833  1130.7340 </r>
       <r>     2.1726    66.2741  1147.9544 </r>
       <r>     2.4324    60.3822  1163.6438 </r>
       <r>     2.6923    66.4702  1180.9152 </r>
       <r>     2.9521    77.4077  1201.0284 </r>
       <r>     3.2119    69.2352  1219.0182 </r>
       <r>     3.4718    48.8721  1231.7169 </r>
       <r>     3.7316    37.9072  1241.5666 </r>
       <r>     3.9914    20.5743  1246.9125 </r>
       <r>     4.2513     7.5676  1248.8789 </r>
       <r>     4.5111     5.0737  1250.1972 </r>
       <r>     4.7710     6.3234  1251.8403 </r>
       <r>     5.0308     9.4019  1254.2832 </r>
       <r>     5.2906    17.6466  1258.8684 </r>
       <r>     5.5505    20.4725  1264.1879 </r>
       <r>     5.8103    21.3064  1269.7241 </r>
       <r>     6.0701    16.3252  1273.9660 </r>
       <r>     6.3300    25.6358  1280.6271 </r>
       <r>     6.5898    37.4399  1290.3553 </r>
       <r>     6.8496    32.7606  1298.8677 </r>
       <r>     7.1095    39.8180  1309.2138 </r>
       <r>     7.3693    53.6771  1323.1610 </r>
       <r>     7.6291    52.0618  1336.6886 </r>
       <r>     7.8890    56.2640  1351.3080 </r>
       <r>     8.1488    53.4133  1365.1867 </r>
       <r>     8.4087    24.1698  1371.4669 </r>
       <r>     8.6685     2.0373  1371.9962 </r>
       <r>     8.9283     0.0146  1372.0000 </r>
       <r>     9.1882     0.0000  1372.0000 </r>
       <r>     9.4480     0.0000  1372.0000 </r>
       <r>     9.7078     0.0000  1372.0000 </r>
       <r>     9.9677     0.0000  1372.0000 </r>
       <r>    10.2275     0.0000  1372.0000 </r>
       <r>    10.4873     0.0000  1372.0000 </r>
       <r>    10.7472     0.0000  1372.0000 </r>
       <r>    11.0070     0.0000  1372.0000 </r>
       <r>    11.2668     0.0000  1372.0000 </r>
       <r>    11.5267     0.0000  1372.0000 </r>
       <r>    11.7865     0.0000  1372.0000 </r>
      </set>
     </set>
    </array>
   </total>
  </dos>
 </calculation>
 <structure name="finalpos" >
  <crystal>
   <varray name="basis" >
    <v>      11.25646304       0.00000000       0.00000000 </v>
    <v>       5.04456212      10.06282034       0.00000000 </v>
    <v>       0.00000000       0.00000000      22.88364939 </v>
   </varray>
   <i name="volume">   2592.07135999 </i>
   <varray name="rec_basis" >
    <v>       0.08883785      -0.04453504       0.00000000 </v>
    <v>       0.00000000       0.09937572       0.00000000 </v>
    <v>       0.00000000       0.00000000       0.04369932 </v>
   </varray>
  </crystal>
  <varray name="positions" >
   <v>       0.26092070       0.47878036       0.29050611 </v>
   <v>       0.35488056       0.38482049       0.41880986 </v>
   <v>       0.44457975       0.31006024       0.52029504 </v>
   <v>       0.16696083       0.07274024       0.16220237 </v>
   <v>       0.04434554       0.05618561       0.49705165 </v>
   <v>       0.27423906       0.33335899       0.12830375 </v>
   <v>       0.36819893       0.23939913       0.25660749 </v>
   <v>       0.46215880       0.14543926       0.38491124 </v>
   <v>       0.00030194       0.37150212       0.25660749 </v>
   <v>       0.09426181       0.27754226       0.38491124 </v>
   <v>       0.18517072       0.18905389       0.49975309 </v>
   <v>       0.40634206       0.46546199       0.12830375 </v>
   <v>       0.21257531       0.02933829       0.05782824 </v>
   <v>       0.76092070       0.47878036       0.29050611 </v>
   <v>       0.85488056       0.38482049       0.41880986 </v>
   <v>       0.93070573       0.29798058       0.52427517 </v>
   <v>       0.66696083       0.07274024       0.16220237 </v>
   <v>       0.56206430       0.05053478       0.48106532 </v>
   <v>       0.73282995       0.51315971       0.05084319 </v>
   <v>       0.77423906       0.33335899       0.12830375 </v>
   <v>       0.86819893       0.23939913       0.25660749 </v>
   <v>       0.96215880       0.14543926       0.38491124 </v>
   <v>       0.50030194       0.37150212       0.25660749 </v>
   <v>       0.59426181       0.27754226       0.38491124 </v>
   <v>       0.90634206       0.46546199       0.12830375 </v>
   <v>       0.71195512       0.03373048       0.05680005 </v>
   <v>       0.26092070       0.97878036       0.29050611 </v>
   <v>       0.35488056       0.88482049       0.41880986 </v>
   <v>       0.35467917       0.90206672       0.51977657 </v>
   <v>       0.16696083       0.57274024       0.16220237 </v>
   <v>       0.06350444       0.55260113       0.48090547 </v>
   <v>       0.22633860       0.80599626       0.03336770 </v>
   <v>       0.27423907       0.83335899       0.12830375 </v>
   <v>       0.36819893       0.73939913       0.25660749 </v>
   <v>       0.46215880       0.64543926       0.38491124 </v>
   <v>       0.00030194       0.87150212       0.25660749 </v>
   <v>       0.09426181       0.77754226       0.38491124 </v>
   <v>       0.40634206       0.96546199       0.12830375 </v>
   <v>       0.40115175       0.56598751       0.03972904 </v>
   <v>       0.76092070       0.97878036       0.29050611 </v>
   <v>       0.85488056       0.88482049       0.41880986 </v>
   <v>       0.94712290       0.81066434       0.51862205 </v>
   <v>       0.52698502       0.69699732       0.08829215 </v>
   <v>       0.66696083       0.57274024       0.16220237 </v>
   <v>       0.69214981       0.82644147       0.03722805 </v>
   <v>       0.77423907       0.83335899       0.12830375 </v>
   <v>       0.86819893       0.73939913       0.25660749 </v>
   <v>       0.96215880       0.64543926       0.38491124 </v>
   <v>       0.50030194       0.87150212       0.25660749 </v>
   <v>       0.59426181       0.77754226       0.38491124 </v>
   <v>       0.68992516       0.67555336       0.47860014 </v>
   <v>       0.90634206       0.96546199       0.12830375 </v>
   <v>       0.07287763       0.16682343       0.30639927 </v>
   <v>       0.16683750       0.07286357       0.43470302 </v>
   <v>       0.34431875       0.40892501       0.05661120 </v>
   <v>       0.47891775       0.26078330       0.17809552 </v>
   <v>       0.26176288       0.46459926       0.50685603 </v>
   <v>       0.03023343       0.37768264       0.47786825 </v>
   <v>       0.43627354       0.47164251       0.34956450 </v>
   <v>       0.25703797       0.15826566       0.10704642 </v>
   <v>       0.34231368       0.06560239       0.22126075 </v>
   <v>       0.08315092       0.47833421       0.11179240 </v>
   <v>       0.17409868       0.39738738       0.22126075 </v>
   <v>       0.26805855       0.30342751       0.34956450 </v>
   <v>       0.36201842       0.20946765       0.47786825 </v>
   <v>       0.57287763       0.16682343       0.30639927 </v>
   <v>       0.66360585       0.07464154       0.40954194 </v>
   <v>       0.89811838       0.34196726       0.06373775 </v>
   <v>       0.97891775       0.26078330       0.17809552 </v>
   <v>       0.77509292       0.47874489       0.50578735 </v>
   <v>       0.52311706       0.38351228       0.45997596 </v>
   <v>       0.93627354       0.47164251       0.34956450 </v>
   <v>       0.75973568       0.15723163       0.10719848 </v>
   <v>       0.84231368       0.06560239       0.22126075 </v>
   <v>       0.58013882       0.49134724       0.09295701 </v>
   <v>       0.67409868       0.39738738       0.22126075 </v>
   <v>       0.76805855       0.30342751       0.34956450 </v>
   <v>       0.86518830       0.20894250       0.46356840 </v>
   <v>       0.07287764       0.66682343       0.30639927 </v>
   <v>       0.16461074       0.57535375       0.40928857 </v>
   <v>       0.38495789       0.85474317       0.04979178 </v>
   <v>       0.47891775       0.76078330       0.17809552 </v>
   <v>       0.18797291       0.04499475       0.55623066 </v>
   <v>       0.02766511       0.89077405       0.46086662 </v>
   <v>       0.43627354       0.97164251       0.34956450 </v>
   <v>       0.24968739       0.66247235       0.09949196 </v>
   <v>       0.34231368       0.56560239       0.22126075 </v>
   <v>       0.08692194       0.95873703       0.09227686 </v>
   <v>       0.17409868       0.89738738       0.22126075 </v>
   <v>       0.26805855       0.80342751       0.34956450 </v>
   <v>       0.40342718       0.72511490       0.47108430 </v>
   <v>       0.57287764       0.66682343       0.30639927 </v>
   <v>       0.66575384       0.57387121       0.40778432 </v>
   <v>       0.86750412       0.85103772       0.05407777 </v>
   <v>       0.97891775       0.76078330       0.17809552 </v>
   <v>       0.76128381       0.96269803       0.50680828 </v>
   <v>       0.53023342       0.87768264       0.47786825 </v>
   <v>       0.93627354       0.97164251       0.34956450 </v>
   <v>       0.73949228       0.66814115       0.09760269 </v>
   <v>       0.84231368       0.56560239       0.22126075 </v>
   <v>       0.58301631       0.97780749       0.09990817 </v>
   <v>       0.67409868       0.89738738       0.22126075 </v>
   <v>       0.76805855       0.80342751       0.34956450 </v>
   <v>       0.86201842       0.70946764       0.47786825 </v>
  </varray>
 </structure>
</modeling>
