"Millerite NiS"                         
           1
    10.062820    5.044562    0.000000
     0.000000   11.256463    0.000000
     0.000000    0.000000   20.935369
   Ni   S 
    48    48
Direct configuration=     1
   0.26092070  0.47878035  0.31754109
   0.35488057  0.38482048  0.45778500
   0.07300097  0.16670010  0.03705328
   0.16696083  0.07274023  0.17729719
   0.18027920  0.42731885  0.00000000
   0.27423907  0.33335898  0.14024390
   0.36819894  0.23939912  0.28048781
   0.46215880  0.14543925  0.42073172
   0.00030195  0.37150211  0.28048781
   0.09426181  0.27754225  0.42073172
   0.40634206  0.46546198  0.14024390
   0.31238220  0.05942186  0.00000000
   0.76092070  0.47878035  0.31754109
   0.85488057  0.38482048  0.45778500
   0.57300097  0.16670010  0.03705328
   0.66696083  0.07274023  0.17729719
   0.68027920  0.42731885  0.00000000
   0.77423907  0.33335898  0.14024390
   0.86819894  0.23939912  0.28048781
   0.96215880  0.14543925  0.42073172
   0.50030195  0.37150211  0.28048781
   0.59426181  0.27754225  0.42073172
   0.90634206  0.46546198  0.14024390
   0.81238220  0.05942186  0.00000000
   0.26092070  0.97878035  0.31754109
   0.35488057  0.88482048  0.45778500
   0.07300097  0.66670010  0.03705328
   0.16696083  0.57274023  0.17729719
   0.18027920  0.92731885  0.00000000
   0.27423907  0.83335898  0.14024390
   0.36819894  0.73939912  0.28048781
   0.46215880  0.64543925  0.42073172
   0.00030195  0.87150211  0.28048781
   0.09426181  0.77754225  0.42073172
   0.40634206  0.96546198  0.14024390
   0.31238220  0.55942186  0.00000000
   0.76092070  0.97878035  0.31754109
   0.85488057  0.88482048  0.45778500
   0.57300097  0.66670010  0.03705328
   0.66696083  0.57274023  0.17729719
   0.68027920  0.92731885  0.00000000
   0.77423907  0.83335898  0.14024390
   0.86819894  0.73939912  0.28048781
   0.96215880  0.64543925  0.42073172
   0.50030195  0.87150211  0.28048781
   0.59426181  0.77754225  0.42073172
   0.90634206  0.96546198  0.14024390
   0.81238220  0.55942186  0.00000000
   0.07287764  0.16682342  0.33491329
   0.16683751  0.07286356  0.47515720
   0.38495789  0.35474316  0.05442548
   0.47891776  0.26078329  0.19466939
   0.03023343  0.37768263  0.52233945
   0.43627355  0.47164250  0.38209555
   0.24835381  0.15956224  0.10160774
   0.34231368  0.06560238  0.24185164
   0.08013882  0.49134723  0.10160774
   0.17409869  0.39738737  0.24185164
   0.26805855  0.30342750  0.38209555
   0.36201842  0.20946763  0.52233945
   0.57287764  0.16682342  0.33491329
   0.66683751  0.07286356  0.47515720
   0.88495789  0.35474316  0.05442548
   0.97891776  0.26078329  0.19466939
   0.53023343  0.37768263  0.52233945
   0.93627355  0.47164250  0.38209555
   0.74835381  0.15956224  0.10160774
   0.84231368  0.06560238  0.24185164
   0.58013882  0.49134723  0.10160774
   0.67409869  0.39738737  0.24185164
   0.76805855  0.30342750  0.38209555
   0.86201842  0.20946763  0.52233945
   0.07287764  0.66682342  0.33491329
   0.16683751  0.57286356  0.47515720
   0.38495789  0.85474316  0.05442548
   0.47891776  0.76078329  0.19466939
   0.03023343  0.87768263  0.52233945
   0.43627355  0.97164250  0.38209555
   0.24835381  0.65956224  0.10160774
   0.34231368  0.56560238  0.24185164
   0.08013882  0.99134723  0.10160774
   0.17409869  0.89738737  0.24185164
   0.26805855  0.80342750  0.38209555
   0.36201842  0.70946763  0.52233945
   0.57287764  0.66682342  0.33491329
   0.66683751  0.57286356  0.47515720
   0.88495789  0.85474316  0.05442548
   0.97891776  0.76078329  0.19466939
   0.53023343  0.87768263  0.52233945
   0.93627355  0.97164250  0.38209555
   0.74835381  0.65956224  0.10160774
   0.84231368  0.56560238  0.24185164
   0.58013882  0.99134723  0.10160774
   0.67409869  0.89738737  0.24185164
   0.76805855  0.80342750  0.38209555
   0.86201842  0.70946763  0.52233945
