"Millerite NiS"                         
           1
     6.278560    0.000000    0.000000
     2.092853   11.060196    0.000000
     0.000000    0.000000   29.156820
   Ty   Ty
  48  48
Direct configuration=     1
   0.25630944  0.01645859  0.15239349
   0.25630944  0.01645859  0.48090702
   0.00630944  0.26645858  0.31665025
   0.96407313  0.27585151  0.63792306
   0.21332126  0.03025469  0.06990853
   0.25630944  0.01645859  0.39411177
   0.00630944  0.26645858  0.22985501
   0.00630944  0.26645858  0.55836854
   0.20086924  0.21930192  0.11666305
   0.19025794  0.21461308  0.43750940
   0.44025794  0.46461308  0.27325263
   0.45897526  0.47431976  0.59086776
   0.75630944  0.01645859  0.15239349
   0.75630944  0.01645859  0.48090702
   0.50630944  0.26645858  0.31665025
   0.54937676  0.26815746  0.63704295
   0.79263352  0.02722506  0.07134250
   0.75630944  0.01645859  0.39411177
   0.50630944  0.26645858  0.22985501
   0.50630944  0.26645858  0.55836854
   0.68152478  0.22192287  0.11639060
   0.69025794  0.21461308  0.43750940
   0.94025794  0.46461308  0.27325263
   0.92075215  0.47558350  0.59315948
   0.25630944  0.51645859  0.15239349
   0.25630944  0.51645859  0.48090702
   0.00630944  0.76645858  0.31665025
   0.04937676  0.76815746  0.63704295
   0.21332126  0.53025469  0.06990853
   0.25630944  0.51645859  0.39411177
   0.00630944  0.76645858  0.22985501
   0.00630944  0.76645858  0.55836854
   0.20086924  0.71930192  0.11666305
   0.19025794  0.71461308  0.43750940
   0.44025794  0.96461308  0.27325263
   0.42075215  0.97558350  0.59315948
   0.75630944  0.51645859  0.15239349
   0.75630944  0.51645859  0.48090702
   0.50630944  0.76645858  0.31665025
   0.46407313  0.77585151  0.63792306
   0.79263352  0.52722506  0.07134250
   0.75630944  0.51645859  0.39411177
   0.50630944  0.76645858  0.22985501
   0.50630944  0.76645858  0.55836854
   0.68152478  0.72192287  0.11639060
   0.69025794  0.71461308  0.43750940
   0.94025794  0.96461308  0.27325263
   0.95897526  0.97431976  0.59086776
   0.46840410  0.16661759  0.38224849
   0.21840410  0.41661758  0.21799173
   0.21840410  0.41661758  0.54650526
   0.46840410  0.16661759  0.16425677
   0.46840410  0.16661759  0.49277030
   0.01454116  0.48190426  0.02103506
   0.21840410  0.41661758  0.32851354
   0.05251161  0.41429508  0.10899586
   0.05251161  0.41429508  0.43750940
   0.30251160  0.16429509  0.27325263
   0.30251160  0.16429509  0.60176617
   0.95200224  0.17899405  0.07175741
   0.96840410  0.16661759  0.38224849
   0.71840410  0.41661758  0.21799173
   0.71840410  0.41661758  0.54650526
   0.96840410  0.16661759  0.16425677
   0.96840410  0.16661759  0.49277030
   0.46742475  0.63927123  0.07259848
   0.71840410  0.41661758  0.32851354
   0.70221087  0.41527146  0.64097118
   0.55251161  0.41429508  0.10899586
   0.55251161  0.41429508  0.43750940
   0.80251160  0.16429509  0.27325263
   0.80251160  0.16429509  0.60176617
   0.46840411  0.66661759  0.38224849
   0.21840411  0.91661758  0.21799173
   0.21840411  0.91661758  0.54650526
   0.46840411  0.66661759  0.16425677
   0.46840411  0.66661759  0.49277030
   0.01454116  0.98190426  0.02103506
   0.21840411  0.91661758  0.32851354
   0.20221087  0.91527146  0.64097118
   0.05251161  0.91429508  0.10899586
   0.05251161  0.91429508  0.43750940
   0.30251161  0.66429509  0.27325263
   0.30251161  0.66429509  0.60176617
   0.95200224  0.67899405  0.07175741
   0.96840411  0.66661759  0.38224849
   0.71840411  0.91661758  0.21799173
   0.71840411  0.91661758  0.54650526
   0.96840411  0.66661759  0.16425677
   0.96840411  0.66661759  0.49277030
   0.46742475  0.13927123  0.07259848
   0.71840411  0.91661758  0.32851354
   0.55251161  0.91429508  0.10899586
   0.55251161  0.91429508  0.43750940
   0.80251161  0.66429509  0.27325263
   0.80251161  0.66429509  0.60176617
