       N       E                     dE             d eps       ncg     rms          rms(c)
DAV:   1     0.856424650009E+04    0.85642E+04   -0.49821E+05  1184   0.152E+03
DAV:   2     0.472850202591E+03   -0.80914E+04   -0.78032E+04  1024   0.480E+02
DAV:   3    -0.346180019961E+03   -0.81903E+03   -0.77287E+03  1128   0.155E+02
DAV:   4    -0.394082477586E+03   -0.47902E+02   -0.47337E+02  1112   0.348E+01
DAV:   5    -0.395902091053E+03   -0.18196E+01   -0.18170E+01  1208   0.719E+00    0.826E+01
DAV:   6    -0.529538247657E+03   -0.13364E+03   -0.10885E+03  1152   0.128E+02    0.183E+02
DAV:   7    -0.376147184419E+03    0.15339E+03   -0.20142E+02  1144   0.611E+01    0.780E+01
DAV:   8    -0.359786390798E+03    0.16361E+02   -0.19457E+02  1360   0.732E+01    0.751E+01
DAV:   9    -0.353113282212E+03    0.66731E+01   -0.92831E+01  1240   0.486E+01    0.616E+01
DAV:  10    -0.362853818560E+03   -0.97405E+01   -0.70991E+01  1320   0.363E+01    0.825E+01
DAV:  11    -0.362399282628E+03    0.45454E+00   -0.53299E+01  1384   0.318E+01    0.542E+01
DAV:  12    -0.347921940426E+03    0.14477E+02   -0.24625E+01  1320   0.292E+01    0.317E+01
DAV:  13    -0.345950820965E+03    0.19711E+01   -0.14180E+01  1304   0.236E+01    0.616E+01
DAV:  14    -0.347135161676E+03   -0.11843E+01   -0.26316E+01  1312   0.961E+00    0.382E+01
DAV:  15    -0.342810790694E+03    0.43244E+01   -0.10953E+01  1232   0.167E+01    0.225E+01
DAV:  16    -0.341761193220E+03    0.10496E+01   -0.43317E+00  1256   0.116E+01    0.157E+01
DAV:  17    -0.341482899595E+03    0.27829E+00   -0.21537E+00  1304   0.777E+00    0.139E+01
DAV:  18    -0.340882475165E+03    0.60042E+00   -0.12544E+00  1208   0.787E+00    0.108E+01
DAV:  19    -0.340752210774E+03    0.13026E+00   -0.71978E-01  1296   0.471E+00    0.892E+00
DAV:  20    -0.340606753944E+03    0.14546E+00   -0.41747E-01  1232   0.403E+00    0.764E+00
DAV:  21    -0.340693536404E+03   -0.86782E-01   -0.56395E-01  1256   0.439E+00    0.130E+01
DAV:  22    -0.340623298404E+03    0.70238E-01   -0.51124E-01  1328   0.382E+00    0.965E+00
DAV:  23    -0.340568905356E+03    0.54393E-01   -0.30572E-01  1256   0.325E+00    0.938E+00
DAV:  24    -0.340489547903E+03    0.79357E-01   -0.17088E-01  1264   0.209E+00    0.570E+00
DAV:  25    -0.340486087617E+03    0.34603E-02   -0.17475E-01  1224   0.232E+00    0.399E+00
DAV:  26    -0.340445667713E+03    0.40420E-01   -0.12253E-01  1240   0.199E+00    0.245E+00
DAV:  27    -0.340443017056E+03    0.26507E-02   -0.67595E-02  1304   0.166E+00    0.221E+00
DAV:  28    -0.340447119640E+03   -0.41026E-02   -0.41440E-02  1312   0.129E+00    0.239E+00
DAV:  29    -0.340441139685E+03    0.59800E-02   -0.29642E-02  1256   0.115E+00    0.222E+00
DAV:  30    -0.340433478601E+03    0.76611E-02   -0.13248E-02  1304   0.620E-01    0.169E+00
DAV:  31    -0.340428039266E+03    0.54393E-02   -0.12196E-02  1304   0.548E-01    0.110E+00
DAV:  32    -0.340427960977E+03    0.78289E-04   -0.90506E-03  1288   0.635E-01    0.948E-01
DAV:  33    -0.340427203462E+03    0.75751E-03   -0.55262E-03  1144   0.548E-01    0.947E-01
DAV:  34    -0.340426794541E+03    0.40892E-03   -0.23146E-03  1224   0.300E-01    0.824E-01
DAV:  35    -0.340426612562E+03    0.18198E-03   -0.30606E-03  1240   0.275E-01    0.723E-01
DAV:  36    -0.340426251058E+03    0.36150E-03   -0.10479E-03   992   0.202E-01    0.507E-01
DAV:  37    -0.340426277895E+03   -0.26837E-04   -0.80172E-04   912   0.174E-01
   1 F= -.34042628E+03 E0= -.33971178E+03  d E =-.142900E+01
