<?xml version="1.0" encoding="ISO-8859-1"?>
<modeling>
 <generator>
  <i name="program" type="string">vasp </i>
  <i name="version" type="string">6.1.0  </i>
  <i name="subversion" type="string">28Jan20 (build Mar 31 2020 17:42:31) gamma-only                       parallel </i>
  <i name="platform" type="string">LinuxIFC </i>
  <i name="date" type="string">2020 04 12 </i>
  <i name="time" type="string">23:44:52 </i>
 </generator>
 <incar>
  <i type="string" name="SYSTEM">"Millerite NiS"</i>
  <i type="int" name="NSIM">     4</i>
  <i type="int" name="NELM">   100</i>
  <i name="ENCUT">    450.00000000</i>
  <i type="string" name="LREAL">A</i>
  <i type="int" name="ISMEAR">     0</i>
  <i type="int" name="NWRITE">     2</i>
  <i type="logical" name="LWAVE"> F  </i>
  <i type="logical" name="LCHARG"> F  </i>
  <i type="int" name="NCORE">     6</i>
  <i type="int" name="NELM">   100</i>
 </incar>
 <structure name="primitive_cell" >
  <crystal>
   <varray name="basis" >
    <v>      16.88469405       0.00000000       0.00000000 </v>
    <v>       0.00000000       9.57841000       0.00000000 </v>
    <v>       0.00000000       0.00000000      16.19761915 </v>
   </varray>
   <i name="volume">   2619.61701075 </i>
   <varray name="rec_basis" >
    <v>       0.05922524       0.00000000       0.00000000 </v>
    <v>       0.00000000       0.10440146       0.00000000 </v>
    <v>       0.00000000       0.00000000       0.06173747 </v>
   </varray>
  </crystal>
  <varray name="positions" >
   <v>       0.06497261       0.92341313       0.31080449 </v>
   <v>       0.09954057       0.92341313       0.12037258 </v>
   <v>       0.58225659       0.42341313       0.21558854 </v>
   <v>       0.61682455       0.42341313       0.02515663 </v>
   <v>       0.23740060       0.42341313       0.27906584 </v>
   <v>       0.27196856       0.42341313       0.08863393 </v>
   <v>       0.72011663       0.92341313       0.37428180 </v>
   <v>       0.75468458       0.92341313       0.18384989 </v>
   <v>       0.40982860       0.92341313       0.24732719 </v>
   <v>       0.44439655       0.92341313       0.05689528 </v>
   <v>       0.89254462       0.42341313       0.34254314 </v>
   <v>       0.92711258       0.42341313       0.15211123 </v>
   <v>       0.42015216       0.55551613       0.38086382 </v>
   <v>       0.45472012       0.55551613       0.19043191 </v>
   <v>       0.48928808       0.55551613       0.00000000 </v>
   <v>       0.93743614       0.05551613       0.28564787 </v>
   <v>       0.97200410       0.05551613       0.09521596 </v>
   <v>       0.10986414       0.55551613       0.25390921 </v>
   <v>       0.14443209       0.55551613       0.06347730 </v>
   <v>       0.59258016       0.05551613       0.34912517 </v>
   <v>       0.62714811       0.05551613       0.15869326 </v>
   <v>       0.28229213       0.05551613       0.22217056 </v>
   <v>       0.31686009       0.05551613       0.03173865 </v>
   <v>       0.76500815       0.55551613       0.31738652 </v>
   <v>       0.79957611       0.55551613       0.12695461 </v>
   <v>       0.06497261       0.18761913       0.31080449 </v>
   <v>       0.09954057       0.18761913       0.12037258 </v>
   <v>       0.58225659       0.68761913       0.21558854 </v>
   <v>       0.61682455       0.68761913       0.02515663 </v>
   <v>       0.23740060       0.68761913       0.27906584 </v>
   <v>       0.27196856       0.68761913       0.08863393 </v>
   <v>       0.72011663       0.18761913       0.37428180 </v>
   <v>       0.75468458       0.18761913       0.18384989 </v>
   <v>       0.40982860       0.18761913       0.24732719 </v>
   <v>       0.44439655       0.18761913       0.05689528 </v>
   <v>       0.89254462       0.68761913       0.34254314 </v>
   <v>       0.92711258       0.68761913       0.15211123 </v>
   <v>       0.02101885       0.22373113       0.00146664 </v>
   <v>       0.46916691       0.72373113       0.28711451 </v>
   <v>       0.50373487       0.72373113       0.09668260 </v>
   <v>       0.98645089       0.22373113       0.19189855 </v>
   <v>       0.12431093       0.72373113       0.35059181 </v>
   <v>       0.15887888       0.72373113       0.16015990 </v>
   <v>       0.64159490       0.22373113       0.25537586 </v>
   <v>       0.67616286       0.22373113       0.06494395 </v>
   <v>       0.29673892       0.22373113       0.31885316 </v>
   <v>       0.33130688       0.22373113       0.12842125 </v>
   <v>       0.81402290       0.72373113       0.22363721 </v>
   <v>       0.84859085       0.72373113       0.03320530 </v>
   <v>       0.14885104       0.05551613       0.22393206 </v>
   <v>       0.18341900       0.05551613       0.03350015 </v>
   <v>       0.63156706       0.55551613       0.31914801 </v>
   <v>       0.66613502       0.55551613       0.12871610 </v>
   <v>       0.28671108       0.55551613       0.38262532 </v>
   <v>       0.32127903       0.55551613       0.19219341 </v>
   <v>       0.80399506       0.05551613       0.28740936 </v>
   <v>       0.83856301       0.05551613       0.09697745 </v>
   <v>       0.01099101       0.55551613       0.06523880 </v>
   <v>       0.45913907       0.05551613       0.35088666 </v>
   <v>       0.49370703       0.05551613       0.16045475 </v>
   <v>       0.97642305       0.55551613       0.25567071 </v>
   <v>       0.02101885       0.88730113       0.00146664 </v>
   <v>       0.46916691       0.38730113       0.28711451 </v>
   <v>       0.50373487       0.38730113       0.09668260 </v>
   <v>       0.95188293       0.88730113       0.38233046 </v>
   <v>       0.98645089       0.88730113       0.19189855 </v>
   <v>       0.12431093       0.38730113       0.35059181 </v>
   <v>       0.15887888       0.38730113       0.16015990 </v>
   <v>       0.64159490       0.88730113       0.25537586 </v>
   <v>       0.67616286       0.88730113       0.06494395 </v>
   <v>       0.29673892       0.88730113       0.31885316 </v>
   <v>       0.33130688       0.88730113       0.12842125 </v>
   <v>       0.81402290       0.38730113       0.22363721 </v>
   <v>       0.84859085       0.38730113       0.03320530 </v>
  </varray>
 </structure>
 <varray name="primitive_index" >
  <v type="int" >        1 </v>
  <v type="int" >        2 </v>
  <v type="int" >        3 </v>
  <v type="int" >        4 </v>
  <v type="int" >        5 </v>
  <v type="int" >        6 </v>
  <v type="int" >        7 </v>
  <v type="int" >        8 </v>
  <v type="int" >        9 </v>
  <v type="int" >       10 </v>
  <v type="int" >       11 </v>
  <v type="int" >       12 </v>
  <v type="int" >       13 </v>
  <v type="int" >       14 </v>
  <v type="int" >       15 </v>
  <v type="int" >       16 </v>
  <v type="int" >       17 </v>
  <v type="int" >       18 </v>
  <v type="int" >       19 </v>
  <v type="int" >       20 </v>
  <v type="int" >       21 </v>
  <v type="int" >       22 </v>
  <v type="int" >       23 </v>
  <v type="int" >       24 </v>
  <v type="int" >       25 </v>
  <v type="int" >       26 </v>
  <v type="int" >       27 </v>
  <v type="int" >       28 </v>
  <v type="int" >       29 </v>
  <v type="int" >       30 </v>
  <v type="int" >       31 </v>
  <v type="int" >       32 </v>
  <v type="int" >       33 </v>
  <v type="int" >       34 </v>
  <v type="int" >       35 </v>
  <v type="int" >       36 </v>
  <v type="int" >       37 </v>
  <v type="int" >       38 </v>
  <v type="int" >       39 </v>
  <v type="int" >       40 </v>
  <v type="int" >       41 </v>
  <v type="int" >       42 </v>
  <v type="int" >       43 </v>
  <v type="int" >       44 </v>
  <v type="int" >       45 </v>
  <v type="int" >       46 </v>
  <v type="int" >       47 </v>
  <v type="int" >       48 </v>
  <v type="int" >       49 </v>
  <v type="int" >       50 </v>
  <v type="int" >       51 </v>
  <v type="int" >       52 </v>
  <v type="int" >       53 </v>
  <v type="int" >       54 </v>
  <v type="int" >       55 </v>
  <v type="int" >       56 </v>
  <v type="int" >       57 </v>
  <v type="int" >       58 </v>
  <v type="int" >       59 </v>
  <v type="int" >       60 </v>
  <v type="int" >       61 </v>
  <v type="int" >       62 </v>
  <v type="int" >       63 </v>
  <v type="int" >       64 </v>
  <v type="int" >       65 </v>
  <v type="int" >       66 </v>
  <v type="int" >       67 </v>
  <v type="int" >       68 </v>
  <v type="int" >       69 </v>
  <v type="int" >       70 </v>
  <v type="int" >       71 </v>
  <v type="int" >       72 </v>
  <v type="int" >       73 </v>
  <v type="int" >       74 </v>
 </varray>
 <kpoints>
  <generation param="Gamma">
   <v type="int" name="divisions">       1        1        1 </v>
   <v name="usershift">      0.00000000       0.00000000       0.00000000 </v>
   <v name="genvec1">      1.00000000       0.00000000       0.00000000 </v>
   <v name="genvec2">      0.00000000       1.00000000       0.00000000 </v>
   <v name="genvec3">      0.00000000       0.00000000       1.00000000 </v>
   <v name="shift">      0.00000000       0.00000000       0.00000000 </v>
  </generation>
  <varray name="kpointlist" >
   <v>       0.00000000       0.00000000       0.00000000 </v>
  </varray>
  <varray name="weights" >
   <v>       1.00000000 </v>
  </varray>
 </kpoints>
 <parameters>
  <separator name="general" >
   <i type="string" name="SYSTEM">"Millerite NiS"</i>
   <i type="logical" name="LCOMPAT"> F  </i>
  </separator>
  <separator name="electronic" >
   <i type="string" name="PREC">normal</i>
   <i name="ENMAX">    450.00000000</i>
   <i name="ENAUG">    703.44300000</i>
   <i name="EDIFF">      0.00010000</i>
   <i type="int" name="IALGO">    38</i>
   <i type="int" name="IWAVPR">    10</i>
   <i type="int" name="NBANDS">   488</i>
   <i type="int" name="NBANDSLOW">    -1</i>
   <i type="int" name="NBANDSHIGH">    -1</i>
   <i name="NELECT">    814.00000000</i>
   <i type="int" name="TURBO">     0</i>
   <i type="int" name="IRESTART">     0</i>
   <i type="int" name="NREBOOT">     0</i>
   <i type="int" name="NMIN">     0</i>
   <i name="EREF">      0.00000000</i>
   <separator name="electronic smearing" >
    <i type="int" name="ISMEAR">     0</i>
    <i name="SIGMA">      0.20000000</i>
    <i name="KSPACING">      0.50000000</i>
    <i type="logical" name="KGAMMA"> T  </i>
    <i type="logical" name="KBLOWUP"> T  </i>
   </separator>
   <separator name="electronic projectors" >
    <i type="logical" name="LREAL"> T  </i>
    <v name="ROPT">     -0.00050000     -0.00050000</v>
    <i type="int" name="LMAXPAW">  -100</i>
    <i type="int" name="LMAXMIX">     2</i>
    <i type="logical" name="NLSPLINE"> F  </i>
   </separator>
   <separator name="electronic startup" >
    <i type="int" name="ISTART">     0</i>
    <i type="int" name="ICHARG">     2</i>
    <i type="int" name="INIWAV">     1</i>
   </separator>
   <separator name="electronic spin" >
    <i type="int" name="ISPIN">     1</i>
    <i type="logical" name="LNONCOLLINEAR"> F  </i>
    <v name="MAGMOM">      1.00000000      1.00000000      1.00000000      1.00000000      1.00000000      1.00000000      1.00000000      1.00000000      1.00000000      1.00000000      1.00000000      1.00000000      1.00000000      1.00000000      1.00000000      1.00000000      1.00000000      1.00000000      1.00000000      1.00000000
      1.00000000      1.00000000      1.00000000      1.00000000      1.00000000      1.00000000      1.00000000      1.00000000      1.00000000      1.00000000      1.00000000      1.00000000      1.00000000      1.00000000      1.00000000      1.00000000      1.00000000      1.00000000      1.00000000      1.00000000
      1.00000000      1.00000000      1.00000000      1.00000000      1.00000000      1.00000000      1.00000000      1.00000000      1.00000000      1.00000000      1.00000000      1.00000000      1.00000000      1.00000000      1.00000000      1.00000000      1.00000000      1.00000000      1.00000000      1.00000000
      1.00000000      1.00000000      1.00000000      1.00000000      1.00000000      1.00000000      1.00000000      1.00000000      1.00000000      1.00000000      1.00000000      1.00000000      1.00000000      1.00000000</v>
    <i name="NUPDOWN">     -1.00000000</i>
    <i type="logical" name="LSORBIT"> F  </i>
    <v name="SAXIS">      0.00000000      0.00000000      1.00000000</v>
    <i type="logical" name="LSPIRAL"> F  </i>
    <v name="QSPIRAL">      0.00000000      0.00000000      0.00000000</v>
    <i type="logical" name="LZEROZ"> F  </i>
   </separator>
   <separator name="electronic exchange-correlation" >
    <i type="logical" name="LASPH"> F  </i>
    <i type="logical" name="LMETAGGA"> F  </i>
   </separator>
   <separator name="electronic convergence" >
    <i type="int" name="NELM">   100</i>
    <i type="int" name="NELMDL">    -5</i>
    <i type="int" name="NELMIN">     2</i>
    <i name="ENINI">    450.00000000</i>
    <separator name="electronic convergence detail" >
     <i type="logical" name="LDIAG"> T  </i>
     <i type="logical" name="LSUBROT"> F  </i>
     <i name="WEIMIN">      0.00000000</i>
     <i name="EBREAK">      0.00000005</i>
     <i name="DEPER">      0.30000000</i>
     <i type="int" name="NRMM">     4</i>
     <i name="TIME">      0.40000000</i>
    </separator>
   </separator>
   <separator name="electronic mixer" >
    <i name="AMIX">      0.40000000</i>
    <i name="BMIX">      1.00000000</i>
    <i name="AMIN">      0.10000000</i>
    <i name="AMIX_MAG">      1.60000000</i>
    <i name="BMIX_MAG">      1.00000000</i>
    <separator name="electronic mixer details" >
     <i type="int" name="IMIX">     4</i>
     <i type="logical" name="MIXFIRST"> F  </i>
     <i type="int" name="MAXMIX">   -45</i>
     <i name="WC">    100.00000000</i>
     <i type="int" name="INIMIX">     1</i>
     <i type="int" name="MIXPRE">     1</i>
     <i type="int" name="MREMOVE">     5</i>
    </separator>
   </separator>
   <separator name="electronic dipolcorrection" >
    <i type="logical" name="LDIPOL"> F  </i>
    <i type="logical" name="LMONO"> F  </i>
    <i type="int" name="IDIPOL">     0</i>
    <i name="EPSILON">      1.00000000</i>
    <v name="DIPOL">   -100.00000000   -100.00000000   -100.00000000</v>
    <i name="EFIELD">      0.00000000</i>
   </separator>
  </separator>
  <separator name="grids" >
   <i type="int" name="NGX">    90</i>
   <i type="int" name="NGY">    50</i>
   <i type="int" name="NGZ">    84</i>
   <i type="int" name="NGXF">   180</i>
   <i type="int" name="NGYF">   100</i>
   <i type="int" name="NGZF">   168</i>
   <i type="logical" name="ADDGRID"> F  </i>
  </separator>
  <separator name="ionic" >
   <i type="int" name="NSW">     0</i>
   <i type="int" name="IBRION">    -1</i>
   <i type="int" name="MDALGO">     0</i>
   <i type="int" name="ISIF">     2</i>
   <i name="PSTRESS">      0.00000000</i>
   <i name="EDIFFG">      0.00100000</i>
   <i type="int" name="NFREE">     0</i>
   <i name="POTIM">      0.50000000</i>
   <i name="SMASS">     -3.00000000</i>
   <i name="SCALEE">      1.00000000</i>
  </separator>
  <separator name="ionic md" >
   <i name="TEBEG">      0.00010000</i>
   <i name="TEEND">      0.00010000</i>
   <i type="int" name="NBLOCK">     1</i>
   <i type="int" name="KBLOCK">     1</i>
   <i type="int" name="NPACO">   256</i>
   <i name="APACO">     16.00000000</i>
  </separator>
  <separator name="symmetry" >
   <i type="int" name="ISYM">     2</i>
   <i name="SYMPREC">      0.00001000</i>
  </separator>
  <separator name="dos" >
   <i type="int" name="LORBIT">     0</i>
   <v name="RWIGS">     -1.00000000     -1.00000000</v>
   <i type="int" name="NEDOS">   301</i>
   <i name="EMIN">     10.00000000</i>
   <i name="EMAX">    -10.00000000</i>
   <i name="EFERMI">      0.00000000</i>
  </separator>
  <separator name="writing" >
   <i type="int" name="NWRITE">     2</i>
   <i type="logical" name="LWAVE"> F  </i>
   <i type="logical" name="LDOWNSAMPLE"> F  </i>
   <i type="logical" name="LCHARG"> F  </i>
   <i type="logical" name="LPARD"> F  </i>
   <i type="logical" name="LVTOT"> F  </i>
   <i type="logical" name="LVHAR"> F  </i>
   <i type="logical" name="LELF"> F  </i>
   <i type="logical" name="LOPTICS"> F  </i>
   <v name="STM">      0.00000000      0.00000000      0.00000000      0.00000000      0.00000000      0.00000000      0.00000000</v>
  </separator>
  <separator name="performance" >
   <i type="int" name="NPAR">     8</i>
   <i type="int" name="NSIM">     4</i>
   <i type="int" name="NBLK">    -1</i>
   <i type="logical" name="LPLANE"> T  </i>
   <i type="logical" name="LSCALAPACK"> T  </i>
   <i type="logical" name="LSCAAWARE"> F  </i>
   <i type="logical" name="LSCALU"> F  </i>
   <i type="logical" name="LASYNC"> F  </i>
   <i type="logical" name="LORBITALREAL"> F  </i>
  </separator>
  <separator name="miscellaneous" >
   <i type="int" name="IDIOT">     3</i>
   <i type="int" name="PHON_NSTRUCT">    -1</i>
   <i type="logical" name="LMUSIC"> F  </i>
   <v name="POMASS">     58.69000000     32.06600000</v>
   <v name="DARWINR">      0.00000000      0.00000000</v>
   <v name="DARWINV">      1.00000000      1.00000000</v>
   <i type="logical" name="LCORR"> T  </i>
  </separator>
  <i type="logical" name="GGA_COMPAT"> T  </i>
  <i type="logical" name="LBERRY"> F  </i>
  <i type="int" name="ICORELEVEL">     0</i>
  <i type="logical" name="LDAU"> F  </i>
  <i type="int" name="I_CONSTRAINED_M">     0</i>
  <separator name="electronic exchange-correlation" >
   <i type="string" name="GGA">--</i>
   <i type="int" name="VOSKOWN">     0</i>
   <i type="logical" name="LHFCALC"> F  </i>
   <i type="string" name="PRECFOCK"></i>
   <i type="logical" name="LSYMGRAD"> F  </i>
   <i type="logical" name="LHFONE"> F  </i>
   <i type="logical" name="LRHFCALC"> F  </i>
   <i type="logical" name="LTHOMAS"> F  </i>
   <i type="logical" name="LMODELHF"> F  </i>
   <i type="logical" name="LFOCKACE"> F  </i>
   <i name="ENCUT4O">     -1.00000000</i>
   <i type="int" name="EXXOEP">     0</i>
   <i type="int" name="FOURORBIT">     0</i>
   <i name="AEXX">      0.00000000</i>
   <i name="HFALPHA">      0.00000000</i>
   <i name="MCALPHA">      0.00000000</i>
   <i name="ALDAX">      1.00000000</i>
   <i name="AGGAX">      1.00000000</i>
   <i name="ALDAC">      1.00000000</i>
   <i name="AGGAC">      1.00000000</i>
   <i type="int" name="NKREDX">     1</i>
   <i type="int" name="NKREDY">     1</i>
   <i type="int" name="NKREDZ">     1</i>
   <i type="logical" name="SHIFTRED"> F  </i>
   <i type="logical" name="ODDONLY"> F  </i>
   <i type="logical" name="EVENONLY"> F  </i>
   <i type="int" name="LMAXFOCK">     0</i>
   <i type="int" name="NMAXFOCKAE">     0</i>
   <i type="logical" name="LFOCKAEDFT"> F  </i>
   <i name="HFSCREEN">      0.00000000</i>
   <i name="HFSCREENC">      0.00000000</i>
   <i type="int" name="NBANDSGWLOW">     0</i>
  </separator>
  <separator name="vdW DFT" >
   <i type="logical" name="LUSE_VDW"> F  </i>
   <i name="Zab_VDW">     -0.84910000</i>
   <i name="PARAM1">      0.12340000</i>
   <i name="PARAM2">      1.00000000</i>
   <i name="PARAM3">      0.00000000</i>
  </separator>
  <separator name="model GW" >
   <i type="int" name="MODEL_GW">     0</i>
   <i name="MODEL_EPS0">     21.24013792</i>
   <i name="MODEL_ALPHA">      1.00000000</i>
  </separator>
  <separator name="linear response parameters" >
   <i type="logical" name="LEPSILON"> F  </i>
   <i type="logical" name="LRPA"> F  </i>
   <i type="logical" name="LNABLA"> F  </i>
   <i type="logical" name="LVEL"> F  </i>
   <i type="int" name="KINTER">     0</i>
   <i name="CSHIFT">      0.10000000</i>
   <i name="OMEGAMAX">     -1.00000000</i>
   <i name="DEG_THRESHOLD">      0.00200000</i>
   <i name="RTIME">     -0.10000000</i>
   <i name="WPLASMAI">      0.00000000</i>
   <v name="DFIELD">      0.00000000      0.00000000      0.00000000</v>
   <v name="WPLASMA">      0.00000000      0.00000000      0.00000000      0.00000000      0.00000000      0.00000000      0.00000000      0.00000000      0.00000000</v>
  </separator>
  <separator name="orbital magnetization" >
   <i type="logical" name="NUCIND"> F  </i>
   <v name="MAGPOS">      0.00000000      0.00000000      0.00000000</v>
   <i type="logical" name="LNICSALL"> T  </i>
   <i type="logical" name="ORBITALMAG"> F  </i>
   <i type="logical" name="LMAGBLOCH"> F  </i>
   <i type="logical" name="LCHIMAG"> F  </i>
   <i type="logical" name="LGAUGE"> T  </i>
   <i type="int" name="MAGATOM">     0</i>
   <v name="MAGDIPOL">      0.00000000      0.00000000      0.00000000</v>
   <v name="AVECCONST">      0.00000000      0.00000000      0.00000000</v>
  </separator>
  <separator name="response functions" >
   <i type="logical" name="LFINITE_TEMPERATURE"> F  </i>
   <i type="logical" name="LADDER"> F  </i>
   <i type="logical" name="LRPAFORCE"> F  </i>
   <i type="logical" name="LFXC"> F  </i>
   <i type="logical" name="LHARTREE"> T  </i>
   <i type="int" name="IBSE">     0</i>
   <v type="int" name="KPOINT">    -1     0     0     0</v>
   <i type="logical" name="LTCTC"> F  </i>
   <i type="logical" name="LTCTE"> F  </i>
   <i type="logical" name="LTETE"> F  </i>
   <i type="logical" name="LTRIPLET"> F  </i>
   <i type="logical" name="LFXCEPS"> F  </i>
   <i type="logical" name="LFXHEG"> F  </i>
   <i type="int" name="NATURALO">     2</i>
   <i type="logical" name="LHOLEGF"> F  </i>
   <i type="logical" name="L2ORDER"> F  </i>
   <i type="logical" name="LDMP1"> F  </i>
   <i type="logical" name="LMP2LT"> F  </i>
   <i type="logical" name="LSMP2LT"> F  </i>
   <i type="logical" name="LGWLF"> F  </i>
   <i name="ENCUTGW">     -2.00000000</i>
   <i name="ENCUTGWSOFT">     -2.00000000</i>
   <i name="ENCUTLF">     -1.00000000</i>
   <i type="logical" name="LESF_SPLINES"> F  </i>
   <i type="int" name="LMAXMP2">    -1</i>
   <i name="SCISSOR">      0.00000000</i>
   <i type="int" name="NOMEGA">     0</i>
   <i type="int" name="NOMEGAR">     0</i>
   <i type="int" name="NBANDSGW">    -1</i>
   <i type="int" name="NBANDSO">    -1</i>
   <i type="int" name="NBANDSV">    -1</i>
   <i type="int" name="NELM">   100</i>
   <i type="int" name="NELMHF">     1</i>
   <i type="int" name="DIM">     3</i>
   <i type="int" name="IESPILON">     4</i>
   <i type="int" name="ANTIRES">     0</i>
   <i name="OMEGAMAX">    -30.00000000</i>
   <i name="OMEGAMIN">    -30.00000000</i>
   <i name="OMEGATL">   -200.00000000</i>
   <i type="int" name="OMEGAGRID">     0</i>
   <i name="CSHIFT">     -0.10000000</i>
   <i type="logical" name="LSELFENERGY"> F  </i>
   <i type="logical" name="LSPECTRAL"> F  </i>
   <i type="logical" name="LSPECTRALGW"> F  </i>
   <i type="logical" name="LSINGLES"> F  </i>
   <i type="logical" name="LFERMIGW"> F  </i>
   <i type="logical" name="ODDONLYGW"> F  </i>
   <i type="logical" name="EVENONLYGW"> F  </i>
   <i type="int" name="NKREDLFX">     1</i>
   <i type="int" name="NKREDLFY">     1</i>
   <i type="int" name="NKREDLFZ">     1</i>
   <i type="int" name="MAXMEM">  2800</i>
   <i type="int" name="TELESCOPE">     0</i>
   <i type="int" name="NTAUPAR">    -1</i>
   <i type="int" name="NOMEGAPAR">    -1</i>
   <i name="LAMBDA">      1.00000000</i>
  </separator>
  <separator name="External order field" >
   <i name="OFIELD_KAPPA">      0.00000000</i>
   <v name="OFIELD_K">      0.00000000      0.00000000      0.00000000</v>
   <i name="OFIELD_Q6_NEAR">      0.00000000</i>
   <i name="OFIELD_Q6_FAR">      0.00000000</i>
   <i name="OFIELD_A">      0.00000000</i>
  </separator>
 </parameters>
 <atominfo>
  <atoms>      74 </atoms>
  <types>       2 </types>
  <array name="atoms" >
   <dimension dim="1">ion</dimension>
   <field type="string">element</field>
   <field type="int">atomtype</field>
   <set>
    <rc><c>Ni</c><c>   1</c></rc>
    <rc><c>Ni</c><c>   1</c></rc>
    <rc><c>Ni</c><c>   1</c></rc>
    <rc><c>Ni</c><c>   1</c></rc>
    <rc><c>Ni</c><c>   1</c></rc>
    <rc><c>Ni</c><c>   1</c></rc>
    <rc><c>Ni</c><c>   1</c></rc>
    <rc><c>Ni</c><c>   1</c></rc>
    <rc><c>Ni</c><c>   1</c></rc>
    <rc><c>Ni</c><c>   1</c></rc>
    <rc><c>Ni</c><c>   1</c></rc>
    <rc><c>Ni</c><c>   1</c></rc>
    <rc><c>Ni</c><c>   1</c></rc>
    <rc><c>Ni</c><c>   1</c></rc>
    <rc><c>Ni</c><c>   1</c></rc>
    <rc><c>Ni</c><c>   1</c></rc>
    <rc><c>Ni</c><c>   1</c></rc>
    <rc><c>Ni</c><c>   1</c></rc>
    <rc><c>Ni</c><c>   1</c></rc>
    <rc><c>Ni</c><c>   1</c></rc>
    <rc><c>Ni</c><c>   1</c></rc>
    <rc><c>Ni</c><c>   1</c></rc>
    <rc><c>Ni</c><c>   1</c></rc>
    <rc><c>Ni</c><c>   1</c></rc>
    <rc><c>Ni</c><c>   1</c></rc>
    <rc><c>Ni</c><c>   1</c></rc>
    <rc><c>Ni</c><c>   1</c></rc>
    <rc><c>Ni</c><c>   1</c></rc>
    <rc><c>Ni</c><c>   1</c></rc>
    <rc><c>Ni</c><c>   1</c></rc>
    <rc><c>Ni</c><c>   1</c></rc>
    <rc><c>Ni</c><c>   1</c></rc>
    <rc><c>Ni</c><c>   1</c></rc>
    <rc><c>Ni</c><c>   1</c></rc>
    <rc><c>Ni</c><c>   1</c></rc>
    <rc><c>Ni</c><c>   1</c></rc>
    <rc><c>Ni</c><c>   1</c></rc>
    <rc><c>S </c><c>   2</c></rc>
    <rc><c>S </c><c>   2</c></rc>
    <rc><c>S </c><c>   2</c></rc>
    <rc><c>S </c><c>   2</c></rc>
    <rc><c>S </c><c>   2</c></rc>
    <rc><c>S </c><c>   2</c></rc>
    <rc><c>S </c><c>   2</c></rc>
    <rc><c>S </c><c>   2</c></rc>
    <rc><c>S </c><c>   2</c></rc>
    <rc><c>S </c><c>   2</c></rc>
    <rc><c>S </c><c>   2</c></rc>
    <rc><c>S </c><c>   2</c></rc>
    <rc><c>S </c><c>   2</c></rc>
    <rc><c>S </c><c>   2</c></rc>
    <rc><c>S </c><c>   2</c></rc>
    <rc><c>S </c><c>   2</c></rc>
    <rc><c>S </c><c>   2</c></rc>
    <rc><c>S </c><c>   2</c></rc>
    <rc><c>S </c><c>   2</c></rc>
    <rc><c>S </c><c>   2</c></rc>
    <rc><c>S </c><c>   2</c></rc>
    <rc><c>S </c><c>   2</c></rc>
    <rc><c>S </c><c>   2</c></rc>
    <rc><c>S </c><c>   2</c></rc>
    <rc><c>S </c><c>   2</c></rc>
    <rc><c>S </c><c>   2</c></rc>
    <rc><c>S </c><c>   2</c></rc>
    <rc><c>S </c><c>   2</c></rc>
    <rc><c>S </c><c>   2</c></rc>
    <rc><c>S </c><c>   2</c></rc>
    <rc><c>S </c><c>   2</c></rc>
    <rc><c>S </c><c>   2</c></rc>
    <rc><c>S </c><c>   2</c></rc>
    <rc><c>S </c><c>   2</c></rc>
    <rc><c>S </c><c>   2</c></rc>
    <rc><c>S </c><c>   2</c></rc>
    <rc><c>S </c><c>   2</c></rc>
   </set>
  </array>
  <array name="atomtypes" >
   <dimension dim="1">type</dimension>
   <field type="int">atomspertype</field>
   <field type="string">element</field>
   <field>mass</field>
   <field>valence</field>
   <field type="string">pseudopotential</field>
   <set>
    <rc><c>  37</c><c>Ni</c><c>     58.69000000</c><c>     16.00000000</c><c>  PAW_PBE Ni_pv 06Sep2000               </c></rc>
    <rc><c>  37</c><c>S </c><c>     32.06600000</c><c>      6.00000000</c><c>  PAW_PBE S 06Sep2000                   </c></rc>
   </set>
  </array>
 </atominfo>
 <structure name="initialpos" >
  <crystal>
   <varray name="basis" >
    <v>      16.88469405       0.00000000       0.00000000 </v>
    <v>       0.00000000       9.57841000       0.00000000 </v>
    <v>       0.00000000       0.00000000      16.19761915 </v>
   </varray>
   <i name="volume">   2619.61701075 </i>
   <varray name="rec_basis" >
    <v>       0.05922524       0.00000000       0.00000000 </v>
    <v>       0.00000000       0.10440146       0.00000000 </v>
    <v>       0.00000000       0.00000000       0.06173747 </v>
   </varray>
  </crystal>
  <varray name="positions" >
   <v>       0.06497261       0.92341313       0.31080449 </v>
   <v>       0.09954057       0.92341313       0.12037258 </v>
   <v>       0.58225659       0.42341313       0.21558854 </v>
   <v>       0.61682455       0.42341313       0.02515663 </v>
   <v>       0.23740060       0.42341313       0.27906584 </v>
   <v>       0.27196856       0.42341313       0.08863393 </v>
   <v>       0.72011663       0.92341313       0.37428180 </v>
   <v>       0.75468458       0.92341313       0.18384989 </v>
   <v>       0.40982860       0.92341313       0.24732719 </v>
   <v>       0.44439655       0.92341313       0.05689528 </v>
   <v>       0.89254462       0.42341313       0.34254314 </v>
   <v>       0.92711258       0.42341313       0.15211123 </v>
   <v>       0.42015216       0.55551613       0.38086382 </v>
   <v>       0.45472012       0.55551613       0.19043191 </v>
   <v>       0.48928808       0.55551613       0.00000000 </v>
   <v>       0.93743614       0.05551613       0.28564787 </v>
   <v>       0.97200410       0.05551613       0.09521596 </v>
   <v>       0.10986414       0.55551613       0.25390921 </v>
   <v>       0.14443209       0.55551613       0.06347730 </v>
   <v>       0.59258016       0.05551613       0.34912517 </v>
   <v>       0.62714811       0.05551613       0.15869326 </v>
   <v>       0.28229213       0.05551613       0.22217056 </v>
   <v>       0.31686009       0.05551613       0.03173865 </v>
   <v>       0.76500815       0.55551613       0.31738652 </v>
   <v>       0.79957611       0.55551613       0.12695461 </v>
   <v>       0.06497261       0.18761913       0.31080449 </v>
   <v>       0.09954057       0.18761913       0.12037258 </v>
   <v>       0.58225659       0.68761913       0.21558854 </v>
   <v>       0.61682455       0.68761913       0.02515663 </v>
   <v>       0.23740060       0.68761913       0.27906584 </v>
   <v>       0.27196856       0.68761913       0.08863393 </v>
   <v>       0.72011663       0.18761913       0.37428180 </v>
   <v>       0.75468458       0.18761913       0.18384989 </v>
   <v>       0.40982860       0.18761913       0.24732719 </v>
   <v>       0.44439655       0.18761913       0.05689528 </v>
   <v>       0.89254462       0.68761913       0.34254314 </v>
   <v>       0.92711258       0.68761913       0.15211123 </v>
   <v>       0.02101885       0.22373113       0.00146664 </v>
   <v>       0.46916691       0.72373113       0.28711451 </v>
   <v>       0.50373487       0.72373113       0.09668260 </v>
   <v>       0.98645089       0.22373113       0.19189855 </v>
   <v>       0.12431093       0.72373113       0.35059181 </v>
   <v>       0.15887888       0.72373113       0.16015990 </v>
   <v>       0.64159490       0.22373113       0.25537586 </v>
   <v>       0.67616286       0.22373113       0.06494395 </v>
   <v>       0.29673892       0.22373113       0.31885316 </v>
   <v>       0.33130688       0.22373113       0.12842125 </v>
   <v>       0.81402290       0.72373113       0.22363721 </v>
   <v>       0.84859085       0.72373113       0.03320530 </v>
   <v>       0.14885104       0.05551613       0.22393206 </v>
   <v>       0.18341900       0.05551613       0.03350015 </v>
   <v>       0.63156706       0.55551613       0.31914801 </v>
   <v>       0.66613502       0.55551613       0.12871610 </v>
   <v>       0.28671108       0.55551613       0.38262532 </v>
   <v>       0.32127903       0.55551613       0.19219341 </v>
   <v>       0.80399506       0.05551613       0.28740936 </v>
   <v>       0.83856301       0.05551613       0.09697745 </v>
   <v>       0.01099101       0.55551613       0.06523880 </v>
   <v>       0.45913907       0.05551613       0.35088666 </v>
   <v>       0.49370703       0.05551613       0.16045475 </v>
   <v>       0.97642305       0.55551613       0.25567071 </v>
   <v>       0.02101885       0.88730113       0.00146664 </v>
   <v>       0.46916691       0.38730113       0.28711451 </v>
   <v>       0.50373487       0.38730113       0.09668260 </v>
   <v>       0.95188293       0.88730113       0.38233046 </v>
   <v>       0.98645089       0.88730113       0.19189855 </v>
   <v>       0.12431093       0.38730113       0.35059181 </v>
   <v>       0.15887888       0.38730113       0.16015990 </v>
   <v>       0.64159490       0.88730113       0.25537586 </v>
   <v>       0.67616286       0.88730113       0.06494395 </v>
   <v>       0.29673892       0.88730113       0.31885316 </v>
   <v>       0.33130688       0.88730113       0.12842125 </v>
   <v>       0.81402290       0.38730113       0.22363721 </v>
   <v>       0.84859085       0.38730113       0.03320530 </v>
  </varray>
 </structure>
 <calculation>
  <scstep>
   <time name="dav">    2.62    2.63</time>
   <time name="total">    2.68    2.69</time>
   <energy>
    <i name="alphaZ">   1500.00209625 </i>
    <i name="ewald"> 108709.80186661 </i>
    <i name="hartreedc">-233064.76915858 </i>
    <i name="XCdc">   3741.39034825 </i>
    <i name="pawpsdc"> 115860.90926010 </i>
    <i name="pawaedc">-120909.33166199 </i>
    <i name="eentropy">     -0.52713555 </i>
    <i name="bandstr">  -6677.36070102 </i>
    <i name="atom"> 139780.45519414 </i>
    <i name="e_fr_energy">   8940.57010819 </i>
    <i name="e_wo_entrp">   8941.09724374 </i>
    <i name="e_0_energy">   8940.83367596 </i>
   </energy>
  </scstep>
  <scstep>
   <time name="dav">    2.31    2.32</time>
   <time name="total">    2.31    2.32</time>
   <energy>
    <i name="e_fr_energy">    495.88963935 </i>
    <i name="e_wo_entrp">    496.62354714 </i>
    <i name="e_0_energy">    496.25659325 </i>
   </energy>
  </scstep>
  <scstep>
   <time name="dav">    2.55    2.56</time>
   <time name="total">    2.55    2.56</time>
   <energy>
    <i name="e_fr_energy">   -357.39933379 </i>
    <i name="e_wo_entrp">   -355.99891394 </i>
    <i name="e_0_energy">   -356.69912387 </i>
   </energy>
  </scstep>
  <scstep>
   <time name="dav">    2.55    2.56</time>
   <time name="total">    2.55    2.56</time>
   <energy>
    <i name="e_fr_energy">   -408.29505917 </i>
    <i name="e_wo_entrp">   -406.84974450 </i>
    <i name="e_0_energy">   -407.57240183 </i>
   </energy>
  </scstep>
  <scstep>
   <time name="dav">    2.60    2.61</time>
   <time name="total">    2.65    2.66</time>
   <energy>
    <i name="e_fr_energy">   -409.78369984 </i>
    <i name="e_wo_entrp">   -408.34387539 </i>
    <i name="e_0_energy">   -409.06378761 </i>
   </energy>
  </scstep>
  <scstep>
   <time name="dav">    2.62    2.63</time>
   <time name="total">    2.74    2.75</time>
   <energy>
    <i name="e_fr_energy">   -537.70343038 </i>
    <i name="e_wo_entrp">   -536.70838925 </i>
    <i name="e_0_energy">   -537.20590981 </i>
   </energy>
  </scstep>
  <scstep>
   <time name="dav">    2.56    2.57</time>
   <time name="total">    2.67    2.68</time>
   <energy>
    <i name="e_fr_energy">   -389.76117749 </i>
    <i name="e_wo_entrp">   -388.56151069 </i>
    <i name="e_0_energy">   -389.16134409 </i>
   </energy>
  </scstep>
  <scstep>
   <time name="dav">    2.93    2.93</time>
   <time name="total">    3.04    3.05</time>
   <energy>
    <i name="e_fr_energy">   -395.39664753 </i>
    <i name="e_wo_entrp">   -393.77411700 </i>
    <i name="e_0_energy">   -394.58538227 </i>
   </energy>
  </scstep>
  <scstep>
   <time name="dav">    2.76    2.77</time>
   <time name="total">    2.88    2.88</time>
   <energy>
    <i name="e_fr_energy">   -374.14925426 </i>
    <i name="e_wo_entrp">   -372.83766678 </i>
    <i name="e_0_energy">   -373.49346052 </i>
   </energy>
  </scstep>
  <scstep>
   <time name="dav">    2.94    2.94</time>
   <time name="total">    3.05    3.06</time>
   <energy>
    <i name="e_fr_energy">   -370.08994131 </i>
    <i name="e_wo_entrp">   -368.48310254 </i>
    <i name="e_0_energy">   -369.28652193 </i>
   </energy>
  </scstep>
  <scstep>
   <time name="dav">    2.93    2.94</time>
   <time name="total">    3.04    3.05</time>
   <energy>
    <i name="e_fr_energy">   -379.83888259 </i>
    <i name="e_wo_entrp">   -378.54331701 </i>
    <i name="e_0_energy">   -379.19109980 </i>
   </energy>
  </scstep>
  <scstep>
   <time name="dav">    2.97    2.97</time>
   <time name="total">    3.08    3.09</time>
   <energy>
    <i name="e_fr_energy">   -370.45119585 </i>
    <i name="e_wo_entrp">   -369.13472135 </i>
    <i name="e_0_energy">   -369.79295860 </i>
   </energy>
  </scstep>
  <scstep>
   <time name="dav">    2.80    2.81</time>
   <time name="total">    2.91    2.92</time>
   <energy>
    <i name="e_fr_energy">   -359.19483376 </i>
    <i name="e_wo_entrp">   -358.07390417 </i>
    <i name="e_0_energy">   -358.63436896 </i>
   </energy>
  </scstep>
  <scstep>
   <time name="dav">    2.87    2.88</time>
   <time name="total">    2.98    2.99</time>
   <energy>
    <i name="e_fr_energy">   -359.93171427 </i>
    <i name="e_wo_entrp">   -358.62724251 </i>
    <i name="e_0_energy">   -359.27947839 </i>
   </energy>
  </scstep>
  <scstep>
   <time name="dav">    2.87    2.88</time>
   <time name="total">    2.98    2.99</time>
   <energy>
    <i name="e_fr_energy">   -360.17858446 </i>
    <i name="e_wo_entrp">   -359.06710435 </i>
    <i name="e_0_energy">   -359.62284440 </i>
   </energy>
  </scstep>
  <scstep>
   <time name="dav">    2.67    2.68</time>
   <time name="total">    2.78    2.79</time>
   <energy>
    <i name="e_fr_energy">   -355.48529784 </i>
    <i name="e_wo_entrp">   -354.32774556 </i>
    <i name="e_0_energy">   -354.90652170 </i>
   </energy>
  </scstep>
  <scstep>
   <time name="dav">    2.85    2.86</time>
   <time name="total">    2.96    2.97</time>
   <energy>
    <i name="e_fr_energy">   -355.22636536 </i>
    <i name="e_wo_entrp">   -354.03140718 </i>
    <i name="e_0_energy">   -354.62888627 </i>
   </energy>
  </scstep>
  <scstep>
   <time name="dav">    2.82    2.83</time>
   <time name="total">    2.93    2.94</time>
   <energy>
    <i name="e_fr_energy">   -354.34892333 </i>
    <i name="e_wo_entrp">   -353.09079610 </i>
    <i name="e_0_energy">   -353.71985971 </i>
   </energy>
  </scstep>
  <scstep>
   <time name="dav">    2.77    2.77</time>
   <time name="total">    2.87    2.89</time>
   <energy>
    <i name="e_fr_energy">   -353.94335534 </i>
    <i name="e_wo_entrp">   -352.64563131 </i>
    <i name="e_0_energy">   -353.29449332 </i>
   </energy>
  </scstep>
  <scstep>
   <time name="dav">    2.90    2.90</time>
   <time name="total">    3.01    3.01</time>
   <energy>
    <i name="e_fr_energy">   -353.94161051 </i>
    <i name="e_wo_entrp">   -352.67238633 </i>
    <i name="e_0_energy">   -353.30699842 </i>
   </energy>
  </scstep>
  <scstep>
   <time name="dav">    2.80    2.80</time>
   <time name="total">    2.90    2.91</time>
   <energy>
    <i name="e_fr_energy">   -353.72894598 </i>
    <i name="e_wo_entrp">   -352.42814423 </i>
    <i name="e_0_energy">   -353.07854511 </i>
   </energy>
  </scstep>
  <scstep>
   <time name="dav">    2.80    2.81</time>
   <time name="total">    2.91    2.92</time>
   <energy>
    <i name="e_fr_energy">   -353.70563785 </i>
    <i name="e_wo_entrp">   -352.38131551 </i>
    <i name="e_0_energy">   -353.04347668 </i>
   </energy>
  </scstep>
  <scstep>
   <time name="dav">    2.65    2.65</time>
   <time name="total">    2.76    2.76</time>
   <energy>
    <i name="e_fr_energy">   -353.59928747 </i>
    <i name="e_wo_entrp">   -352.28362554 </i>
    <i name="e_0_energy">   -352.94145650 </i>
   </energy>
  </scstep>
  <scstep>
   <time name="dav">    2.81    2.82</time>
   <time name="total">    2.92    2.93</time>
   <energy>
    <i name="e_fr_energy">   -353.67488124 </i>
    <i name="e_wo_entrp">   -352.35018584 </i>
    <i name="e_0_energy">   -353.01253354 </i>
   </energy>
  </scstep>
  <scstep>
   <time name="dav">    3.02    3.03</time>
   <time name="total">    3.13    3.14</time>
   <energy>
    <i name="e_fr_energy">   -353.56382361 </i>
    <i name="e_wo_entrp">   -352.19979964 </i>
    <i name="e_0_energy">   -352.88181163 </i>
   </energy>
  </scstep>
  <scstep>
   <time name="dav">    2.79    2.79</time>
   <time name="total">    2.90    2.90</time>
   <energy>
    <i name="e_fr_energy">   -353.54567022 </i>
    <i name="e_wo_entrp">   -352.18445333 </i>
    <i name="e_0_energy">   -352.86506177 </i>
   </energy>
  </scstep>
  <scstep>
   <time name="dav">    2.62    2.63</time>
   <time name="total">    2.73    2.74</time>
   <energy>
    <i name="e_fr_energy">   -353.53289513 </i>
    <i name="e_wo_entrp">   -352.16877881 </i>
    <i name="e_0_energy">   -352.85083697 </i>
   </energy>
  </scstep>
  <scstep>
   <time name="dav">    2.84    2.85</time>
   <time name="total">    2.96    2.96</time>
   <energy>
    <i name="e_fr_energy">   -353.54768194 </i>
    <i name="e_wo_entrp">   -352.18289427 </i>
    <i name="e_0_energy">   -352.86528810 </i>
   </energy>
  </scstep>
  <scstep>
   <time name="dav">    2.77    2.78</time>
   <time name="total">    2.89    2.89</time>
   <energy>
    <i name="e_fr_energy">   -353.52434410 </i>
    <i name="e_wo_entrp">   -352.17219328 </i>
    <i name="e_0_energy">   -352.84826869 </i>
   </energy>
  </scstep>
  <scstep>
   <time name="dav">    2.87    2.88</time>
   <time name="total">    2.99    3.00</time>
   <energy>
    <i name="e_fr_energy">   -353.52238801 </i>
    <i name="e_wo_entrp">   -352.17243179 </i>
    <i name="e_0_energy">   -352.84740990 </i>
   </energy>
  </scstep>
  <scstep>
   <time name="dav">    2.83    2.83</time>
   <time name="total">    2.94    2.95</time>
   <energy>
    <i name="e_fr_energy">   -353.51953747 </i>
    <i name="e_wo_entrp">   -352.17015769 </i>
    <i name="e_0_energy">   -352.84484758 </i>
   </energy>
  </scstep>
  <scstep>
   <time name="dav">    2.69    2.70</time>
   <time name="total">    2.80    2.81</time>
   <energy>
    <i name="e_fr_energy">   -353.51545077 </i>
    <i name="e_wo_entrp">   -352.16465508 </i>
    <i name="e_0_energy">   -352.84005292 </i>
   </energy>
  </scstep>
  <scstep>
   <time name="dav">    2.82    2.83</time>
   <time name="total">    2.93    2.94</time>
   <energy>
    <i name="e_fr_energy">   -353.51411923 </i>
    <i name="e_wo_entrp">   -352.17360793 </i>
    <i name="e_0_energy">   -352.84386358 </i>
   </energy>
  </scstep>
  <scstep>
   <time name="dav">    2.71    2.72</time>
   <time name="total">    2.82    2.83</time>
   <energy>
    <i name="e_fr_energy">   -353.51306177 </i>
    <i name="e_wo_entrp">   -352.17295921 </i>
    <i name="e_0_energy">   -352.84301049 </i>
   </energy>
  </scstep>
  <scstep>
   <time name="dav">    2.53    2.53</time>
   <time name="total">    2.64    2.65</time>
   <energy>
    <i name="e_fr_energy">   -353.51329907 </i>
    <i name="e_wo_entrp">   -352.17453792 </i>
    <i name="e_0_energy">   -352.84391850 </i>
   </energy>
  </scstep>
  <scstep>
   <time name="dav">    2.25    2.26</time>
   <time name="total">    2.31    2.32</time>
   <energy>
    <i name="alphaZ">   1500.00209625 </i>
    <i name="ewald"> 108709.80186661 </i>
    <i name="hartreedc">-232356.65335703 </i>
    <i name="XCdc">   3712.01562960 </i>
    <i name="pawpsdc"> 132298.72942077 </i>
    <i name="pawaedc">-137404.39097187 </i>
    <i name="eentropy">     -1.33952773 </i>
    <i name="bandstr"> -16592.13361054 </i>
    <i name="atom"> 139780.45519414 </i>
    <i name="e_fr_energy">   -353.51325981 </i>
    <i name="e_wo_entrp">   -352.17373208 </i>
    <i name="e_0_energy">   -352.84349594 </i>
   </energy>
  </scstep>
  <structure>
   <crystal>
    <varray name="basis" >
     <v>      16.88469405       0.00000000       0.00000000 </v>
     <v>       0.00000000       9.57841000       0.00000000 </v>
     <v>       0.00000000       0.00000000      16.19761915 </v>
    </varray>
    <i name="volume">   2619.61701075 </i>
    <varray name="rec_basis" >
     <v>       0.05922524       0.00000000       0.00000000 </v>
     <v>       0.00000000       0.10440146       0.00000000 </v>
     <v>       0.00000000       0.00000000       0.06173747 </v>
    </varray>
   </crystal>
   <varray name="positions" >
    <v>       0.06497261       0.92341313       0.31080449 </v>
    <v>       0.09954057       0.92341313       0.12037258 </v>
    <v>       0.58225659       0.42341313       0.21558854 </v>
    <v>       0.61682455       0.42341313       0.02515663 </v>
    <v>       0.23740060       0.42341313       0.27906584 </v>
    <v>       0.27196856       0.42341313       0.08863393 </v>
    <v>       0.72011663       0.92341313       0.37428180 </v>
    <v>       0.75468458       0.92341313       0.18384989 </v>
    <v>       0.40982860       0.92341313       0.24732719 </v>
    <v>       0.44439655       0.92341313       0.05689528 </v>
    <v>       0.89254462       0.42341313       0.34254314 </v>
    <v>       0.92711258       0.42341313       0.15211123 </v>
    <v>       0.42015216       0.55551613       0.38086382 </v>
    <v>       0.45472012       0.55551613       0.19043191 </v>
    <v>       0.48928808       0.55551613       0.00000000 </v>
    <v>       0.93743614       0.05551613       0.28564787 </v>
    <v>       0.97200410       0.05551613       0.09521596 </v>
    <v>       0.10986414       0.55551613       0.25390921 </v>
    <v>       0.14443209       0.55551613       0.06347730 </v>
    <v>       0.59258016       0.05551613       0.34912517 </v>
    <v>       0.62714811       0.05551613       0.15869326 </v>
    <v>       0.28229213       0.05551613       0.22217056 </v>
    <v>       0.31686009       0.05551613       0.03173865 </v>
    <v>       0.76500815       0.55551613       0.31738652 </v>
    <v>       0.79957611       0.55551613       0.12695461 </v>
    <v>       0.06497261       0.18761913       0.31080449 </v>
    <v>       0.09954057       0.18761913       0.12037258 </v>
    <v>       0.58225659       0.68761913       0.21558854 </v>
    <v>       0.61682455       0.68761913       0.02515663 </v>
    <v>       0.23740060       0.68761913       0.27906584 </v>
    <v>       0.27196856       0.68761913       0.08863393 </v>
    <v>       0.72011663       0.18761913       0.37428180 </v>
    <v>       0.75468458       0.18761913       0.18384989 </v>
    <v>       0.40982860       0.18761913       0.24732719 </v>
    <v>       0.44439655       0.18761913       0.05689528 </v>
    <v>       0.89254462       0.68761913       0.34254314 </v>
    <v>       0.92711258       0.68761913       0.15211123 </v>
    <v>       0.02101885       0.22373113       0.00146664 </v>
    <v>       0.46916691       0.72373113       0.28711451 </v>
    <v>       0.50373487       0.72373113       0.09668260 </v>
    <v>       0.98645089       0.22373113       0.19189855 </v>
    <v>       0.12431093       0.72373113       0.35059181 </v>
    <v>       0.15887888       0.72373113       0.16015990 </v>
    <v>       0.64159490       0.22373113       0.25537586 </v>
    <v>       0.67616286       0.22373113       0.06494395 </v>
    <v>       0.29673892       0.22373113       0.31885316 </v>
    <v>       0.33130688       0.22373113       0.12842125 </v>
    <v>       0.81402290       0.72373113       0.22363721 </v>
    <v>       0.84859085       0.72373113       0.03320530 </v>
    <v>       0.14885104       0.05551613       0.22393206 </v>
    <v>       0.18341900       0.05551613       0.03350015 </v>
    <v>       0.63156706       0.55551613       0.31914801 </v>
    <v>       0.66613502       0.55551613       0.12871610 </v>
    <v>       0.28671108       0.55551613       0.38262532 </v>
    <v>       0.32127903       0.55551613       0.19219341 </v>
    <v>       0.80399506       0.05551613       0.28740936 </v>
    <v>       0.83856301       0.05551613       0.09697745 </v>
    <v>       0.01099101       0.55551613       0.06523880 </v>
    <v>       0.45913907       0.05551613       0.35088666 </v>
    <v>       0.49370703       0.05551613       0.16045475 </v>
    <v>       0.97642305       0.55551613       0.25567071 </v>
    <v>       0.02101885       0.88730113       0.00146664 </v>
    <v>       0.46916691       0.38730113       0.28711451 </v>
    <v>       0.50373487       0.38730113       0.09668260 </v>
    <v>       0.95188293       0.88730113       0.38233046 </v>
    <v>       0.98645089       0.88730113       0.19189855 </v>
    <v>       0.12431093       0.38730113       0.35059181 </v>
    <v>       0.15887888       0.38730113       0.16015990 </v>
    <v>       0.64159490       0.88730113       0.25537586 </v>
    <v>       0.67616286       0.88730113       0.06494395 </v>
    <v>       0.29673892       0.88730113       0.31885316 </v>
    <v>       0.33130688       0.88730113       0.12842125 </v>
    <v>       0.81402290       0.38730113       0.22363721 </v>
    <v>       0.84859085       0.38730113       0.03320530 </v>
   </varray>
  </structure>
  <varray name="forces" >
   <v>      -0.44915810      -0.56977003      -0.16918778 </v>
   <v>       0.16029856      -0.04097320      -0.45329439 </v>
   <v>       0.24562095      -0.01302121       0.20147508 </v>
   <v>      -0.17592613      -0.45854599       1.66898399 </v>
   <v>       0.30034271      -0.42431743       0.17331712 </v>
   <v>      -0.06802251      -0.13287118       1.35740038 </v>
   <v>      -0.01763649       0.65948873      -1.65331984 </v>
   <v>       0.12367986      -0.00597484      -0.22449778 </v>
   <v>       0.10887412      -0.26930080       0.24936359 </v>
   <v>      -0.22542046      -0.28521429       1.34655197 </v>
   <v>      -0.29106512       0.57983038      -1.62365037 </v>
   <v>       0.06127330       0.15272451      -0.37496074 </v>
   <v>      -0.76514053       0.00452791      -1.76968363 </v>
   <v>      -0.43677950      -0.01117934      -0.12471840 </v>
   <v>       0.52564900      -0.00787225       1.71189734 </v>
   <v>       0.22831786      -0.48370479       0.12671517 </v>
   <v>      -0.21080177      -0.02071741      -0.51423785 </v>
   <v>      -0.04963110       0.06082761       0.08904934 </v>
   <v>      -0.77120879       0.00077850       1.63216206 </v>
   <v>      -0.24658902      -0.00881430      -1.05243053 </v>
   <v>      -0.26401952      -0.01433114      -0.25335607 </v>
   <v>      -0.08625437      -0.04862189       0.10117503 </v>
   <v>      -0.83390594       0.00115455       1.69261319 </v>
   <v>      -0.25739553      -0.16914365      -0.95074164 </v>
   <v>       0.07821397       0.03243261      -0.59690467 </v>
   <v>       0.36231970       0.70654944      -0.91982309 </v>
   <v>       0.11450249      -0.05949053      -0.49720801 </v>
   <v>       0.24166076       0.01841631       0.17106461 </v>
   <v>      -0.16304512       0.47528631       1.68486432 </v>
   <v>       0.28219593       0.46917258       0.20450829 </v>
   <v>      -0.05037940       0.10153008       1.34551160 </v>
   <v>       0.01684029      -0.66219009      -1.67594852 </v>
   <v>       0.11053869      -0.02866816      -0.27546569 </v>
   <v>       0.11655426       0.26917320       0.28183491 </v>
   <v>      -0.21177921       0.28723930       1.35644917 </v>
   <v>       0.33480347       0.53549651      -0.94364872 </v>
   <v>       0.01568179      -0.19180437      -0.42037176 </v>
   <v>       0.24828662      -1.02027517       1.33831694 </v>
   <v>      -0.49264268      -0.44282055       0.47577129 </v>
   <v>      -0.08976769      -0.08005000      -1.34145478 </v>
   <v>      -0.06337930      -0.35863507       0.61469161 </v>
   <v>      -0.06916520       0.62396347      -0.46923723 </v>
   <v>       0.08646625      -0.24934312      -0.91208490 </v>
   <v>      -0.10201729      -0.19725904       0.92037842 </v>
   <v>       0.06285468      -0.13107926      -0.08827038 </v>
   <v>      -0.09594656       0.08468938      -0.50216281 </v>
   <v>      -0.03350795      -0.01687712      -1.02270969 </v>
   <v>      -0.00758485      -0.46352688       0.70421957 </v>
   <v>       0.19198001      -0.84614102       1.34435655 </v>
   <v>      -0.33024579      -0.12104728       0.70758594 </v>
   <v>      -0.25917669       0.01820361      -0.21495770 </v>
   <v>       1.22923178       0.00432708       0.04287596 </v>
   <v>       0.14333104       0.02700957      -1.11097896 </v>
   <v>       1.38502116      -0.01398965      -0.16276025 </v>
   <v>       0.01905218      -0.00448533      -1.02547823 </v>
   <v>      -0.07942198       0.27212170       1.16016886 </v>
   <v>      -0.35361249       0.00090009      -0.26196961 </v>
   <v>       0.02502672      -0.06012559      -0.47508031 </v>
   <v>       1.29434272      -0.00768589      -0.10360564 </v>
   <v>       0.15714988      -0.01436725      -1.04145336 </v>
   <v>      -0.40659290      -0.09153456       0.79163227 </v>
   <v>       0.16401080       0.90654980       1.41299291 </v>
   <v>      -0.46786524       0.43877078       0.47160936 </v>
   <v>      -0.07432648       0.08904194      -1.32205271 </v>
   <v>       0.11485390      -0.21777679      -0.57374281 </v>
   <v>       0.24793871       0.45766284      -0.58883998 </v>
   <v>      -0.54301500      -0.86869049      -0.39862952 </v>
   <v>       0.14640483       0.32184679      -0.86602716 </v>
   <v>      -0.13449473       0.22121413       0.93004033 </v>
   <v>       0.04071694       0.17212757      -0.08569061 </v>
   <v>      -0.08603482      -0.07991566      -0.50373227 </v>
   <v>      -0.05023896       0.04685535      -0.97347031 </v>
   <v>       0.10489871       0.36671329       0.90279120 </v>
   <v>       0.22426057       0.78552672       1.32547030 </v>
  </varray>
  <varray name="stress" >
   <v>     -21.41720977      -1.10495640       3.73788999 </v>
   <v>      -1.10495616     -25.56850723       0.87199405 </v>
   <v>       3.73788994       0.87199427     -36.19642314 </v>
  </varray>
  <energy>
   <i name="e_fr_energy">   -353.51325981 </i>
   <i name="e_wo_entrp">   -352.17373208 </i>
   <i name="e_0_energy">   -352.84349594 </i>
  </energy>
  <time name="totalsc">  104.39  104.73</time>
  <eigenvalues>
   <array>
    <dimension dim="1">band</dimension>
    <dimension dim="2">kpoint</dimension>
    <dimension dim="3">spin</dimension>
    <field>eigene</field>
    <field>occ</field>
    <set>
     <set comment="spin 1">
      <set comment="kpoint 1">
       <r>  -64.3583    1.0000 </r>
       <r>  -64.3554    1.0000 </r>
       <r>  -64.3498    1.0000 </r>
       <r>  -64.3385    1.0000 </r>
       <r>  -64.3279    1.0000 </r>
       <r>  -64.3241    1.0000 </r>
       <r>  -64.3207    1.0000 </r>
       <r>  -64.2924    1.0000 </r>
       <r>  -64.2890    1.0000 </r>
       <r>  -64.2874    1.0000 </r>
       <r>  -64.2862    1.0000 </r>
       <r>  -64.2823    1.0000 </r>
       <r>  -64.2806    1.0000 </r>
       <r>  -64.2789    1.0000 </r>
       <r>  -64.2782    1.0000 </r>
       <r>  -64.2731    1.0000 </r>
       <r>  -64.2718    1.0000 </r>
       <r>  -64.2715    1.0000 </r>
       <r>  -64.2670    1.0000 </r>
       <r>  -64.2644    1.0000 </r>
       <r>  -64.2499    1.0000 </r>
       <r>  -64.2469    1.0000 </r>
       <r>  -64.2417    1.0000 </r>
       <r>  -64.2357    1.0000 </r>
       <r>  -64.2313    1.0000 </r>
       <r>  -64.2276    1.0000 </r>
       <r>  -64.2236    1.0000 </r>
       <r>  -64.2175    1.0000 </r>
       <r>  -64.2143    1.0000 </r>
       <r>  -64.2104    1.0000 </r>
       <r>  -64.2090    1.0000 </r>
       <r>  -64.2086    1.0000 </r>
       <r>  -64.2082    1.0000 </r>
       <r>  -64.1963    1.0000 </r>
       <r>  -64.1890    1.0000 </r>
       <r>  -64.1870    1.0000 </r>
       <r>  -64.1770    1.0000 </r>
       <r>  -64.1558    1.0000 </r>
       <r>  -64.1549    1.0000 </r>
       <r>  -64.1421    1.0000 </r>
       <r>  -64.1387    1.0000 </r>
       <r>  -64.1361    1.0000 </r>
       <r>  -64.1262    1.0000 </r>
       <r>  -64.1158    1.0000 </r>
       <r>  -64.0970    1.0000 </r>
       <r>  -64.0785    1.0000 </r>
       <r>  -64.0704    1.0000 </r>
       <r>  -64.0561    1.0000 </r>
       <r>  -64.0331    1.0000 </r>
       <r>  -64.0325    1.0000 </r>
       <r>  -64.0312    1.0000 </r>
       <r>  -64.0289    1.0000 </r>
       <r>  -64.0077    1.0000 </r>
       <r>  -64.0008    1.0000 </r>
       <r>  -63.9170    1.0000 </r>
       <r>  -63.8873    1.0000 </r>
       <r>  -63.8274    1.0000 </r>
       <r>  -63.8190    1.0000 </r>
       <r>  -63.8144    1.0000 </r>
       <r>  -63.7980    1.0000 </r>
       <r>  -63.7963    1.0000 </r>
       <r>  -63.7764    1.0000 </r>
       <r>  -63.7452    1.0000 </r>
       <r>  -63.7446    1.0000 </r>
       <r>  -63.7377    1.0000 </r>
       <r>  -63.7302    1.0000 </r>
       <r>  -63.7000    1.0000 </r>
       <r>  -63.6245    1.0000 </r>
       <r>  -63.6056    1.0000 </r>
       <r>  -63.5979    1.0000 </r>
       <r>  -63.5870    1.0000 </r>
       <r>  -63.5741    1.0000 </r>
       <r>  -63.5683    1.0000 </r>
       <r>  -63.5588    1.0000 </r>
       <r>  -63.5519    1.0000 </r>
       <r>  -63.5513    1.0000 </r>
       <r>  -63.5500    1.0000 </r>
       <r>  -63.5213    1.0000 </r>
       <r>  -63.5200    1.0000 </r>
       <r>  -63.5171    1.0000 </r>
       <r>  -63.5110    1.0000 </r>
       <r>  -63.4918    1.0000 </r>
       <r>  -63.4898    1.0000 </r>
       <r>  -63.4895    1.0000 </r>
       <r>  -63.4868    1.0000 </r>
       <r>  -63.4825    1.0000 </r>
       <r>  -63.4812    1.0000 </r>
       <r>  -63.4580    1.0000 </r>
       <r>  -63.3850    1.0000 </r>
       <r>  -63.3713    1.0000 </r>
       <r>  -63.3205    1.0000 </r>
       <r>  -63.3054    1.0000 </r>
       <r>  -63.3048    1.0000 </r>
       <r>  -63.2737    1.0000 </r>
       <r>  -63.2661    1.0000 </r>
       <r>  -63.2123    1.0000 </r>
       <r>  -63.1653    1.0000 </r>
       <r>  -63.1646    1.0000 </r>
       <r>  -63.1492    1.0000 </r>
       <r>  -63.1489    1.0000 </r>
       <r>  -63.1139    1.0000 </r>
       <r>  -63.0880    1.0000 </r>
       <r>  -63.0733    1.0000 </r>
       <r>  -63.0477    1.0000 </r>
       <r>  -63.0028    1.0000 </r>
       <r>  -62.9960    1.0000 </r>
       <r>  -62.9772    1.0000 </r>
       <r>  -62.9581    1.0000 </r>
       <r>  -62.9488    1.0000 </r>
       <r>  -62.9197    1.0000 </r>
       <r>  -62.9106    1.0000 </r>
       <r>  -15.1977    1.0000 </r>
       <r>  -14.9206    1.0000 </r>
       <r>  -14.8895    1.0000 </r>
       <r>  -14.4996    1.0000 </r>
       <r>  -14.4265    1.0000 </r>
       <r>  -14.3650    1.0000 </r>
       <r>  -14.2229    1.0000 </r>
       <r>  -14.0637    1.0000 </r>
       <r>  -14.0221    1.0000 </r>
       <r>  -14.0192    1.0000 </r>
       <r>  -14.0037    1.0000 </r>
       <r>  -13.8947    1.0000 </r>
       <r>  -13.7651    1.0000 </r>
       <r>  -13.7091    1.0000 </r>
       <r>  -13.6983    1.0000 </r>
       <r>  -13.6587    1.0000 </r>
       <r>  -13.6004    1.0000 </r>
       <r>  -13.5677    1.0000 </r>
       <r>  -13.4987    1.0000 </r>
       <r>  -13.3333    1.0000 </r>
       <r>  -13.2009    1.0000 </r>
       <r>  -13.0908    1.0000 </r>
       <r>  -12.9968    1.0000 </r>
       <r>  -12.8447    1.0000 </r>
       <r>  -12.7935    1.0000 </r>
       <r>  -12.7052    1.0000 </r>
       <r>  -12.6840    1.0000 </r>
       <r>  -12.6421    1.0000 </r>
       <r>  -12.5912    1.0000 </r>
       <r>  -12.5037    1.0000 </r>
       <r>  -12.4379    1.0000 </r>
       <r>  -12.3877    1.0000 </r>
       <r>  -12.3414    1.0000 </r>
       <r>  -12.0524    1.0000 </r>
       <r>  -12.0166    1.0000 </r>
       <r>  -11.9349    1.0000 </r>
       <r>  -11.6628    1.0000 </r>
       <r>   -6.9576    1.0000 </r>
       <r>   -6.8939    1.0000 </r>
       <r>   -6.8775    1.0000 </r>
       <r>   -6.8418    1.0000 </r>
       <r>   -6.7624    1.0000 </r>
       <r>   -6.6163    1.0000 </r>
       <r>   -6.4571    1.0000 </r>
       <r>   -6.3952    1.0000 </r>
       <r>   -6.3446    1.0000 </r>
       <r>   -6.3219    1.0000 </r>
       <r>   -6.3163    1.0000 </r>
       <r>   -6.2771    1.0000 </r>
       <r>   -6.1985    1.0000 </r>
       <r>   -6.1672    1.0000 </r>
       <r>   -6.0489    1.0000 </r>
       <r>   -6.0258    1.0000 </r>
       <r>   -5.9718    1.0000 </r>
       <r>   -5.9340    1.0000 </r>
       <r>   -5.9215    1.0000 </r>
       <r>   -5.9063    1.0000 </r>
       <r>   -5.8824    1.0000 </r>
       <r>   -5.8132    1.0000 </r>
       <r>   -5.6948    1.0000 </r>
       <r>   -5.6500    1.0000 </r>
       <r>   -5.6057    1.0000 </r>
       <r>   -5.5987    1.0000 </r>
       <r>   -5.5823    1.0000 </r>
       <r>   -5.5622    1.0000 </r>
       <r>   -5.5048    1.0000 </r>
       <r>   -5.4977    1.0000 </r>
       <r>   -5.4553    1.0000 </r>
       <r>   -5.4061    1.0000 </r>
       <r>   -5.3883    1.0000 </r>
       <r>   -5.3114    1.0000 </r>
       <r>   -5.2669    1.0000 </r>
       <r>   -5.2498    1.0000 </r>
       <r>   -5.2251    1.0000 </r>
       <r>   -5.2029    1.0000 </r>
       <r>   -5.0987    1.0000 </r>
       <r>   -5.0658    1.0000 </r>
       <r>   -4.9927    1.0000 </r>
       <r>   -4.8987    1.0000 </r>
       <r>   -4.8671    1.0000 </r>
       <r>   -4.8150    1.0000 </r>
       <r>   -4.7891    1.0000 </r>
       <r>   -4.7149    1.0000 </r>
       <r>   -4.6987    1.0000 </r>
       <r>   -4.6114    1.0000 </r>
       <r>   -4.5918    1.0000 </r>
       <r>   -4.5402    1.0000 </r>
       <r>   -4.5157    1.0000 </r>
       <r>   -4.5061    1.0000 </r>
       <r>   -4.4872    1.0000 </r>
       <r>   -4.4648    1.0000 </r>
       <r>   -4.4522    1.0000 </r>
       <r>   -4.4386    1.0000 </r>
       <r>   -4.3675    1.0000 </r>
       <r>   -4.3631    1.0000 </r>
       <r>   -4.2973    1.0000 </r>
       <r>   -4.2285    1.0000 </r>
       <r>   -4.2154    1.0000 </r>
       <r>   -4.1136    1.0000 </r>
       <r>   -4.0890    1.0000 </r>
       <r>   -4.0460    1.0000 </r>
       <r>   -4.0376    1.0000 </r>
       <r>   -3.9974    1.0000 </r>
       <r>   -3.9537    1.0000 </r>
       <r>   -3.9443    1.0000 </r>
       <r>   -3.9095    1.0000 </r>
       <r>   -3.8993    1.0000 </r>
       <r>   -3.8724    1.0000 </r>
       <r>   -3.8621    1.0000 </r>
       <r>   -3.8497    1.0000 </r>
       <r>   -3.8411    1.0000 </r>
       <r>   -3.8009    1.0000 </r>
       <r>   -3.7614    1.0000 </r>
       <r>   -3.7041    1.0000 </r>
       <r>   -3.6836    1.0000 </r>
       <r>   -3.6486    1.0000 </r>
       <r>   -3.6286    1.0000 </r>
       <r>   -3.6090    1.0000 </r>
       <r>   -3.5646    1.0000 </r>
       <r>   -3.5469    1.0000 </r>
       <r>   -3.5451    1.0000 </r>
       <r>   -3.4847    1.0000 </r>
       <r>   -3.4626    1.0000 </r>
       <r>   -3.4403    1.0000 </r>
       <r>   -3.3685    1.0000 </r>
       <r>   -3.3181    1.0000 </r>
       <r>   -3.2993    1.0000 </r>
       <r>   -3.2734    1.0000 </r>
       <r>   -3.2303    1.0000 </r>
       <r>   -3.2091    1.0000 </r>
       <r>   -3.1806    1.0000 </r>
       <r>   -3.1678    1.0000 </r>
       <r>   -3.0986    1.0000 </r>
       <r>   -3.0660    1.0000 </r>
       <r>   -3.0525    1.0000 </r>
       <r>   -3.0394    1.0000 </r>
       <r>   -2.9942    1.0000 </r>
       <r>   -2.9588    1.0000 </r>
       <r>   -2.9390    1.0000 </r>
       <r>   -2.8700    1.0000 </r>
       <r>   -2.8298    1.0000 </r>
       <r>   -2.7840    1.0000 </r>
       <r>   -2.7809    1.0000 </r>
       <r>   -2.7497    1.0000 </r>
       <r>   -2.7364    1.0000 </r>
       <r>   -2.7202    1.0000 </r>
       <r>   -2.7022    1.0000 </r>
       <r>   -2.6460    1.0000 </r>
       <r>   -2.5919    1.0000 </r>
       <r>   -2.5374    1.0000 </r>
       <r>   -2.5297    1.0000 </r>
       <r>   -2.5168    1.0000 </r>
       <r>   -2.5053    1.0000 </r>
       <r>   -2.4686    1.0000 </r>
       <r>   -2.4373    1.0000 </r>
       <r>   -2.3970    1.0000 </r>
       <r>   -2.3808    1.0000 </r>
       <r>   -2.3799    1.0000 </r>
       <r>   -2.3602    1.0000 </r>
       <r>   -2.3346    1.0000 </r>
       <r>   -2.3145    1.0000 </r>
       <r>   -2.2993    1.0000 </r>
       <r>   -2.2890    1.0000 </r>
       <r>   -2.2697    1.0000 </r>
       <r>   -2.2333    1.0000 </r>
       <r>   -2.2300    1.0000 </r>
       <r>   -2.2083    1.0000 </r>
       <r>   -2.2011    1.0000 </r>
       <r>   -2.1880    1.0000 </r>
       <r>   -2.1750    1.0000 </r>
       <r>   -2.1426    1.0000 </r>
       <r>   -2.1379    1.0000 </r>
       <r>   -2.1323    1.0000 </r>
       <r>   -2.1239    1.0000 </r>
       <r>   -2.1168    1.0000 </r>
       <r>   -2.1071    1.0000 </r>
       <r>   -2.0984    1.0000 </r>
       <r>   -2.0829    1.0000 </r>
       <r>   -2.0596    1.0000 </r>
       <r>   -2.0314    1.0000 </r>
       <r>   -2.0211    1.0000 </r>
       <r>   -1.9963    1.0000 </r>
       <r>   -1.9811    1.0000 </r>
       <r>   -1.9705    1.0000 </r>
       <r>   -1.9580    1.0000 </r>
       <r>   -1.9406    1.0000 </r>
       <r>   -1.9376    1.0000 </r>
       <r>   -1.9203    1.0000 </r>
       <r>   -1.8996    1.0000 </r>
       <r>   -1.8840    1.0000 </r>
       <r>   -1.8723    1.0000 </r>
       <r>   -1.8629    1.0000 </r>
       <r>   -1.8549    1.0000 </r>
       <r>   -1.8450    1.0000 </r>
       <r>   -1.8360    1.0000 </r>
       <r>   -1.8323    1.0000 </r>
       <r>   -1.8302    1.0000 </r>
       <r>   -1.8168    1.0000 </r>
       <r>   -1.8006    1.0000 </r>
       <r>   -1.7984    1.0000 </r>
       <r>   -1.7835    1.0000 </r>
       <r>   -1.7808    1.0000 </r>
       <r>   -1.7693    1.0000 </r>
       <r>   -1.7601    1.0000 </r>
       <r>   -1.7516    1.0000 </r>
       <r>   -1.7269    1.0000 </r>
       <r>   -1.7033    1.0000 </r>
       <r>   -1.6912    1.0000 </r>
       <r>   -1.6664    1.0000 </r>
       <r>   -1.6544    1.0000 </r>
       <r>   -1.6483    1.0000 </r>
       <r>   -1.6303    1.0000 </r>
       <r>   -1.6248    1.0000 </r>
       <r>   -1.6128    1.0000 </r>
       <r>   -1.5965    1.0000 </r>
       <r>   -1.5857    1.0000 </r>
       <r>   -1.5642    1.0000 </r>
       <r>   -1.5512    1.0000 </r>
       <r>   -1.5508    1.0000 </r>
       <r>   -1.5175    1.0000 </r>
       <r>   -1.5048    1.0000 </r>
       <r>   -1.4987    1.0000 </r>
       <r>   -1.4915    1.0000 </r>
       <r>   -1.4794    1.0000 </r>
       <r>   -1.4687    1.0000 </r>
       <r>   -1.4497    1.0000 </r>
       <r>   -1.4457    1.0000 </r>
       <r>   -1.4316    1.0000 </r>
       <r>   -1.4226    1.0000 </r>
       <r>   -1.4104    1.0000 </r>
       <r>   -1.4006    1.0000 </r>
       <r>   -1.3841    1.0000 </r>
       <r>   -1.3690    1.0000 </r>
       <r>   -1.3521    1.0000 </r>
       <r>   -1.3307    1.0000 </r>
       <r>   -1.3243    1.0000 </r>
       <r>   -1.3167    1.0000 </r>
       <r>   -1.3059    1.0000 </r>
       <r>   -1.2914    1.0000 </r>
       <r>   -1.2729    1.0000 </r>
       <r>   -1.2656    1.0000 </r>
       <r>   -1.2538    1.0000 </r>
       <r>   -1.2263    1.0000 </r>
       <r>   -1.2105    1.0000 </r>
       <r>   -1.1921    1.0000 </r>
       <r>   -1.1831    1.0000 </r>
       <r>   -1.1703    1.0000 </r>
       <r>   -1.1668    1.0000 </r>
       <r>   -1.1468    1.0000 </r>
       <r>   -1.1384    1.0000 </r>
       <r>   -1.1224    1.0000 </r>
       <r>   -1.1095    1.0000 </r>
       <r>   -1.0979    1.0000 </r>
       <r>   -1.0839    1.0000 </r>
       <r>   -1.0587    1.0000 </r>
       <r>   -1.0563    1.0000 </r>
       <r>   -1.0328    1.0000 </r>
       <r>   -1.0008    1.0000 </r>
       <r>   -0.9885    1.0000 </r>
       <r>   -0.9705    1.0000 </r>
       <r>   -0.9611    1.0000 </r>
       <r>   -0.9217    1.0000 </r>
       <r>   -0.9016    1.0000 </r>
       <r>   -0.8961    1.0000 </r>
       <r>   -0.8882    1.0000 </r>
       <r>   -0.8748    1.0000 </r>
       <r>   -0.8607    1.0000 </r>
       <r>   -0.8399    1.0000 </r>
       <r>   -0.8324    1.0000 </r>
       <r>   -0.8176    1.0000 </r>
       <r>   -0.8081    1.0000 </r>
       <r>   -0.7814    1.0000 </r>
       <r>   -0.7640    0.9999 </r>
       <r>   -0.7312    0.9999 </r>
       <r>   -0.7276    0.9999 </r>
       <r>   -0.6930    0.9996 </r>
       <r>   -0.6588    0.9992 </r>
       <r>   -0.6441    0.9988 </r>
       <r>   -0.6225    0.9980 </r>
       <r>   -0.6126    0.9975 </r>
       <r>   -0.5664    0.9935 </r>
       <r>   -0.5553    0.9920 </r>
       <r>   -0.5545    0.9918 </r>
       <r>   -0.5289    0.9868 </r>
       <r>   -0.5101    0.9816 </r>
       <r>   -0.5050    0.9799 </r>
       <r>   -0.4814    0.9702 </r>
       <r>   -0.4388    0.9434 </r>
       <r>   -0.4325    0.9381 </r>
       <r>   -0.3993    0.9039 </r>
       <r>   -0.3675    0.8597 </r>
       <r>   -0.3557    0.8404 </r>
       <r>   -0.3213    0.7741 </r>
       <r>   -0.2940    0.7122 </r>
       <r>   -0.2525    0.6049 </r>
       <r>   -0.2510    0.6007 </r>
       <r>   -0.2288    0.5393 </r>
       <r>   -0.1883    0.4254 </r>
       <r>   -0.1544    0.3344 </r>
       <r>   -0.1030    0.2145 </r>
       <r>   -0.0885    0.1858 </r>
       <r>   -0.0500    0.1219 </r>
       <r>    0.0111    0.0550 </r>
       <r>    0.0491    0.0310 </r>
       <r>    0.0977    0.0136 </r>
       <r>    0.1348    0.0067 </r>
       <r>    0.1597    0.0040 </r>
       <r>    0.1979    0.0018 </r>
       <r>    0.2557    0.0004 </r>
       <r>    0.3054    0.0001 </r>
       <r>    0.3128    0.0001 </r>
       <r>    0.3514    0.0000 </r>
       <r>    0.3909    0.0000 </r>
       <r>    0.4172    0.0000 </r>
       <r>    0.4410    0.0000 </r>
       <r>    0.4656    0.0000 </r>
       <r>    0.5357    0.0000 </r>
       <r>    0.5645    0.0000 </r>
       <r>    0.5818    0.0000 </r>
       <r>    0.6712    0.0000 </r>
       <r>    0.6723    0.0000 </r>
       <r>    0.6976    0.0000 </r>
       <r>    0.7832    0.0000 </r>
       <r>    0.7917    0.0000 </r>
       <r>    0.7969    0.0000 </r>
       <r>    0.8362    0.0000 </r>
       <r>    0.8442    0.0000 </r>
       <r>    0.8830    0.0000 </r>
       <r>    0.9250    0.0000 </r>
       <r>    0.9391    0.0000 </r>
       <r>    0.9485    0.0000 </r>
       <r>    0.9908    0.0000 </r>
       <r>    1.0027    0.0000 </r>
       <r>    1.0285    0.0000 </r>
       <r>    1.0484    0.0000 </r>
       <r>    1.0686    0.0000 </r>
       <r>    1.0925    0.0000 </r>
       <r>    1.1824    0.0000 </r>
       <r>    1.9981    0.0000 </r>
       <r>    2.2470    0.0000 </r>
       <r>    2.3165    0.0000 </r>
       <r>    2.7894    0.0000 </r>
       <r>    2.8012    0.0000 </r>
       <r>    2.8614    0.0000 </r>
       <r>    3.3447    0.0000 </r>
       <r>    3.4039    0.0000 </r>
       <r>    3.5714    0.0000 </r>
       <r>    3.8503    0.0000 </r>
       <r>    3.8728    0.0000 </r>
       <r>    3.9597    0.0000 </r>
       <r>    4.0687    0.0000 </r>
       <r>    4.1358    0.0000 </r>
       <r>    4.1937    0.0000 </r>
       <r>    4.2875    0.0000 </r>
       <r>    4.3814    0.0000 </r>
       <r>    4.4223    0.0000 </r>
       <r>    4.4300    0.0000 </r>
       <r>    4.5452    0.0000 </r>
       <r>    4.6190    0.0000 </r>
       <r>    4.6579    0.0000 </r>
       <r>    4.7834    0.0000 </r>
       <r>    4.8252    0.0000 </r>
       <r>    4.8328    0.0000 </r>
       <r>    4.9393    0.0000 </r>
       <r>    5.0334    0.0000 </r>
       <r>    5.0690    0.0000 </r>
       <r>    5.1675    0.0000 </r>
       <r>    5.1957    0.0000 </r>
       <r>    5.2277    0.0000 </r>
       <r>    5.2670    0.0000 </r>
       <r>    5.2908    0.0000 </r>
       <r>    5.4079    0.0000 </r>
       <r>    5.4370    0.0000 </r>
       <r>    5.4514    0.0000 </r>
       <r>    5.4731    0.0000 </r>
       <r>    5.5137    0.0000 </r>
       <r>    5.5794    0.0000 </r>
      </set>
     </set>
    </set>
   </array>
  </eigenvalues>
  <separator name="orbital magnetization" >
   <v name="MAGDIPOLOUT">      0.00000000      0.00000000      0.00000000</v>
  </separator>
  <dos>
   <i name="efermi">     -0.21486958 </i>
   <total>
    <array>
     <dimension dim="1">gridpoints</dimension>
     <dimension dim="2">spin</dimension>
     <field>energy</field>
     <field>total</field>
     <field>integrated</field>
     <set>
      <set comment="spin 1">
       <r>   -67.8552     0.0000     0.0000 </r>
       <r>   -67.5987     0.0000     0.0000 </r>
       <r>   -67.3423     0.0000     0.0000 </r>
       <r>   -67.0859     0.0000     0.0000 </r>
       <r>   -66.8294     0.0000     0.0000 </r>
       <r>   -66.5730     0.0000     0.0000 </r>
       <r>   -66.3166     0.0000     0.0000 </r>
       <r>   -66.0601     0.0000     0.0000 </r>
       <r>   -65.8037     0.0000     0.0000 </r>
       <r>   -65.5472     0.0000     0.0000 </r>
       <r>   -65.2908     0.0000     0.0000 </r>
       <r>   -65.0344     0.0000     0.0000 </r>
       <r>   -64.7779     0.0826     0.0212 </r>
       <r>   -64.5215    12.1501     3.1369 </r>
       <r>   -64.2650   144.2471    40.1274 </r>
       <r>   -64.0086   218.4112    96.1365 </r>
       <r>   -63.7522   116.9208   126.1194 </r>
       <r>   -63.4957   133.3446   160.3141 </r>
       <r>   -63.2393   113.4085   189.3964 </r>
       <r>   -62.9829    84.1185   210.9677 </r>
       <r>   -62.7264    39.7866   221.1705 </r>
       <r>   -62.4700     3.2139   221.9946 </r>
       <r>   -62.2135     0.0209   222.0000 </r>
       <r>   -61.9571     0.0000   222.0000 </r>
       <r>   -61.7007     0.0000   222.0000 </r>
       <r>   -61.4442     0.0000   222.0000 </r>
       <r>   -61.1878     0.0000   222.0000 </r>
       <r>   -60.9314     0.0000   222.0000 </r>
       <r>   -60.6749     0.0000   222.0000 </r>
       <r>   -60.4185     0.0000   222.0000 </r>
       <r>   -60.1620     0.0000   222.0000 </r>
       <r>   -59.9056     0.0000   222.0000 </r>
       <r>   -59.6492     0.0000   222.0000 </r>
       <r>   -59.3927     0.0000   222.0000 </r>
       <r>   -59.1363     0.0000   222.0000 </r>
       <r>   -58.8798     0.0000   222.0000 </r>
       <r>   -58.6234     0.0000   222.0000 </r>
       <r>   -58.3670     0.0000   222.0000 </r>
       <r>   -58.1105     0.0000   222.0000 </r>
       <r>   -57.8541     0.0000   222.0000 </r>
       <r>   -57.5977     0.0000   222.0000 </r>
       <r>   -57.3412     0.0000   222.0000 </r>
       <r>   -57.0848     0.0000   222.0000 </r>
       <r>   -56.8283     0.0000   222.0000 </r>
       <r>   -56.5719     0.0000   222.0000 </r>
       <r>   -56.3155     0.0000   222.0000 </r>
       <r>   -56.0590     0.0000   222.0000 </r>
       <r>   -55.8026     0.0000   222.0000 </r>
       <r>   -55.5461     0.0000   222.0000 </r>
       <r>   -55.2897     0.0000   222.0000 </r>
       <r>   -55.0333     0.0000   222.0000 </r>
       <r>   -54.7768     0.0000   222.0000 </r>
       <r>   -54.5204     0.0000   222.0000 </r>
       <r>   -54.2640     0.0000   222.0000 </r>
       <r>   -54.0075     0.0000   222.0000 </r>
       <r>   -53.7511     0.0000   222.0000 </r>
       <r>   -53.4946     0.0000   222.0000 </r>
       <r>   -53.2382     0.0000   222.0000 </r>
       <r>   -52.9818     0.0000   222.0000 </r>
       <r>   -52.7253     0.0000   222.0000 </r>
       <r>   -52.4689     0.0000   222.0000 </r>
       <r>   -52.2124     0.0000   222.0000 </r>
       <r>   -51.9560     0.0000   222.0000 </r>
       <r>   -51.6996     0.0000   222.0000 </r>
       <r>   -51.4431     0.0000   222.0000 </r>
       <r>   -51.1867     0.0000   222.0000 </r>
       <r>   -50.9303     0.0000   222.0000 </r>
       <r>   -50.6738     0.0000   222.0000 </r>
       <r>   -50.4174     0.0000   222.0000 </r>
       <r>   -50.1609     0.0000   222.0000 </r>
       <r>   -49.9045     0.0000   222.0000 </r>
       <r>   -49.6481     0.0000   222.0000 </r>
       <r>   -49.3916     0.0000   222.0000 </r>
       <r>   -49.1352     0.0000   222.0000 </r>
       <r>   -48.8787     0.0000   222.0000 </r>
       <r>   -48.6223     0.0000   222.0000 </r>
       <r>   -48.3659     0.0000   222.0000 </r>
       <r>   -48.1094     0.0000   222.0000 </r>
       <r>   -47.8530     0.0000   222.0000 </r>
       <r>   -47.5966     0.0000   222.0000 </r>
       <r>   -47.3401     0.0000   222.0000 </r>
       <r>   -47.0837     0.0000   222.0000 </r>
       <r>   -46.8272     0.0000   222.0000 </r>
       <r>   -46.5708     0.0000   222.0000 </r>
       <r>   -46.3144     0.0000   222.0000 </r>
       <r>   -46.0579     0.0000   222.0000 </r>
       <r>   -45.8015     0.0000   222.0000 </r>
       <r>   -45.5450     0.0000   222.0000 </r>
       <r>   -45.2886     0.0000   222.0000 </r>
       <r>   -45.0322     0.0000   222.0000 </r>
       <r>   -44.7757     0.0000   222.0000 </r>
       <r>   -44.5193     0.0000   222.0000 </r>
       <r>   -44.2629     0.0000   222.0000 </r>
       <r>   -44.0064     0.0000   222.0000 </r>
       <r>   -43.7500     0.0000   222.0000 </r>
       <r>   -43.4935     0.0000   222.0000 </r>
       <r>   -43.2371     0.0000   222.0000 </r>
       <r>   -42.9807     0.0000   222.0000 </r>
       <r>   -42.7242     0.0000   222.0000 </r>
       <r>   -42.4678     0.0000   222.0000 </r>
       <r>   -42.2113     0.0000   222.0000 </r>
       <r>   -41.9549     0.0000   222.0000 </r>
       <r>   -41.6985     0.0000   222.0000 </r>
       <r>   -41.4420     0.0000   222.0000 </r>
       <r>   -41.1856     0.0000   222.0000 </r>
       <r>   -40.9292     0.0000   222.0000 </r>
       <r>   -40.6727     0.0000   222.0000 </r>
       <r>   -40.4163     0.0000   222.0000 </r>
       <r>   -40.1598     0.0000   222.0000 </r>
       <r>   -39.9034     0.0000   222.0000 </r>
       <r>   -39.6470     0.0000   222.0000 </r>
       <r>   -39.3905     0.0000   222.0000 </r>
       <r>   -39.1341     0.0000   222.0000 </r>
       <r>   -38.8776     0.0000   222.0000 </r>
       <r>   -38.6212     0.0000   222.0000 </r>
       <r>   -38.3648     0.0000   222.0000 </r>
       <r>   -38.1083     0.0000   222.0000 </r>
       <r>   -37.8519     0.0000   222.0000 </r>
       <r>   -37.5955     0.0000   222.0000 </r>
       <r>   -37.3390     0.0000   222.0000 </r>
       <r>   -37.0826     0.0000   222.0000 </r>
       <r>   -36.8261     0.0000   222.0000 </r>
       <r>   -36.5697     0.0000   222.0000 </r>
       <r>   -36.3133     0.0000   222.0000 </r>
       <r>   -36.0568     0.0000   222.0000 </r>
       <r>   -35.8004     0.0000   222.0000 </r>
       <r>   -35.5439     0.0000   222.0000 </r>
       <r>   -35.2875     0.0000   222.0000 </r>
       <r>   -35.0311     0.0000   222.0000 </r>
       <r>   -34.7746     0.0000   222.0000 </r>
       <r>   -34.5182     0.0000   222.0000 </r>
       <r>   -34.2618     0.0000   222.0000 </r>
       <r>   -34.0053     0.0000   222.0000 </r>
       <r>   -33.7489     0.0000   222.0000 </r>
       <r>   -33.4924     0.0000   222.0000 </r>
       <r>   -33.2360     0.0000   222.0000 </r>
       <r>   -32.9796     0.0000   222.0000 </r>
       <r>   -32.7231     0.0000   222.0000 </r>
       <r>   -32.4667     0.0000   222.0000 </r>
       <r>   -32.2102     0.0000   222.0000 </r>
       <r>   -31.9538     0.0000   222.0000 </r>
       <r>   -31.6974     0.0000   222.0000 </r>
       <r>   -31.4409     0.0000   222.0000 </r>
       <r>   -31.1845     0.0000   222.0000 </r>
       <r>   -30.9281     0.0000   222.0000 </r>
       <r>   -30.6716     0.0000   222.0000 </r>
       <r>   -30.4152     0.0000   222.0000 </r>
       <r>   -30.1587     0.0000   222.0000 </r>
       <r>   -29.9023     0.0000   222.0000 </r>
       <r>   -29.6459     0.0000   222.0000 </r>
       <r>   -29.3894     0.0000   222.0000 </r>
       <r>   -29.1330     0.0000   222.0000 </r>
       <r>   -28.8766     0.0000   222.0000 </r>
       <r>   -28.6201     0.0000   222.0000 </r>
       <r>   -28.3637     0.0000   222.0000 </r>
       <r>   -28.1072     0.0000   222.0000 </r>
       <r>   -27.8508     0.0000   222.0000 </r>
       <r>   -27.5944     0.0000   222.0000 </r>
       <r>   -27.3379     0.0000   222.0000 </r>
       <r>   -27.0815     0.0000   222.0000 </r>
       <r>   -26.8250     0.0000   222.0000 </r>
       <r>   -26.5686     0.0000   222.0000 </r>
       <r>   -26.3122     0.0000   222.0000 </r>
       <r>   -26.0557     0.0000   222.0000 </r>
       <r>   -25.7993     0.0000   222.0000 </r>
       <r>   -25.5429     0.0000   222.0000 </r>
       <r>   -25.2864     0.0000   222.0000 </r>
       <r>   -25.0300     0.0000   222.0000 </r>
       <r>   -24.7735     0.0000   222.0000 </r>
       <r>   -24.5171     0.0000   222.0000 </r>
       <r>   -24.2607     0.0000   222.0000 </r>
       <r>   -24.0042     0.0000   222.0000 </r>
       <r>   -23.7478     0.0000   222.0000 </r>
       <r>   -23.4913     0.0000   222.0000 </r>
       <r>   -23.2349     0.0000   222.0000 </r>
       <r>   -22.9785     0.0000   222.0000 </r>
       <r>   -22.7220     0.0000   222.0000 </r>
       <r>   -22.4656     0.0000   222.0000 </r>
       <r>   -22.2092     0.0000   222.0000 </r>
       <r>   -21.9527     0.0000   222.0000 </r>
       <r>   -21.6963     0.0000   222.0000 </r>
       <r>   -21.4398     0.0000   222.0000 </r>
       <r>   -21.1834     0.0000   222.0000 </r>
       <r>   -20.9270     0.0000   222.0000 </r>
       <r>   -20.6705     0.0000   222.0000 </r>
       <r>   -20.4141     0.0000   222.0000 </r>
       <r>   -20.1576     0.0000   222.0000 </r>
       <r>   -19.9012     0.0000   222.0000 </r>
       <r>   -19.6448     0.0000   222.0000 </r>
       <r>   -19.3883     0.0000   222.0000 </r>
       <r>   -19.1319     0.0000   222.0000 </r>
       <r>   -18.8755     0.0000   222.0000 </r>
       <r>   -18.6190     0.0000   222.0000 </r>
       <r>   -18.3626     0.0000   222.0000 </r>
       <r>   -18.1061     0.0000   222.0000 </r>
       <r>   -17.8497     0.0000   222.0000 </r>
       <r>   -17.5933     0.0000   222.0000 </r>
       <r>   -17.3368     0.0000   222.0000 </r>
       <r>   -17.0804     0.0000   222.0000 </r>
       <r>   -16.8239     0.0000   222.0000 </r>
       <r>   -16.5675     0.0000   222.0000 </r>
       <r>   -16.3111     0.0000   222.0000 </r>
       <r>   -16.0546     0.0000   222.0000 </r>
       <r>   -15.7982     0.0001   222.0000 </r>
       <r>   -15.5418     0.0584   222.0150 </r>
       <r>   -15.2853     2.0888   222.5507 </r>
       <r>   -15.0289     7.7424   224.5361 </r>
       <r>   -14.7724    11.0399   227.3672 </r>
       <r>   -14.5160     9.2868   229.7487 </r>
       <r>   -14.2596    18.2997   234.4414 </r>
       <r>   -14.0031    25.6701   241.0242 </r>
       <r>   -13.7467    32.0951   249.2546 </r>
       <r>   -13.4902    33.2752   257.7877 </r>
       <r>   -13.2338    18.9801   262.6549 </r>
       <r>   -12.9774    17.8018   267.2200 </r>
       <r>   -12.7209    25.6085   273.7870 </r>
       <r>   -12.4645    32.9235   282.2298 </r>
       <r>   -12.2081    21.7207   287.7998 </r>
       <r>   -11.9516    15.6617   291.8161 </r>
       <r>   -11.6952    11.2235   294.6942 </r>
       <r>   -11.4387     4.6488   295.8864 </r>
       <r>   -11.1823     0.4404   295.9993 </r>
       <r>   -10.9259     0.0027   296.0000 </r>
       <r>   -10.6694     0.0000   296.0000 </r>
       <r>   -10.4130     0.0000   296.0000 </r>
       <r>   -10.1565     0.0000   296.0000 </r>
       <r>    -9.9001     0.0000   296.0000 </r>
       <r>    -9.6437     0.0000   296.0000 </r>
       <r>    -9.3872     0.0000   296.0000 </r>
       <r>    -9.1308     0.0000   296.0000 </r>
       <r>    -8.8744     0.0000   296.0000 </r>
       <r>    -8.6179     0.0000   296.0000 </r>
       <r>    -8.3615     0.0000   296.0000 </r>
       <r>    -8.1050     0.0000   296.0000 </r>
       <r>    -7.8486     0.0000   296.0000 </r>
       <r>    -7.5922     0.0000   296.0000 </r>
       <r>    -7.3357     0.0429   296.0110 </r>
       <r>    -7.0793     3.2794   296.8520 </r>
       <r>    -6.8228    21.1576   302.2776 </r>
       <r>    -6.5664    22.3249   308.0025 </r>
       <r>    -6.3100    31.6786   316.1261 </r>
       <r>    -6.0535    41.3970   326.7419 </r>
       <r>    -5.7971    45.4954   338.4087 </r>
       <r>    -5.5407    49.8309   351.1872 </r>
       <r>    -5.2842    53.8308   364.9915 </r>
       <r>    -5.0278    41.5273   375.6407 </r>
       <r>    -4.7713    38.1177   385.4156 </r>
       <r>    -4.5149    53.6091   399.1630 </r>
       <r>    -4.2585    57.8997   414.0107 </r>
       <r>    -4.0020    54.9185   428.0939 </r>
       <r>    -3.7456    73.6953   446.9922 </r>
       <r>    -3.4891    67.4368   464.2856 </r>
       <r>    -3.2327    59.9643   479.6628 </r>
       <r>    -2.9763    61.7844   495.5066 </r>
       <r>    -2.7198    62.8328   511.6194 </r>
       <r>    -2.4634    73.0852   530.3612 </r>
       <r>    -2.2070   107.5163   557.9325 </r>
       <r>    -1.9505   141.6060   594.2457 </r>
       <r>    -1.6941   161.5258   635.6672 </r>
       <r>    -1.4376   155.5654   675.5601 </r>
       <r>    -1.1812   148.0959   713.5376 </r>
       <r>    -0.9248   128.6319   746.5238 </r>
       <r>    -0.6683   110.5442   774.8715 </r>
       <r>    -0.4119    94.0427   798.9877 </r>
       <r>    -0.1554    73.4349   817.8192 </r>
       <r>     0.1010    54.1581   831.7074 </r>
       <r>     0.3574    53.6531   845.4661 </r>
       <r>     0.6139    56.0986   859.8520 </r>
       <r>     0.8703    64.2519   876.3286 </r>
       <r>     1.1267    63.6305   892.6459 </r>
       <r>     1.3832    19.8251   897.7298 </r>
       <r>     1.6396     1.0918   898.0098 </r>
       <r>     1.8961     1.8587   898.4865 </r>
       <r>     2.1525     7.7554   900.4752 </r>
       <r>     2.4089    10.8003   903.2448 </r>
       <r>     2.6654     6.3226   904.8662 </r>
       <r>     2.9218    14.5260   908.5912 </r>
       <r>     3.1782     6.7282   910.3166 </r>
       <r>     3.4347    10.4135   912.9870 </r>
       <r>     3.6911    12.0330   916.0727 </r>
       <r>     3.9476    17.3076   920.5111 </r>
       <r>     4.2040    25.2723   926.9919 </r>
       <r>     4.4604    29.3311   934.5135 </r>
       <r>     4.7169    29.8180   942.1600 </r>
       <r>     4.9733    30.3746   949.9492 </r>
       <r>     5.2298    35.8366   959.1391 </r>
       <r>     5.4862    41.9269   969.8907 </r>
       <r>     5.7426    21.8684   975.4986 </r>
       <r>     5.9991     1.9396   975.9960 </r>
       <r>     6.2555     0.0156   976.0000 </r>
       <r>     6.5119     0.0000   976.0000 </r>
       <r>     6.7684     0.0000   976.0000 </r>
       <r>     7.0248     0.0000   976.0000 </r>
       <r>     7.2813     0.0000   976.0000 </r>
       <r>     7.5377     0.0000   976.0000 </r>
       <r>     7.7941     0.0000   976.0000 </r>
       <r>     8.0506     0.0000   976.0000 </r>
       <r>     8.3070     0.0000   976.0000 </r>
       <r>     8.5635     0.0000   976.0000 </r>
       <r>     8.8199     0.0000   976.0000 </r>
       <r>     9.0763     0.0000   976.0000 </r>
      </set>
     </set>
    </array>
   </total>
  </dos>
 </calculation>
 <structure name="finalpos" >
  <crystal>
   <varray name="basis" >
    <v>      16.88469405       0.00000000       0.00000000 </v>
    <v>       0.00000000       9.57841000       0.00000000 </v>
    <v>       0.00000000       0.00000000      16.19761915 </v>
   </varray>
   <i name="volume">   2619.61701075 </i>
   <varray name="rec_basis" >
    <v>       0.05922524       0.00000000       0.00000000 </v>
    <v>       0.00000000       0.10440146       0.00000000 </v>
    <v>       0.00000000       0.00000000       0.06173747 </v>
   </varray>
  </crystal>
  <varray name="positions" >
   <v>       0.06497261       0.92341313       0.31080449 </v>
   <v>       0.09954057       0.92341313       0.12037258 </v>
   <v>       0.58225659       0.42341313       0.21558854 </v>
   <v>       0.61682455       0.42341313       0.02515663 </v>
   <v>       0.23740060       0.42341313       0.27906584 </v>
   <v>       0.27196856       0.42341313       0.08863393 </v>
   <v>       0.72011663       0.92341313       0.37428180 </v>
   <v>       0.75468458       0.92341313       0.18384989 </v>
   <v>       0.40982860       0.92341313       0.24732719 </v>
   <v>       0.44439655       0.92341313       0.05689528 </v>
   <v>       0.89254462       0.42341313       0.34254314 </v>
   <v>       0.92711258       0.42341313       0.15211123 </v>
   <v>       0.42015216       0.55551613       0.38086382 </v>
   <v>       0.45472012       0.55551613       0.19043191 </v>
   <v>       0.48928808       0.55551613       0.00000000 </v>
   <v>       0.93743614       0.05551613       0.28564787 </v>
   <v>       0.97200410       0.05551613       0.09521596 </v>
   <v>       0.10986414       0.55551613       0.25390921 </v>
   <v>       0.14443209       0.55551613       0.06347730 </v>
   <v>       0.59258016       0.05551613       0.34912517 </v>
   <v>       0.62714811       0.05551613       0.15869326 </v>
   <v>       0.28229213       0.05551613       0.22217056 </v>
   <v>       0.31686009       0.05551613       0.03173865 </v>
   <v>       0.76500815       0.55551613       0.31738652 </v>
   <v>       0.79957611       0.55551613       0.12695461 </v>
   <v>       0.06497261       0.18761913       0.31080449 </v>
   <v>       0.09954057       0.18761913       0.12037258 </v>
   <v>       0.58225659       0.68761913       0.21558854 </v>
   <v>       0.61682455       0.68761913       0.02515663 </v>
   <v>       0.23740060       0.68761913       0.27906584 </v>
   <v>       0.27196856       0.68761913       0.08863393 </v>
   <v>       0.72011663       0.18761913       0.37428180 </v>
   <v>       0.75468458       0.18761913       0.18384989 </v>
   <v>       0.40982860       0.18761913       0.24732719 </v>
   <v>       0.44439655       0.18761913       0.05689528 </v>
   <v>       0.89254462       0.68761913       0.34254314 </v>
   <v>       0.92711258       0.68761913       0.15211123 </v>
   <v>       0.02101885       0.22373113       0.00146664 </v>
   <v>       0.46916691       0.72373113       0.28711451 </v>
   <v>       0.50373487       0.72373113       0.09668260 </v>
   <v>       0.98645089       0.22373113       0.19189855 </v>
   <v>       0.12431093       0.72373113       0.35059181 </v>
   <v>       0.15887888       0.72373113       0.16015990 </v>
   <v>       0.64159490       0.22373113       0.25537586 </v>
   <v>       0.67616286       0.22373113       0.06494395 </v>
   <v>       0.29673892       0.22373113       0.31885316 </v>
   <v>       0.33130688       0.22373113       0.12842125 </v>
   <v>       0.81402290       0.72373113       0.22363721 </v>
   <v>       0.84859085       0.72373113       0.03320530 </v>
   <v>       0.14885104       0.05551613       0.22393206 </v>
   <v>       0.18341900       0.05551613       0.03350015 </v>
   <v>       0.63156706       0.55551613       0.31914801 </v>
   <v>       0.66613502       0.55551613       0.12871610 </v>
   <v>       0.28671108       0.55551613       0.38262532 </v>
   <v>       0.32127903       0.55551613       0.19219341 </v>
   <v>       0.80399506       0.05551613       0.28740936 </v>
   <v>       0.83856301       0.05551613       0.09697745 </v>
   <v>       0.01099101       0.55551613       0.06523880 </v>
   <v>       0.45913907       0.05551613       0.35088666 </v>
   <v>       0.49370703       0.05551613       0.16045475 </v>
   <v>       0.97642305       0.55551613       0.25567071 </v>
   <v>       0.02101885       0.88730113       0.00146664 </v>
   <v>       0.46916691       0.38730113       0.28711451 </v>
   <v>       0.50373487       0.38730113       0.09668260 </v>
   <v>       0.95188293       0.88730113       0.38233046 </v>
   <v>       0.98645089       0.88730113       0.19189855 </v>
   <v>       0.12431093       0.38730113       0.35059181 </v>
   <v>       0.15887888       0.38730113       0.16015990 </v>
   <v>       0.64159490       0.88730113       0.25537586 </v>
   <v>       0.67616286       0.88730113       0.06494395 </v>
   <v>       0.29673892       0.88730113       0.31885316 </v>
   <v>       0.33130688       0.88730113       0.12842125 </v>
   <v>       0.81402290       0.38730113       0.22363721 </v>
   <v>       0.84859085       0.38730113       0.03320530 </v>
  </varray>
 </structure>
</modeling>
