"Millerite NiS"                         
           1
    10.403354   -4.789205    0.000000
     0.000000    9.578410    0.000000
     0.000000    0.000000   20.500763
   Ni   S 
    36    36
Direct configuration=     1
   0.58044680  0.07437514  0.34941513
   0.76256081  0.16543215  0.22731652
   0.94467483  0.25648915  0.10521791
   0.39833278  0.98331813  0.47151374
   0.03518947  0.80174648  0.26801605
   0.21730349  0.89280348  0.14591744
   0.39941750  0.98386049  0.02381883
   0.85307546  0.71068947  0.39011466
   0.30781813  0.43806081  0.30871559
   0.48993215  0.52911781  0.18661698
   0.67204616  0.62017482  0.06451837
   0.23035801  0.03143375  0.40699537
   0.41247203  0.12249075  0.28489676
   0.59458604  0.21354776  0.16279815
   0.77670006  0.30460477  0.04069954
   0.04932872  0.94091910  0.08139907
   0.50298667  0.66774808  0.44769490
   0.68510069  0.75880508  0.32559629
   0.86721470  0.84986209  0.20349768
   0.13984337  0.48617642  0.24419722
   0.32195738  0.57723343  0.12209861
   0.50407140  0.66829044  0.00000000
   0.77561534  0.30406241  0.48839444
   0.95772935  0.39511942  0.36629583
   0.58044680  0.33858114  0.34941513
   0.76256081  0.42963815  0.22731652
   0.94467483  0.52069515  0.10521791
   0.03518947  0.06595248  0.26801605
   0.21730349  0.15700948  0.14591744
   0.39941750  0.24806649  0.02381883
   0.67096144  0.88383846  0.51221327
   0.85307546  0.97489547  0.39011466
   0.12570412  0.61120980  0.43081420
   0.30781813  0.70226681  0.30871559
   0.48993215  0.79332382  0.18661698
   0.67204616  0.88438082  0.06451837
   0.18441112  0.17667530  0.48070540
   0.36652513  0.26773231  0.35860679
   0.54863915  0.35878931  0.23650818
   0.73075316  0.44984632  0.11440957
   0.00338182  0.08616065  0.15510911
   0.18549584  0.17721766  0.03301050
   0.63915379  0.90404664  0.39930633
   0.82126781  0.99510365  0.27720772
   0.09389647  0.63141797  0.31790726
   0.27601049  0.72247498  0.19580864
   0.45812450  0.81353199  0.07371003
   0.91178246  0.54036097  0.44000587
   0.12675994  0.47963471  0.07446623
   0.58041790  0.20646369  0.44076206
   0.76253191  0.29752070  0.31866345
   0.94464593  0.38857770  0.19656484
   0.21727459  0.02489203  0.23726438
   0.39938860  0.11594904  0.11516577
   0.03516057  0.93383503  0.35936299
   0.85304656  0.84277802  0.48146160
   0.30778923  0.57014936  0.40006253
   0.48990325  0.66120636  0.27796392
   0.67201726  0.75226337  0.15586531
   0.85413128  0.84332038  0.03376670
   0.54863915  0.02235931  0.23650818
   0.73075316  0.11341632  0.11440957
   0.18441112  0.84024530  0.48070540
   0.36652513  0.93130231  0.35860679
   0.00338182  0.74973065  0.15510911
   0.18549584  0.84078766  0.03301050
   0.63915379  0.56761664  0.39930633
   0.82126781  0.65867365  0.27720772
   0.09389647  0.29498797  0.31790726
   0.27601049  0.38604498  0.19580864
   0.45812450  0.47710199  0.07371003
   0.91178246  0.20393097  0.44000587
