<?xml version="1.0" encoding="ISO-8859-1"?>
<modeling>
 <generator>
  <i name="program" type="string">vasp </i>
  <i name="version" type="string">6.1.0  </i>
  <i name="subversion" type="string">28Jan20 (build Mar 31 2020 17:42:31) gamma-only                       parallel </i>
  <i name="platform" type="string">LinuxIFC </i>
  <i name="date" type="string">2020 04 12 </i>
  <i name="time" type="string">16:22:55 </i>
 </generator>
 <incar>
  <i type="string" name="SYSTEM">"Millerite NiS"</i>
  <i type="int" name="NSIM">     4</i>
  <i type="int" name="NELM">   100</i>
  <i name="ENCUT">    450.00000000</i>
  <i type="string" name="LREAL">A</i>
  <i type="int" name="ISMEAR">     0</i>
  <i type="int" name="NWRITE">     2</i>
  <i type="logical" name="LWAVE"> F  </i>
  <i type="logical" name="LCHARG"> F  </i>
  <i type="int" name="NCORE">     6</i>
  <i type="int" name="NELM">   100</i>
 </incar>
 <structure name="primitive_cell" >
  <crystal>
   <varray name="basis" >
    <v>       9.42510255       3.57329804       0.00000000 </v>
    <v>       0.00000000      10.07973298       0.00000000 </v>
    <v>       0.00000000       0.00000000      20.51013988 </v>
   </varray>
   <i name="volume">   1948.51491473 </i>
   <varray name="rec_basis" >
    <v>       0.10609964       0.00000000       0.00000000 </v>
    <v>      -0.03761267       0.09920898       0.00000000 </v>
    <v>       0.00000000       0.00000000       0.04875637 </v>
   </varray>
  </crystal>
  <varray name="positions" >
   <v>       0.37433215       0.75136220       0.09511235 </v>
   <v>       0.52460066       0.60109368       0.22312232 </v>
   <v>       0.67486918       0.45082517       0.35113229 </v>
   <v>       0.82513769       0.30055666       0.47914226 </v>
   <v>       0.60748648       0.18487454       0.00977237 </v>
   <v>       0.75775499       0.03460603       0.13778234 </v>
   <v>       0.05829201       0.73406900       0.39380228 </v>
   <v>       0.90802350       0.88433751       0.26579231 </v>
   <v>       0.14117783       0.31784985       0.18045233 </v>
   <v>       0.29144634       0.16758134       0.30846230 </v>
   <v>       0.44171485       0.01731283       0.43647227 </v>
   <v>       0.99090931       0.46811837       0.05244236 </v>
   <v>       0.00994000       0.11575434       0.41150025 </v>
   <v>       0.55913447       0.56655988       0.02747034 </v>
   <v>       0.70940298       0.41629137       0.15548031 </v>
   <v>       0.85967149       0.26602286       0.28349028 </v>
   <v>       0.09282582       0.69953520       0.19815030 </v>
   <v>       0.24309433       0.54926668       0.32616027 </v>
   <v>       0.39336284       0.39899817       0.45417024 </v>
   <v>       0.94255730       0.84980371       0.07014033 </v>
   <v>       0.32598014       0.13304754       0.11281032 </v>
   <v>       0.47624865       0.98277903       0.24082029 </v>
   <v>       0.62651717       0.83251052       0.36883026 </v>
   <v>       0.77678568       0.68224200       0.49684023 </v>
   <v>       0.04964185       0.34025850       0.44532126 </v>
   <v>       0.59883631       0.79106404       0.06129134 </v>
   <v>       0.74910482       0.64079553       0.18930132 </v>
   <v>       0.89937333       0.49052701       0.31731129 </v>
   <v>       0.98225915       0.07430787       0.10396133 </v>
   <v>       0.13252766       0.92403935       0.23197131 </v>
   <v>       0.28279617       0.77377084       0.35998128 </v>
   <v>       0.43306468       0.62350233       0.48799125 </v>
   <v>       0.21541347       0.50782021       0.01862135 </v>
   <v>       0.36568198       0.35755170       0.14663132 </v>
   <v>       0.51595050       0.20728318       0.27464130 </v>
   <v>       0.66621901       0.05701467       0.40265127 </v>
   <v>       0.06382158       0.26208477       0.34135992 </v>
   <v>       0.21409009       0.11181626       0.46936989 </v>
   <v>       0.76328455       0.56262179       0.08533998 </v>
   <v>       0.91355307       0.41235328       0.21334995 </v>
   <v>       0.14670739       0.84586562       0.12800997 </v>
   <v>       0.29697590       0.69559711       0.25601994 </v>
   <v>       0.44724442       0.54532860       0.38402991 </v>
   <v>       0.59751293       0.39506009       0.51203988 </v>
   <v>       0.99643888       0.99613414       0.00000000 </v>
   <v>       0.37986171       0.27937797       0.04266999 </v>
   <v>       0.53013023       0.12910945       0.17067996 </v>
   <v>       0.68039874       0.97884094       0.29868993 </v>
   <v>       0.83066725       0.82857243       0.42669990 </v>
   <v>       0.37769571       0.94821064       0.04346280 </v>
   <v>       0.52796422       0.79794212       0.17147277 </v>
   <v>       0.67823274       0.64767361       0.29948274 </v>
   <v>       0.82850125       0.49740510       0.42749271 </v>
   <v>       0.76111855       0.23145446       0.08613279 </v>
   <v>       0.91138706       0.08118595       0.21414276 </v>
   <v>       0.06165557       0.93091744       0.34215273 </v>
   <v>       0.21192409       0.78064893       0.47016270 </v>
   <v>       0.14454139       0.51469829       0.12880278 </v>
   <v>       0.29480990       0.36442978       0.25681275 </v>
   <v>       0.44507841       0.21416127       0.38482272 </v>
   <v>       0.99427287       0.66496681       0.00079281 </v>
   <v>       0.47740939       0.51206696       0.12840637 </v>
   <v>       0.62767790       0.36179845       0.25641634 </v>
   <v>       0.77794641       0.21152993       0.38442631 </v>
   <v>       0.01110074       0.64504228       0.29908633 </v>
   <v>       0.16136925       0.49477376       0.42709630 </v>
   <v>       0.71056371       0.94557930       0.04306639 </v>
   <v>       0.86083223       0.79531079       0.17107636 </v>
   <v>       0.09398655       0.22882313       0.08573638 </v>
   <v>       0.24425506       0.07855462       0.21374635 </v>
   <v>       0.39452358       0.92828610       0.34175632 </v>
   <v>       0.54479209       0.77801759       0.46976629 </v>
  </varray>
 </structure>
 <varray name="primitive_index" >
  <v type="int" >        1 </v>
  <v type="int" >        2 </v>
  <v type="int" >        3 </v>
  <v type="int" >        4 </v>
  <v type="int" >        5 </v>
  <v type="int" >        6 </v>
  <v type="int" >        7 </v>
  <v type="int" >        8 </v>
  <v type="int" >        9 </v>
  <v type="int" >       10 </v>
  <v type="int" >       11 </v>
  <v type="int" >       12 </v>
  <v type="int" >       13 </v>
  <v type="int" >       14 </v>
  <v type="int" >       15 </v>
  <v type="int" >       16 </v>
  <v type="int" >       17 </v>
  <v type="int" >       18 </v>
  <v type="int" >       19 </v>
  <v type="int" >       20 </v>
  <v type="int" >       21 </v>
  <v type="int" >       22 </v>
  <v type="int" >       23 </v>
  <v type="int" >       24 </v>
  <v type="int" >       25 </v>
  <v type="int" >       26 </v>
  <v type="int" >       27 </v>
  <v type="int" >       28 </v>
  <v type="int" >       29 </v>
  <v type="int" >       30 </v>
  <v type="int" >       31 </v>
  <v type="int" >       32 </v>
  <v type="int" >       33 </v>
  <v type="int" >       34 </v>
  <v type="int" >       35 </v>
  <v type="int" >       36 </v>
  <v type="int" >       37 </v>
  <v type="int" >       38 </v>
  <v type="int" >       39 </v>
  <v type="int" >       40 </v>
  <v type="int" >       41 </v>
  <v type="int" >       42 </v>
  <v type="int" >       43 </v>
  <v type="int" >       44 </v>
  <v type="int" >       45 </v>
  <v type="int" >       46 </v>
  <v type="int" >       47 </v>
  <v type="int" >       48 </v>
  <v type="int" >       49 </v>
  <v type="int" >       50 </v>
  <v type="int" >       51 </v>
  <v type="int" >       52 </v>
  <v type="int" >       53 </v>
  <v type="int" >       54 </v>
  <v type="int" >       55 </v>
  <v type="int" >       56 </v>
  <v type="int" >       57 </v>
  <v type="int" >       58 </v>
  <v type="int" >       59 </v>
  <v type="int" >       60 </v>
  <v type="int" >       61 </v>
  <v type="int" >       62 </v>
  <v type="int" >       63 </v>
  <v type="int" >       64 </v>
  <v type="int" >       65 </v>
  <v type="int" >       66 </v>
  <v type="int" >       67 </v>
  <v type="int" >       68 </v>
  <v type="int" >       69 </v>
  <v type="int" >       70 </v>
  <v type="int" >       71 </v>
  <v type="int" >       72 </v>
 </varray>
 <kpoints>
  <generation param="Gamma">
   <v type="int" name="divisions">       1        1        1 </v>
   <v name="usershift">      0.00000000       0.00000000       0.00000000 </v>
   <v name="genvec1">      1.00000000       0.00000000       0.00000000 </v>
   <v name="genvec2">     -0.00000000       1.00000000       0.00000000 </v>
   <v name="genvec3">      0.00000000       0.00000000       1.00000000 </v>
   <v name="shift">      0.00000000       0.00000000       0.00000000 </v>
  </generation>
  <varray name="kpointlist" >
   <v>       0.00000000       0.00000000       0.00000000 </v>
  </varray>
  <varray name="weights" >
   <v>       1.00000000 </v>
  </varray>
 </kpoints>
 <parameters>
  <separator name="general" >
   <i type="string" name="SYSTEM">"Millerite NiS"</i>
   <i type="logical" name="LCOMPAT"> F  </i>
  </separator>
  <separator name="electronic" >
   <i type="string" name="PREC">normal</i>
   <i name="ENMAX">    450.00000000</i>
   <i name="ENAUG">    703.44300000</i>
   <i name="EDIFF">      0.00010000</i>
   <i type="int" name="IALGO">    38</i>
   <i type="int" name="IWAVPR">    10</i>
   <i type="int" name="NBANDS">   480</i>
   <i type="int" name="NBANDSLOW">    -1</i>
   <i type="int" name="NBANDSHIGH">    -1</i>
   <i name="NELECT">    792.00000000</i>
   <i type="int" name="TURBO">     0</i>
   <i type="int" name="IRESTART">     0</i>
   <i type="int" name="NREBOOT">     0</i>
   <i type="int" name="NMIN">     0</i>
   <i name="EREF">      0.00000000</i>
   <separator name="electronic smearing" >
    <i type="int" name="ISMEAR">     0</i>
    <i name="SIGMA">      0.20000000</i>
    <i name="KSPACING">      0.50000000</i>
    <i type="logical" name="KGAMMA"> T  </i>
    <i type="logical" name="KBLOWUP"> T  </i>
   </separator>
   <separator name="electronic projectors" >
    <i type="logical" name="LREAL"> T  </i>
    <v name="ROPT">     -0.00050000     -0.00050000</v>
    <i type="int" name="LMAXPAW">  -100</i>
    <i type="int" name="LMAXMIX">     2</i>
    <i type="logical" name="NLSPLINE"> F  </i>
   </separator>
   <separator name="electronic startup" >
    <i type="int" name="ISTART">     0</i>
    <i type="int" name="ICHARG">     2</i>
    <i type="int" name="INIWAV">     1</i>
   </separator>
   <separator name="electronic spin" >
    <i type="int" name="ISPIN">     1</i>
    <i type="logical" name="LNONCOLLINEAR"> F  </i>
    <v name="MAGMOM">      1.00000000      1.00000000      1.00000000      1.00000000      1.00000000      1.00000000      1.00000000      1.00000000      1.00000000      1.00000000      1.00000000      1.00000000      1.00000000      1.00000000      1.00000000      1.00000000      1.00000000      1.00000000      1.00000000      1.00000000
      1.00000000      1.00000000      1.00000000      1.00000000      1.00000000      1.00000000      1.00000000      1.00000000      1.00000000      1.00000000      1.00000000      1.00000000      1.00000000      1.00000000      1.00000000      1.00000000      1.00000000      1.00000000      1.00000000      1.00000000
      1.00000000      1.00000000      1.00000000      1.00000000      1.00000000      1.00000000      1.00000000      1.00000000      1.00000000      1.00000000      1.00000000      1.00000000      1.00000000      1.00000000      1.00000000      1.00000000      1.00000000      1.00000000      1.00000000      1.00000000
      1.00000000      1.00000000      1.00000000      1.00000000      1.00000000      1.00000000      1.00000000      1.00000000      1.00000000      1.00000000      1.00000000      1.00000000</v>
    <i name="NUPDOWN">     -1.00000000</i>
    <i type="logical" name="LSORBIT"> F  </i>
    <v name="SAXIS">      0.00000000      0.00000000      1.00000000</v>
    <i type="logical" name="LSPIRAL"> F  </i>
    <v name="QSPIRAL">      0.00000000      0.00000000      0.00000000</v>
    <i type="logical" name="LZEROZ"> F  </i>
   </separator>
   <separator name="electronic exchange-correlation" >
    <i type="logical" name="LASPH"> F  </i>
    <i type="logical" name="LMETAGGA"> F  </i>
   </separator>
   <separator name="electronic convergence" >
    <i type="int" name="NELM">   100</i>
    <i type="int" name="NELMDL">    -5</i>
    <i type="int" name="NELMIN">     2</i>
    <i name="ENINI">    450.00000000</i>
    <separator name="electronic convergence detail" >
     <i type="logical" name="LDIAG"> T  </i>
     <i type="logical" name="LSUBROT"> F  </i>
     <i name="WEIMIN">      0.00000000</i>
     <i name="EBREAK">      0.00000005</i>
     <i name="DEPER">      0.30000000</i>
     <i type="int" name="NRMM">     4</i>
     <i name="TIME">      0.40000000</i>
    </separator>
   </separator>
   <separator name="electronic mixer" >
    <i name="AMIX">      0.40000000</i>
    <i name="BMIX">      1.00000000</i>
    <i name="AMIN">      0.10000000</i>
    <i name="AMIX_MAG">      1.60000000</i>
    <i name="BMIX_MAG">      1.00000000</i>
    <separator name="electronic mixer details" >
     <i type="int" name="IMIX">     4</i>
     <i type="logical" name="MIXFIRST"> F  </i>
     <i type="int" name="MAXMIX">   -45</i>
     <i name="WC">    100.00000000</i>
     <i type="int" name="INIMIX">     1</i>
     <i type="int" name="MIXPRE">     1</i>
     <i type="int" name="MREMOVE">     5</i>
    </separator>
   </separator>
   <separator name="electronic dipolcorrection" >
    <i type="logical" name="LDIPOL"> F  </i>
    <i type="logical" name="LMONO"> F  </i>
    <i type="int" name="IDIPOL">     0</i>
    <i name="EPSILON">      1.00000000</i>
    <v name="DIPOL">   -100.00000000   -100.00000000   -100.00000000</v>
    <i name="EFIELD">      0.00000000</i>
   </separator>
  </separator>
  <separator name="grids" >
   <i type="int" name="NGX">    54</i>
   <i type="int" name="NGY">    54</i>
   <i type="int" name="NGZ">   108</i>
   <i type="int" name="NGXF">   108</i>
   <i type="int" name="NGYF">   108</i>
   <i type="int" name="NGZF">   216</i>
   <i type="logical" name="ADDGRID"> F  </i>
  </separator>
  <separator name="ionic" >
   <i type="int" name="NSW">     0</i>
   <i type="int" name="IBRION">    -1</i>
   <i type="int" name="MDALGO">     0</i>
   <i type="int" name="ISIF">     2</i>
   <i name="PSTRESS">      0.00000000</i>
   <i name="EDIFFG">      0.00100000</i>
   <i type="int" name="NFREE">     0</i>
   <i name="POTIM">      0.50000000</i>
   <i name="SMASS">     -3.00000000</i>
   <i name="SCALEE">      1.00000000</i>
  </separator>
  <separator name="ionic md" >
   <i name="TEBEG">      0.00010000</i>
   <i name="TEEND">      0.00010000</i>
   <i type="int" name="NBLOCK">     1</i>
   <i type="int" name="KBLOCK">     1</i>
   <i type="int" name="NPACO">   256</i>
   <i name="APACO">     16.00000000</i>
  </separator>
  <separator name="symmetry" >
   <i type="int" name="ISYM">     2</i>
   <i name="SYMPREC">      0.00001000</i>
  </separator>
  <separator name="dos" >
   <i type="int" name="LORBIT">     0</i>
   <v name="RWIGS">     -1.00000000     -1.00000000</v>
   <i type="int" name="NEDOS">   301</i>
   <i name="EMIN">     10.00000000</i>
   <i name="EMAX">    -10.00000000</i>
   <i name="EFERMI">      0.00000000</i>
  </separator>
  <separator name="writing" >
   <i type="int" name="NWRITE">     2</i>
   <i type="logical" name="LWAVE"> F  </i>
   <i type="logical" name="LDOWNSAMPLE"> F  </i>
   <i type="logical" name="LCHARG"> F  </i>
   <i type="logical" name="LPARD"> F  </i>
   <i type="logical" name="LVTOT"> F  </i>
   <i type="logical" name="LVHAR"> F  </i>
   <i type="logical" name="LELF"> F  </i>
   <i type="logical" name="LOPTICS"> F  </i>
   <v name="STM">      0.00000000      0.00000000      0.00000000      0.00000000      0.00000000      0.00000000      0.00000000</v>
  </separator>
  <separator name="performance" >
   <i type="int" name="NPAR">     8</i>
   <i type="int" name="NSIM">     4</i>
   <i type="int" name="NBLK">    -1</i>
   <i type="logical" name="LPLANE"> T  </i>
   <i type="logical" name="LSCALAPACK"> T  </i>
   <i type="logical" name="LSCAAWARE"> F  </i>
   <i type="logical" name="LSCALU"> F  </i>
   <i type="logical" name="LASYNC"> F  </i>
   <i type="logical" name="LORBITALREAL"> F  </i>
  </separator>
  <separator name="miscellaneous" >
   <i type="int" name="IDIOT">     3</i>
   <i type="int" name="PHON_NSTRUCT">    -1</i>
   <i type="logical" name="LMUSIC"> F  </i>
   <v name="POMASS">     58.69000000     32.06600000</v>
   <v name="DARWINR">      0.00000000      0.00000000</v>
   <v name="DARWINV">      1.00000000      1.00000000</v>
   <i type="logical" name="LCORR"> T  </i>
  </separator>
  <i type="logical" name="GGA_COMPAT"> T  </i>
  <i type="logical" name="LBERRY"> F  </i>
  <i type="int" name="ICORELEVEL">     0</i>
  <i type="logical" name="LDAU"> F  </i>
  <i type="int" name="I_CONSTRAINED_M">     0</i>
  <separator name="electronic exchange-correlation" >
   <i type="string" name="GGA">--</i>
   <i type="int" name="VOSKOWN">     0</i>
   <i type="logical" name="LHFCALC"> F  </i>
   <i type="string" name="PRECFOCK"></i>
   <i type="logical" name="LSYMGRAD"> F  </i>
   <i type="logical" name="LHFONE"> F  </i>
   <i type="logical" name="LRHFCALC"> F  </i>
   <i type="logical" name="LTHOMAS"> F  </i>
   <i type="logical" name="LMODELHF"> F  </i>
   <i type="logical" name="LFOCKACE"> F  </i>
   <i name="ENCUT4O">     -1.00000000</i>
   <i type="int" name="EXXOEP">     0</i>
   <i type="int" name="FOURORBIT">     0</i>
   <i name="AEXX">      0.00000000</i>
   <i name="HFALPHA">      0.00000000</i>
   <i name="MCALPHA">      0.00000000</i>
   <i name="ALDAX">      1.00000000</i>
   <i name="AGGAX">      1.00000000</i>
   <i name="ALDAC">      1.00000000</i>
   <i name="AGGAC">      1.00000000</i>
   <i type="int" name="NKREDX">     1</i>
   <i type="int" name="NKREDY">     1</i>
   <i type="int" name="NKREDZ">     1</i>
   <i type="logical" name="SHIFTRED"> F  </i>
   <i type="logical" name="ODDONLY"> F  </i>
   <i type="logical" name="EVENONLY"> F  </i>
   <i type="int" name="LMAXFOCK">     0</i>
   <i type="int" name="NMAXFOCKAE">     0</i>
   <i type="logical" name="LFOCKAEDFT"> F  </i>
   <i name="HFSCREEN">      0.00000000</i>
   <i name="HFSCREENC">      0.00000000</i>
   <i type="int" name="NBANDSGWLOW">     0</i>
  </separator>
  <separator name="vdW DFT" >
   <i type="logical" name="LUSE_VDW"> F  </i>
   <i name="Zab_VDW">     -0.84910000</i>
   <i name="PARAM1">      0.12340000</i>
   <i name="PARAM2">      1.00000000</i>
   <i name="PARAM3">      0.00000000</i>
  </separator>
  <separator name="model GW" >
   <i type="int" name="MODEL_GW">     0</i>
   <i name="MODEL_EPS0">     16.23762429</i>
   <i name="MODEL_ALPHA">      1.00000000</i>
  </separator>
  <separator name="linear response parameters" >
   <i type="logical" name="LEPSILON"> F  </i>
   <i type="logical" name="LRPA"> F  </i>
   <i type="logical" name="LNABLA"> F  </i>
   <i type="logical" name="LVEL"> F  </i>
   <i type="int" name="KINTER">     0</i>
   <i name="CSHIFT">      0.10000000</i>
   <i name="OMEGAMAX">     -1.00000000</i>
   <i name="DEG_THRESHOLD">      0.00200000</i>
   <i name="RTIME">     -0.10000000</i>
   <i name="WPLASMAI">      0.00000000</i>
   <v name="DFIELD">      0.00000000      0.00000000      0.00000000</v>
   <v name="WPLASMA">      0.00000000      0.00000000      0.00000000      0.00000000      0.00000000      0.00000000      0.00000000      0.00000000      0.00000000</v>
  </separator>
  <separator name="orbital magnetization" >
   <i type="logical" name="NUCIND"> F  </i>
   <v name="MAGPOS">      0.00000000      0.00000000      0.00000000</v>
   <i type="logical" name="LNICSALL"> T  </i>
   <i type="logical" name="ORBITALMAG"> F  </i>
   <i type="logical" name="LMAGBLOCH"> F  </i>
   <i type="logical" name="LCHIMAG"> F  </i>
   <i type="logical" name="LGAUGE"> T  </i>
   <i type="int" name="MAGATOM">     0</i>
   <v name="MAGDIPOL">      0.00000000      0.00000000      0.00000000</v>
   <v name="AVECCONST">      0.00000000      0.00000000      0.00000000</v>
  </separator>
  <separator name="response functions" >
   <i type="logical" name="LFINITE_TEMPERATURE"> F  </i>
   <i type="logical" name="LADDER"> F  </i>
   <i type="logical" name="LRPAFORCE"> F  </i>
   <i type="logical" name="LFXC"> F  </i>
   <i type="logical" name="LHARTREE"> T  </i>
   <i type="int" name="IBSE">     0</i>
   <v type="int" name="KPOINT">    -1     0     0     0</v>
   <i type="logical" name="LTCTC"> F  </i>
   <i type="logical" name="LTCTE"> F  </i>
   <i type="logical" name="LTETE"> F  </i>
   <i type="logical" name="LTRIPLET"> F  </i>
   <i type="logical" name="LFXCEPS"> F  </i>
   <i type="logical" name="LFXHEG"> F  </i>
   <i type="int" name="NATURALO">     2</i>
   <i type="logical" name="LHOLEGF"> F  </i>
   <i type="logical" name="L2ORDER"> F  </i>
   <i type="logical" name="LDMP1"> F  </i>
   <i type="logical" name="LMP2LT"> F  </i>
   <i type="logical" name="LSMP2LT"> F  </i>
   <i type="logical" name="LGWLF"> F  </i>
   <i name="ENCUTGW">     -2.00000000</i>
   <i name="ENCUTGWSOFT">     -2.00000000</i>
   <i name="ENCUTLF">     -1.00000000</i>
   <i type="logical" name="LESF_SPLINES"> F  </i>
   <i type="int" name="LMAXMP2">    -1</i>
   <i name="SCISSOR">      0.00000000</i>
   <i type="int" name="NOMEGA">     0</i>
   <i type="int" name="NOMEGAR">     0</i>
   <i type="int" name="NBANDSGW">    -1</i>
   <i type="int" name="NBANDSO">    -1</i>
   <i type="int" name="NBANDSV">    -1</i>
   <i type="int" name="NELM">   100</i>
   <i type="int" name="NELMHF">     1</i>
   <i type="int" name="DIM">     3</i>
   <i type="int" name="IESPILON">     4</i>
   <i type="int" name="ANTIRES">     0</i>
   <i name="OMEGAMAX">    -30.00000000</i>
   <i name="OMEGAMIN">    -30.00000000</i>
   <i name="OMEGATL">   -200.00000000</i>
   <i type="int" name="OMEGAGRID">     0</i>
   <i name="CSHIFT">     -0.10000000</i>
   <i type="logical" name="LSELFENERGY"> F  </i>
   <i type="logical" name="LSPECTRAL"> F  </i>
   <i type="logical" name="LSPECTRALGW"> F  </i>
   <i type="logical" name="LSINGLES"> F  </i>
   <i type="logical" name="LFERMIGW"> F  </i>
   <i type="logical" name="ODDONLYGW"> F  </i>
   <i type="logical" name="EVENONLYGW"> F  </i>
   <i type="int" name="NKREDLFX">     1</i>
   <i type="int" name="NKREDLFY">     1</i>
   <i type="int" name="NKREDLFZ">     1</i>
   <i type="int" name="MAXMEM">  2800</i>
   <i type="int" name="TELESCOPE">     0</i>
   <i type="int" name="NTAUPAR">    -1</i>
   <i type="int" name="NOMEGAPAR">    -1</i>
   <i name="LAMBDA">      1.00000000</i>
  </separator>
  <separator name="External order field" >
   <i name="OFIELD_KAPPA">      0.00000000</i>
   <v name="OFIELD_K">      0.00000000      0.00000000      0.00000000</v>
   <i name="OFIELD_Q6_NEAR">      0.00000000</i>
   <i name="OFIELD_Q6_FAR">      0.00000000</i>
   <i name="OFIELD_A">      0.00000000</i>
  </separator>
 </parameters>
 <atominfo>
  <atoms>      72 </atoms>
  <types>       2 </types>
  <array name="atoms" >
   <dimension dim="1">ion</dimension>
   <field type="string">element</field>
   <field type="int">atomtype</field>
   <set>
    <rc><c>Ni</c><c>   1</c></rc>
    <rc><c>Ni</c><c>   1</c></rc>
    <rc><c>Ni</c><c>   1</c></rc>
    <rc><c>Ni</c><c>   1</c></rc>
    <rc><c>Ni</c><c>   1</c></rc>
    <rc><c>Ni</c><c>   1</c></rc>
    <rc><c>Ni</c><c>   1</c></rc>
    <rc><c>Ni</c><c>   1</c></rc>
    <rc><c>Ni</c><c>   1</c></rc>
    <rc><c>Ni</c><c>   1</c></rc>
    <rc><c>Ni</c><c>   1</c></rc>
    <rc><c>Ni</c><c>   1</c></rc>
    <rc><c>Ni</c><c>   1</c></rc>
    <rc><c>Ni</c><c>   1</c></rc>
    <rc><c>Ni</c><c>   1</c></rc>
    <rc><c>Ni</c><c>   1</c></rc>
    <rc><c>Ni</c><c>   1</c></rc>
    <rc><c>Ni</c><c>   1</c></rc>
    <rc><c>Ni</c><c>   1</c></rc>
    <rc><c>Ni</c><c>   1</c></rc>
    <rc><c>Ni</c><c>   1</c></rc>
    <rc><c>Ni</c><c>   1</c></rc>
    <rc><c>Ni</c><c>   1</c></rc>
    <rc><c>Ni</c><c>   1</c></rc>
    <rc><c>Ni</c><c>   1</c></rc>
    <rc><c>Ni</c><c>   1</c></rc>
    <rc><c>Ni</c><c>   1</c></rc>
    <rc><c>Ni</c><c>   1</c></rc>
    <rc><c>Ni</c><c>   1</c></rc>
    <rc><c>Ni</c><c>   1</c></rc>
    <rc><c>Ni</c><c>   1</c></rc>
    <rc><c>Ni</c><c>   1</c></rc>
    <rc><c>Ni</c><c>   1</c></rc>
    <rc><c>Ni</c><c>   1</c></rc>
    <rc><c>Ni</c><c>   1</c></rc>
    <rc><c>Ni</c><c>   1</c></rc>
    <rc><c>S </c><c>   2</c></rc>
    <rc><c>S </c><c>   2</c></rc>
    <rc><c>S </c><c>   2</c></rc>
    <rc><c>S </c><c>   2</c></rc>
    <rc><c>S </c><c>   2</c></rc>
    <rc><c>S </c><c>   2</c></rc>
    <rc><c>S </c><c>   2</c></rc>
    <rc><c>S </c><c>   2</c></rc>
    <rc><c>S </c><c>   2</c></rc>
    <rc><c>S </c><c>   2</c></rc>
    <rc><c>S </c><c>   2</c></rc>
    <rc><c>S </c><c>   2</c></rc>
    <rc><c>S </c><c>   2</c></rc>
    <rc><c>S </c><c>   2</c></rc>
    <rc><c>S </c><c>   2</c></rc>
    <rc><c>S </c><c>   2</c></rc>
    <rc><c>S </c><c>   2</c></rc>
    <rc><c>S </c><c>   2</c></rc>
    <rc><c>S </c><c>   2</c></rc>
    <rc><c>S </c><c>   2</c></rc>
    <rc><c>S </c><c>   2</c></rc>
    <rc><c>S </c><c>   2</c></rc>
    <rc><c>S </c><c>   2</c></rc>
    <rc><c>S </c><c>   2</c></rc>
    <rc><c>S </c><c>   2</c></rc>
    <rc><c>S </c><c>   2</c></rc>
    <rc><c>S </c><c>   2</c></rc>
    <rc><c>S </c><c>   2</c></rc>
    <rc><c>S </c><c>   2</c></rc>
    <rc><c>S </c><c>   2</c></rc>
    <rc><c>S </c><c>   2</c></rc>
    <rc><c>S </c><c>   2</c></rc>
    <rc><c>S </c><c>   2</c></rc>
    <rc><c>S </c><c>   2</c></rc>
    <rc><c>S </c><c>   2</c></rc>
    <rc><c>S </c><c>   2</c></rc>
   </set>
  </array>
  <array name="atomtypes" >
   <dimension dim="1">type</dimension>
   <field type="int">atomspertype</field>
   <field type="string">element</field>
   <field>mass</field>
   <field>valence</field>
   <field type="string">pseudopotential</field>
   <set>
    <rc><c>  36</c><c>Ni</c><c>     58.69000000</c><c>     16.00000000</c><c>  PAW_PBE Ni_pv 06Sep2000               </c></rc>
    <rc><c>  36</c><c>S </c><c>     32.06600000</c><c>      6.00000000</c><c>  PAW_PBE S 06Sep2000                   </c></rc>
   </set>
  </array>
 </atominfo>
 <structure name="initialpos" >
  <crystal>
   <varray name="basis" >
    <v>       9.42510255       3.57329804       0.00000000 </v>
    <v>       0.00000000      10.07973298       0.00000000 </v>
    <v>       0.00000000       0.00000000      20.51013988 </v>
   </varray>
   <i name="volume">   1948.51491473 </i>
   <varray name="rec_basis" >
    <v>       0.10609964       0.00000000       0.00000000 </v>
    <v>      -0.03761267       0.09920898       0.00000000 </v>
    <v>       0.00000000       0.00000000       0.04875637 </v>
   </varray>
  </crystal>
  <varray name="positions" >
   <v>       0.37433215       0.75136220       0.09511235 </v>
   <v>       0.52460066       0.60109368       0.22312232 </v>
   <v>       0.67486918       0.45082517       0.35113229 </v>
   <v>       0.82513769       0.30055666       0.47914226 </v>
   <v>       0.60748648       0.18487454       0.00977237 </v>
   <v>       0.75775499       0.03460603       0.13778234 </v>
   <v>       0.05829201       0.73406900       0.39380228 </v>
   <v>       0.90802350       0.88433751       0.26579231 </v>
   <v>       0.14117783       0.31784985       0.18045233 </v>
   <v>       0.29144634       0.16758134       0.30846230 </v>
   <v>       0.44171485       0.01731283       0.43647227 </v>
   <v>       0.99090931       0.46811837       0.05244236 </v>
   <v>       0.00994000       0.11575434       0.41150025 </v>
   <v>       0.55913447       0.56655988       0.02747034 </v>
   <v>       0.70940298       0.41629137       0.15548031 </v>
   <v>       0.85967149       0.26602286       0.28349028 </v>
   <v>       0.09282582       0.69953520       0.19815030 </v>
   <v>       0.24309433       0.54926668       0.32616027 </v>
   <v>       0.39336284       0.39899817       0.45417024 </v>
   <v>       0.94255730       0.84980371       0.07014033 </v>
   <v>       0.32598014       0.13304754       0.11281032 </v>
   <v>       0.47624865       0.98277903       0.24082029 </v>
   <v>       0.62651717       0.83251052       0.36883026 </v>
   <v>       0.77678568       0.68224200       0.49684023 </v>
   <v>       0.04964185       0.34025850       0.44532126 </v>
   <v>       0.59883631       0.79106404       0.06129134 </v>
   <v>       0.74910482       0.64079553       0.18930132 </v>
   <v>       0.89937333       0.49052701       0.31731129 </v>
   <v>       0.98225915       0.07430787       0.10396133 </v>
   <v>       0.13252766       0.92403935       0.23197131 </v>
   <v>       0.28279617       0.77377084       0.35998128 </v>
   <v>       0.43306468       0.62350233       0.48799125 </v>
   <v>       0.21541347       0.50782021       0.01862135 </v>
   <v>       0.36568198       0.35755170       0.14663132 </v>
   <v>       0.51595050       0.20728318       0.27464130 </v>
   <v>       0.66621901       0.05701467       0.40265127 </v>
   <v>       0.06382158       0.26208477       0.34135992 </v>
   <v>       0.21409009       0.11181626       0.46936989 </v>
   <v>       0.76328455       0.56262179       0.08533998 </v>
   <v>       0.91355307       0.41235328       0.21334995 </v>
   <v>       0.14670739       0.84586562       0.12800997 </v>
   <v>       0.29697590       0.69559711       0.25601994 </v>
   <v>       0.44724442       0.54532860       0.38402991 </v>
   <v>       0.59751293       0.39506009       0.51203988 </v>
   <v>       0.99643888       0.99613414       0.00000000 </v>
   <v>       0.37986171       0.27937797       0.04266999 </v>
   <v>       0.53013023       0.12910945       0.17067996 </v>
   <v>       0.68039874       0.97884094       0.29868993 </v>
   <v>       0.83066725       0.82857243       0.42669990 </v>
   <v>       0.37769571       0.94821064       0.04346280 </v>
   <v>       0.52796422       0.79794212       0.17147277 </v>
   <v>       0.67823274       0.64767361       0.29948274 </v>
   <v>       0.82850125       0.49740510       0.42749271 </v>
   <v>       0.76111855       0.23145446       0.08613279 </v>
   <v>       0.91138706       0.08118595       0.21414276 </v>
   <v>       0.06165557       0.93091744       0.34215273 </v>
   <v>       0.21192409       0.78064893       0.47016270 </v>
   <v>       0.14454139       0.51469829       0.12880278 </v>
   <v>       0.29480990       0.36442978       0.25681275 </v>
   <v>       0.44507841       0.21416127       0.38482272 </v>
   <v>       0.99427287       0.66496681       0.00079281 </v>
   <v>       0.47740939       0.51206696       0.12840637 </v>
   <v>       0.62767790       0.36179845       0.25641634 </v>
   <v>       0.77794641       0.21152993       0.38442631 </v>
   <v>       0.01110074       0.64504228       0.29908633 </v>
   <v>       0.16136925       0.49477376       0.42709630 </v>
   <v>       0.71056371       0.94557930       0.04306639 </v>
   <v>       0.86083223       0.79531079       0.17107636 </v>
   <v>       0.09398655       0.22882313       0.08573638 </v>
   <v>       0.24425506       0.07855462       0.21374635 </v>
   <v>       0.39452358       0.92828610       0.34175632 </v>
   <v>       0.54479209       0.77801759       0.46976629 </v>
  </varray>
 </structure>
 <calculation>
  <scstep>
   <time name="dav">    2.02    2.02</time>
   <time name="total">    2.07    2.08</time>
   <energy>
    <i name="alphaZ">   1909.09476555 </i>
    <i name="ewald"> 166280.59588449 </i>
    <i name="hartreedc">-288905.82609218 </i>
    <i name="XCdc">   3653.33216324 </i>
    <i name="pawpsdc"> 112729.53333415 </i>
    <i name="pawaedc">-117641.51188735 </i>
    <i name="eentropy">     -0.41970907 </i>
    <i name="bandstr">  -4201.05569957 </i>
    <i name="atom"> 136002.60505376 </i>
    <i name="e_fr_energy">   9826.34781303 </i>
    <i name="e_wo_entrp">   9826.76752210 </i>
    <i name="e_0_energy">   9826.55766757 </i>
   </energy>
  </scstep>
  <scstep>
   <time name="dav">    1.80    1.80</time>
   <time name="total">    1.80    1.80</time>
   <energy>
    <i name="e_fr_energy">    612.00901381 </i>
    <i name="e_wo_entrp">    612.93469612 </i>
    <i name="e_0_energy">    612.47185497 </i>
   </energy>
  </scstep>
  <scstep>
   <time name="dav">    1.87    1.88</time>
   <time name="total">    1.87    1.88</time>
   <energy>
    <i name="e_fr_energy">   -342.77844484 </i>
    <i name="e_wo_entrp">   -341.54373246 </i>
    <i name="e_0_energy">   -342.16108865 </i>
   </energy>
  </scstep>
  <scstep>
   <time name="dav">    1.94    1.95</time>
   <time name="total">    1.94    1.95</time>
   <energy>
    <i name="e_fr_energy">   -405.59431908 </i>
    <i name="e_wo_entrp">   -404.30226677 </i>
    <i name="e_0_energy">   -404.94829292 </i>
   </energy>
  </scstep>
  <scstep>
   <time name="dav">    2.05    2.06</time>
   <time name="total">    2.10    2.10</time>
   <energy>
    <i name="e_fr_energy">   -408.10849038 </i>
    <i name="e_wo_entrp">   -406.82976403 </i>
    <i name="e_0_energy">   -407.46912720 </i>
   </energy>
  </scstep>
  <scstep>
   <time name="dav">    1.97    1.98</time>
   <time name="total">    2.06    2.07</time>
   <energy>
    <i name="e_fr_energy">   -486.31251760 </i>
    <i name="e_wo_entrp">   -485.39909802 </i>
    <i name="e_0_energy">   -485.85580781 </i>
   </energy>
  </scstep>
  <scstep>
   <time name="dav">    1.93    1.94</time>
   <time name="total">    2.02    2.03</time>
   <energy>
    <i name="e_fr_energy">   -375.63696733 </i>
    <i name="e_wo_entrp">   -374.64133529 </i>
    <i name="e_0_energy">   -375.13915131 </i>
   </energy>
  </scstep>
  <scstep>
   <time name="dav">    2.21    2.22</time>
   <time name="total">    2.30    2.31</time>
   <energy>
    <i name="e_fr_energy">   -480.68632443 </i>
    <i name="e_wo_entrp">   -479.62402971 </i>
    <i name="e_0_energy">   -480.15517707 </i>
   </energy>
  </scstep>
  <scstep>
   <time name="dav">    2.05    2.05</time>
   <time name="total">    2.14    2.15</time>
   <energy>
    <i name="e_fr_energy">   -388.34830760 </i>
    <i name="e_wo_entrp">   -386.91620499 </i>
    <i name="e_0_energy">   -387.63225630 </i>
   </energy>
  </scstep>
  <scstep>
   <time name="dav">    2.16    2.17</time>
   <time name="total">    2.25    2.26</time>
   <energy>
    <i name="e_fr_energy">   -378.90224530 </i>
    <i name="e_wo_entrp">   -377.93636216 </i>
    <i name="e_0_energy">   -378.41930373 </i>
   </energy>
  </scstep>
  <scstep>
   <time name="dav">    2.09    2.10</time>
   <time name="total">    2.18    2.18</time>
   <energy>
    <i name="e_fr_energy">   -375.38646478 </i>
    <i name="e_wo_entrp">   -374.08321843 </i>
    <i name="e_0_energy">   -374.73484160 </i>
   </energy>
  </scstep>
  <scstep>
   <time name="dav">    2.13    2.13</time>
   <time name="total">    2.21    2.22</time>
   <energy>
    <i name="e_fr_energy">   -370.62225147 </i>
    <i name="e_wo_entrp">   -369.65985430 </i>
    <i name="e_0_energy">   -370.14105289 </i>
   </energy>
  </scstep>
  <scstep>
   <time name="dav">    2.10    2.11</time>
   <time name="total">    2.19    2.20</time>
   <energy>
    <i name="e_fr_energy">   -365.28654183 </i>
    <i name="e_wo_entrp">   -364.33453753 </i>
    <i name="e_0_energy">   -364.81053968 </i>
   </energy>
  </scstep>
  <scstep>
   <time name="dav">    2.17    2.18</time>
   <time name="total">    2.26    2.27</time>
   <energy>
    <i name="e_fr_energy">   -362.78647150 </i>
    <i name="e_wo_entrp">   -361.79857256 </i>
    <i name="e_0_energy">   -362.29252203 </i>
   </energy>
  </scstep>
  <scstep>
   <time name="dav">    2.11    2.12</time>
   <time name="total">    2.20    2.21</time>
   <energy>
    <i name="e_fr_energy">   -360.29032910 </i>
    <i name="e_wo_entrp">   -359.24005046 </i>
    <i name="e_0_energy">   -359.76518978 </i>
   </energy>
  </scstep>
  <scstep>
   <time name="dav">    2.12    2.13</time>
   <time name="total">    2.21    2.22</time>
   <energy>
    <i name="e_fr_energy">   -359.39336996 </i>
    <i name="e_wo_entrp">   -358.33736220 </i>
    <i name="e_0_energy">   -358.86536608 </i>
   </energy>
  </scstep>
  <scstep>
   <time name="dav">    2.16    2.16</time>
   <time name="total">    2.25    2.25</time>
   <energy>
    <i name="e_fr_energy">   -359.20153573 </i>
    <i name="e_wo_entrp">   -358.11155874 </i>
    <i name="e_0_energy">   -358.65654723 </i>
   </energy>
  </scstep>
  <scstep>
   <time name="dav">    2.12    2.12</time>
   <time name="total">    2.21    2.21</time>
   <energy>
    <i name="e_fr_energy">   -358.93431905 </i>
    <i name="e_wo_entrp">   -357.84546235 </i>
    <i name="e_0_energy">   -358.38989070 </i>
   </energy>
  </scstep>
  <scstep>
   <time name="dav">    2.09    2.09</time>
   <time name="total">    2.18    2.18</time>
   <energy>
    <i name="e_fr_energy">   -358.87042811 </i>
    <i name="e_wo_entrp">   -357.77098426 </i>
    <i name="e_0_energy">   -358.32070618 </i>
   </energy>
  </scstep>
  <scstep>
   <time name="dav">    2.24    2.24</time>
   <time name="total">    2.33    2.34</time>
   <energy>
    <i name="e_fr_energy">   -358.55517747 </i>
    <i name="e_wo_entrp">   -357.41176306 </i>
    <i name="e_0_energy">   -357.98347027 </i>
   </energy>
  </scstep>
  <scstep>
   <time name="dav">    2.19    2.20</time>
   <time name="total">    2.28    2.29</time>
   <energy>
    <i name="e_fr_energy">   -358.38417276 </i>
    <i name="e_wo_entrp">   -357.25722606 </i>
    <i name="e_0_energy">   -357.82069941 </i>
   </energy>
  </scstep>
  <scstep>
   <time name="dav">    2.07    2.07</time>
   <time name="total">    2.16    2.16</time>
   <energy>
    <i name="e_fr_energy">   -358.38685429 </i>
    <i name="e_wo_entrp">   -357.25972861 </i>
    <i name="e_0_energy">   -357.82329145 </i>
   </energy>
  </scstep>
  <scstep>
   <time name="dav">    1.97    1.98</time>
   <time name="total">    2.06    2.07</time>
   <energy>
    <i name="e_fr_energy">   -358.37822579 </i>
    <i name="e_wo_entrp">   -357.25181595 </i>
    <i name="e_0_energy">   -357.81502087 </i>
   </energy>
  </scstep>
  <scstep>
   <time name="dav">    2.18    2.19</time>
   <time name="total">    2.27    2.28</time>
   <energy>
    <i name="e_fr_energy">   -358.39919080 </i>
    <i name="e_wo_entrp">   -357.27090048 </i>
    <i name="e_0_energy">   -357.83504564 </i>
   </energy>
  </scstep>
  <scstep>
   <time name="dav">    1.98    1.99</time>
   <time name="total">    2.07    2.08</time>
   <energy>
    <i name="e_fr_energy">   -358.37158840 </i>
    <i name="e_wo_entrp">   -357.25543871 </i>
    <i name="e_0_energy">   -357.81351356 </i>
   </energy>
  </scstep>
  <scstep>
   <time name="dav">    2.17    2.17</time>
   <time name="total">    2.26    2.27</time>
   <energy>
    <i name="e_fr_energy">   -358.37409526 </i>
    <i name="e_wo_entrp">   -357.24772943 </i>
    <i name="e_0_energy">   -357.81091234 </i>
   </energy>
  </scstep>
  <scstep>
   <time name="dav">    2.22    2.23</time>
   <time name="total">    2.32    2.32</time>
   <energy>
    <i name="e_fr_energy">   -358.36040518 </i>
    <i name="e_wo_entrp">   -357.24680048 </i>
    <i name="e_0_energy">   -357.80360283 </i>
   </energy>
  </scstep>
  <scstep>
   <time name="dav">    2.14    2.15</time>
   <time name="total">    2.24    2.24</time>
   <energy>
    <i name="e_fr_energy">   -358.35824811 </i>
    <i name="e_wo_entrp">   -357.23833428 </i>
    <i name="e_0_energy">   -357.79829119 </i>
   </energy>
  </scstep>
  <scstep>
   <time name="dav">    1.95    1.96</time>
   <time name="total">    2.05    2.05</time>
   <energy>
    <i name="e_fr_energy">   -358.35605552 </i>
    <i name="e_wo_entrp">   -357.23965884 </i>
    <i name="e_0_energy">   -357.79785718 </i>
   </energy>
  </scstep>
  <scstep>
   <time name="dav">    2.11    2.12</time>
   <time name="total">    2.21    2.21</time>
   <energy>
    <i name="e_fr_energy">   -358.35582370 </i>
    <i name="e_wo_entrp">   -357.23916945 </i>
    <i name="e_0_energy">   -357.79749657 </i>
   </energy>
  </scstep>
  <scstep>
   <time name="dav">    1.88    1.89</time>
   <time name="total">    1.98    1.98</time>
   <energy>
    <i name="e_fr_energy">   -358.35569442 </i>
    <i name="e_wo_entrp">   -357.23857760 </i>
    <i name="e_0_energy">   -357.79713601 </i>
   </energy>
  </scstep>
  <scstep>
   <time name="dav">    1.77    1.77</time>
   <time name="total">    1.87    1.87</time>
   <energy>
    <i name="e_fr_energy">   -358.35590566 </i>
    <i name="e_wo_entrp">   -357.23943733 </i>
    <i name="e_0_energy">   -357.79767150 </i>
   </energy>
  </scstep>
  <scstep>
   <time name="dav">    1.58    1.58</time>
   <time name="total">    1.68    1.68</time>
   <energy>
    <i name="e_fr_energy">   -358.35609404 </i>
    <i name="e_wo_entrp">   -357.23901204 </i>
    <i name="e_0_energy">   -357.79755304 </i>
   </energy>
  </scstep>
  <scstep>
   <time name="dav">    1.28    1.29</time>
   <time name="total">    1.38    1.38</time>
   <energy>
    <i name="e_fr_energy">   -358.35628985 </i>
    <i name="e_wo_entrp">   -357.24018708 </i>
    <i name="e_0_energy">   -357.79823847 </i>
   </energy>
  </scstep>
  <scstep>
   <time name="dav">    1.23    1.23</time>
   <time name="total">    1.32    1.33</time>
   <energy>
    <i name="e_fr_energy">   -358.35671822 </i>
    <i name="e_wo_entrp">   -357.24000005 </i>
    <i name="e_0_energy">   -357.79835913 </i>
   </energy>
  </scstep>
  <scstep>
   <time name="dav">    1.24    1.24</time>
   <time name="total">    1.33    1.33</time>
   <energy>
    <i name="e_fr_energy">   -358.35688921 </i>
    <i name="e_wo_entrp">   -357.24027545 </i>
    <i name="e_0_energy">   -357.79858233 </i>
   </energy>
  </scstep>
  <scstep>
   <time name="dav">    1.26    1.27</time>
   <time name="total">    1.35    1.36</time>
   <energy>
    <i name="e_fr_energy">   -358.35743235 </i>
    <i name="e_wo_entrp">   -357.24064843 </i>
    <i name="e_0_energy">   -357.79904039 </i>
   </energy>
  </scstep>
  <scstep>
   <time name="dav">    1.24    1.24</time>
   <time name="total">    1.33    1.33</time>
   <energy>
    <i name="e_fr_energy">   -358.35776083 </i>
    <i name="e_wo_entrp">   -357.24092554 </i>
    <i name="e_0_energy">   -357.79934318 </i>
   </energy>
  </scstep>
  <scstep>
   <time name="dav">    1.29    1.30</time>
   <time name="total">    1.39    1.39</time>
   <energy>
    <i name="e_fr_energy">   -358.35823974 </i>
    <i name="e_wo_entrp">   -357.24147465 </i>
    <i name="e_0_energy">   -357.79985720 </i>
   </energy>
  </scstep>
  <scstep>
   <time name="dav">    1.24    1.24</time>
   <time name="total">    1.33    1.33</time>
   <energy>
    <i name="e_fr_energy">   -358.35847636 </i>
    <i name="e_wo_entrp">   -357.24184862 </i>
    <i name="e_0_energy">   -357.80016249 </i>
   </energy>
  </scstep>
  <scstep>
   <time name="dav">    1.26    1.26</time>
   <time name="total">    1.36    1.36</time>
   <energy>
    <i name="e_fr_energy">   -358.35886892 </i>
    <i name="e_wo_entrp">   -357.24211221 </i>
    <i name="e_0_energy">   -357.80049056 </i>
   </energy>
  </scstep>
  <scstep>
   <time name="dav">    1.26    1.26</time>
   <time name="total">    1.36    1.36</time>
   <energy>
    <i name="e_fr_energy">   -358.35900305 </i>
    <i name="e_wo_entrp">   -357.24229975 </i>
    <i name="e_0_energy">   -357.80065140 </i>
   </energy>
  </scstep>
  <scstep>
   <time name="dav">    1.25    1.25</time>
   <time name="total">    1.35    1.35</time>
   <energy>
    <i name="e_fr_energy">   -358.35916479 </i>
    <i name="e_wo_entrp">   -357.24240744 </i>
    <i name="e_0_energy">   -357.80078611 </i>
   </energy>
  </scstep>
  <scstep>
   <time name="dav">    1.29    1.30</time>
   <time name="total">    1.34    1.35</time>
   <energy>
    <i name="alphaZ">   1909.09476555 </i>
    <i name="ewald"> 166280.59588449 </i>
    <i name="hartreedc">-288130.14451466 </i>
    <i name="XCdc">   3623.62538435 </i>
    <i name="pawpsdc"> 130779.26755057 </i>
    <i name="pawaedc">-135750.53263244 </i>
    <i name="eentropy">     -1.11674328 </i>
    <i name="bandstr"> -15071.75399629 </i>
    <i name="atom"> 136002.60505376 </i>
    <i name="e_fr_energy">   -358.35924794 </i>
    <i name="e_wo_entrp">   -357.24250466 </i>
    <i name="e_0_energy">   -357.80087630 </i>
   </energy>
  </scstep>
  <structure>
   <crystal>
    <varray name="basis" >
     <v>       9.42510255       3.57329804       0.00000000 </v>
     <v>       0.00000000      10.07973298       0.00000000 </v>
     <v>       0.00000000       0.00000000      20.51013988 </v>
    </varray>
    <i name="volume">   1948.51491473 </i>
    <varray name="rec_basis" >
     <v>       0.10609964       0.00000000       0.00000000 </v>
     <v>      -0.03761267       0.09920898       0.00000000 </v>
     <v>       0.00000000       0.00000000       0.04875637 </v>
    </varray>
   </crystal>
   <varray name="positions" >
    <v>       0.37433215       0.75136220       0.09511235 </v>
    <v>       0.52460066       0.60109368       0.22312232 </v>
    <v>       0.67486918       0.45082517       0.35113229 </v>
    <v>       0.82513769       0.30055666       0.47914226 </v>
    <v>       0.60748648       0.18487454       0.00977237 </v>
    <v>       0.75775499       0.03460603       0.13778234 </v>
    <v>       0.05829201       0.73406900       0.39380228 </v>
    <v>       0.90802350       0.88433751       0.26579231 </v>
    <v>       0.14117783       0.31784985       0.18045233 </v>
    <v>       0.29144634       0.16758134       0.30846230 </v>
    <v>       0.44171485       0.01731283       0.43647227 </v>
    <v>       0.99090931       0.46811837       0.05244236 </v>
    <v>       0.00994000       0.11575434       0.41150025 </v>
    <v>       0.55913447       0.56655988       0.02747034 </v>
    <v>       0.70940298       0.41629137       0.15548031 </v>
    <v>       0.85967149       0.26602286       0.28349028 </v>
    <v>       0.09282582       0.69953520       0.19815030 </v>
    <v>       0.24309433       0.54926668       0.32616027 </v>
    <v>       0.39336284       0.39899817       0.45417024 </v>
    <v>       0.94255730       0.84980371       0.07014033 </v>
    <v>       0.32598014       0.13304754       0.11281032 </v>
    <v>       0.47624865       0.98277903       0.24082029 </v>
    <v>       0.62651717       0.83251052       0.36883026 </v>
    <v>       0.77678568       0.68224200       0.49684023 </v>
    <v>       0.04964185       0.34025850       0.44532126 </v>
    <v>       0.59883631       0.79106404       0.06129134 </v>
    <v>       0.74910482       0.64079553       0.18930132 </v>
    <v>       0.89937333       0.49052701       0.31731129 </v>
    <v>       0.98225915       0.07430787       0.10396133 </v>
    <v>       0.13252766       0.92403935       0.23197131 </v>
    <v>       0.28279617       0.77377084       0.35998128 </v>
    <v>       0.43306468       0.62350233       0.48799125 </v>
    <v>       0.21541347       0.50782021       0.01862135 </v>
    <v>       0.36568198       0.35755170       0.14663132 </v>
    <v>       0.51595050       0.20728318       0.27464130 </v>
    <v>       0.66621901       0.05701467       0.40265127 </v>
    <v>       0.06382158       0.26208477       0.34135992 </v>
    <v>       0.21409009       0.11181626       0.46936989 </v>
    <v>       0.76328455       0.56262179       0.08533998 </v>
    <v>       0.91355307       0.41235328       0.21334995 </v>
    <v>       0.14670739       0.84586562       0.12800997 </v>
    <v>       0.29697590       0.69559711       0.25601994 </v>
    <v>       0.44724442       0.54532860       0.38402991 </v>
    <v>       0.59751293       0.39506009       0.51203988 </v>
    <v>       0.99643888       0.99613414       0.00000000 </v>
    <v>       0.37986171       0.27937797       0.04266999 </v>
    <v>       0.53013023       0.12910945       0.17067996 </v>
    <v>       0.68039874       0.97884094       0.29868993 </v>
    <v>       0.83066725       0.82857243       0.42669990 </v>
    <v>       0.37769571       0.94821064       0.04346280 </v>
    <v>       0.52796422       0.79794212       0.17147277 </v>
    <v>       0.67823274       0.64767361       0.29948274 </v>
    <v>       0.82850125       0.49740510       0.42749271 </v>
    <v>       0.76111855       0.23145446       0.08613279 </v>
    <v>       0.91138706       0.08118595       0.21414276 </v>
    <v>       0.06165557       0.93091744       0.34215273 </v>
    <v>       0.21192409       0.78064893       0.47016270 </v>
    <v>       0.14454139       0.51469829       0.12880278 </v>
    <v>       0.29480990       0.36442978       0.25681275 </v>
    <v>       0.44507841       0.21416127       0.38482272 </v>
    <v>       0.99427287       0.66496681       0.00079281 </v>
    <v>       0.47740939       0.51206696       0.12840637 </v>
    <v>       0.62767790       0.36179845       0.25641634 </v>
    <v>       0.77794641       0.21152993       0.38442631 </v>
    <v>       0.01110074       0.64504228       0.29908633 </v>
    <v>       0.16136925       0.49477376       0.42709630 </v>
    <v>       0.71056371       0.94557930       0.04306639 </v>
    <v>       0.86083223       0.79531079       0.17107636 </v>
    <v>       0.09398655       0.22882313       0.08573638 </v>
    <v>       0.24425506       0.07855462       0.21374635 </v>
    <v>       0.39452358       0.92828610       0.34175632 </v>
    <v>       0.54479209       0.77801759       0.46976629 </v>
   </varray>
  </structure>
  <varray name="forces" >
   <v>       0.12266159       0.57992116       0.14320801 </v>
   <v>       0.01753874       0.16272538      -0.06730647 </v>
   <v>       0.13838767      -0.00609194       0.08675532 </v>
   <v>      -1.31379024       0.54900016      -1.10491340 </v>
   <v>      -0.14647369      -0.26643860       1.85823054 </v>
   <v>      -0.12443093       0.11409354      -0.05826234 </v>
   <v>       0.25227875       0.02278444       0.54129245 </v>
   <v>       0.21256117       0.12159283      -0.06084953 </v>
   <v>      -0.09882252      -0.04363263      -0.14574593 </v>
   <v>       0.14678583       0.06090469       0.04249305 </v>
   <v>      -0.71348083      -0.34480373      -0.40500754 </v>
   <v>       0.11162569       0.64059705       0.49378696 </v>
   <v>       0.57090083       0.63121367      -0.39996082 </v>
   <v>       0.48083892      -0.13535418       1.82030902 </v>
   <v>      -0.22392432      -0.01034446      -0.22396237 </v>
   <v>       0.07333941       0.01427895       0.06028517 </v>
   <v>      -0.07400153       0.03359517      -0.10478534 </v>
   <v>      -0.07875911      -0.08415576       0.04084057 </v>
   <v>       0.51364020       0.68731359      -0.60123772 </v>
   <v>      -0.03083069       0.23996596      -0.67888826 </v>
   <v>      -0.29125005      -0.05947448      -0.32654890 </v>
   <v>       0.04854932      -0.04158692      -0.08670647 </v>
   <v>       0.04185601       0.06327467       0.35406169 </v>
   <v>      -0.71830209       0.17917121      -2.02441881 </v>
   <v>       0.52105541      -0.14112404      -0.82178106 </v>
   <v>      -0.43206824       0.61083337       0.42356456 </v>
   <v>      -0.06625392       0.09054318      -0.02417758 </v>
   <v>       0.08603077      -0.02312278       0.04690726 </v>
   <v>      -0.03123327       0.09306477      -0.57952126 </v>
   <v>      -0.04261382      -0.03823121       0.05154913 </v>
   <v>      -0.05054952      -0.09536299       0.34394676 </v>
   <v>       0.18871829      -0.21998098      -0.87384893 </v>
   <v>      -0.60374269      -0.55302888       1.17668577 </v>
   <v>       0.07632116      -0.10881865      -0.10470359 </v>
   <v>       0.07885002      -0.03539173       0.06899637 </v>
   <v>       0.34924657       0.17717984      -0.64931752 </v>
   <v>      -0.28200045      -0.06444934       0.07302141 </v>
   <v>      -1.15639162       0.18082368       0.27009111 </v>
   <v>      -0.37391134       0.07965020      -1.49516328 </v>
   <v>       0.01841575       0.00427402      -0.02096218 </v>
   <v>       0.30487777      -0.14493278      -0.62819701 </v>
   <v>       0.06665361      -0.07189283       0.20116841 </v>
   <v>      -0.44503155      -0.07171474       0.15018067 </v>
   <v>      -0.98290788       0.05216907       0.17096347 </v>
   <v>      -0.04434695      -0.22731242       0.98535740 </v>
   <v>       0.72678768       1.06402104      -1.23036060 </v>
   <v>      -0.16931886      -0.13719499      -0.06138385 </v>
   <v>      -0.19612836      -0.22057578       0.01457059 </v>
   <v>      -0.70858575      -0.23597060       1.04670344 </v>
   <v>       0.73153699      -0.96799794       0.23740456 </v>
   <v>       0.20192734      -0.34032412       0.22001952 </v>
   <v>       0.00497811      -0.10210531      -0.10948945 </v>
   <v>       0.47845180      -0.13610134       1.19318914 </v>
   <v>      -0.41101196      -0.26020277      -0.63876452 </v>
   <v>      -0.06152547      -0.07402404      -0.22357999 </v>
   <v>      -0.02842287      -0.17450391       0.18073852 </v>
   <v>       0.45915095      -0.07036301      -0.60638221 </v>
   <v>       0.35653151      -0.30174439      -0.28683252 </v>
   <v>      -0.06599671      -0.13791132      -0.17936998 </v>
   <v>       0.36077432      -0.39138538       1.01405135 </v>
   <v>       1.21141953      -0.85240117       0.28596209 </v>
   <v>      -0.45643511       0.50557489      -0.98476307 </v>
   <v>      -0.01218010      -0.05096973       0.10970732 </v>
   <v>       0.62941725      -0.40384953       1.09511724 </v>
   <v>       0.02430883      -0.00900200       0.12130279 </v>
   <v>       0.62659855      -0.13065236       0.65594297 </v>
   <v>      -0.32048028      -0.02314672      -0.37521181 </v>
   <v>       0.03160877       0.10101135       0.00126473 </v>
   <v>      -0.46276823       0.16422302       0.07751654 </v>
   <v>       0.13002792      -0.00186744       0.03766471 </v>
   <v>       0.22152900       0.04576964      -0.06876619 </v>
   <v>       0.60178892       0.53996941       0.55631990 </v>
  </varray>
  <varray name="stress" >
   <v>     -29.18770494       5.47113541      -7.72122337 </v>
   <v>       5.47113545     -22.56253549       5.38181386 </v>
   <v>      -7.72122343       5.38181374     -16.80632925 </v>
  </varray>
  <energy>
   <i name="e_fr_energy">   -358.35924794 </i>
   <i name="e_wo_entrp">   -357.24250466 </i>
   <i name="e_0_energy">   -357.80087630 </i>
  </energy>
  <time name="totalsc">   86.70   87.00</time>
  <eigenvalues>
   <array>
    <dimension dim="1">band</dimension>
    <dimension dim="2">kpoint</dimension>
    <dimension dim="3">spin</dimension>
    <field>eigene</field>
    <field>occ</field>
    <set>
     <set comment="spin 1">
      <set comment="kpoint 1">
       <r>  -62.7488    1.0000 </r>
       <r>  -62.7320    1.0000 </r>
       <r>  -62.7205    1.0000 </r>
       <r>  -62.7196    1.0000 </r>
       <r>  -62.7112    1.0000 </r>
       <r>  -62.7077    1.0000 </r>
       <r>  -62.7048    1.0000 </r>
       <r>  -62.7034    1.0000 </r>
       <r>  -62.7027    1.0000 </r>
       <r>  -62.6984    1.0000 </r>
       <r>  -62.6961    1.0000 </r>
       <r>  -62.6960    1.0000 </r>
       <r>  -62.6931    1.0000 </r>
       <r>  -62.6911    1.0000 </r>
       <r>  -62.6890    1.0000 </r>
       <r>  -62.6840    1.0000 </r>
       <r>  -62.6831    1.0000 </r>
       <r>  -62.6786    1.0000 </r>
       <r>  -62.6776    1.0000 </r>
       <r>  -62.6763    1.0000 </r>
       <r>  -62.6719    1.0000 </r>
       <r>  -62.6668    1.0000 </r>
       <r>  -62.6606    1.0000 </r>
       <r>  -62.6583    1.0000 </r>
       <r>  -62.6563    1.0000 </r>
       <r>  -62.6553    1.0000 </r>
       <r>  -62.6510    1.0000 </r>
       <r>  -62.6441    1.0000 </r>
       <r>  -62.6428    1.0000 </r>
       <r>  -62.6389    1.0000 </r>
       <r>  -62.6324    1.0000 </r>
       <r>  -62.6263    1.0000 </r>
       <r>  -62.6206    1.0000 </r>
       <r>  -62.6193    1.0000 </r>
       <r>  -62.6187    1.0000 </r>
       <r>  -62.6119    1.0000 </r>
       <r>  -62.6078    1.0000 </r>
       <r>  -62.6011    1.0000 </r>
       <r>  -62.5977    1.0000 </r>
       <r>  -62.5922    1.0000 </r>
       <r>  -62.5855    1.0000 </r>
       <r>  -62.5843    1.0000 </r>
       <r>  -62.5772    1.0000 </r>
       <r>  -62.5764    1.0000 </r>
       <r>  -62.5717    1.0000 </r>
       <r>  -62.5593    1.0000 </r>
       <r>  -62.5493    1.0000 </r>
       <r>  -62.5450    1.0000 </r>
       <r>  -62.5433    1.0000 </r>
       <r>  -62.4989    1.0000 </r>
       <r>  -62.4986    1.0000 </r>
       <r>  -62.4972    1.0000 </r>
       <r>  -62.4895    1.0000 </r>
       <r>  -62.4895    1.0000 </r>
       <r>  -62.4729    1.0000 </r>
       <r>  -62.4653    1.0000 </r>
       <r>  -62.4644    1.0000 </r>
       <r>  -62.4614    1.0000 </r>
       <r>  -62.4455    1.0000 </r>
       <r>  -62.4334    1.0000 </r>
       <r>  -62.4319    1.0000 </r>
       <r>  -62.4082    1.0000 </r>
       <r>  -62.4060    1.0000 </r>
       <r>  -62.4048    1.0000 </r>
       <r>  -62.4039    1.0000 </r>
       <r>  -62.3975    1.0000 </r>
       <r>  -62.3878    1.0000 </r>
       <r>  -62.3862    1.0000 </r>
       <r>  -62.3800    1.0000 </r>
       <r>  -62.3791    1.0000 </r>
       <r>  -62.3669    1.0000 </r>
       <r>  -62.3584    1.0000 </r>
       <r>  -62.3543    1.0000 </r>
       <r>  -62.3515    1.0000 </r>
       <r>  -62.3201    1.0000 </r>
       <r>  -62.3138    1.0000 </r>
       <r>  -62.3067    1.0000 </r>
       <r>  -62.2938    1.0000 </r>
       <r>  -62.2911    1.0000 </r>
       <r>  -62.2523    1.0000 </r>
       <r>  -62.2511    1.0000 </r>
       <r>  -62.2495    1.0000 </r>
       <r>  -62.2198    1.0000 </r>
       <r>  -62.2180    1.0000 </r>
       <r>  -62.1972    1.0000 </r>
       <r>  -62.1826    1.0000 </r>
       <r>  -62.1346    1.0000 </r>
       <r>  -62.1099    1.0000 </r>
       <r>  -62.0982    1.0000 </r>
       <r>  -62.0398    1.0000 </r>
       <r>  -62.0240    1.0000 </r>
       <r>  -62.0030    1.0000 </r>
       <r>  -61.9707    1.0000 </r>
       <r>  -61.9244    1.0000 </r>
       <r>  -61.9107    1.0000 </r>
       <r>  -61.8854    1.0000 </r>
       <r>  -61.8659    1.0000 </r>
       <r>  -61.8622    1.0000 </r>
       <r>  -61.8389    1.0000 </r>
       <r>  -61.6892    1.0000 </r>
       <r>  -61.6728    1.0000 </r>
       <r>  -61.6716    1.0000 </r>
       <r>  -61.5350    1.0000 </r>
       <r>  -61.4177    1.0000 </r>
       <r>  -61.4086    1.0000 </r>
       <r>  -61.3574    1.0000 </r>
       <r>  -61.3294    1.0000 </r>
       <r>  -61.2854    1.0000 </r>
       <r>  -14.0434    1.0000 </r>
       <r>  -13.3917    1.0000 </r>
       <r>  -13.2312    1.0000 </r>
       <r>  -13.2049    1.0000 </r>
       <r>  -13.0563    1.0000 </r>
       <r>  -13.0326    1.0000 </r>
       <r>  -12.8055    1.0000 </r>
       <r>  -12.8033    1.0000 </r>
       <r>  -12.6801    1.0000 </r>
       <r>  -12.6484    1.0000 </r>
       <r>  -12.6393    1.0000 </r>
       <r>  -12.5714    1.0000 </r>
       <r>  -12.5291    1.0000 </r>
       <r>  -12.3580    1.0000 </r>
       <r>  -12.2772    1.0000 </r>
       <r>  -12.1977    1.0000 </r>
       <r>  -12.1921    1.0000 </r>
       <r>  -12.1452    1.0000 </r>
       <r>  -12.1384    1.0000 </r>
       <r>  -12.0454    1.0000 </r>
       <r>  -11.9808    1.0000 </r>
       <r>  -11.9363    1.0000 </r>
       <r>  -11.8877    1.0000 </r>
       <r>  -11.8606    1.0000 </r>
       <r>  -11.7895    1.0000 </r>
       <r>  -11.6854    1.0000 </r>
       <r>  -11.6649    1.0000 </r>
       <r>  -11.5220    1.0000 </r>
       <r>  -11.5067    1.0000 </r>
       <r>  -11.3343    1.0000 </r>
       <r>  -11.1547    1.0000 </r>
       <r>  -11.0571    1.0000 </r>
       <r>  -10.9856    1.0000 </r>
       <r>  -10.8018    1.0000 </r>
       <r>  -10.7630    1.0000 </r>
       <r>  -10.5175    1.0000 </r>
       <r>   -5.7870    1.0000 </r>
       <r>   -5.7360    1.0000 </r>
       <r>   -5.7076    1.0000 </r>
       <r>   -5.4419    1.0000 </r>
       <r>   -5.4306    1.0000 </r>
       <r>   -5.2452    1.0000 </r>
       <r>   -5.2099    1.0000 </r>
       <r>   -5.1794    1.0000 </r>
       <r>   -5.1457    1.0000 </r>
       <r>   -5.0172    1.0000 </r>
       <r>   -4.9486    1.0000 </r>
       <r>   -4.9378    1.0000 </r>
       <r>   -4.8970    1.0000 </r>
       <r>   -4.8710    1.0000 </r>
       <r>   -4.8410    1.0000 </r>
       <r>   -4.8271    1.0000 </r>
       <r>   -4.7956    1.0000 </r>
       <r>   -4.7441    1.0000 </r>
       <r>   -4.6863    1.0000 </r>
       <r>   -4.6685    1.0000 </r>
       <r>   -4.6046    1.0000 </r>
       <r>   -4.5694    1.0000 </r>
       <r>   -4.5460    1.0000 </r>
       <r>   -4.5195    1.0000 </r>
       <r>   -4.4568    1.0000 </r>
       <r>   -4.4169    1.0000 </r>
       <r>   -4.3791    1.0000 </r>
       <r>   -4.3452    1.0000 </r>
       <r>   -4.3112    1.0000 </r>
       <r>   -4.1789    1.0000 </r>
       <r>   -4.1297    1.0000 </r>
       <r>   -4.0361    1.0000 </r>
       <r>   -3.9976    1.0000 </r>
       <r>   -3.9660    1.0000 </r>
       <r>   -3.9350    1.0000 </r>
       <r>   -3.9058    1.0000 </r>
       <r>   -3.8445    1.0000 </r>
       <r>   -3.7774    1.0000 </r>
       <r>   -3.7668    1.0000 </r>
       <r>   -3.6442    1.0000 </r>
       <r>   -3.6028    1.0000 </r>
       <r>   -3.5568    1.0000 </r>
       <r>   -3.5341    1.0000 </r>
       <r>   -3.4529    1.0000 </r>
       <r>   -3.4055    1.0000 </r>
       <r>   -3.3751    1.0000 </r>
       <r>   -3.3229    1.0000 </r>
       <r>   -3.2494    1.0000 </r>
       <r>   -3.1968    1.0000 </r>
       <r>   -3.1823    1.0000 </r>
       <r>   -3.1755    1.0000 </r>
       <r>   -3.1432    1.0000 </r>
       <r>   -3.1246    1.0000 </r>
       <r>   -3.0957    1.0000 </r>
       <r>   -3.0862    1.0000 </r>
       <r>   -3.0624    1.0000 </r>
       <r>   -3.0249    1.0000 </r>
       <r>   -2.9609    1.0000 </r>
       <r>   -2.9444    1.0000 </r>
       <r>   -2.9339    1.0000 </r>
       <r>   -2.9124    1.0000 </r>
       <r>   -2.8839    1.0000 </r>
       <r>   -2.8660    1.0000 </r>
       <r>   -2.8376    1.0000 </r>
       <r>   -2.7967    1.0000 </r>
       <r>   -2.7737    1.0000 </r>
       <r>   -2.7360    1.0000 </r>
       <r>   -2.7127    1.0000 </r>
       <r>   -2.7019    1.0000 </r>
       <r>   -2.6594    1.0000 </r>
       <r>   -2.6459    1.0000 </r>
       <r>   -2.6394    1.0000 </r>
       <r>   -2.6061    1.0000 </r>
       <r>   -2.5548    1.0000 </r>
       <r>   -2.5509    1.0000 </r>
       <r>   -2.5355    1.0000 </r>
       <r>   -2.5217    1.0000 </r>
       <r>   -2.4737    1.0000 </r>
       <r>   -2.4455    1.0000 </r>
       <r>   -2.4246    1.0000 </r>
       <r>   -2.3951    1.0000 </r>
       <r>   -2.3592    1.0000 </r>
       <r>   -2.3475    1.0000 </r>
       <r>   -2.3202    1.0000 </r>
       <r>   -2.2712    1.0000 </r>
       <r>   -2.2631    1.0000 </r>
       <r>   -2.2411    1.0000 </r>
       <r>   -2.2106    1.0000 </r>
       <r>   -2.1396    1.0000 </r>
       <r>   -2.1176    1.0000 </r>
       <r>   -2.0561    1.0000 </r>
       <r>   -2.0464    1.0000 </r>
       <r>   -1.9562    1.0000 </r>
       <r>   -1.8952    1.0000 </r>
       <r>   -1.8437    1.0000 </r>
       <r>   -1.7800    1.0000 </r>
       <r>   -1.7574    1.0000 </r>
       <r>   -1.7393    1.0000 </r>
       <r>   -1.6965    1.0000 </r>
       <r>   -1.6200    1.0000 </r>
       <r>   -1.5863    1.0000 </r>
       <r>   -1.5343    1.0000 </r>
       <r>   -1.5032    1.0000 </r>
       <r>   -1.4859    1.0000 </r>
       <r>   -1.4454    1.0000 </r>
       <r>   -1.4124    1.0000 </r>
       <r>   -1.3612    1.0000 </r>
       <r>   -1.3089    1.0000 </r>
       <r>   -1.2960    1.0000 </r>
       <r>   -1.2659    1.0000 </r>
       <r>   -1.2376    1.0000 </r>
       <r>   -1.1986    1.0000 </r>
       <r>   -1.1664    1.0000 </r>
       <r>   -1.1485    1.0000 </r>
       <r>   -1.0685    1.0000 </r>
       <r>   -1.0595    1.0000 </r>
       <r>   -1.0421    1.0000 </r>
       <r>   -1.0374    1.0000 </r>
       <r>   -1.0066    1.0000 </r>
       <r>   -0.9795    1.0000 </r>
       <r>   -0.9673    1.0000 </r>
       <r>   -0.9611    1.0000 </r>
       <r>   -0.9329    1.0000 </r>
       <r>   -0.9037    1.0000 </r>
       <r>   -0.8679    1.0000 </r>
       <r>   -0.8410    1.0000 </r>
       <r>   -0.8361    1.0000 </r>
       <r>   -0.8164    1.0000 </r>
       <r>   -0.7979    1.0000 </r>
       <r>   -0.7917    1.0000 </r>
       <r>   -0.7755    1.0000 </r>
       <r>   -0.7584    1.0000 </r>
       <r>   -0.7195    1.0000 </r>
       <r>   -0.7167    1.0000 </r>
       <r>   -0.7109    1.0000 </r>
       <r>   -0.6857    1.0000 </r>
       <r>   -0.6343    1.0000 </r>
       <r>   -0.6313    1.0000 </r>
       <r>   -0.6073    1.0000 </r>
       <r>   -0.5779    1.0000 </r>
       <r>   -0.5635    1.0000 </r>
       <r>   -0.5536    1.0000 </r>
       <r>   -0.5305    1.0000 </r>
       <r>   -0.5219    1.0000 </r>
       <r>   -0.5079    1.0000 </r>
       <r>   -0.4980    1.0000 </r>
       <r>   -0.4900    1.0000 </r>
       <r>   -0.4764    1.0000 </r>
       <r>   -0.4441    1.0000 </r>
       <r>   -0.4411    1.0000 </r>
       <r>   -0.4203    1.0000 </r>
       <r>   -0.4030    1.0000 </r>
       <r>   -0.4009    1.0000 </r>
       <r>   -0.3908    1.0000 </r>
       <r>   -0.3751    1.0000 </r>
       <r>   -0.3655    1.0000 </r>
       <r>   -0.3637    1.0000 </r>
       <r>   -0.3520    1.0000 </r>
       <r>   -0.3476    1.0000 </r>
       <r>   -0.3290    1.0000 </r>
       <r>   -0.3202    1.0000 </r>
       <r>   -0.2923    1.0000 </r>
       <r>   -0.2882    1.0000 </r>
       <r>   -0.2819    1.0000 </r>
       <r>   -0.2719    1.0000 </r>
       <r>   -0.2563    1.0000 </r>
       <r>   -0.2454    1.0000 </r>
       <r>   -0.2411    1.0000 </r>
       <r>   -0.2306    1.0000 </r>
       <r>   -0.2237    1.0000 </r>
       <r>   -0.2074    1.0000 </r>
       <r>   -0.2028    1.0000 </r>
       <r>   -0.1883    1.0000 </r>
       <r>   -0.1844    1.0000 </r>
       <r>   -0.1602    1.0000 </r>
       <r>   -0.1539    1.0000 </r>
       <r>   -0.1459    1.0000 </r>
       <r>   -0.1306    1.0000 </r>
       <r>   -0.1239    1.0000 </r>
       <r>   -0.1146    1.0000 </r>
       <r>   -0.1021    1.0000 </r>
       <r>   -0.0996    1.0000 </r>
       <r>   -0.0866    1.0000 </r>
       <r>   -0.0591    1.0000 </r>
       <r>   -0.0578    1.0000 </r>
       <r>   -0.0489    1.0000 </r>
       <r>   -0.0316    1.0000 </r>
       <r>   -0.0266    1.0000 </r>
       <r>   -0.0080    1.0000 </r>
       <r>   -0.0053    1.0000 </r>
       <r>    0.0072    1.0000 </r>
       <r>    0.0182    1.0000 </r>
       <r>    0.0278    1.0000 </r>
       <r>    0.0371    1.0000 </r>
       <r>    0.0500    1.0000 </r>
       <r>    0.0707    1.0000 </r>
       <r>    0.0788    1.0000 </r>
       <r>    0.0930    1.0000 </r>
       <r>    0.1037    1.0000 </r>
       <r>    0.1263    1.0000 </r>
       <r>    0.1282    1.0000 </r>
       <r>    0.1603    1.0000 </r>
       <r>    0.1663    1.0000 </r>
       <r>    0.1925    1.0000 </r>
       <r>    0.2045    1.0000 </r>
       <r>    0.2175    1.0000 </r>
       <r>    0.2291    1.0000 </r>
       <r>    0.2358    1.0000 </r>
       <r>    0.2638    1.0000 </r>
       <r>    0.2755    1.0000 </r>
       <r>    0.3044    1.0000 </r>
       <r>    0.3185    1.0000 </r>
       <r>    0.3444    1.0000 </r>
       <r>    0.3585    1.0000 </r>
       <r>    0.3953    1.0000 </r>
       <r>    0.4105    1.0000 </r>
       <r>    0.4239    1.0000 </r>
       <r>    0.4358    1.0000 </r>
       <r>    0.4698    1.0000 </r>
       <r>    0.4760    1.0000 </r>
       <r>    0.5112    1.0000 </r>
       <r>    0.5197    1.0000 </r>
       <r>    0.5517    1.0000 </r>
       <r>    0.5653    1.0000 </r>
       <r>    0.6095    1.0000 </r>
       <r>    0.6241    1.0000 </r>
       <r>    0.6466    1.0000 </r>
       <r>    0.6610    1.0000 </r>
       <r>    0.6934    1.0000 </r>
       <r>    0.7053    1.0000 </r>
       <r>    0.7234    1.0000 </r>
       <r>    0.7491    1.0000 </r>
       <r>    0.7665    1.0000 </r>
       <r>    0.7820    1.0000 </r>
       <r>    0.7902    1.0000 </r>
       <r>    0.8130    1.0000 </r>
       <r>    0.8489    1.0000 </r>
       <r>    0.8789    1.0000 </r>
       <r>    0.9228    0.9999 </r>
       <r>    0.9367    0.9998 </r>
       <r>    0.9610    0.9996 </r>
       <r>    1.0200    0.9984 </r>
       <r>    1.0443    0.9972 </r>
       <r>    1.0818    0.9939 </r>
       <r>    1.1240    0.9865 </r>
       <r>    1.1283    0.9854 </r>
       <r>    1.2177    0.9392 </r>
       <r>    1.2799    0.8660 </r>
       <r>    1.3300    0.7744 </r>
       <r>    1.3474    0.7359 </r>
       <r>    1.4002    0.6017 </r>
       <r>    1.4487    0.4659 </r>
       <r>    1.4513    0.4585 </r>
       <r>    1.5001    0.3267 </r>
       <r>    1.5344    0.2447 </r>
       <r>    1.5451    0.2215 </r>
       <r>    1.5733    0.1669 </r>
       <r>    1.6228    0.0940 </r>
       <r>    1.6400    0.0752 </r>
       <r>    1.6846    0.0397 </r>
       <r>    1.7583    0.0115 </r>
       <r>    1.7714    0.0090 </r>
       <r>    1.8003    0.0051 </r>
       <r>    1.8448    0.0019 </r>
       <r>    1.8785    0.0009 </r>
       <r>    1.9048    0.0005 </r>
       <r>    1.9228    0.0003 </r>
       <r>    1.9589    0.0001 </r>
       <r>    1.9984    0.0000 </r>
       <r>    2.0264    0.0000 </r>
       <r>    2.1037    0.0000 </r>
       <r>    2.1111    0.0000 </r>
       <r>    2.1478    0.0000 </r>
       <r>    2.1574    0.0000 </r>
       <r>    2.1892    0.0000 </r>
       <r>    2.2208    0.0000 </r>
       <r>    2.2574    0.0000 </r>
       <r>    2.2660    0.0000 </r>
       <r>    2.3392    0.0000 </r>
       <r>    2.3504    0.0000 </r>
       <r>    2.3663    0.0000 </r>
       <r>    2.3882    0.0000 </r>
       <r>    2.4374    0.0000 </r>
       <r>    2.4638    0.0000 </r>
       <r>    2.5011    0.0000 </r>
       <r>    2.5602    0.0000 </r>
       <r>    2.5718    0.0000 </r>
       <r>    2.6611    0.0000 </r>
       <r>    3.0704    0.0000 </r>
       <r>    3.6231    0.0000 </r>
       <r>    3.9471    0.0000 </r>
       <r>    4.1645    0.0000 </r>
       <r>    4.5672    0.0000 </r>
       <r>    4.6070    0.0000 </r>
       <r>    4.6788    0.0000 </r>
       <r>    4.8296    0.0000 </r>
       <r>    4.9155    0.0000 </r>
       <r>    5.0964    0.0000 </r>
       <r>    5.2707    0.0000 </r>
       <r>    5.3179    0.0000 </r>
       <r>    5.5607    0.0000 </r>
       <r>    5.6348    0.0000 </r>
       <r>    5.7291    0.0000 </r>
       <r>    5.8247    0.0000 </r>
       <r>    5.8931    0.0000 </r>
       <r>    5.9090    0.0000 </r>
       <r>    5.9315    0.0000 </r>
       <r>    5.9980    0.0000 </r>
       <r>    6.2016    0.0000 </r>
       <r>    6.2345    0.0000 </r>
       <r>    6.3021    0.0000 </r>
       <r>    6.3254    0.0000 </r>
       <r>    6.3961    0.0000 </r>
       <r>    6.4362    0.0000 </r>
       <r>    6.5799    0.0000 </r>
       <r>    6.6165    0.0000 </r>
       <r>    6.6848    0.0000 </r>
       <r>    6.7398    0.0000 </r>
       <r>    6.8479    0.0000 </r>
       <r>    6.8918    0.0000 </r>
       <r>    6.9601    0.0000 </r>
       <r>    7.0335    0.0000 </r>
       <r>    7.0689    0.0000 </r>
       <r>    7.1264    0.0000 </r>
       <r>    7.1574    0.0000 </r>
       <r>    7.2110    0.0000 </r>
       <r>    7.2615    0.0000 </r>
       <r>    7.3005    0.0000 </r>
       <r>    7.3253    0.0000 </r>
       <r>    7.4221    0.0000 </r>
       <r>    7.4570    0.0000 </r>
       <r>    7.4900    0.0000 </r>
       <r>    7.5387    0.0000 </r>
       <r>    7.5846    0.0000 </r>
       <r>    7.6133    0.0000 </r>
       <r>    7.6833    0.0000 </r>
      </set>
     </set>
    </set>
   </array>
  </eigenvalues>
  <separator name="orbital magnetization" >
   <v name="MAGDIPOLOUT">      0.00000000      0.00000000      0.00000000</v>
  </separator>
  <dos>
   <i name="efermi">      1.43659372 </i>
   <total>
    <array>
     <dimension dim="1">gridpoints</dimension>
     <dimension dim="2">spin</dimension>
     <field>energy</field>
     <field>total</field>
     <field>integrated</field>
     <set>
      <set comment="spin 1">
       <r>   -66.2704     0.0000     0.0000 </r>
       <r>   -66.0122     0.0000     0.0000 </r>
       <r>   -65.7539     0.0000     0.0000 </r>
       <r>   -65.4957     0.0000     0.0000 </r>
       <r>   -65.2374     0.0000     0.0000 </r>
       <r>   -64.9792     0.0000     0.0000 </r>
       <r>   -64.7209     0.0000     0.0000 </r>
       <r>   -64.4627     0.0000     0.0000 </r>
       <r>   -64.2044     0.0000     0.0000 </r>
       <r>   -63.9462     0.0000     0.0000 </r>
       <r>   -63.6879     0.0000     0.0000 </r>
       <r>   -63.4297     0.0000     0.0000 </r>
       <r>   -63.1714     0.0899     0.0232 </r>
       <r>   -62.9131    15.0585     3.9121 </r>
       <r>   -62.6549   181.1060    50.6829 </r>
       <r>   -62.3966   293.2705   126.4203 </r>
       <r>   -62.1384   169.0399   170.0750 </r>
       <r>   -61.8801    79.4843   190.6020 </r>
       <r>   -61.6219    45.6597   202.3936 </r>
       <r>   -61.3636    31.7506   210.5933 </r>
       <r>   -61.1054    19.1826   215.5472 </r>
       <r>   -60.8471     1.7417   215.9970 </r>
       <r>   -60.5889     0.0117   216.0000 </r>
       <r>   -60.3306     0.0000   216.0000 </r>
       <r>   -60.0724     0.0000   216.0000 </r>
       <r>   -59.8141     0.0000   216.0000 </r>
       <r>   -59.5559     0.0000   216.0000 </r>
       <r>   -59.2976     0.0000   216.0000 </r>
       <r>   -59.0394     0.0000   216.0000 </r>
       <r>   -58.7811     0.0000   216.0000 </r>
       <r>   -58.5229     0.0000   216.0000 </r>
       <r>   -58.2646     0.0000   216.0000 </r>
       <r>   -58.0064     0.0000   216.0000 </r>
       <r>   -57.7481     0.0000   216.0000 </r>
       <r>   -57.4899     0.0000   216.0000 </r>
       <r>   -57.2316     0.0000   216.0000 </r>
       <r>   -56.9734     0.0000   216.0000 </r>
       <r>   -56.7151     0.0000   216.0000 </r>
       <r>   -56.4569     0.0000   216.0000 </r>
       <r>   -56.1986     0.0000   216.0000 </r>
       <r>   -55.9404     0.0000   216.0000 </r>
       <r>   -55.6821     0.0000   216.0000 </r>
       <r>   -55.4239     0.0000   216.0000 </r>
       <r>   -55.1656     0.0000   216.0000 </r>
       <r>   -54.9074     0.0000   216.0000 </r>
       <r>   -54.6491     0.0000   216.0000 </r>
       <r>   -54.3909     0.0000   216.0000 </r>
       <r>   -54.1326     0.0000   216.0000 </r>
       <r>   -53.8744     0.0000   216.0000 </r>
       <r>   -53.6161     0.0000   216.0000 </r>
       <r>   -53.3579     0.0000   216.0000 </r>
       <r>   -53.0996     0.0000   216.0000 </r>
       <r>   -52.8414     0.0000   216.0000 </r>
       <r>   -52.5831     0.0000   216.0000 </r>
       <r>   -52.3249     0.0000   216.0000 </r>
       <r>   -52.0666     0.0000   216.0000 </r>
       <r>   -51.8084     0.0000   216.0000 </r>
       <r>   -51.5501     0.0000   216.0000 </r>
       <r>   -51.2919     0.0000   216.0000 </r>
       <r>   -51.0336     0.0000   216.0000 </r>
       <r>   -50.7754     0.0000   216.0000 </r>
       <r>   -50.5171     0.0000   216.0000 </r>
       <r>   -50.2588     0.0000   216.0000 </r>
       <r>   -50.0006     0.0000   216.0000 </r>
       <r>   -49.7423     0.0000   216.0000 </r>
       <r>   -49.4841     0.0000   216.0000 </r>
       <r>   -49.2258     0.0000   216.0000 </r>
       <r>   -48.9676     0.0000   216.0000 </r>
       <r>   -48.7093     0.0000   216.0000 </r>
       <r>   -48.4511     0.0000   216.0000 </r>
       <r>   -48.1928     0.0000   216.0000 </r>
       <r>   -47.9346     0.0000   216.0000 </r>
       <r>   -47.6763     0.0000   216.0000 </r>
       <r>   -47.4181     0.0000   216.0000 </r>
       <r>   -47.1598     0.0000   216.0000 </r>
       <r>   -46.9016     0.0000   216.0000 </r>
       <r>   -46.6433     0.0000   216.0000 </r>
       <r>   -46.3851     0.0000   216.0000 </r>
       <r>   -46.1268     0.0000   216.0000 </r>
       <r>   -45.8686     0.0000   216.0000 </r>
       <r>   -45.6103     0.0000   216.0000 </r>
       <r>   -45.3521     0.0000   216.0000 </r>
       <r>   -45.0938     0.0000   216.0000 </r>
       <r>   -44.8356     0.0000   216.0000 </r>
       <r>   -44.5773     0.0000   216.0000 </r>
       <r>   -44.3191     0.0000   216.0000 </r>
       <r>   -44.0608     0.0000   216.0000 </r>
       <r>   -43.8026     0.0000   216.0000 </r>
       <r>   -43.5443     0.0000   216.0000 </r>
       <r>   -43.2861     0.0000   216.0000 </r>
       <r>   -43.0278     0.0000   216.0000 </r>
       <r>   -42.7696     0.0000   216.0000 </r>
       <r>   -42.5113     0.0000   216.0000 </r>
       <r>   -42.2531     0.0000   216.0000 </r>
       <r>   -41.9948     0.0000   216.0000 </r>
       <r>   -41.7366     0.0000   216.0000 </r>
       <r>   -41.4783     0.0000   216.0000 </r>
       <r>   -41.2201     0.0000   216.0000 </r>
       <r>   -40.9618     0.0000   216.0000 </r>
       <r>   -40.7036     0.0000   216.0000 </r>
       <r>   -40.4453     0.0000   216.0000 </r>
       <r>   -40.1871     0.0000   216.0000 </r>
       <r>   -39.9288     0.0000   216.0000 </r>
       <r>   -39.6706     0.0000   216.0000 </r>
       <r>   -39.4123     0.0000   216.0000 </r>
       <r>   -39.1541     0.0000   216.0000 </r>
       <r>   -38.8958     0.0000   216.0000 </r>
       <r>   -38.6376     0.0000   216.0000 </r>
       <r>   -38.3793     0.0000   216.0000 </r>
       <r>   -38.1211     0.0000   216.0000 </r>
       <r>   -37.8628     0.0000   216.0000 </r>
       <r>   -37.6045     0.0000   216.0000 </r>
       <r>   -37.3463     0.0000   216.0000 </r>
       <r>   -37.0880     0.0000   216.0000 </r>
       <r>   -36.8298     0.0000   216.0000 </r>
       <r>   -36.5715     0.0000   216.0000 </r>
       <r>   -36.3133     0.0000   216.0000 </r>
       <r>   -36.0550     0.0000   216.0000 </r>
       <r>   -35.7968     0.0000   216.0000 </r>
       <r>   -35.5385     0.0000   216.0000 </r>
       <r>   -35.2803     0.0000   216.0000 </r>
       <r>   -35.0220     0.0000   216.0000 </r>
       <r>   -34.7638     0.0000   216.0000 </r>
       <r>   -34.5055     0.0000   216.0000 </r>
       <r>   -34.2473     0.0000   216.0000 </r>
       <r>   -33.9890     0.0000   216.0000 </r>
       <r>   -33.7308     0.0000   216.0000 </r>
       <r>   -33.4725     0.0000   216.0000 </r>
       <r>   -33.2143     0.0000   216.0000 </r>
       <r>   -32.9560     0.0000   216.0000 </r>
       <r>   -32.6978     0.0000   216.0000 </r>
       <r>   -32.4395     0.0000   216.0000 </r>
       <r>   -32.1813     0.0000   216.0000 </r>
       <r>   -31.9230     0.0000   216.0000 </r>
       <r>   -31.6648     0.0000   216.0000 </r>
       <r>   -31.4065     0.0000   216.0000 </r>
       <r>   -31.1483     0.0000   216.0000 </r>
       <r>   -30.8900     0.0000   216.0000 </r>
       <r>   -30.6318     0.0000   216.0000 </r>
       <r>   -30.3735     0.0000   216.0000 </r>
       <r>   -30.1153     0.0000   216.0000 </r>
       <r>   -29.8570     0.0000   216.0000 </r>
       <r>   -29.5988     0.0000   216.0000 </r>
       <r>   -29.3405     0.0000   216.0000 </r>
       <r>   -29.0823     0.0000   216.0000 </r>
       <r>   -28.8240     0.0000   216.0000 </r>
       <r>   -28.5658     0.0000   216.0000 </r>
       <r>   -28.3075     0.0000   216.0000 </r>
       <r>   -28.0493     0.0000   216.0000 </r>
       <r>   -27.7910     0.0000   216.0000 </r>
       <r>   -27.5328     0.0000   216.0000 </r>
       <r>   -27.2745     0.0000   216.0000 </r>
       <r>   -27.0163     0.0000   216.0000 </r>
       <r>   -26.7580     0.0000   216.0000 </r>
       <r>   -26.4998     0.0000   216.0000 </r>
       <r>   -26.2415     0.0000   216.0000 </r>
       <r>   -25.9833     0.0000   216.0000 </r>
       <r>   -25.7250     0.0000   216.0000 </r>
       <r>   -25.4668     0.0000   216.0000 </r>
       <r>   -25.2085     0.0000   216.0000 </r>
       <r>   -24.9502     0.0000   216.0000 </r>
       <r>   -24.6920     0.0000   216.0000 </r>
       <r>   -24.4337     0.0000   216.0000 </r>
       <r>   -24.1755     0.0000   216.0000 </r>
       <r>   -23.9172     0.0000   216.0000 </r>
       <r>   -23.6590     0.0000   216.0000 </r>
       <r>   -23.4007     0.0000   216.0000 </r>
       <r>   -23.1425     0.0000   216.0000 </r>
       <r>   -22.8842     0.0000   216.0000 </r>
       <r>   -22.6260     0.0000   216.0000 </r>
       <r>   -22.3677     0.0000   216.0000 </r>
       <r>   -22.1095     0.0000   216.0000 </r>
       <r>   -21.8512     0.0000   216.0000 </r>
       <r>   -21.5930     0.0000   216.0000 </r>
       <r>   -21.3347     0.0000   216.0000 </r>
       <r>   -21.0765     0.0000   216.0000 </r>
       <r>   -20.8182     0.0000   216.0000 </r>
       <r>   -20.5600     0.0000   216.0000 </r>
       <r>   -20.3017     0.0000   216.0000 </r>
       <r>   -20.0435     0.0000   216.0000 </r>
       <r>   -19.7852     0.0000   216.0000 </r>
       <r>   -19.5270     0.0000   216.0000 </r>
       <r>   -19.2687     0.0000   216.0000 </r>
       <r>   -19.0105     0.0000   216.0000 </r>
       <r>   -18.7522     0.0000   216.0000 </r>
       <r>   -18.4940     0.0000   216.0000 </r>
       <r>   -18.2357     0.0000   216.0000 </r>
       <r>   -17.9775     0.0000   216.0000 </r>
       <r>   -17.7192     0.0000   216.0000 </r>
       <r>   -17.4610     0.0000   216.0000 </r>
       <r>   -17.2027     0.0000   216.0000 </r>
       <r>   -16.9445     0.0000   216.0000 </r>
       <r>   -16.6862     0.0000   216.0000 </r>
       <r>   -16.4280     0.0000   216.0000 </r>
       <r>   -16.1697     0.0000   216.0000 </r>
       <r>   -15.9115     0.0000   216.0000 </r>
       <r>   -15.6532     0.0000   216.0000 </r>
       <r>   -15.3950     0.0000   216.0000 </r>
       <r>   -15.1367     0.0000   216.0000 </r>
       <r>   -14.8785     0.0000   216.0000 </r>
       <r>   -14.6202     0.0002   216.0000 </r>
       <r>   -14.3620     0.0939   216.0243 </r>
       <r>   -14.1037     2.4998   216.6699 </r>
       <r>   -13.8455     4.5301   217.8398 </r>
       <r>   -13.5872     1.3350   218.1846 </r>
       <r>   -13.3290     8.2030   220.3030 </r>
       <r>   -13.0707    19.0192   225.2147 </r>
       <r>   -12.8125    21.0355   230.6472 </r>
       <r>   -12.5542    30.8715   238.6198 </r>
       <r>   -12.2959    27.2952   245.6688 </r>
       <r>   -12.0377    37.0346   255.2330 </r>
       <r>   -11.7794    36.2141   264.5853 </r>
       <r>   -11.5212    26.6836   271.4764 </r>
       <r>   -11.2629    17.0041   275.8677 </r>
       <r>   -11.0047    16.4337   280.1117 </r>
       <r>   -10.7464    16.5283   284.3802 </r>
       <r>   -10.4882    10.4742   287.0852 </r>
       <r>   -10.2299     3.3789   287.9578 </r>
       <r>    -9.9717     0.1631   287.9999 </r>
       <r>    -9.7134     0.0004   288.0000 </r>
       <r>    -9.4552     0.0000   288.0000 </r>
       <r>    -9.1969     0.0000   288.0000 </r>
       <r>    -8.9387     0.0000   288.0000 </r>
       <r>    -8.6804     0.0000   288.0000 </r>
       <r>    -8.4222     0.0000   288.0000 </r>
       <r>    -8.1639     0.0000   288.0000 </r>
       <r>    -7.9057     0.0000   288.0000 </r>
       <r>    -7.6474     0.0000   288.0000 </r>
       <r>    -7.3892     0.0000   288.0000 </r>
       <r>    -7.1309     0.0000   288.0000 </r>
       <r>    -6.8727     0.0000   288.0000 </r>
       <r>    -6.6144     0.0000   288.0000 </r>
       <r>    -6.3562     0.0003   288.0001 </r>
       <r>    -6.0979     0.1708   288.0442 </r>
       <r>    -5.8397     5.7623   289.5323 </r>
       <r>    -5.5814    16.7199   293.8502 </r>
       <r>    -5.3232    18.8334   298.7140 </r>
       <r>    -5.0649    30.9612   306.7098 </r>
       <r>    -4.8067    47.5647   318.9934 </r>
       <r>    -4.5484    52.3059   332.5014 </r>
       <r>    -4.2902    43.9839   343.8603 </r>
       <r>    -4.0319    34.5342   352.7788 </r>
       <r>    -3.7737    40.4923   363.2360 </r>
       <r>    -3.5154    37.7933   372.9961 </r>
       <r>    -3.2572    45.7486   384.8107 </r>
       <r>    -2.9989    67.5192   402.2477 </r>
       <r>    -2.7407    75.7568   421.8119 </r>
       <r>    -2.4824    78.7304   442.1442 </r>
       <r>    -2.2242    69.5738   460.1117 </r>
       <r>    -1.9659    48.5285   472.6442 </r>
       <r>    -1.7077    42.7390   483.6816 </r>
       <r>    -1.4494    50.1189   496.6249 </r>
       <r>    -1.1912    59.4965   511.9899 </r>
       <r>    -0.9329    80.0823   532.6712 </r>
       <r>    -0.6747   102.3670   559.1076 </r>
       <r>    -0.4164   131.7321   593.1276 </r>
       <r>    -0.1582   174.5618   638.2083 </r>
       <r>     0.1001   167.9026   681.5694 </r>
       <r>     0.3583   124.5097   713.7241 </r>
       <r>     0.6166    97.2813   738.8471 </r>
       <r>     0.8749    86.5479   761.1982 </r>
       <r>     1.1331    61.0298   776.9592 </r>
       <r>     1.3914    48.6720   789.5288 </r>
       <r>     1.6496    57.4328   804.3609 </r>
       <r>     1.9079    58.0049   819.3407 </r>
       <r>     2.1661    61.5294   835.2307 </r>
       <r>     2.4244    62.9095   851.4772 </r>
       <r>     2.6826    39.9631   861.7977 </r>
       <r>     2.9409     9.6605   864.2925 </r>
       <r>     3.1991     5.2175   865.6400 </r>
       <r>     3.4574     2.3067   866.2357 </r>
       <r>     3.7156     5.2457   867.5904 </r>
       <r>     3.9739     6.6771   869.3147 </r>
       <r>     4.2321     7.8847   871.3510 </r>
       <r>     4.4904     7.0703   873.1769 </r>
       <r>     4.7486    17.4423   877.6814 </r>
       <r>     5.0069    16.1869   881.8617 </r>
       <r>     5.2651    13.9962   885.4762 </r>
       <r>     5.5234    14.4153   889.1990 </r>
       <r>     5.7816    21.8807   894.8497 </r>
       <r>     6.0399    29.7000   902.5197 </r>
       <r>     6.2981    27.1013   909.5187 </r>
       <r>     6.5564    30.1194   917.2970 </r>
       <r>     6.8146    28.7524   924.7224 </r>
       <r>     7.0729    33.7999   933.4512 </r>
       <r>     7.3311    41.3823   944.1383 </r>
       <r>     7.5894    40.0330   954.4768 </r>
       <r>     7.8476    19.6262   959.5453 </r>
       <r>     8.1059     1.7467   959.9964 </r>
       <r>     8.3641     0.0140   960.0000 </r>
       <r>     8.6224     0.0000   960.0000 </r>
       <r>     8.8806     0.0000   960.0000 </r>
       <r>     9.1389     0.0000   960.0000 </r>
       <r>     9.3971     0.0000   960.0000 </r>
       <r>     9.6554     0.0000   960.0000 </r>
       <r>     9.9136     0.0000   960.0000 </r>
       <r>    10.1719     0.0000   960.0000 </r>
       <r>    10.4301     0.0000   960.0000 </r>
       <r>    10.6884     0.0000   960.0000 </r>
       <r>    10.9466     0.0000   960.0000 </r>
       <r>    11.2049     0.0000   960.0000 </r>
      </set>
     </set>
    </array>
   </total>
  </dos>
 </calculation>
 <structure name="finalpos" >
  <crystal>
   <varray name="basis" >
    <v>       9.42510255       3.57329804       0.00000000 </v>
    <v>       0.00000000      10.07973298       0.00000000 </v>
    <v>       0.00000000       0.00000000      20.51013988 </v>
   </varray>
   <i name="volume">   1948.51491473 </i>
   <varray name="rec_basis" >
    <v>       0.10609964       0.00000000       0.00000000 </v>
    <v>      -0.03761267       0.09920898       0.00000000 </v>
    <v>       0.00000000       0.00000000       0.04875637 </v>
   </varray>
  </crystal>
  <varray name="positions" >
   <v>       0.37433215       0.75136220       0.09511235 </v>
   <v>       0.52460066       0.60109368       0.22312232 </v>
   <v>       0.67486918       0.45082517       0.35113229 </v>
   <v>       0.82513769       0.30055666       0.47914226 </v>
   <v>       0.60748648       0.18487454       0.00977237 </v>
   <v>       0.75775499       0.03460603       0.13778234 </v>
   <v>       0.05829201       0.73406900       0.39380228 </v>
   <v>       0.90802350       0.88433751       0.26579231 </v>
   <v>       0.14117783       0.31784985       0.18045233 </v>
   <v>       0.29144634       0.16758134       0.30846230 </v>
   <v>       0.44171485       0.01731283       0.43647227 </v>
   <v>       0.99090931       0.46811837       0.05244236 </v>
   <v>       0.00994000       0.11575434       0.41150025 </v>
   <v>       0.55913447       0.56655988       0.02747034 </v>
   <v>       0.70940298       0.41629137       0.15548031 </v>
   <v>       0.85967149       0.26602286       0.28349028 </v>
   <v>       0.09282582       0.69953520       0.19815030 </v>
   <v>       0.24309433       0.54926668       0.32616027 </v>
   <v>       0.39336284       0.39899817       0.45417024 </v>
   <v>       0.94255730       0.84980371       0.07014033 </v>
   <v>       0.32598014       0.13304754       0.11281032 </v>
   <v>       0.47624865       0.98277903       0.24082029 </v>
   <v>       0.62651717       0.83251052       0.36883026 </v>
   <v>       0.77678568       0.68224200       0.49684023 </v>
   <v>       0.04964185       0.34025850       0.44532126 </v>
   <v>       0.59883631       0.79106404       0.06129134 </v>
   <v>       0.74910482       0.64079553       0.18930132 </v>
   <v>       0.89937333       0.49052701       0.31731129 </v>
   <v>       0.98225915       0.07430787       0.10396133 </v>
   <v>       0.13252766       0.92403935       0.23197131 </v>
   <v>       0.28279617       0.77377084       0.35998128 </v>
   <v>       0.43306468       0.62350233       0.48799125 </v>
   <v>       0.21541347       0.50782021       0.01862135 </v>
   <v>       0.36568198       0.35755170       0.14663132 </v>
   <v>       0.51595050       0.20728318       0.27464130 </v>
   <v>       0.66621901       0.05701467       0.40265127 </v>
   <v>       0.06382158       0.26208477       0.34135992 </v>
   <v>       0.21409009       0.11181626       0.46936989 </v>
   <v>       0.76328455       0.56262179       0.08533998 </v>
   <v>       0.91355307       0.41235328       0.21334995 </v>
   <v>       0.14670739       0.84586562       0.12800997 </v>
   <v>       0.29697590       0.69559711       0.25601994 </v>
   <v>       0.44724442       0.54532860       0.38402991 </v>
   <v>       0.59751293       0.39506009       0.51203988 </v>
   <v>       0.99643888       0.99613414       0.00000000 </v>
   <v>       0.37986171       0.27937797       0.04266999 </v>
   <v>       0.53013023       0.12910945       0.17067996 </v>
   <v>       0.68039874       0.97884094       0.29868993 </v>
   <v>       0.83066725       0.82857243       0.42669990 </v>
   <v>       0.37769571       0.94821064       0.04346280 </v>
   <v>       0.52796422       0.79794212       0.17147277 </v>
   <v>       0.67823274       0.64767361       0.29948274 </v>
   <v>       0.82850125       0.49740510       0.42749271 </v>
   <v>       0.76111855       0.23145446       0.08613279 </v>
   <v>       0.91138706       0.08118595       0.21414276 </v>
   <v>       0.06165557       0.93091744       0.34215273 </v>
   <v>       0.21192409       0.78064893       0.47016270 </v>
   <v>       0.14454139       0.51469829       0.12880278 </v>
   <v>       0.29480990       0.36442978       0.25681275 </v>
   <v>       0.44507841       0.21416127       0.38482272 </v>
   <v>       0.99427287       0.66496681       0.00079281 </v>
   <v>       0.47740939       0.51206696       0.12840637 </v>
   <v>       0.62767790       0.36179845       0.25641634 </v>
   <v>       0.77794641       0.21152993       0.38442631 </v>
   <v>       0.01110074       0.64504228       0.29908633 </v>
   <v>       0.16136925       0.49477376       0.42709630 </v>
   <v>       0.71056371       0.94557930       0.04306639 </v>
   <v>       0.86083223       0.79531079       0.17107636 </v>
   <v>       0.09398655       0.22882313       0.08573638 </v>
   <v>       0.24425506       0.07855462       0.21374635 </v>
   <v>       0.39452358       0.92828610       0.34175632 </v>
   <v>       0.54479209       0.77801759       0.46976629 </v>
  </varray>
 </structure>
</modeling>
