  76  76   0   0
  0.3468536E+02  0.1688469E-08  0.9578410E-09  0.1629946E-08  0.5000000E-15
  1.000000000000000E-004
  CAR 
 "Millerite NiS"                         
      9.60256094    -68.34923254  301      0.03122934      1.00000000
    -68.349  0.0000E+00  0.0000E+00
    -68.089  0.0000E+00  0.0000E+00
    -67.830  0.0000E+00  0.0000E+00
    -67.570  0.0000E+00  0.0000E+00
    -67.310  0.0000E+00  0.0000E+00
    -67.050  0.0000E+00  0.0000E+00
    -66.790  0.0000E+00  0.0000E+00
    -66.530  0.0000E+00  0.0000E+00
    -66.271  0.0000E+00  0.0000E+00
    -66.011  0.0000E+00  0.0000E+00
    -65.751  0.1397E-09  0.3631E-10
    -65.491  0.8122E-05  0.2111E-05
    -65.231  0.1958E-01  0.5090E-02
    -64.971  0.2741E+01  0.7172E+00
    -64.711  0.4415E+02  0.1219E+02
    -64.452  0.1500E+03  0.5116E+02
    -64.192  0.2241E+03  0.1094E+03
    -63.932  0.2092E+03  0.1637E+03
    -63.672  0.1282E+03  0.1970E+03
    -63.412  0.5077E+02  0.2102E+03
    -63.152  0.4080E+02  0.2208E+03
    -62.893  0.2303E+02  0.2268E+03
    -62.633  0.4432E+01  0.2280E+03
    -62.373  0.8745E-01  0.2280E+03
    -62.113  0.9427E-04  0.2280E+03
    -61.853  0.4455E-08  0.2280E+03
    -61.593  0.8545E-14  0.2280E+03
    -61.334  0.0000E+00  0.2280E+03
    -61.074  0.0000E+00  0.2280E+03
    -60.814  0.0000E+00  0.2280E+03
    -60.554  0.0000E+00  0.2280E+03
    -60.294  0.0000E+00  0.2280E+03
    -60.034  0.0000E+00  0.2280E+03
    -59.775  0.0000E+00  0.2280E+03
    -59.515  0.0000E+00  0.2280E+03
    -59.255  0.0000E+00  0.2280E+03
    -58.995  0.0000E+00  0.2280E+03
    -58.735  0.0000E+00  0.2280E+03
    -58.475  0.0000E+00  0.2280E+03
    -58.215  0.0000E+00  0.2280E+03
    -57.956  0.0000E+00  0.2280E+03
    -57.696  0.0000E+00  0.2280E+03
    -57.436  0.0000E+00  0.2280E+03
    -57.176  0.0000E+00  0.2280E+03
    -56.916  0.0000E+00  0.2280E+03
    -56.656  0.0000E+00  0.2280E+03
    -56.397  0.0000E+00  0.2280E+03
    -56.137  0.0000E+00  0.2280E+03
    -55.877  0.0000E+00  0.2280E+03
    -55.617  0.0000E+00  0.2280E+03
    -55.357  0.0000E+00  0.2280E+03
    -55.097  0.0000E+00  0.2280E+03
    -54.838  0.0000E+00  0.2280E+03
    -54.578  0.0000E+00  0.2280E+03
    -54.318  0.0000E+00  0.2280E+03
    -54.058  0.0000E+00  0.2280E+03
    -53.798  0.0000E+00  0.2280E+03
    -53.538  0.0000E+00  0.2280E+03
    -53.279  0.0000E+00  0.2280E+03
    -53.019  0.0000E+00  0.2280E+03
    -52.759  0.0000E+00  0.2280E+03
    -52.499  0.0000E+00  0.2280E+03
    -52.239  0.0000E+00  0.2280E+03
    -51.979  0.0000E+00  0.2280E+03
    -51.720  0.0000E+00  0.2280E+03
    -51.460  0.0000E+00  0.2280E+03
    -51.200  0.0000E+00  0.2280E+03
    -50.940  0.0000E+00  0.2280E+03
    -50.680  0.0000E+00  0.2280E+03
    -50.420  0.0000E+00  0.2280E+03
    -50.160  0.0000E+00  0.2280E+03
    -49.901  0.0000E+00  0.2280E+03
    -49.641  0.0000E+00  0.2280E+03
    -49.381  0.0000E+00  0.2280E+03
    -49.121  0.0000E+00  0.2280E+03
    -48.861  0.0000E+00  0.2280E+03
    -48.601  0.0000E+00  0.2280E+03
    -48.342  0.0000E+00  0.2280E+03
    -48.082  0.0000E+00  0.2280E+03
    -47.822  0.0000E+00  0.2280E+03
    -47.562  0.0000E+00  0.2280E+03
    -47.302  0.0000E+00  0.2280E+03
    -47.042  0.0000E+00  0.2280E+03
    -46.783  0.0000E+00  0.2280E+03
    -46.523  0.0000E+00  0.2280E+03
    -46.263  0.0000E+00  0.2280E+03
    -46.003  0.0000E+00  0.2280E+03
    -45.743  0.0000E+00  0.2280E+03
    -45.483  0.0000E+00  0.2280E+03
    -45.224  0.0000E+00  0.2280E+03
    -44.964  0.0000E+00  0.2280E+03
    -44.704  0.0000E+00  0.2280E+03
    -44.444  0.0000E+00  0.2280E+03
    -44.184  0.0000E+00  0.2280E+03
    -43.924  0.0000E+00  0.2280E+03
    -43.664  0.0000E+00  0.2280E+03
    -43.405  0.0000E+00  0.2280E+03
    -43.145  0.0000E+00  0.2280E+03
    -42.885  0.0000E+00  0.2280E+03
    -42.625  0.0000E+00  0.2280E+03
    -42.365  0.0000E+00  0.2280E+03
    -42.105  0.0000E+00  0.2280E+03
    -41.846  0.0000E+00  0.2280E+03
    -41.586  0.0000E+00  0.2280E+03
    -41.326  0.0000E+00  0.2280E+03
    -41.066  0.0000E+00  0.2280E+03
    -40.806  0.0000E+00  0.2280E+03
    -40.546  0.0000E+00  0.2280E+03
    -40.287  0.0000E+00  0.2280E+03
    -40.027  0.0000E+00  0.2280E+03
    -39.767  0.0000E+00  0.2280E+03
    -39.507  0.0000E+00  0.2280E+03
    -39.247  0.0000E+00  0.2280E+03
    -38.987  0.0000E+00  0.2280E+03
    -38.728  0.0000E+00  0.2280E+03
    -38.468  0.0000E+00  0.2280E+03
    -38.208  0.0000E+00  0.2280E+03
    -37.948  0.0000E+00  0.2280E+03
    -37.688  0.0000E+00  0.2280E+03
    -37.428  0.0000E+00  0.2280E+03
    -37.169  0.0000E+00  0.2280E+03
    -36.909  0.0000E+00  0.2280E+03
    -36.649  0.0000E+00  0.2280E+03
    -36.389  0.0000E+00  0.2280E+03
    -36.129  0.0000E+00  0.2280E+03
    -35.869  0.0000E+00  0.2280E+03
    -35.609  0.0000E+00  0.2280E+03
    -35.350  0.0000E+00  0.2280E+03
    -35.090  0.0000E+00  0.2280E+03
    -34.830  0.0000E+00  0.2280E+03
    -34.570  0.0000E+00  0.2280E+03
    -34.310  0.0000E+00  0.2280E+03
    -34.050  0.0000E+00  0.2280E+03
    -33.791  0.0000E+00  0.2280E+03
    -33.531  0.0000E+00  0.2280E+03
    -33.271  0.0000E+00  0.2280E+03
    -33.011  0.0000E+00  0.2280E+03
    -32.751  0.0000E+00  0.2280E+03
    -32.491  0.0000E+00  0.2280E+03
    -32.232  0.0000E+00  0.2280E+03
    -31.972  0.0000E+00  0.2280E+03
    -31.712  0.0000E+00  0.2280E+03
    -31.452  0.0000E+00  0.2280E+03
    -31.192  0.0000E+00  0.2280E+03
    -30.932  0.0000E+00  0.2280E+03
    -30.673  0.0000E+00  0.2280E+03
    -30.413  0.0000E+00  0.2280E+03
    -30.153  0.0000E+00  0.2280E+03
    -29.893  0.0000E+00  0.2280E+03
    -29.633  0.0000E+00  0.2280E+03
    -29.373  0.0000E+00  0.2280E+03
    -29.113  0.0000E+00  0.2280E+03
    -28.854  0.0000E+00  0.2280E+03
    -28.594  0.0000E+00  0.2280E+03
    -28.334  0.0000E+00  0.2280E+03
    -28.074  0.0000E+00  0.2280E+03
    -27.814  0.0000E+00  0.2280E+03
    -27.554  0.0000E+00  0.2280E+03
    -27.295  0.0000E+00  0.2280E+03
    -27.035  0.0000E+00  0.2280E+03
    -26.775  0.0000E+00  0.2280E+03
    -26.515  0.0000E+00  0.2280E+03
    -26.255  0.0000E+00  0.2280E+03
    -25.995  0.0000E+00  0.2280E+03
    -25.736  0.0000E+00  0.2280E+03
    -25.476  0.0000E+00  0.2280E+03
    -25.216  0.0000E+00  0.2280E+03
    -24.956  0.0000E+00  0.2280E+03
    -24.696  0.0000E+00  0.2280E+03
    -24.436  0.0000E+00  0.2280E+03
    -24.177  0.0000E+00  0.2280E+03
    -23.917  0.0000E+00  0.2280E+03
    -23.657  0.0000E+00  0.2280E+03
    -23.397  0.0000E+00  0.2280E+03
    -23.137  0.0000E+00  0.2280E+03
    -22.877  0.0000E+00  0.2280E+03
    -22.618  0.0000E+00  0.2280E+03
    -22.358  0.0000E+00  0.2280E+03
    -22.098  0.0000E+00  0.2280E+03
    -21.838  0.0000E+00  0.2280E+03
    -21.578  0.0000E+00  0.2280E+03
    -21.318  0.0000E+00  0.2280E+03
    -21.058  0.0000E+00  0.2280E+03
    -20.799  0.0000E+00  0.2280E+03
    -20.539  0.0000E+00  0.2280E+03
    -20.279  0.0000E+00  0.2280E+03
    -20.019  0.0000E+00  0.2280E+03
    -19.759  0.0000E+00  0.2280E+03
    -19.499  0.0000E+00  0.2280E+03
    -19.240  0.0000E+00  0.2280E+03
    -18.980  0.0000E+00  0.2280E+03
    -18.720  0.0000E+00  0.2280E+03
    -18.460  0.0000E+00  0.2280E+03
    -18.200  0.0000E+00  0.2280E+03
    -17.940  0.0000E+00  0.2280E+03
    -17.681  0.0000E+00  0.2280E+03
    -17.421  0.1282E-14  0.2280E+03
    -17.161  0.1026E-08  0.2280E+03
    -16.901  0.2876E-04  0.2280E+03
    -16.641  0.3165E-01  0.2280E+03
    -16.381  0.1591E+01  0.2284E+03
    -16.122  0.5492E+01  0.2298E+03
    -15.862  0.7449E+01  0.2318E+03
    -15.602  0.8985E+01  0.2341E+03
    -15.342  0.1224E+02  0.2373E+03
    -15.082  0.1770E+02  0.2419E+03
    -14.822  0.2209E+02  0.2476E+03
    -14.562  0.2357E+02  0.2538E+03
    -14.303  0.3036E+02  0.2617E+03
    -14.043  0.2715E+02  0.2687E+03
    -13.783  0.2705E+02  0.2757E+03
    -13.523  0.3387E+02  0.2845E+03
    -13.263  0.2680E+02  0.2915E+03
    -13.003  0.2612E+02  0.2983E+03
    -12.744  0.1463E+02  0.3021E+03
    -12.484  0.5876E+01  0.3036E+03
    -12.224  0.1448E+01  0.3040E+03
    -11.964  0.2571E-01  0.3040E+03
    -11.704  0.2070E-04  0.3040E+03
    -11.444  0.6518E-09  0.3040E+03
    -11.185  0.8545E-15  0.3040E+03
    -10.925  0.0000E+00  0.3040E+03
    -10.665  0.0000E+00  0.3040E+03
    -10.405  0.0000E+00  0.3040E+03
    -10.145  0.0000E+00  0.3040E+03
     -9.885  0.0000E+00  0.3040E+03
     -9.626  0.0000E+00  0.3040E+03
     -9.366  0.0000E+00  0.3040E+03
     -9.106  0.3418E-14  0.3040E+03
     -8.846  0.2062E-08  0.3040E+03
     -8.586  0.4766E-04  0.3040E+03
     -8.326  0.4385E-01  0.3040E+03
     -8.067  0.2029E+01  0.3045E+03
     -7.807  0.1011E+02  0.3072E+03
     -7.547  0.1895E+02  0.3121E+03
     -7.287  0.3282E+02  0.3206E+03
     -7.027  0.4344E+02  0.3319E+03
     -6.767  0.4308E+02  0.3431E+03
     -6.507  0.3712E+02  0.3527E+03
     -6.248  0.4799E+02  0.3652E+03
     -5.988  0.5155E+02  0.3786E+03
     -5.728  0.5435E+02  0.3927E+03
     -5.468  0.5943E+02  0.4082E+03
     -5.208  0.6006E+02  0.4238E+03
     -4.948  0.6223E+02  0.4399E+03
     -4.689  0.6333E+02  0.4564E+03
     -4.429  0.6137E+02  0.4723E+03
     -4.169  0.6217E+02  0.4885E+03
     -3.909  0.5498E+02  0.5028E+03
     -3.649  0.4452E+02  0.5144E+03
     -3.389  0.4824E+02  0.5269E+03
     -3.130  0.5451E+02  0.5411E+03
     -2.870  0.7305E+02  0.5600E+03
     -2.610  0.8314E+02  0.5816E+03
     -2.350  0.1093E+03  0.6100E+03
     -2.090  0.1361E+03  0.6454E+03
     -1.830  0.1410E+03  0.6820E+03
     -1.571  0.1146E+03  0.7118E+03
     -1.311  0.9941E+02  0.7377E+03
     -1.051  0.8693E+02  0.7602E+03
     -0.791  0.8145E+02  0.7814E+03
     -0.531  0.7278E+02  0.8003E+03
     -0.271  0.6622E+02  0.8175E+03
     -0.011  0.6169E+02  0.8336E+03
      0.248  0.5857E+02  0.8488E+03
      0.508  0.5279E+02  0.8625E+03
      0.768  0.3804E+02  0.8724E+03
      1.028  0.3586E+02  0.8817E+03
      1.288  0.4101E+02  0.8924E+03
      1.548  0.3596E+02  0.9017E+03
      1.807  0.2554E+02  0.9083E+03
      2.067  0.1258E+02  0.9116E+03
      2.327  0.7464E+01  0.9135E+03
      2.587  0.8086E+01  0.9156E+03
      2.847  0.1736E+01  0.9161E+03
      3.107  0.6934E+01  0.9179E+03
      3.366  0.1438E+02  0.9216E+03
      3.626  0.1049E+02  0.9244E+03
      3.886  0.1622E+02  0.9286E+03
      4.146  0.2123E+02  0.9341E+03
      4.406  0.1929E+02  0.9391E+03
      4.666  0.2739E+02  0.9462E+03
      4.925  0.3384E+02  0.9550E+03
      5.185  0.4069E+02  0.9656E+03
      5.445  0.4089E+02  0.9762E+03
      5.705  0.4168E+02  0.9870E+03
      5.965  0.4203E+02  0.9980E+03
      6.225  0.2109E+02  0.1003E+04
      6.484  0.2147E+01  0.1004E+04
      6.744  0.1918E-01  0.1004E+04
      7.004  0.8501E-05  0.1004E+04
      7.264  0.1499E-09  0.1004E+04
      7.524  0.0000E+00  0.1004E+04
      7.784  0.0000E+00  0.1004E+04
      8.044  0.0000E+00  0.1004E+04
      8.303  0.0000E+00  0.1004E+04
      8.563  0.0000E+00  0.1004E+04
      8.823  0.0000E+00  0.1004E+04
      9.083  0.0000E+00  0.1004E+04
      9.343  0.0000E+00  0.1004E+04
      9.603  0.0000E+00  0.1004E+04
