       N       E                     dE             d eps       ncg     rms          rms(c)
DAV:   1     0.134212913518E+05    0.13421E+05   -0.68472E+05  1540   0.167E+03
DAV:   2     0.854803664343E+03   -0.12566E+05   -0.12126E+05  1342   0.538E+02
DAV:   3    -0.450794209401E+03   -0.13056E+04   -0.12422E+04  1456   0.189E+02
DAV:   4    -0.532633566689E+03   -0.81839E+02   -0.80905E+02  1512   0.420E+01
DAV:   5    -0.535328504377E+03   -0.26949E+01   -0.26913E+01  1632   0.814E+00    0.110E+02
DAV:   6    -0.630986294953E+03   -0.95658E+02   -0.12205E+03  1624   0.128E+02    0.188E+02
DAV:   7    -0.511698668774E+03    0.11929E+03   -0.27939E+02  1448   0.850E+01    0.942E+01
DAV:   8    -0.565249384533E+03   -0.53551E+02   -0.27117E+02  1696   0.944E+01    0.152E+02
DAV:   9    -0.597014212226E+03   -0.31765E+02   -0.23235E+02  1616   0.984E+01    0.152E+02
DAV:  10    -0.570303394704E+03    0.26711E+02   -0.20918E+02  1800   0.738E+01    0.134E+02
DAV:  11    -0.563199304850E+03    0.71041E+01   -0.12351E+02  1728   0.530E+01    0.109E+02
DAV:  12    -0.513583770526E+03    0.49616E+02   -0.81599E+01  1720   0.514E+01    0.626E+01
DAV:  13    -0.530493939136E+03   -0.16910E+02   -0.92405E+01  1720   0.579E+01    0.106E+02
DAV:  14    -0.501122323687E+03    0.29372E+02   -0.55687E+01  1752   0.359E+01    0.602E+01
DAV:  15    -0.486679376764E+03    0.14443E+02   -0.26380E+01  1728   0.275E+01    0.356E+01
DAV:  16    -0.482878885990E+03    0.38005E+01   -0.12369E+01  1736   0.204E+01    0.348E+01
DAV:  17    -0.478805774826E+03    0.40731E+01   -0.56909E+00  1696   0.126E+01    0.280E+01
DAV:  18    -0.478354349568E+03    0.45143E+00   -0.11970E+00  1424   0.299E+00    0.272E+01
DAV:  19    -0.477915656167E+03    0.43869E+00   -0.12079E-01  1624   0.180E+00    0.267E+01
DAV:  20    -0.477398906838E+03    0.51675E+00   -0.23684E-01  1784   0.340E+00    0.260E+01
DAV:  21    -0.475746100485E+03    0.16528E+01   -0.65458E-01  1920   0.608E+00    0.240E+01
DAV:  22    -0.472782455975E+03    0.29636E+01   -0.14409E+00  1784   0.855E+00    0.185E+01
DAV:  23    -0.470752238405E+03    0.20302E+01   -0.22493E+00  1728   0.878E+00    0.109E+01
DAV:  24    -0.470775851542E+03   -0.23613E-01   -0.80411E-01  1504   0.285E+00    0.103E+01
DAV:  25    -0.470712572339E+03    0.63279E-01   -0.14689E-01  1480   0.234E+00    0.984E+00
DAV:  26    -0.470576448849E+03    0.13612E+00   -0.22860E-01  1680   0.321E+00    0.850E+00
DAV:  27    -0.470298800876E+03    0.27765E+00   -0.56960E-01  1952   0.552E+00    0.578E+00
DAV:  28    -0.470295662581E+03    0.31383E-02   -0.47251E-01  1712   0.375E+00    0.491E+00
DAV:  29    -0.470241187155E+03    0.54475E-01   -0.20262E-01  1648   0.262E+00    0.325E+00
DAV:  30    -0.470239035217E+03    0.21519E-02   -0.76354E-02  1648   0.156E+00    0.294E+00
DAV:  31    -0.470221103741E+03    0.17931E-01   -0.36126E-02  1600   0.108E+00    0.189E+00
DAV:  32    -0.470220091431E+03    0.10123E-02   -0.47951E-02  1808   0.112E+00    0.186E+00
DAV:  33    -0.470217029915E+03    0.30615E-02   -0.14119E-02  1704   0.711E-01    0.166E+00
DAV:  34    -0.470214534601E+03    0.24953E-02   -0.13620E-02  1496   0.684E-01    0.131E+00
DAV:  35    -0.470211377465E+03    0.31571E-02   -0.42697E-03  1584   0.317E-01    0.981E-01
DAV:  36    -0.470215310234E+03   -0.39328E-02   -0.62620E-03  1784   0.460E-01    0.126E+00
DAV:  37    -0.470211501477E+03    0.38088E-02   -0.35725E-03  1672   0.351E-01    0.876E-01
DAV:  38    -0.470209981816E+03    0.15197E-02   -0.83927E-03  1728   0.515E-01    0.501E-01
DAV:  39    -0.470210241524E+03   -0.25971E-03   -0.47419E-03  1720   0.326E-01    0.404E-01
DAV:  40    -0.470209980886E+03    0.26064E-03   -0.75963E-04  1304   0.123E-01    0.283E-01
DAV:  41    -0.470209968230E+03    0.12656E-04   -0.10563E-04   768   0.650E-02
   1 F= -.47020997E+03 E0= -.46959117E+03  d E =-.123761E+01
