<?xml version="1.0" encoding="ISO-8859-1"?>
<modeling>
 <generator>
  <i name="program" type="string">vasp </i>
  <i name="version" type="string">6.1.0  </i>
  <i name="subversion" type="string">28Jan20 (build Mar 31 2020 17:42:31) gamma-only                       parallel </i>
  <i name="platform" type="string">LinuxIFC </i>
  <i name="date" type="string">2020 04 13 </i>
  <i name="time" type="string">01:48:18 </i>
 </generator>
 <incar>
  <i type="string" name="SYSTEM">"Millerite NiS"</i>
  <i type="int" name="NSIM">     4</i>
  <i type="int" name="NELM">   100</i>
  <i name="ENCUT">    450.00000000</i>
  <i type="string" name="LREAL">A</i>
  <i type="int" name="ISMEAR">     0</i>
  <i type="int" name="NWRITE">     2</i>
  <i type="logical" name="LWAVE"> F  </i>
  <i type="logical" name="LCHARG"> F  </i>
  <i type="int" name="NCORE">     6</i>
  <i type="int" name="NELM">   100</i>
 </incar>
 <structure name="primitive_cell" >
  <crystal>
   <varray name="basis" >
    <v>       8.42818148      -4.55101034       0.00000000 </v>
    <v>       0.00000000      10.07973298       0.00000000 </v>
    <v>       0.00000000       0.00000000      19.01113574 </v>
   </varray>
   <i name="volume">   1615.06858132 </i>
   <varray name="rec_basis" >
    <v>       0.11864956       0.00000000       0.00000000 </v>
    <v>       0.05357040       0.09920898       0.00000000 </v>
    <v>       0.00000000       0.00000000       0.05260075 </v>
   </varray>
  </crystal>
  <varray name="positions" >
   <v>       0.64527023       0.91524316       0.10295923 </v>
   <v>       0.58263032       0.78996333       0.25739808 </v>
   <v>       0.51999040       0.66468351       0.41183694 </v>
   <v>       0.33281687       0.29033643       0.05147962 </v>
   <v>       0.27017695       0.16505661       0.20591847 </v>
   <v>       0.20753704       0.03977678       0.36035732 </v>
   <v>       0.02036350       0.66542971       0.00000000 </v>
   <v>       0.95772359       0.54014988       0.15443885 </v>
   <v>       0.89508368       0.41487006       0.30887770 </v>
   <v>       0.66182007       0.68413684       0.06215556 </v>
   <v>       0.59918016       0.55885702       0.21659441 </v>
   <v>       0.53654024       0.43357719       0.37103327 </v>
   <v>       0.28672679       0.93395029       0.16511480 </v>
   <v>       0.22408688       0.80867046       0.31955365 </v>
   <v>       0.16144697       0.68339064       0.47399250 </v>
   <v>       0.97427343       0.30904357       0.11363518 </v>
   <v>       0.91163352       0.18376374       0.26807403 </v>
   <v>       0.84899361       0.05848391       0.42251288 </v>
   <v>       0.90947623       0.91524316       0.10295923 </v>
   <v>       0.84683632       0.78996333       0.25739808 </v>
   <v>       0.78419640       0.66468351       0.41183694 </v>
   <v>       0.59702287       0.29033643       0.05147962 </v>
   <v>       0.53438295       0.16505661       0.20591847 </v>
   <v>       0.47174304       0.03977678       0.36035732 </v>
   <v>       0.22192959       0.54014988       0.15443885 </v>
   <v>       0.15928968       0.41487006       0.30887770 </v>
   <v>       0.09664977       0.28959023       0.46331655 </v>
   <v>       0.82518168       0.67443006       0.15301029 </v>
   <v>       0.76254177       0.54915023       0.30744914 </v>
   <v>       0.69990185       0.42387040       0.46188799 </v>
   <v>       0.51272831       0.04952333       0.10153067 </v>
   <v>       0.45008840       0.92424350       0.25596953 </v>
   <v>       0.38744849       0.79896368       0.41040838 </v>
   <v>       0.20027495       0.42461661       0.05005106 </v>
   <v>       0.13763504       0.29933678       0.20448991 </v>
   <v>       0.07499513       0.17405695       0.35892876 </v>
   <v>       0.86674764       0.09399199       0.05052930 </v>
   <v>       0.80410773       0.96871216       0.20496815 </v>
   <v>       0.74146782       0.84343234       0.35940701 </v>
   <v>       0.49165437       0.34380544       0.15348854 </v>
   <v>       0.42901446       0.21852561       0.30792739 </v>
   <v>       0.36637454       0.09324579       0.46236624 </v>
   <v>       0.17920101       0.71889871       0.10200892 </v>
   <v>       0.11656109       0.59361889       0.25644777 </v>
   <v>       0.05392118       0.46833906       0.41088662 </v>
   <v>       0.48875168       0.67443006       0.15301029 </v>
   <v>       0.42611177       0.54915023       0.30744914 </v>
   <v>       0.36347185       0.42387040       0.46188799 </v>
   <v>       0.17629831       0.04952333       0.10153067 </v>
   <v>       0.11365840       0.92424350       0.25596953 </v>
   <v>       0.05101849       0.79896368       0.41040838 </v>
   <v>       0.86384495       0.42461661       0.05005106 </v>
   <v>       0.80120504       0.29933678       0.20448991 </v>
   <v>       0.73856513       0.17405695       0.35892876 </v>
  </varray>
 </structure>
 <varray name="primitive_index" >
  <v type="int" >        1 </v>
  <v type="int" >        2 </v>
  <v type="int" >        3 </v>
  <v type="int" >        4 </v>
  <v type="int" >        5 </v>
  <v type="int" >        6 </v>
  <v type="int" >        7 </v>
  <v type="int" >        8 </v>
  <v type="int" >        9 </v>
  <v type="int" >       10 </v>
  <v type="int" >       11 </v>
  <v type="int" >       12 </v>
  <v type="int" >       13 </v>
  <v type="int" >       14 </v>
  <v type="int" >       15 </v>
  <v type="int" >       16 </v>
  <v type="int" >       17 </v>
  <v type="int" >       18 </v>
  <v type="int" >       19 </v>
  <v type="int" >       20 </v>
  <v type="int" >       21 </v>
  <v type="int" >       22 </v>
  <v type="int" >       23 </v>
  <v type="int" >       24 </v>
  <v type="int" >       25 </v>
  <v type="int" >       26 </v>
  <v type="int" >       27 </v>
  <v type="int" >       28 </v>
  <v type="int" >       29 </v>
  <v type="int" >       30 </v>
  <v type="int" >       31 </v>
  <v type="int" >       32 </v>
  <v type="int" >       33 </v>
  <v type="int" >       34 </v>
  <v type="int" >       35 </v>
  <v type="int" >       36 </v>
  <v type="int" >       37 </v>
  <v type="int" >       38 </v>
  <v type="int" >       39 </v>
  <v type="int" >       40 </v>
  <v type="int" >       41 </v>
  <v type="int" >       42 </v>
  <v type="int" >       43 </v>
  <v type="int" >       44 </v>
  <v type="int" >       45 </v>
  <v type="int" >       46 </v>
  <v type="int" >       47 </v>
  <v type="int" >       48 </v>
  <v type="int" >       49 </v>
  <v type="int" >       50 </v>
  <v type="int" >       51 </v>
  <v type="int" >       52 </v>
  <v type="int" >       53 </v>
  <v type="int" >       54 </v>
 </varray>
 <kpoints>
  <generation param="Gamma">
   <v type="int" name="divisions">       1        1        1 </v>
   <v name="usershift">      0.00000000       0.00000000       0.00000000 </v>
   <v name="genvec1">      1.00000000       0.00000000       0.00000000 </v>
   <v name="genvec2">      0.00000000       1.00000000       0.00000000 </v>
   <v name="genvec3">      0.00000000       0.00000000       1.00000000 </v>
   <v name="shift">      0.00000000       0.00000000       0.00000000 </v>
  </generation>
  <varray name="kpointlist" >
   <v>       0.00000000       0.00000000       0.00000000 </v>
  </varray>
  <varray name="weights" >
   <v>       1.00000000 </v>
  </varray>
 </kpoints>
 <parameters>
  <separator name="general" >
   <i type="string" name="SYSTEM">"Millerite NiS"</i>
   <i type="logical" name="LCOMPAT"> F  </i>
  </separator>
  <separator name="electronic" >
   <i type="string" name="PREC">normal</i>
   <i name="ENMAX">    450.00000000</i>
   <i name="ENAUG">    703.44300000</i>
   <i name="EDIFF">      0.00010000</i>
   <i type="int" name="IALGO">    38</i>
   <i type="int" name="IWAVPR">    10</i>
   <i type="int" name="NBANDS">   360</i>
   <i type="int" name="NBANDSLOW">    -1</i>
   <i type="int" name="NBANDSHIGH">    -1</i>
   <i name="NELECT">    594.00000000</i>
   <i type="int" name="TURBO">     0</i>
   <i type="int" name="IRESTART">     0</i>
   <i type="int" name="NREBOOT">     0</i>
   <i type="int" name="NMIN">     0</i>
   <i name="EREF">      0.00000000</i>
   <separator name="electronic smearing" >
    <i type="int" name="ISMEAR">     0</i>
    <i name="SIGMA">      0.20000000</i>
    <i name="KSPACING">      0.50000000</i>
    <i type="logical" name="KGAMMA"> T  </i>
    <i type="logical" name="KBLOWUP"> T  </i>
   </separator>
   <separator name="electronic projectors" >
    <i type="logical" name="LREAL"> T  </i>
    <v name="ROPT">     -0.00050000     -0.00050000</v>
    <i type="int" name="LMAXPAW">  -100</i>
    <i type="int" name="LMAXMIX">     2</i>
    <i type="logical" name="NLSPLINE"> F  </i>
   </separator>
   <separator name="electronic startup" >
    <i type="int" name="ISTART">     0</i>
    <i type="int" name="ICHARG">     2</i>
    <i type="int" name="INIWAV">     1</i>
   </separator>
   <separator name="electronic spin" >
    <i type="int" name="ISPIN">     1</i>
    <i type="logical" name="LNONCOLLINEAR"> F  </i>
    <v name="MAGMOM">      1.00000000      1.00000000      1.00000000      1.00000000      1.00000000      1.00000000      1.00000000      1.00000000      1.00000000      1.00000000      1.00000000      1.00000000      1.00000000      1.00000000      1.00000000      1.00000000      1.00000000      1.00000000      1.00000000      1.00000000
      1.00000000      1.00000000      1.00000000      1.00000000      1.00000000      1.00000000      1.00000000      1.00000000      1.00000000      1.00000000      1.00000000      1.00000000      1.00000000      1.00000000      1.00000000      1.00000000      1.00000000      1.00000000      1.00000000      1.00000000
      1.00000000      1.00000000      1.00000000      1.00000000      1.00000000      1.00000000      1.00000000      1.00000000      1.00000000      1.00000000      1.00000000      1.00000000      1.00000000      1.00000000</v>
    <i name="NUPDOWN">     -1.00000000</i>
    <i type="logical" name="LSORBIT"> F  </i>
    <v name="SAXIS">      0.00000000      0.00000000      1.00000000</v>
    <i type="logical" name="LSPIRAL"> F  </i>
    <v name="QSPIRAL">      0.00000000      0.00000000      0.00000000</v>
    <i type="logical" name="LZEROZ"> F  </i>
   </separator>
   <separator name="electronic exchange-correlation" >
    <i type="logical" name="LASPH"> F  </i>
    <i type="logical" name="LMETAGGA"> F  </i>
   </separator>
   <separator name="electronic convergence" >
    <i type="int" name="NELM">   100</i>
    <i type="int" name="NELMDL">    -5</i>
    <i type="int" name="NELMIN">     2</i>
    <i name="ENINI">    450.00000000</i>
    <separator name="electronic convergence detail" >
     <i type="logical" name="LDIAG"> T  </i>
     <i type="logical" name="LSUBROT"> F  </i>
     <i name="WEIMIN">      0.00000000</i>
     <i name="EBREAK">      0.00000007</i>
     <i name="DEPER">      0.30000000</i>
     <i type="int" name="NRMM">     4</i>
     <i name="TIME">      0.40000000</i>
    </separator>
   </separator>
   <separator name="electronic mixer" >
    <i name="AMIX">      0.40000000</i>
    <i name="BMIX">      1.00000000</i>
    <i name="AMIN">      0.10000000</i>
    <i name="AMIX_MAG">      1.60000000</i>
    <i name="BMIX_MAG">      1.00000000</i>
    <separator name="electronic mixer details" >
     <i type="int" name="IMIX">     4</i>
     <i type="logical" name="MIXFIRST"> F  </i>
     <i type="int" name="MAXMIX">   -45</i>
     <i name="WC">    100.00000000</i>
     <i type="int" name="INIMIX">     1</i>
     <i type="int" name="MIXPRE">     1</i>
     <i type="int" name="MREMOVE">     5</i>
    </separator>
   </separator>
   <separator name="electronic dipolcorrection" >
    <i type="logical" name="LDIPOL"> F  </i>
    <i type="logical" name="LMONO"> F  </i>
    <i type="int" name="IDIPOL">     0</i>
    <i name="EPSILON">      1.00000000</i>
    <v name="DIPOL">   -100.00000000   -100.00000000   -100.00000000</v>
    <i name="EFIELD">      0.00000000</i>
   </separator>
  </separator>
  <separator name="grids" >
   <i type="int" name="NGX">    50</i>
   <i type="int" name="NGY">    54</i>
   <i type="int" name="NGZ">   100</i>
   <i type="int" name="NGXF">   100</i>
   <i type="int" name="NGYF">   108</i>
   <i type="int" name="NGZF">   200</i>
   <i type="logical" name="ADDGRID"> F  </i>
  </separator>
  <separator name="ionic" >
   <i type="int" name="NSW">     0</i>
   <i type="int" name="IBRION">    -1</i>
   <i type="int" name="MDALGO">     0</i>
   <i type="int" name="ISIF">     2</i>
   <i name="PSTRESS">      0.00000000</i>
   <i name="EDIFFG">      0.00100000</i>
   <i type="int" name="NFREE">     0</i>
   <i name="POTIM">      0.50000000</i>
   <i name="SMASS">     -3.00000000</i>
   <i name="SCALEE">      1.00000000</i>
  </separator>
  <separator name="ionic md" >
   <i name="TEBEG">      0.00010000</i>
   <i name="TEEND">      0.00010000</i>
   <i type="int" name="NBLOCK">     1</i>
   <i type="int" name="KBLOCK">     1</i>
   <i type="int" name="NPACO">   256</i>
   <i name="APACO">     16.00000000</i>
  </separator>
  <separator name="symmetry" >
   <i type="int" name="ISYM">     2</i>
   <i name="SYMPREC">      0.00001000</i>
  </separator>
  <separator name="dos" >
   <i type="int" name="LORBIT">     0</i>
   <v name="RWIGS">     -1.00000000     -1.00000000</v>
   <i type="int" name="NEDOS">   301</i>
   <i name="EMIN">     10.00000000</i>
   <i name="EMAX">    -10.00000000</i>
   <i name="EFERMI">      0.00000000</i>
  </separator>
  <separator name="writing" >
   <i type="int" name="NWRITE">     2</i>
   <i type="logical" name="LWAVE"> F  </i>
   <i type="logical" name="LDOWNSAMPLE"> F  </i>
   <i type="logical" name="LCHARG"> F  </i>
   <i type="logical" name="LPARD"> F  </i>
   <i type="logical" name="LVTOT"> F  </i>
   <i type="logical" name="LVHAR"> F  </i>
   <i type="logical" name="LELF"> F  </i>
   <i type="logical" name="LOPTICS"> F  </i>
   <v name="STM">      0.00000000      0.00000000      0.00000000      0.00000000      0.00000000      0.00000000      0.00000000</v>
  </separator>
  <separator name="performance" >
   <i type="int" name="NPAR">     8</i>
   <i type="int" name="NSIM">     4</i>
   <i type="int" name="NBLK">    -1</i>
   <i type="logical" name="LPLANE"> T  </i>
   <i type="logical" name="LSCALAPACK"> T  </i>
   <i type="logical" name="LSCAAWARE"> F  </i>
   <i type="logical" name="LSCALU"> F  </i>
   <i type="logical" name="LASYNC"> F  </i>
   <i type="logical" name="LORBITALREAL"> F  </i>
  </separator>
  <separator name="miscellaneous" >
   <i type="int" name="IDIOT">     3</i>
   <i type="int" name="PHON_NSTRUCT">    -1</i>
   <i type="logical" name="LMUSIC"> F  </i>
   <v name="POMASS">     58.69000000     32.06600000</v>
   <v name="DARWINR">      0.00000000      0.00000000</v>
   <v name="DARWINV">      1.00000000      1.00000000</v>
   <i type="logical" name="LCORR"> T  </i>
  </separator>
  <i type="logical" name="GGA_COMPAT"> T  </i>
  <i type="logical" name="LBERRY"> F  </i>
  <i type="int" name="ICORELEVEL">     0</i>
  <i type="logical" name="LDAU"> F  </i>
  <i type="int" name="I_CONSTRAINED_M">     0</i>
  <separator name="electronic exchange-correlation" >
   <i type="string" name="GGA">--</i>
   <i type="int" name="VOSKOWN">     0</i>
   <i type="logical" name="LHFCALC"> F  </i>
   <i type="string" name="PRECFOCK"></i>
   <i type="logical" name="LSYMGRAD"> F  </i>
   <i type="logical" name="LHFONE"> F  </i>
   <i type="logical" name="LRHFCALC"> F  </i>
   <i type="logical" name="LTHOMAS"> F  </i>
   <i type="logical" name="LMODELHF"> F  </i>
   <i type="logical" name="LFOCKACE"> F  </i>
   <i name="ENCUT4O">     -1.00000000</i>
   <i type="int" name="EXXOEP">     0</i>
   <i type="int" name="FOURORBIT">     0</i>
   <i name="AEXX">      0.00000000</i>
   <i name="HFALPHA">      0.00000000</i>
   <i name="MCALPHA">      0.00000000</i>
   <i name="ALDAX">      1.00000000</i>
   <i name="AGGAX">      1.00000000</i>
   <i name="ALDAC">      1.00000000</i>
   <i name="AGGAC">      1.00000000</i>
   <i type="int" name="NKREDX">     1</i>
   <i type="int" name="NKREDY">     1</i>
   <i type="int" name="NKREDZ">     1</i>
   <i type="logical" name="SHIFTRED"> F  </i>
   <i type="logical" name="ODDONLY"> F  </i>
   <i type="logical" name="EVENONLY"> F  </i>
   <i type="int" name="LMAXFOCK">     0</i>
   <i type="int" name="NMAXFOCKAE">     0</i>
   <i type="logical" name="LFOCKAEDFT"> F  </i>
   <i name="HFSCREEN">      0.00000000</i>
   <i name="HFSCREENC">      0.00000000</i>
   <i type="int" name="NBANDSGWLOW">     0</i>
  </separator>
  <separator name="vdW DFT" >
   <i type="logical" name="LUSE_VDW"> F  </i>
   <i name="Zab_VDW">     -0.84910000</i>
   <i name="PARAM1">      0.12340000</i>
   <i name="PARAM2">      1.00000000</i>
   <i name="PARAM3">      0.00000000</i>
  </separator>
  <separator name="model GW" >
   <i type="int" name="MODEL_GW">     0</i>
   <i name="MODEL_EPS0">     17.94520646</i>
   <i name="MODEL_ALPHA">      1.00000000</i>
  </separator>
  <separator name="linear response parameters" >
   <i type="logical" name="LEPSILON"> F  </i>
   <i type="logical" name="LRPA"> F  </i>
   <i type="logical" name="LNABLA"> F  </i>
   <i type="logical" name="LVEL"> F  </i>
   <i type="int" name="KINTER">     0</i>
   <i name="CSHIFT">      0.10000000</i>
   <i name="OMEGAMAX">     -1.00000000</i>
   <i name="DEG_THRESHOLD">      0.00200000</i>
   <i name="RTIME">     -0.10000000</i>
   <i name="WPLASMAI">      0.00000000</i>
   <v name="DFIELD">      0.00000000      0.00000000      0.00000000</v>
   <v name="WPLASMA">      0.00000000      0.00000000      0.00000000      0.00000000      0.00000000      0.00000000      0.00000000      0.00000000      0.00000000</v>
  </separator>
  <separator name="orbital magnetization" >
   <i type="logical" name="NUCIND"> F  </i>
   <v name="MAGPOS">      0.00000000      0.00000000      0.00000000</v>
   <i type="logical" name="LNICSALL"> T  </i>
   <i type="logical" name="ORBITALMAG"> F  </i>
   <i type="logical" name="LMAGBLOCH"> F  </i>
   <i type="logical" name="LCHIMAG"> F  </i>
   <i type="logical" name="LGAUGE"> T  </i>
   <i type="int" name="MAGATOM">     0</i>
   <v name="MAGDIPOL">      0.00000000      0.00000000      0.00000000</v>
   <v name="AVECCONST">      0.00000000      0.00000000      0.00000000</v>
  </separator>
  <separator name="response functions" >
   <i type="logical" name="LFINITE_TEMPERATURE"> F  </i>
   <i type="logical" name="LADDER"> F  </i>
   <i type="logical" name="LRPAFORCE"> F  </i>
   <i type="logical" name="LFXC"> F  </i>
   <i type="logical" name="LHARTREE"> T  </i>
   <i type="int" name="IBSE">     0</i>
   <v type="int" name="KPOINT">    -1     0     0     0</v>
   <i type="logical" name="LTCTC"> F  </i>
   <i type="logical" name="LTCTE"> F  </i>
   <i type="logical" name="LTETE"> F  </i>
   <i type="logical" name="LTRIPLET"> F  </i>
   <i type="logical" name="LFXCEPS"> F  </i>
   <i type="logical" name="LFXHEG"> F  </i>
   <i type="int" name="NATURALO">     2</i>
   <i type="logical" name="LHOLEGF"> F  </i>
   <i type="logical" name="L2ORDER"> F  </i>
   <i type="logical" name="LDMP1"> F  </i>
   <i type="logical" name="LMP2LT"> F  </i>
   <i type="logical" name="LSMP2LT"> F  </i>
   <i type="logical" name="LGWLF"> F  </i>
   <i name="ENCUTGW">     -2.00000000</i>
   <i name="ENCUTGWSOFT">     -2.00000000</i>
   <i name="ENCUTLF">     -1.00000000</i>
   <i type="logical" name="LESF_SPLINES"> F  </i>
   <i type="int" name="LMAXMP2">    -1</i>
   <i name="SCISSOR">      0.00000000</i>
   <i type="int" name="NOMEGA">     0</i>
   <i type="int" name="NOMEGAR">     0</i>
   <i type="int" name="NBANDSGW">    -1</i>
   <i type="int" name="NBANDSO">    -1</i>
   <i type="int" name="NBANDSV">    -1</i>
   <i type="int" name="NELM">   100</i>
   <i type="int" name="NELMHF">     1</i>
   <i type="int" name="DIM">     3</i>
   <i type="int" name="IESPILON">     4</i>
   <i type="int" name="ANTIRES">     0</i>
   <i name="OMEGAMAX">    -30.00000000</i>
   <i name="OMEGAMIN">    -30.00000000</i>
   <i name="OMEGATL">   -200.00000000</i>
   <i type="int" name="OMEGAGRID">     0</i>
   <i name="CSHIFT">     -0.10000000</i>
   <i type="logical" name="LSELFENERGY"> F  </i>
   <i type="logical" name="LSPECTRAL"> F  </i>
   <i type="logical" name="LSPECTRALGW"> F  </i>
   <i type="logical" name="LSINGLES"> F  </i>
   <i type="logical" name="LFERMIGW"> F  </i>
   <i type="logical" name="ODDONLYGW"> F  </i>
   <i type="logical" name="EVENONLYGW"> F  </i>
   <i type="int" name="NKREDLFX">     1</i>
   <i type="int" name="NKREDLFY">     1</i>
   <i type="int" name="NKREDLFZ">     1</i>
   <i type="int" name="MAXMEM">  2800</i>
   <i type="int" name="TELESCOPE">     0</i>
   <i type="int" name="NTAUPAR">    -1</i>
   <i type="int" name="NOMEGAPAR">    -1</i>
   <i name="LAMBDA">      1.00000000</i>
  </separator>
  <separator name="External order field" >
   <i name="OFIELD_KAPPA">      0.00000000</i>
   <v name="OFIELD_K">      0.00000000      0.00000000      0.00000000</v>
   <i name="OFIELD_Q6_NEAR">      0.00000000</i>
   <i name="OFIELD_Q6_FAR">      0.00000000</i>
   <i name="OFIELD_A">      0.00000000</i>
  </separator>
 </parameters>
 <atominfo>
  <atoms>      54 </atoms>
  <types>       2 </types>
  <array name="atoms" >
   <dimension dim="1">ion</dimension>
   <field type="string">element</field>
   <field type="int">atomtype</field>
   <set>
    <rc><c>Ni</c><c>   1</c></rc>
    <rc><c>Ni</c><c>   1</c></rc>
    <rc><c>Ni</c><c>   1</c></rc>
    <rc><c>Ni</c><c>   1</c></rc>
    <rc><c>Ni</c><c>   1</c></rc>
    <rc><c>Ni</c><c>   1</c></rc>
    <rc><c>Ni</c><c>   1</c></rc>
    <rc><c>Ni</c><c>   1</c></rc>
    <rc><c>Ni</c><c>   1</c></rc>
    <rc><c>Ni</c><c>   1</c></rc>
    <rc><c>Ni</c><c>   1</c></rc>
    <rc><c>Ni</c><c>   1</c></rc>
    <rc><c>Ni</c><c>   1</c></rc>
    <rc><c>Ni</c><c>   1</c></rc>
    <rc><c>Ni</c><c>   1</c></rc>
    <rc><c>Ni</c><c>   1</c></rc>
    <rc><c>Ni</c><c>   1</c></rc>
    <rc><c>Ni</c><c>   1</c></rc>
    <rc><c>Ni</c><c>   1</c></rc>
    <rc><c>Ni</c><c>   1</c></rc>
    <rc><c>Ni</c><c>   1</c></rc>
    <rc><c>Ni</c><c>   1</c></rc>
    <rc><c>Ni</c><c>   1</c></rc>
    <rc><c>Ni</c><c>   1</c></rc>
    <rc><c>Ni</c><c>   1</c></rc>
    <rc><c>Ni</c><c>   1</c></rc>
    <rc><c>Ni</c><c>   1</c></rc>
    <rc><c>S </c><c>   2</c></rc>
    <rc><c>S </c><c>   2</c></rc>
    <rc><c>S </c><c>   2</c></rc>
    <rc><c>S </c><c>   2</c></rc>
    <rc><c>S </c><c>   2</c></rc>
    <rc><c>S </c><c>   2</c></rc>
    <rc><c>S </c><c>   2</c></rc>
    <rc><c>S </c><c>   2</c></rc>
    <rc><c>S </c><c>   2</c></rc>
    <rc><c>S </c><c>   2</c></rc>
    <rc><c>S </c><c>   2</c></rc>
    <rc><c>S </c><c>   2</c></rc>
    <rc><c>S </c><c>   2</c></rc>
    <rc><c>S </c><c>   2</c></rc>
    <rc><c>S </c><c>   2</c></rc>
    <rc><c>S </c><c>   2</c></rc>
    <rc><c>S </c><c>   2</c></rc>
    <rc><c>S </c><c>   2</c></rc>
    <rc><c>S </c><c>   2</c></rc>
    <rc><c>S </c><c>   2</c></rc>
    <rc><c>S </c><c>   2</c></rc>
    <rc><c>S </c><c>   2</c></rc>
    <rc><c>S </c><c>   2</c></rc>
    <rc><c>S </c><c>   2</c></rc>
    <rc><c>S </c><c>   2</c></rc>
    <rc><c>S </c><c>   2</c></rc>
    <rc><c>S </c><c>   2</c></rc>
   </set>
  </array>
  <array name="atomtypes" >
   <dimension dim="1">type</dimension>
   <field type="int">atomspertype</field>
   <field type="string">element</field>
   <field>mass</field>
   <field>valence</field>
   <field type="string">pseudopotential</field>
   <set>
    <rc><c>  27</c><c>Ni</c><c>     58.69000000</c><c>     16.00000000</c><c>  PAW_PBE Ni_pv 06Sep2000               </c></rc>
    <rc><c>  27</c><c>S </c><c>     32.06600000</c><c>      6.00000000</c><c>  PAW_PBE S 06Sep2000                   </c></rc>
   </set>
  </array>
 </atominfo>
 <structure name="initialpos" >
  <crystal>
   <varray name="basis" >
    <v>       8.42818148      -4.55101034       0.00000000 </v>
    <v>       0.00000000      10.07973298       0.00000000 </v>
    <v>       0.00000000       0.00000000      19.01113574 </v>
   </varray>
   <i name="volume">   1615.06858132 </i>
   <varray name="rec_basis" >
    <v>       0.11864956       0.00000000       0.00000000 </v>
    <v>       0.05357040       0.09920898       0.00000000 </v>
    <v>       0.00000000       0.00000000       0.05260075 </v>
   </varray>
  </crystal>
  <varray name="positions" >
   <v>       0.64527023       0.91524316       0.10295923 </v>
   <v>       0.58263032       0.78996333       0.25739808 </v>
   <v>       0.51999040       0.66468351       0.41183694 </v>
   <v>       0.33281687       0.29033643       0.05147962 </v>
   <v>       0.27017695       0.16505661       0.20591847 </v>
   <v>       0.20753704       0.03977678       0.36035732 </v>
   <v>       0.02036350       0.66542971       0.00000000 </v>
   <v>       0.95772359       0.54014988       0.15443885 </v>
   <v>       0.89508368       0.41487006       0.30887770 </v>
   <v>       0.66182007       0.68413684       0.06215556 </v>
   <v>       0.59918016       0.55885702       0.21659441 </v>
   <v>       0.53654024       0.43357719       0.37103327 </v>
   <v>       0.28672679       0.93395029       0.16511480 </v>
   <v>       0.22408688       0.80867046       0.31955365 </v>
   <v>       0.16144697       0.68339064       0.47399250 </v>
   <v>       0.97427343       0.30904357       0.11363518 </v>
   <v>       0.91163352       0.18376374       0.26807403 </v>
   <v>       0.84899361       0.05848391       0.42251288 </v>
   <v>       0.90947623       0.91524316       0.10295923 </v>
   <v>       0.84683632       0.78996333       0.25739808 </v>
   <v>       0.78419640       0.66468351       0.41183694 </v>
   <v>       0.59702287       0.29033643       0.05147962 </v>
   <v>       0.53438295       0.16505661       0.20591847 </v>
   <v>       0.47174304       0.03977678       0.36035732 </v>
   <v>       0.22192959       0.54014988       0.15443885 </v>
   <v>       0.15928968       0.41487006       0.30887770 </v>
   <v>       0.09664977       0.28959023       0.46331655 </v>
   <v>       0.82518168       0.67443006       0.15301029 </v>
   <v>       0.76254177       0.54915023       0.30744914 </v>
   <v>       0.69990185       0.42387040       0.46188799 </v>
   <v>       0.51272831       0.04952333       0.10153067 </v>
   <v>       0.45008840       0.92424350       0.25596953 </v>
   <v>       0.38744849       0.79896368       0.41040838 </v>
   <v>       0.20027495       0.42461661       0.05005106 </v>
   <v>       0.13763504       0.29933678       0.20448991 </v>
   <v>       0.07499513       0.17405695       0.35892876 </v>
   <v>       0.86674764       0.09399199       0.05052930 </v>
   <v>       0.80410773       0.96871216       0.20496815 </v>
   <v>       0.74146782       0.84343234       0.35940701 </v>
   <v>       0.49165437       0.34380544       0.15348854 </v>
   <v>       0.42901446       0.21852561       0.30792739 </v>
   <v>       0.36637454       0.09324579       0.46236624 </v>
   <v>       0.17920101       0.71889871       0.10200892 </v>
   <v>       0.11656109       0.59361889       0.25644777 </v>
   <v>       0.05392118       0.46833906       0.41088662 </v>
   <v>       0.48875168       0.67443006       0.15301029 </v>
   <v>       0.42611177       0.54915023       0.30744914 </v>
   <v>       0.36347185       0.42387040       0.46188799 </v>
   <v>       0.17629831       0.04952333       0.10153067 </v>
   <v>       0.11365840       0.92424350       0.25596953 </v>
   <v>       0.05101849       0.79896368       0.41040838 </v>
   <v>       0.86384495       0.42461661       0.05005106 </v>
   <v>       0.80120504       0.29933678       0.20448991 </v>
   <v>       0.73856513       0.17405695       0.35892876 </v>
  </varray>
 </structure>
 <calculation>
  <scstep>
   <time name="dav">    1.15    1.15</time>
   <time name="total">    1.19    1.20</time>
   <energy>
    <i name="alphaZ">   1295.57565721 </i>
    <i name="ewald"> 111679.60417022 </i>
    <i name="hartreedc">-203159.90536116 </i>
    <i name="XCdc">   2736.06759882 </i>
    <i name="pawpsdc">  84547.15000061 </i>
    <i name="pawaedc"> -88231.13391551 </i>
    <i name="eentropy">     -0.27766651 </i>
    <i name="bandstr">  -3876.13264567 </i>
    <i name="atom"> 102001.95379032 </i>
    <i name="e_fr_energy">   6992.90162834 </i>
    <i name="e_wo_entrp">   6993.17929485 </i>
    <i name="e_0_energy">   6993.04046159 </i>
   </energy>
  </scstep>
  <scstep>
   <time name="dav">    1.00    1.01</time>
   <time name="total">    1.00    1.01</time>
   <energy>
    <i name="e_fr_energy">    394.05148024 </i>
    <i name="e_wo_entrp">    394.71786604 </i>
    <i name="e_0_energy">    394.38467314 </i>
   </energy>
  </scstep>
  <scstep>
   <time name="dav">    1.09    1.09</time>
   <time name="total">    1.09    1.09</time>
   <energy>
    <i name="e_fr_energy">   -260.01279825 </i>
    <i name="e_wo_entrp">   -259.09938650 </i>
    <i name="e_0_energy">   -259.55609237 </i>
   </energy>
  </scstep>
  <scstep>
   <time name="dav">    1.12    1.13</time>
   <time name="total">    1.12    1.13</time>
   <energy>
    <i name="e_fr_energy">   -300.75118752 </i>
    <i name="e_wo_entrp">   -299.79548024 </i>
    <i name="e_0_energy">   -300.27333388 </i>
   </energy>
  </scstep>
  <scstep>
   <time name="dav">    1.10    1.10</time>
   <time name="total">    1.13    1.13</time>
   <energy>
    <i name="e_fr_energy">   -301.82978665 </i>
    <i name="e_wo_entrp">   -300.87190738 </i>
    <i name="e_0_energy">   -301.35084702 </i>
   </energy>
  </scstep>
  <scstep>
   <time name="dav">    1.10    1.10</time>
   <time name="total">    1.17    1.17</time>
   <energy>
    <i name="e_fr_energy">   -370.27455463 </i>
    <i name="e_wo_entrp">   -369.57428424 </i>
    <i name="e_0_energy">   -369.92441943 </i>
   </energy>
  </scstep>
  <scstep>
   <time name="dav">    1.09    1.09</time>
   <time name="total">    1.16    1.16</time>
   <energy>
    <i name="e_fr_energy">   -280.72365270 </i>
    <i name="e_wo_entrp">   -280.16363506 </i>
    <i name="e_0_energy">   -280.44364388 </i>
   </energy>
  </scstep>
  <scstep>
   <time name="dav">    1.23    1.23</time>
   <time name="total">    1.30    1.31</time>
   <energy>
    <i name="e_fr_energy">   -304.31968651 </i>
    <i name="e_wo_entrp">   -303.38275151 </i>
    <i name="e_0_energy">   -303.85121901 </i>
   </energy>
  </scstep>
  <scstep>
   <time name="dav">    1.20    1.20</time>
   <time name="total">    1.27    1.27</time>
   <energy>
    <i name="e_fr_energy">   -273.15739722 </i>
    <i name="e_wo_entrp">   -272.29152844 </i>
    <i name="e_0_energy">   -272.72446283 </i>
   </energy>
  </scstep>
  <scstep>
   <time name="dav">    1.28    1.28</time>
   <time name="total">    1.35    1.35</time>
   <energy>
    <i name="e_fr_energy">   -290.82881267 </i>
    <i name="e_wo_entrp">   -290.06035676 </i>
    <i name="e_0_energy">   -290.44458471 </i>
   </energy>
  </scstep>
  <scstep>
   <time name="dav">    1.21    1.21</time>
   <time name="total">    1.28    1.28</time>
   <energy>
    <i name="e_fr_energy">   -278.20535682 </i>
    <i name="e_wo_entrp">   -277.40787950 </i>
    <i name="e_0_energy">   -277.80661816 </i>
   </energy>
  </scstep>
  <scstep>
   <time name="dav">    1.24    1.25</time>
   <time name="total">    1.31    1.32</time>
   <energy>
    <i name="e_fr_energy">   -268.85203612 </i>
    <i name="e_wo_entrp">   -268.14232384 </i>
    <i name="e_0_energy">   -268.49717998 </i>
   </energy>
  </scstep>
  <scstep>
   <time name="dav">    1.21    1.21</time>
   <time name="total">    1.28    1.29</time>
   <energy>
    <i name="e_fr_energy">   -269.59998432 </i>
    <i name="e_wo_entrp">   -268.80435978 </i>
    <i name="e_0_energy">   -269.20217205 </i>
   </energy>
  </scstep>
  <scstep>
   <time name="dav">    1.17    1.17</time>
   <time name="total">    1.24    1.24</time>
   <energy>
    <i name="e_fr_energy">   -267.42232428 </i>
    <i name="e_wo_entrp">   -266.74233644 </i>
    <i name="e_0_energy">   -267.08233036 </i>
   </energy>
  </scstep>
  <scstep>
   <time name="dav">    1.20    1.20</time>
   <time name="total">    1.27    1.27</time>
   <energy>
    <i name="e_fr_energy">   -266.28909512 </i>
    <i name="e_wo_entrp">   -265.55223870 </i>
    <i name="e_0_energy">   -265.92066691 </i>
   </energy>
  </scstep>
  <scstep>
   <time name="dav">    1.20    1.20</time>
   <time name="total">    1.27    1.27</time>
   <energy>
    <i name="e_fr_energy">   -265.74831757 </i>
    <i name="e_wo_entrp">   -265.04556776 </i>
    <i name="e_0_energy">   -265.39694267 </i>
   </energy>
  </scstep>
  <scstep>
   <time name="dav">    1.16    1.16</time>
   <time name="total">    1.23    1.23</time>
   <energy>
    <i name="e_fr_energy">   -265.33935593 </i>
    <i name="e_wo_entrp">   -264.61401015 </i>
    <i name="e_0_energy">   -264.97668304 </i>
   </energy>
  </scstep>
  <scstep>
   <time name="dav">    1.25    1.25</time>
   <time name="total">    1.32    1.32</time>
   <energy>
    <i name="e_fr_energy">   -265.00037014 </i>
    <i name="e_wo_entrp">   -264.27707697 </i>
    <i name="e_0_energy">   -264.63872356 </i>
   </energy>
  </scstep>
  <scstep>
   <time name="dav">    1.21    1.21</time>
   <time name="total">    1.28    1.28</time>
   <energy>
    <i name="e_fr_energy">   -264.73205543 </i>
    <i name="e_wo_entrp">   -264.00039450 </i>
    <i name="e_0_energy">   -264.36622496 </i>
   </energy>
  </scstep>
  <scstep>
   <time name="dav">    1.31    1.32</time>
   <time name="total">    1.39    1.39</time>
   <energy>
    <i name="e_fr_energy">   -264.43124130 </i>
    <i name="e_wo_entrp">   -263.65995706 </i>
    <i name="e_0_energy">   -264.04559918 </i>
   </energy>
  </scstep>
  <scstep>
   <time name="dav">    1.18    1.18</time>
   <time name="total">    1.25    1.26</time>
   <energy>
    <i name="e_fr_energy">   -264.37368031 </i>
    <i name="e_wo_entrp">   -263.62261387 </i>
    <i name="e_0_energy">   -263.99814709 </i>
   </energy>
  </scstep>
  <scstep>
   <time name="dav">    1.16    1.16</time>
   <time name="total">    1.23    1.23</time>
   <energy>
    <i name="e_fr_energy">   -264.36398141 </i>
    <i name="e_wo_entrp">   -263.56741426 </i>
    <i name="e_0_energy">   -263.96569783 </i>
   </energy>
  </scstep>
  <scstep>
   <time name="dav">    1.12    1.12</time>
   <time name="total">    1.19    1.19</time>
   <energy>
    <i name="e_fr_energy">   -264.36666924 </i>
    <i name="e_wo_entrp">   -263.59541844 </i>
    <i name="e_0_energy">   -263.98104384 </i>
   </energy>
  </scstep>
  <scstep>
   <time name="dav">    1.16    1.16</time>
   <time name="total">    1.23    1.23</time>
   <energy>
    <i name="e_fr_energy">   -264.38071378 </i>
    <i name="e_wo_entrp">   -263.58484559 </i>
    <i name="e_0_energy">   -263.98277969 </i>
   </energy>
  </scstep>
  <scstep>
   <time name="dav">    1.26    1.27</time>
   <time name="total">    1.34    1.34</time>
   <energy>
    <i name="e_fr_energy">   -264.35641395 </i>
    <i name="e_wo_entrp">   -263.55869443 </i>
    <i name="e_0_energy">   -263.95755419 </i>
   </energy>
  </scstep>
  <scstep>
   <time name="dav">    1.21    1.21</time>
   <time name="total">    1.28    1.28</time>
   <energy>
    <i name="e_fr_energy">   -264.35594231 </i>
    <i name="e_wo_entrp">   -263.54220047 </i>
    <i name="e_0_energy">   -263.94907139 </i>
   </energy>
  </scstep>
  <scstep>
   <time name="dav">    1.19    1.20</time>
   <time name="total">    1.26    1.27</time>
   <energy>
    <i name="e_fr_energy">   -264.34436050 </i>
    <i name="e_wo_entrp">   -263.55643208 </i>
    <i name="e_0_energy">   -263.95039629 </i>
   </energy>
  </scstep>
  <scstep>
   <time name="dav">    1.18    1.18</time>
   <time name="total">    1.25    1.25</time>
   <energy>
    <i name="e_fr_energy">   -264.34312627 </i>
    <i name="e_wo_entrp">   -263.54953718 </i>
    <i name="e_0_energy">   -263.94633172 </i>
   </energy>
  </scstep>
  <scstep>
   <time name="dav">    1.22    1.22</time>
   <time name="total">    1.29    1.29</time>
   <energy>
    <i name="e_fr_energy">   -264.34218904 </i>
    <i name="e_wo_entrp">   -263.55880226 </i>
    <i name="e_0_energy">   -263.95049565 </i>
   </energy>
  </scstep>
  <scstep>
   <time name="dav">    1.10    1.10</time>
   <time name="total">    1.17    1.17</time>
   <energy>
    <i name="e_fr_energy">   -264.34212428 </i>
    <i name="e_wo_entrp">   -263.55410791 </i>
    <i name="e_0_energy">   -263.94811610 </i>
   </energy>
  </scstep>
  <scstep>
   <time name="dav">    1.01    1.01</time>
   <time name="total">    1.08    1.08</time>
   <energy>
    <i name="e_fr_energy">   -264.34217133 </i>
    <i name="e_wo_entrp">   -263.55223579 </i>
    <i name="e_0_energy">   -263.94720356 </i>
   </energy>
  </scstep>
  <scstep>
   <time name="dav">    0.96    0.96</time>
   <time name="total">    1.03    1.04</time>
   <energy>
    <i name="e_fr_energy">   -264.34248592 </i>
    <i name="e_wo_entrp">   -263.55091692 </i>
    <i name="e_0_energy">   -263.94670142 </i>
   </energy>
  </scstep>
  <scstep>
   <time name="dav">    0.81    0.81</time>
   <time name="total">    0.88    0.89</time>
   <energy>
    <i name="e_fr_energy">   -264.34263848 </i>
    <i name="e_wo_entrp">   -263.55348713 </i>
    <i name="e_0_energy">   -263.94806280 </i>
   </energy>
  </scstep>
  <scstep>
   <time name="dav">    0.73    0.74</time>
   <time name="total">    0.81    0.81</time>
   <energy>
    <i name="e_fr_energy">   -264.34295459 </i>
    <i name="e_wo_entrp">   -263.55549628 </i>
    <i name="e_0_energy">   -263.94922544 </i>
   </energy>
  </scstep>
  <scstep>
   <time name="dav">    0.74    0.74</time>
   <time name="total">    0.82    0.82</time>
   <energy>
    <i name="e_fr_energy">   -264.34320293 </i>
    <i name="e_wo_entrp">   -263.55624620 </i>
    <i name="e_0_energy">   -263.94972456 </i>
   </energy>
  </scstep>
  <scstep>
   <time name="dav">    0.70    0.70</time>
   <time name="total">    0.77    0.77</time>
   <energy>
    <i name="e_fr_energy">   -264.34335489 </i>
    <i name="e_wo_entrp">   -263.55568156 </i>
    <i name="e_0_energy">   -263.94951823 </i>
   </energy>
  </scstep>
  <scstep>
   <time name="dav">    0.70    0.70</time>
   <time name="total">    0.77    0.77</time>
   <energy>
    <i name="e_fr_energy">   -264.34361899 </i>
    <i name="e_wo_entrp">   -263.55513230 </i>
    <i name="e_0_energy">   -263.94937564 </i>
   </energy>
  </scstep>
  <scstep>
   <time name="dav">    0.74    0.74</time>
   <time name="total">    0.81    0.82</time>
   <energy>
    <i name="e_fr_energy">   -264.34421125 </i>
    <i name="e_wo_entrp">   -263.55606848 </i>
    <i name="e_0_energy">   -263.95013986 </i>
   </energy>
  </scstep>
  <scstep>
   <time name="dav">    0.69    0.70</time>
   <time name="total">    0.77    0.77</time>
   <energy>
    <i name="e_fr_energy">   -264.34468014 </i>
    <i name="e_wo_entrp">   -263.55710996 </i>
    <i name="e_0_energy">   -263.95089505 </i>
   </energy>
  </scstep>
  <scstep>
   <time name="dav">    0.70    0.70</time>
   <time name="total">    0.78    0.78</time>
   <energy>
    <i name="e_fr_energy">   -264.34492945 </i>
    <i name="e_wo_entrp">   -263.55676608 </i>
    <i name="e_0_energy">   -263.95084776 </i>
   </energy>
  </scstep>
  <scstep>
   <time name="dav">    0.71    0.71</time>
   <time name="total">    0.75    0.75</time>
   <energy>
    <i name="alphaZ">   1295.57565721 </i>
    <i name="ewald"> 111679.60417022 </i>
    <i name="hartreedc">-202689.48367054 </i>
    <i name="XCdc">   2714.92929452 </i>
    <i name="pawpsdc">  97431.40813444 </i>
    <i name="pawaedc">-101156.41377213 </i>
    <i name="eentropy">     -0.78809402 </i>
    <i name="bandstr"> -11541.13051411 </i>
    <i name="atom"> 102001.95379032 </i>
    <i name="e_fr_energy">   -264.34500408 </i>
    <i name="e_wo_entrp">   -263.55691006 </i>
    <i name="e_0_energy">   -263.95095707 </i>
   </energy>
  </scstep>
  <structure>
   <crystal>
    <varray name="basis" >
     <v>       8.42818148      -4.55101034       0.00000000 </v>
     <v>       0.00000000      10.07973298       0.00000000 </v>
     <v>       0.00000000       0.00000000      19.01113574 </v>
    </varray>
    <i name="volume">   1615.06858132 </i>
    <varray name="rec_basis" >
     <v>       0.11864956       0.00000000       0.00000000 </v>
     <v>       0.05357040       0.09920898       0.00000000 </v>
     <v>       0.00000000       0.00000000       0.05260075 </v>
    </varray>
   </crystal>
   <varray name="positions" >
    <v>       0.64527023       0.91524316       0.10295923 </v>
    <v>       0.58263032       0.78996333       0.25739808 </v>
    <v>       0.51999040       0.66468351       0.41183694 </v>
    <v>       0.33281687       0.29033643       0.05147962 </v>
    <v>       0.27017695       0.16505661       0.20591847 </v>
    <v>       0.20753704       0.03977678       0.36035732 </v>
    <v>       0.02036350       0.66542971       0.00000000 </v>
    <v>       0.95772359       0.54014988       0.15443885 </v>
    <v>       0.89508368       0.41487006       0.30887770 </v>
    <v>       0.66182007       0.68413684       0.06215556 </v>
    <v>       0.59918016       0.55885702       0.21659441 </v>
    <v>       0.53654024       0.43357719       0.37103327 </v>
    <v>       0.28672679       0.93395029       0.16511480 </v>
    <v>       0.22408688       0.80867046       0.31955365 </v>
    <v>       0.16144697       0.68339064       0.47399250 </v>
    <v>       0.97427343       0.30904357       0.11363518 </v>
    <v>       0.91163352       0.18376374       0.26807403 </v>
    <v>       0.84899361       0.05848391       0.42251288 </v>
    <v>       0.90947623       0.91524316       0.10295923 </v>
    <v>       0.84683632       0.78996333       0.25739808 </v>
    <v>       0.78419640       0.66468351       0.41183694 </v>
    <v>       0.59702287       0.29033643       0.05147962 </v>
    <v>       0.53438295       0.16505661       0.20591847 </v>
    <v>       0.47174304       0.03977678       0.36035732 </v>
    <v>       0.22192959       0.54014988       0.15443885 </v>
    <v>       0.15928968       0.41487006       0.30887770 </v>
    <v>       0.09664977       0.28959023       0.46331655 </v>
    <v>       0.82518168       0.67443006       0.15301029 </v>
    <v>       0.76254177       0.54915023       0.30744914 </v>
    <v>       0.69990185       0.42387040       0.46188799 </v>
    <v>       0.51272831       0.04952333       0.10153067 </v>
    <v>       0.45008840       0.92424350       0.25596953 </v>
    <v>       0.38744849       0.79896368       0.41040838 </v>
    <v>       0.20027495       0.42461661       0.05005106 </v>
    <v>       0.13763504       0.29933678       0.20448991 </v>
    <v>       0.07499513       0.17405695       0.35892876 </v>
    <v>       0.86674764       0.09399199       0.05052930 </v>
    <v>       0.80410773       0.96871216       0.20496815 </v>
    <v>       0.74146782       0.84343234       0.35940701 </v>
    <v>       0.49165437       0.34380544       0.15348854 </v>
    <v>       0.42901446       0.21852561       0.30792739 </v>
    <v>       0.36637454       0.09324579       0.46236624 </v>
    <v>       0.17920101       0.71889871       0.10200892 </v>
    <v>       0.11656109       0.59361889       0.25644777 </v>
    <v>       0.05392118       0.46833906       0.41088662 </v>
    <v>       0.48875168       0.67443006       0.15301029 </v>
    <v>       0.42611177       0.54915023       0.30744914 </v>
    <v>       0.36347185       0.42387040       0.46188799 </v>
    <v>       0.17629831       0.04952333       0.10153067 </v>
    <v>       0.11365840       0.92424350       0.25596953 </v>
    <v>       0.05101849       0.79896368       0.41040838 </v>
    <v>       0.86384495       0.42461661       0.05005106 </v>
    <v>       0.80120504       0.29933678       0.20448991 </v>
    <v>       0.73856513       0.17405695       0.35892876 </v>
   </varray>
  </structure>
  <varray name="forces" >
   <v>       0.55408827       0.49714105       0.25279911 </v>
   <v>       0.16448294      -0.07936461      -0.06475744 </v>
   <v>      -0.71633782      -0.01920372      -0.61007672 </v>
   <v>      -0.43781046       0.34807249       1.49088310 </v>
   <v>       0.00191525       0.03438081      -0.25941254 </v>
   <v>       0.27814052      -0.16458713       0.65236097 </v>
   <v>      -0.21368736      -1.21810788       2.07358908 </v>
   <v>       0.12136739      -0.09267421      -0.07896035 </v>
   <v>       0.02495606      -0.20651863       0.39587165 </v>
   <v>       0.11639397      -0.20103675       1.67835629 </v>
   <v>       0.09007402       0.13878829      -0.24292477 </v>
   <v>       0.30492690       0.27553728       0.89198531 </v>
   <v>       0.00066691       0.12328150      -0.39668696 </v>
   <v>      -0.01416266       0.01548549       0.26367685 </v>
   <v>       0.04166572      -0.01241865      -2.08471437 </v>
   <v>       0.24628188      -0.16745865      -0.32311579 </v>
   <v>      -0.18418406      -0.04708395       0.13581437 </v>
   <v>       0.13512767       0.36692388      -1.72315191 </v>
   <v>       0.18992968       0.63196767       0.14574743 </v>
   <v>      -0.12126151       0.06461007      -0.01596530 </v>
   <v>       0.28417662      -0.77397871      -0.45553287 </v>
   <v>       0.30297176      -0.13169797       1.43798640 </v>
   <v>      -0.01797272      -0.00681306      -0.29534438 </v>
   <v>      -0.13867716       0.14066730       0.63949671 </v>
   <v>      -0.04864967      -0.06860489      -0.38517402 </v>
   <v>      -0.08089592       0.15423492       0.29009380 </v>
   <v>       0.88643308       0.85355765      -1.81282207 </v>
   <v>       0.02755071       0.46435400      -1.08649962 </v>
   <v>      -0.42629774      -0.02761430      -0.13369271 </v>
   <v>      -0.38339413       1.46657420      -0.78312319 </v>
   <v>       0.26657506       0.01488836      -0.67646769 </v>
   <v>      -0.08670300      -0.03080630       0.13267445 </v>
   <v>      -0.43021999       0.02924463       0.83409938 </v>
   <v>       0.53421038      -1.04781442      -0.12110803 </v>
   <v>      -0.11694304       0.07498915       0.21529449 </v>
   <v>      -0.55075514       0.01221451       1.02375769 </v>
   <v>      -0.55811014      -0.94472981       0.61139720 </v>
   <v>      -0.24414574      -0.41879567       0.33922004 </v>
   <v>      -0.15037459      -0.02346416       1.25918168 </v>
   <v>      -0.03321057      -0.10555558      -1.14067631 </v>
   <v>      -0.07899362      -0.16554231       0.03805742 </v>
   <v>      -0.04268643      -0.14329721      -1.42113500 </v>
   <v>      -0.60515083       0.41876074      -0.52018946 </v>
   <v>      -0.04160994      -0.10815080      -0.11190209 </v>
   <v>       0.04628976      -0.49249571       1.12364372 </v>
   <v>       0.25941000       0.32816052      -1.16655858 </v>
   <v>       0.20517949      -0.31610356      -0.16769443 </v>
   <v>       0.46775764       0.14399943       0.23902078 </v>
   <v>      -0.11988569       0.11165579      -0.74328696 </v>
   <v>       0.00488184      -0.08745610       0.16986052 </v>
   <v>       0.35152720      -0.26090118       0.80423774 </v>
   <v>      -0.57321283       1.08076525      -0.98646050 </v>
   <v>       0.07990594       0.08462104       0.06590759 </v>
   <v>       0.42844609      -0.51260013       0.60242028 </v>
  </varray>
  <varray name="stress" >
   <v>     -26.39543550      -3.41313547       4.21524696 </v>
   <v>      -3.41313541     -27.03015360       8.47530750 </v>
   <v>       4.21524687       8.47530749     -27.07177422 </v>
  </varray>
  <energy>
   <i name="e_fr_energy">   -264.34500408 </i>
   <i name="e_wo_entrp">   -263.55691006 </i>
   <i name="e_0_energy">   -263.95095707 </i>
  </energy>
  <time name="totalsc">   47.43   47.62</time>
  <eigenvalues>
   <array>
    <dimension dim="1">band</dimension>
    <dimension dim="2">kpoint</dimension>
    <dimension dim="3">spin</dimension>
    <field>eigene</field>
    <field>occ</field>
    <set>
     <set comment="spin 1">
      <set comment="kpoint 1">
       <r>  -63.2250    1.0000 </r>
       <r>  -63.2083    1.0000 </r>
       <r>  -63.2079    1.0000 </r>
       <r>  -63.2056    1.0000 </r>
       <r>  -63.2004    1.0000 </r>
       <r>  -63.1987    1.0000 </r>
       <r>  -63.1976    1.0000 </r>
       <r>  -63.1911    1.0000 </r>
       <r>  -63.1898    1.0000 </r>
       <r>  -63.1719    1.0000 </r>
       <r>  -63.1705    1.0000 </r>
       <r>  -63.1699    1.0000 </r>
       <r>  -63.1679    1.0000 </r>
       <r>  -63.1661    1.0000 </r>
       <r>  -63.1628    1.0000 </r>
       <r>  -63.1564    1.0000 </r>
       <r>  -63.1512    1.0000 </r>
       <r>  -63.1471    1.0000 </r>
       <r>  -63.1449    1.0000 </r>
       <r>  -63.1421    1.0000 </r>
       <r>  -63.1369    1.0000 </r>
       <r>  -63.1352    1.0000 </r>
       <r>  -63.1292    1.0000 </r>
       <r>  -63.1230    1.0000 </r>
       <r>  -63.1149    1.0000 </r>
       <r>  -63.1111    1.0000 </r>
       <r>  -63.0955    1.0000 </r>
       <r>  -63.0730    1.0000 </r>
       <r>  -63.0640    1.0000 </r>
       <r>  -63.0499    1.0000 </r>
       <r>  -63.0465    1.0000 </r>
       <r>  -63.0389    1.0000 </r>
       <r>  -63.0340    1.0000 </r>
       <r>  -63.0150    1.0000 </r>
       <r>  -63.0146    1.0000 </r>
       <r>  -63.0112    1.0000 </r>
       <r>  -63.0033    1.0000 </r>
       <r>  -62.9994    1.0000 </r>
       <r>  -62.9946    1.0000 </r>
       <r>  -62.9680    1.0000 </r>
       <r>  -62.9528    1.0000 </r>
       <r>  -62.9445    1.0000 </r>
       <r>  -62.9386    1.0000 </r>
       <r>  -62.9345    1.0000 </r>
       <r>  -62.9284    1.0000 </r>
       <r>  -62.9264    1.0000 </r>
       <r>  -62.9032    1.0000 </r>
       <r>  -62.9020    1.0000 </r>
       <r>  -62.8613    1.0000 </r>
       <r>  -62.8436    1.0000 </r>
       <r>  -62.8226    1.0000 </r>
       <r>  -62.8225    1.0000 </r>
       <r>  -62.7953    1.0000 </r>
       <r>  -62.7831    1.0000 </r>
       <r>  -62.7627    1.0000 </r>
       <r>  -62.7190    1.0000 </r>
       <r>  -62.6671    1.0000 </r>
       <r>  -62.6547    1.0000 </r>
       <r>  -62.5408    1.0000 </r>
       <r>  -62.4443    1.0000 </r>
       <r>  -62.4411    1.0000 </r>
       <r>  -62.4347    1.0000 </r>
       <r>  -62.4135    1.0000 </r>
       <r>  -62.3916    1.0000 </r>
       <r>  -62.3696    1.0000 </r>
       <r>  -62.3477    1.0000 </r>
       <r>  -62.3183    1.0000 </r>
       <r>  -62.3160    1.0000 </r>
       <r>  -62.3010    1.0000 </r>
       <r>  -62.2596    1.0000 </r>
       <r>  -62.2561    1.0000 </r>
       <r>  -62.1762    1.0000 </r>
       <r>  -62.1305    1.0000 </r>
       <r>  -61.9657    1.0000 </r>
       <r>  -61.9567    1.0000 </r>
       <r>  -61.8028    1.0000 </r>
       <r>  -61.7682    1.0000 </r>
       <r>  -61.7459    1.0000 </r>
       <r>  -61.7184    1.0000 </r>
       <r>  -61.6392    1.0000 </r>
       <r>  -61.3316    1.0000 </r>
       <r>  -14.4212    1.0000 </r>
       <r>  -13.5718    1.0000 </r>
       <r>  -13.5448    1.0000 </r>
       <r>  -13.5132    1.0000 </r>
       <r>  -13.2959    1.0000 </r>
       <r>  -13.2595    1.0000 </r>
       <r>  -13.1790    1.0000 </r>
       <r>  -13.1264    1.0000 </r>
       <r>  -12.9124    1.0000 </r>
       <r>  -12.8406    1.0000 </r>
       <r>  -12.7090    1.0000 </r>
       <r>  -12.5995    1.0000 </r>
       <r>  -12.5816    1.0000 </r>
       <r>  -12.5574    1.0000 </r>
       <r>  -12.5472    1.0000 </r>
       <r>  -12.4980    1.0000 </r>
       <r>  -12.3335    1.0000 </r>
       <r>  -12.2076    1.0000 </r>
       <r>  -12.1148    1.0000 </r>
       <r>  -12.0689    1.0000 </r>
       <r>  -11.9651    1.0000 </r>
       <r>  -11.9375    1.0000 </r>
       <r>  -11.7357    1.0000 </r>
       <r>  -11.5357    1.0000 </r>
       <r>  -11.5137    1.0000 </r>
       <r>  -10.9183    1.0000 </r>
       <r>  -10.7483    1.0000 </r>
       <r>   -6.1015    1.0000 </r>
       <r>   -5.9108    1.0000 </r>
       <r>   -5.8788    1.0000 </r>
       <r>   -5.8268    1.0000 </r>
       <r>   -5.7664    1.0000 </r>
       <r>   -5.5046    1.0000 </r>
       <r>   -5.4428    1.0000 </r>
       <r>   -5.3987    1.0000 </r>
       <r>   -5.3260    1.0000 </r>
       <r>   -5.2499    1.0000 </r>
       <r>   -5.2138    1.0000 </r>
       <r>   -5.1705    1.0000 </r>
       <r>   -5.1413    1.0000 </r>
       <r>   -5.1241    1.0000 </r>
       <r>   -5.0873    1.0000 </r>
       <r>   -5.0339    1.0000 </r>
       <r>   -4.9608    1.0000 </r>
       <r>   -4.9348    1.0000 </r>
       <r>   -4.8104    1.0000 </r>
       <r>   -4.7654    1.0000 </r>
       <r>   -4.7481    1.0000 </r>
       <r>   -4.6271    1.0000 </r>
       <r>   -4.5864    1.0000 </r>
       <r>   -4.5148    1.0000 </r>
       <r>   -4.4432    1.0000 </r>
       <r>   -4.3625    1.0000 </r>
       <r>   -4.3502    1.0000 </r>
       <r>   -4.2810    1.0000 </r>
       <r>   -4.1136    1.0000 </r>
       <r>   -4.0508    1.0000 </r>
       <r>   -4.0112    1.0000 </r>
       <r>   -3.8974    1.0000 </r>
       <r>   -3.8752    1.0000 </r>
       <r>   -3.8244    1.0000 </r>
       <r>   -3.7750    1.0000 </r>
       <r>   -3.7034    1.0000 </r>
       <r>   -3.6820    1.0000 </r>
       <r>   -3.6336    1.0000 </r>
       <r>   -3.5693    1.0000 </r>
       <r>   -3.5369    1.0000 </r>
       <r>   -3.5125    1.0000 </r>
       <r>   -3.4647    1.0000 </r>
       <r>   -3.4361    1.0000 </r>
       <r>   -3.4068    1.0000 </r>
       <r>   -3.3824    1.0000 </r>
       <r>   -3.3248    1.0000 </r>
       <r>   -3.3108    1.0000 </r>
       <r>   -3.2744    1.0000 </r>
       <r>   -3.2203    1.0000 </r>
       <r>   -3.1568    1.0000 </r>
       <r>   -3.1118    1.0000 </r>
       <r>   -3.0904    1.0000 </r>
       <r>   -3.0781    1.0000 </r>
       <r>   -3.0099    1.0000 </r>
       <r>   -2.9801    1.0000 </r>
       <r>   -2.9432    1.0000 </r>
       <r>   -2.9139    1.0000 </r>
       <r>   -2.8901    1.0000 </r>
       <r>   -2.8223    1.0000 </r>
       <r>   -2.7622    1.0000 </r>
       <r>   -2.7446    1.0000 </r>
       <r>   -2.7131    1.0000 </r>
       <r>   -2.6564    1.0000 </r>
       <r>   -2.5756    1.0000 </r>
       <r>   -2.5415    1.0000 </r>
       <r>   -2.4907    1.0000 </r>
       <r>   -2.4504    1.0000 </r>
       <r>   -2.3541    1.0000 </r>
       <r>   -2.3217    1.0000 </r>
       <r>   -2.2709    1.0000 </r>
       <r>   -2.2281    1.0000 </r>
       <r>   -2.2116    1.0000 </r>
       <r>   -2.1752    1.0000 </r>
       <r>   -2.1313    1.0000 </r>
       <r>   -2.0518    1.0000 </r>
       <r>   -1.9964    1.0000 </r>
       <r>   -1.9465    1.0000 </r>
       <r>   -1.9221    1.0000 </r>
       <r>   -1.8771    1.0000 </r>
       <r>   -1.8220    1.0000 </r>
       <r>   -1.7716    1.0000 </r>
       <r>   -1.7246    1.0000 </r>
       <r>   -1.6573    1.0000 </r>
       <r>   -1.5734    1.0000 </r>
       <r>   -1.5317    1.0000 </r>
       <r>   -1.5126    1.0000 </r>
       <r>   -1.4484    1.0000 </r>
       <r>   -1.4412    1.0000 </r>
       <r>   -1.3988    1.0000 </r>
       <r>   -1.3524    1.0000 </r>
       <r>   -1.3504    1.0000 </r>
       <r>   -1.3300    1.0000 </r>
       <r>   -1.3091    1.0000 </r>
       <r>   -1.2814    1.0000 </r>
       <r>   -1.2263    1.0000 </r>
       <r>   -1.2113    1.0000 </r>
       <r>   -1.1667    1.0000 </r>
       <r>   -1.1470    1.0000 </r>
       <r>   -1.1268    1.0000 </r>
       <r>   -1.1010    1.0000 </r>
       <r>   -1.0821    1.0000 </r>
       <r>   -1.0413    1.0000 </r>
       <r>   -1.0340    1.0000 </r>
       <r>   -1.0296    1.0000 </r>
       <r>   -1.0062    1.0000 </r>
       <r>   -0.9809    1.0000 </r>
       <r>   -0.9676    1.0000 </r>
       <r>   -0.9443    1.0000 </r>
       <r>   -0.9229    1.0000 </r>
       <r>   -0.9012    1.0000 </r>
       <r>   -0.8847    1.0000 </r>
       <r>   -0.8632    1.0000 </r>
       <r>   -0.8335    1.0000 </r>
       <r>   -0.8209    1.0000 </r>
       <r>   -0.8105    1.0000 </r>
       <r>   -0.8003    1.0000 </r>
       <r>   -0.7959    1.0000 </r>
       <r>   -0.7908    1.0000 </r>
       <r>   -0.7798    1.0000 </r>
       <r>   -0.7630    1.0000 </r>
       <r>   -0.7524    1.0000 </r>
       <r>   -0.7376    1.0000 </r>
       <r>   -0.7223    1.0000 </r>
       <r>   -0.7126    1.0000 </r>
       <r>   -0.6896    1.0000 </r>
       <r>   -0.6704    1.0000 </r>
       <r>   -0.6602    1.0000 </r>
       <r>   -0.6462    1.0000 </r>
       <r>   -0.6338    1.0000 </r>
       <r>   -0.6223    1.0000 </r>
       <r>   -0.6160    1.0000 </r>
       <r>   -0.5965    1.0000 </r>
       <r>   -0.5886    1.0000 </r>
       <r>   -0.5544    1.0000 </r>
       <r>   -0.5457    1.0000 </r>
       <r>   -0.5053    1.0000 </r>
       <r>   -0.5007    1.0000 </r>
       <r>   -0.4779    1.0000 </r>
       <r>   -0.4681    1.0000 </r>
       <r>   -0.4624    1.0000 </r>
       <r>   -0.4186    1.0000 </r>
       <r>   -0.4128    1.0000 </r>
       <r>   -0.3881    1.0000 </r>
       <r>   -0.3733    1.0000 </r>
       <r>   -0.3682    1.0000 </r>
       <r>   -0.3480    1.0000 </r>
       <r>   -0.3212    1.0000 </r>
       <r>   -0.2865    1.0000 </r>
       <r>   -0.2577    1.0000 </r>
       <r>   -0.2482    1.0000 </r>
       <r>   -0.2324    1.0000 </r>
       <r>   -0.1998    1.0000 </r>
       <r>   -0.1980    1.0000 </r>
       <r>   -0.1456    1.0000 </r>
       <r>   -0.1314    1.0000 </r>
       <r>   -0.1265    1.0000 </r>
       <r>   -0.1071    1.0000 </r>
       <r>   -0.0674    1.0000 </r>
       <r>   -0.0590    1.0000 </r>
       <r>   -0.0059    1.0000 </r>
       <r>    0.0461    1.0000 </r>
       <r>    0.0628    1.0000 </r>
       <r>    0.0792    1.0000 </r>
       <r>    0.0973    1.0000 </r>
       <r>    0.1394    1.0000 </r>
       <r>    0.1860    1.0000 </r>
       <r>    0.1971    1.0000 </r>
       <r>    0.2085    1.0000 </r>
       <r>    0.2595    1.0000 </r>
       <r>    0.2649    1.0000 </r>
       <r>    0.2929    1.0000 </r>
       <r>    0.3120    1.0000 </r>
       <r>    0.3327    1.0000 </r>
       <r>    0.3507    1.0000 </r>
       <r>    0.3647    1.0000 </r>
       <r>    0.3976    0.9999 </r>
       <r>    0.4348    0.9998 </r>
       <r>    0.4685    0.9995 </r>
       <r>    0.4817    0.9992 </r>
       <r>    0.5123    0.9985 </r>
       <r>    0.5353    0.9974 </r>
       <r>    0.5484    0.9966 </r>
       <r>    0.6003    0.9902 </r>
       <r>    0.6547    0.9745 </r>
       <r>    0.7150    0.9363 </r>
       <r>    0.7308    0.9212 </r>
       <r>    0.7493    0.9001 </r>
       <r>    0.8870    0.6212 </r>
       <r>    0.9113    0.5544 </r>
       <r>    0.9789    0.3663 </r>
       <r>    0.9915    0.3334 </r>
       <r>    1.0592    0.1817 </r>
       <r>    1.0987    0.1173 </r>
       <r>    1.1486    0.0616 </r>
       <r>    1.2002    0.0283 </r>
       <r>    1.2353    0.0156 </r>
       <r>    1.3167    0.0032 </r>
       <r>    1.3293    0.0024 </r>
       <r>    1.3573    0.0013 </r>
       <r>    1.4325    0.0002 </r>
       <r>    1.5180    0.0000 </r>
       <r>    1.5571    0.0000 </r>
       <r>    1.5902    0.0000 </r>
       <r>    1.6508    0.0000 </r>
       <r>    1.6852    0.0000 </r>
       <r>    1.7185    0.0000 </r>
       <r>    1.7421    0.0000 </r>
       <r>    1.7784    0.0000 </r>
       <r>    1.8118    0.0000 </r>
       <r>    1.8572    0.0000 </r>
       <r>    1.9178    0.0000 </r>
       <r>    1.9598    0.0000 </r>
       <r>    1.9827    0.0000 </r>
       <r>    2.0174    0.0000 </r>
       <r>    2.0757    0.0000 </r>
       <r>    2.2358    0.0000 </r>
       <r>    2.3123    0.0000 </r>
       <r>    2.5756    0.0000 </r>
       <r>    2.7117    0.0000 </r>
       <r>    3.1351    0.0000 </r>
       <r>    3.3870    0.0000 </r>
       <r>    4.1091    0.0000 </r>
       <r>    4.3943    0.0000 </r>
       <r>    4.5273    0.0000 </r>
       <r>    4.6972    0.0000 </r>
       <r>    4.7560    0.0000 </r>
       <r>    4.8125    0.0000 </r>
       <r>    5.1940    0.0000 </r>
       <r>    5.2886    0.0000 </r>
       <r>    5.3880    0.0000 </r>
       <r>    5.4234    0.0000 </r>
       <r>    5.5210    0.0000 </r>
       <r>    5.6209    0.0000 </r>
       <r>    5.7171    0.0000 </r>
       <r>    5.8331    0.0000 </r>
       <r>    5.8779    0.0000 </r>
       <r>    5.9592    0.0000 </r>
       <r>    5.9937    0.0000 </r>
       <r>    6.0857    0.0000 </r>
       <r>    6.2229    0.0000 </r>
       <r>    6.2427    0.0000 </r>
       <r>    6.2969    0.0000 </r>
       <r>    6.3529    0.0000 </r>
       <r>    6.5205    0.0000 </r>
       <r>    6.6117    0.0000 </r>
       <r>    6.6311    0.0000 </r>
       <r>    6.6983    0.0000 </r>
       <r>    6.7680    0.0000 </r>
       <r>    6.7894    0.0000 </r>
       <r>    6.8524    0.0000 </r>
       <r>    6.8772    0.0000 </r>
       <r>    6.9598    0.0000 </r>
      </set>
     </set>
    </set>
   </array>
  </eigenvalues>
  <separator name="orbital magnetization" >
   <v name="MAGDIPOLOUT">      0.00000000      0.00000000      0.00000000</v>
  </separator>
  <dos>
   <i name="efermi">      0.93063005 </i>
   <total>
    <array>
     <dimension dim="1">gridpoints</dimension>
     <dimension dim="2">spin</dimension>
     <field>energy</field>
     <field>total</field>
     <field>integrated</field>
     <set>
      <set comment="spin 1">
       <r>   -66.7343     0.0000     0.0000 </r>
       <r>   -66.4769     0.0000     0.0000 </r>
       <r>   -66.2196     0.0000     0.0000 </r>
       <r>   -65.9622     0.0000     0.0000 </r>
       <r>   -65.7049     0.0000     0.0000 </r>
       <r>   -65.4475     0.0000     0.0000 </r>
       <r>   -65.1902     0.0000     0.0000 </r>
       <r>   -64.9329     0.0000     0.0000 </r>
       <r>   -64.6755     0.0000     0.0000 </r>
       <r>   -64.4182     0.0000     0.0000 </r>
       <r>   -64.1608     0.0000     0.0000 </r>
       <r>   -63.9035     0.0000     0.0000 </r>
       <r>   -63.6461     0.0939     0.0242 </r>
       <r>   -63.3888    13.2674     3.4385 </r>
       <r>   -63.1314   138.6897    39.1295 </r>
       <r>   -62.8741   199.7557    90.5355 </r>
       <r>   -62.6168    92.1045   114.2381 </r>
       <r>   -62.3594    61.0106   129.9388 </r>
       <r>   -62.1021    54.8368   144.0507 </r>
       <r>   -61.8447    28.8068   151.4640 </r>
       <r>   -61.5874    26.9306   158.3945 </r>
       <r>   -61.3300    10.0001   160.9679 </r>
       <r>   -61.0727     3.7493   161.9328 </r>
       <r>   -60.8153     0.2601   161.9997 </r>
       <r>   -60.5580     0.0010   162.0000 </r>
       <r>   -60.3007     0.0000   162.0000 </r>
       <r>   -60.0433     0.0000   162.0000 </r>
       <r>   -59.7860     0.0000   162.0000 </r>
       <r>   -59.5286     0.0000   162.0000 </r>
       <r>   -59.2713     0.0000   162.0000 </r>
       <r>   -59.0139     0.0000   162.0000 </r>
       <r>   -58.7566     0.0000   162.0000 </r>
       <r>   -58.4992     0.0000   162.0000 </r>
       <r>   -58.2419     0.0000   162.0000 </r>
       <r>   -57.9846     0.0000   162.0000 </r>
       <r>   -57.7272     0.0000   162.0000 </r>
       <r>   -57.4699     0.0000   162.0000 </r>
       <r>   -57.2125     0.0000   162.0000 </r>
       <r>   -56.9552     0.0000   162.0000 </r>
       <r>   -56.6978     0.0000   162.0000 </r>
       <r>   -56.4405     0.0000   162.0000 </r>
       <r>   -56.1831     0.0000   162.0000 </r>
       <r>   -55.9258     0.0000   162.0000 </r>
       <r>   -55.6685     0.0000   162.0000 </r>
       <r>   -55.4111     0.0000   162.0000 </r>
       <r>   -55.1538     0.0000   162.0000 </r>
       <r>   -54.8964     0.0000   162.0000 </r>
       <r>   -54.6391     0.0000   162.0000 </r>
       <r>   -54.3817     0.0000   162.0000 </r>
       <r>   -54.1244     0.0000   162.0000 </r>
       <r>   -53.8670     0.0000   162.0000 </r>
       <r>   -53.6097     0.0000   162.0000 </r>
       <r>   -53.3524     0.0000   162.0000 </r>
       <r>   -53.0950     0.0000   162.0000 </r>
       <r>   -52.8377     0.0000   162.0000 </r>
       <r>   -52.5803     0.0000   162.0000 </r>
       <r>   -52.3230     0.0000   162.0000 </r>
       <r>   -52.0656     0.0000   162.0000 </r>
       <r>   -51.8083     0.0000   162.0000 </r>
       <r>   -51.5509     0.0000   162.0000 </r>
       <r>   -51.2936     0.0000   162.0000 </r>
       <r>   -51.0363     0.0000   162.0000 </r>
       <r>   -50.7789     0.0000   162.0000 </r>
       <r>   -50.5216     0.0000   162.0000 </r>
       <r>   -50.2642     0.0000   162.0000 </r>
       <r>   -50.0069     0.0000   162.0000 </r>
       <r>   -49.7495     0.0000   162.0000 </r>
       <r>   -49.4922     0.0000   162.0000 </r>
       <r>   -49.2348     0.0000   162.0000 </r>
       <r>   -48.9775     0.0000   162.0000 </r>
       <r>   -48.7202     0.0000   162.0000 </r>
       <r>   -48.4628     0.0000   162.0000 </r>
       <r>   -48.2055     0.0000   162.0000 </r>
       <r>   -47.9481     0.0000   162.0000 </r>
       <r>   -47.6908     0.0000   162.0000 </r>
       <r>   -47.4334     0.0000   162.0000 </r>
       <r>   -47.1761     0.0000   162.0000 </r>
       <r>   -46.9187     0.0000   162.0000 </r>
       <r>   -46.6614     0.0000   162.0000 </r>
       <r>   -46.4041     0.0000   162.0000 </r>
       <r>   -46.1467     0.0000   162.0000 </r>
       <r>   -45.8894     0.0000   162.0000 </r>
       <r>   -45.6320     0.0000   162.0000 </r>
       <r>   -45.3747     0.0000   162.0000 </r>
       <r>   -45.1173     0.0000   162.0000 </r>
       <r>   -44.8600     0.0000   162.0000 </r>
       <r>   -44.6026     0.0000   162.0000 </r>
       <r>   -44.3453     0.0000   162.0000 </r>
       <r>   -44.0880     0.0000   162.0000 </r>
       <r>   -43.8306     0.0000   162.0000 </r>
       <r>   -43.5733     0.0000   162.0000 </r>
       <r>   -43.3159     0.0000   162.0000 </r>
       <r>   -43.0586     0.0000   162.0000 </r>
       <r>   -42.8012     0.0000   162.0000 </r>
       <r>   -42.5439     0.0000   162.0000 </r>
       <r>   -42.2865     0.0000   162.0000 </r>
       <r>   -42.0292     0.0000   162.0000 </r>
       <r>   -41.7719     0.0000   162.0000 </r>
       <r>   -41.5145     0.0000   162.0000 </r>
       <r>   -41.2572     0.0000   162.0000 </r>
       <r>   -40.9998     0.0000   162.0000 </r>
       <r>   -40.7425     0.0000   162.0000 </r>
       <r>   -40.4851     0.0000   162.0000 </r>
       <r>   -40.2278     0.0000   162.0000 </r>
       <r>   -39.9704     0.0000   162.0000 </r>
       <r>   -39.7131     0.0000   162.0000 </r>
       <r>   -39.4558     0.0000   162.0000 </r>
       <r>   -39.1984     0.0000   162.0000 </r>
       <r>   -38.9411     0.0000   162.0000 </r>
       <r>   -38.6837     0.0000   162.0000 </r>
       <r>   -38.4264     0.0000   162.0000 </r>
       <r>   -38.1690     0.0000   162.0000 </r>
       <r>   -37.9117     0.0000   162.0000 </r>
       <r>   -37.6543     0.0000   162.0000 </r>
       <r>   -37.3970     0.0000   162.0000 </r>
       <r>   -37.1397     0.0000   162.0000 </r>
       <r>   -36.8823     0.0000   162.0000 </r>
       <r>   -36.6250     0.0000   162.0000 </r>
       <r>   -36.3676     0.0000   162.0000 </r>
       <r>   -36.1103     0.0000   162.0000 </r>
       <r>   -35.8529     0.0000   162.0000 </r>
       <r>   -35.5956     0.0000   162.0000 </r>
       <r>   -35.3382     0.0000   162.0000 </r>
       <r>   -35.0809     0.0000   162.0000 </r>
       <r>   -34.8236     0.0000   162.0000 </r>
       <r>   -34.5662     0.0000   162.0000 </r>
       <r>   -34.3089     0.0000   162.0000 </r>
       <r>   -34.0515     0.0000   162.0000 </r>
       <r>   -33.7942     0.0000   162.0000 </r>
       <r>   -33.5368     0.0000   162.0000 </r>
       <r>   -33.2795     0.0000   162.0000 </r>
       <r>   -33.0222     0.0000   162.0000 </r>
       <r>   -32.7648     0.0000   162.0000 </r>
       <r>   -32.5075     0.0000   162.0000 </r>
       <r>   -32.2501     0.0000   162.0000 </r>
       <r>   -31.9928     0.0000   162.0000 </r>
       <r>   -31.7354     0.0000   162.0000 </r>
       <r>   -31.4781     0.0000   162.0000 </r>
       <r>   -31.2207     0.0000   162.0000 </r>
       <r>   -30.9634     0.0000   162.0000 </r>
       <r>   -30.7061     0.0000   162.0000 </r>
       <r>   -30.4487     0.0000   162.0000 </r>
       <r>   -30.1914     0.0000   162.0000 </r>
       <r>   -29.9340     0.0000   162.0000 </r>
       <r>   -29.6767     0.0000   162.0000 </r>
       <r>   -29.4193     0.0000   162.0000 </r>
       <r>   -29.1620     0.0000   162.0000 </r>
       <r>   -28.9046     0.0000   162.0000 </r>
       <r>   -28.6473     0.0000   162.0000 </r>
       <r>   -28.3900     0.0000   162.0000 </r>
       <r>   -28.1326     0.0000   162.0000 </r>
       <r>   -27.8753     0.0000   162.0000 </r>
       <r>   -27.6179     0.0000   162.0000 </r>
       <r>   -27.3606     0.0000   162.0000 </r>
       <r>   -27.1032     0.0000   162.0000 </r>
       <r>   -26.8459     0.0000   162.0000 </r>
       <r>   -26.5885     0.0000   162.0000 </r>
       <r>   -26.3312     0.0000   162.0000 </r>
       <r>   -26.0739     0.0000   162.0000 </r>
       <r>   -25.8165     0.0000   162.0000 </r>
       <r>   -25.5592     0.0000   162.0000 </r>
       <r>   -25.3018     0.0000   162.0000 </r>
       <r>   -25.0445     0.0000   162.0000 </r>
       <r>   -24.7871     0.0000   162.0000 </r>
       <r>   -24.5298     0.0000   162.0000 </r>
       <r>   -24.2724     0.0000   162.0000 </r>
       <r>   -24.0151     0.0000   162.0000 </r>
       <r>   -23.7578     0.0000   162.0000 </r>
       <r>   -23.5004     0.0000   162.0000 </r>
       <r>   -23.2431     0.0000   162.0000 </r>
       <r>   -22.9857     0.0000   162.0000 </r>
       <r>   -22.7284     0.0000   162.0000 </r>
       <r>   -22.4710     0.0000   162.0000 </r>
       <r>   -22.2137     0.0000   162.0000 </r>
       <r>   -21.9563     0.0000   162.0000 </r>
       <r>   -21.6990     0.0000   162.0000 </r>
       <r>   -21.4417     0.0000   162.0000 </r>
       <r>   -21.1843     0.0000   162.0000 </r>
       <r>   -20.9270     0.0000   162.0000 </r>
       <r>   -20.6696     0.0000   162.0000 </r>
       <r>   -20.4123     0.0000   162.0000 </r>
       <r>   -20.1549     0.0000   162.0000 </r>
       <r>   -19.8976     0.0000   162.0000 </r>
       <r>   -19.6402     0.0000   162.0000 </r>
       <r>   -19.3829     0.0000   162.0000 </r>
       <r>   -19.1256     0.0000   162.0000 </r>
       <r>   -18.8682     0.0000   162.0000 </r>
       <r>   -18.6109     0.0000   162.0000 </r>
       <r>   -18.3535     0.0000   162.0000 </r>
       <r>   -18.0962     0.0000   162.0000 </r>
       <r>   -17.8388     0.0000   162.0000 </r>
       <r>   -17.5815     0.0000   162.0000 </r>
       <r>   -17.3241     0.0000   162.0000 </r>
       <r>   -17.0668     0.0000   162.0000 </r>
       <r>   -16.8095     0.0000   162.0000 </r>
       <r>   -16.5521     0.0000   162.0000 </r>
       <r>   -16.2948     0.0000   162.0000 </r>
       <r>   -16.0374     0.0000   162.0000 </r>
       <r>   -15.7801     0.0000   162.0000 </r>
       <r>   -15.5227     0.0000   162.0000 </r>
       <r>   -15.2654     0.0000   162.0000 </r>
       <r>   -15.0080     0.0001   162.0000 </r>
       <r>   -14.7507     0.0769   162.0198 </r>
       <r>   -14.4934     2.2931   162.6099 </r>
       <r>   -14.2360     4.6619   163.8096 </r>
       <r>   -13.9787     0.7607   164.0054 </r>
       <r>   -13.7213     2.4945   164.6474 </r>
       <r>   -13.4640    15.7578   168.7025 </r>
       <r>   -13.2066    21.2439   174.1695 </r>
       <r>   -12.9493    18.7795   179.0023 </r>
       <r>   -12.6919    21.2050   184.4593 </r>
       <r>   -12.4346    31.4531   192.5536 </r>
       <r>   -12.1773    21.8704   198.1819 </r>
       <r>   -11.9199    22.7934   204.0476 </r>
       <r>   -11.6626    15.2316   207.9674 </r>
       <r>   -11.4052    12.4904   211.1817 </r>
       <r>   -11.1479     3.5425   212.0933 </r>
       <r>   -10.8905     5.3493   213.4700 </r>
       <r>   -10.6332     8.0459   215.5405 </r>
       <r>   -10.3758     1.7521   215.9914 </r>
       <r>   -10.1185     0.0333   216.0000 </r>
       <r>    -9.8612     0.0000   216.0000 </r>
       <r>    -9.6038     0.0000   216.0000 </r>
       <r>    -9.3465     0.0000   216.0000 </r>
       <r>    -9.0891     0.0000   216.0000 </r>
       <r>    -8.8318     0.0000   216.0000 </r>
       <r>    -8.5744     0.0000   216.0000 </r>
       <r>    -8.3171     0.0000   216.0000 </r>
       <r>    -8.0597     0.0000   216.0000 </r>
       <r>    -7.8024     0.0000   216.0000 </r>
       <r>    -7.5451     0.0000   216.0000 </r>
       <r>    -7.2877     0.0000   216.0000 </r>
       <r>    -7.0304     0.0000   216.0000 </r>
       <r>    -6.7730     0.0000   216.0000 </r>
       <r>    -6.5157     0.0133   216.0034 </r>
       <r>    -6.2583     1.1192   216.2914 </r>
       <r>    -6.0010     9.5514   218.7494 </r>
       <r>    -5.7436    20.8938   224.1263 </r>
       <r>    -5.4863    18.1142   228.7879 </r>
       <r>    -5.2290    33.4120   237.3863 </r>
       <r>    -4.9716    42.6993   248.3748 </r>
       <r>    -4.7143    33.0380   256.8769 </r>
       <r>    -4.4569    30.6271   264.7586 </r>
       <r>    -4.1996    27.6112   271.8642 </r>
       <r>    -3.9422    27.3905   278.9130 </r>
       <r>    -3.6849    38.6054   288.8479 </r>
       <r>    -3.4275    49.9846   301.7111 </r>
       <r>    -3.1702    52.5711   315.2400 </r>
       <r>    -2.9129    51.4260   328.4742 </r>
       <r>    -2.6555    45.9601   340.3018 </r>
       <r>    -2.3982    39.4605   350.4567 </r>
       <r>    -2.1408    42.8059   361.4726 </r>
       <r>    -1.8835    41.7631   372.2201 </r>
       <r>    -1.6261    39.5748   382.4044 </r>
       <r>    -1.3688    53.3640   396.1373 </r>
       <r>    -1.1114    75.6027   415.5932 </r>
       <r>    -0.8541   105.7043   442.7956 </r>
       <r>    -0.5968   131.6301   476.6699 </r>
       <r>    -0.3394   112.8304   505.7062 </r>
       <r>    -0.0821    89.7104   528.7926 </r>
       <r>     0.1753    75.3796   548.1912 </r>
       <r>     0.4326    78.5385   568.4026 </r>
       <r>     0.6900    61.0401   584.1109 </r>
       <r>     0.9473    40.9906   594.6596 </r>
       <r>     1.2047    41.4991   605.3392 </r>
       <r>     1.4620    40.8658   615.8558 </r>
       <r>     1.7193    45.1966   627.4869 </r>
       <r>     1.9767    47.4062   639.6866 </r>
       <r>     2.2340    28.5423   647.0318 </r>
       <r>     2.4914    13.0491   650.3899 </r>
       <r>     2.7487    10.1023   652.9897 </r>
       <r>     3.0061     5.2037   654.3288 </r>
       <r>     3.2634     6.5624   656.0176 </r>
       <r>     3.5208     6.3403   657.6493 </r>
       <r>     3.7781     1.4157   658.0136 </r>
       <r>     4.0354     2.3346   658.6144 </r>
       <r>     4.2928     6.8674   660.3817 </r>
       <r>     4.5501    11.5865   663.3634 </r>
       <r>     4.8075    17.1491   667.7766 </r>
       <r>     5.0648    10.1810   670.3966 </r>
       <r>     5.3222    14.5392   674.1382 </r>
       <r>     5.5795    22.9657   680.0483 </r>
       <r>     5.8369    23.0600   685.9827 </r>
       <r>     6.0942    26.9177   692.9098 </r>
       <r>     6.3515    26.6843   699.7768 </r>
       <r>     6.6089    25.5786   706.3593 </r>
       <r>     6.8662    33.7021   715.0324 </r>
       <r>     7.1236    17.6831   719.5830 </r>
       <r>     7.3809     1.6067   719.9965 </r>
       <r>     7.6383     0.0136   720.0000 </r>
       <r>     7.8956     0.0000   720.0000 </r>
       <r>     8.1530     0.0000   720.0000 </r>
       <r>     8.4103     0.0000   720.0000 </r>
       <r>     8.6676     0.0000   720.0000 </r>
       <r>     8.9250     0.0000   720.0000 </r>
       <r>     9.1823     0.0000   720.0000 </r>
       <r>     9.4397     0.0000   720.0000 </r>
       <r>     9.6970     0.0000   720.0000 </r>
       <r>     9.9544     0.0000   720.0000 </r>
       <r>    10.2117     0.0000   720.0000 </r>
       <r>    10.4691     0.0000   720.0000 </r>
      </set>
     </set>
    </array>
   </total>
  </dos>
 </calculation>
 <structure name="finalpos" >
  <crystal>
   <varray name="basis" >
    <v>       8.42818148      -4.55101034       0.00000000 </v>
    <v>       0.00000000      10.07973298       0.00000000 </v>
    <v>       0.00000000       0.00000000      19.01113574 </v>
   </varray>
   <i name="volume">   1615.06858132 </i>
   <varray name="rec_basis" >
    <v>       0.11864956       0.00000000       0.00000000 </v>
    <v>       0.05357040       0.09920898       0.00000000 </v>
    <v>       0.00000000       0.00000000       0.05260075 </v>
   </varray>
  </crystal>
  <varray name="positions" >
   <v>       0.64527023       0.91524316       0.10295923 </v>
   <v>       0.58263032       0.78996333       0.25739808 </v>
   <v>       0.51999040       0.66468351       0.41183694 </v>
   <v>       0.33281687       0.29033643       0.05147962 </v>
   <v>       0.27017695       0.16505661       0.20591847 </v>
   <v>       0.20753704       0.03977678       0.36035732 </v>
   <v>       0.02036350       0.66542971       0.00000000 </v>
   <v>       0.95772359       0.54014988       0.15443885 </v>
   <v>       0.89508368       0.41487006       0.30887770 </v>
   <v>       0.66182007       0.68413684       0.06215556 </v>
   <v>       0.59918016       0.55885702       0.21659441 </v>
   <v>       0.53654024       0.43357719       0.37103327 </v>
   <v>       0.28672679       0.93395029       0.16511480 </v>
   <v>       0.22408688       0.80867046       0.31955365 </v>
   <v>       0.16144697       0.68339064       0.47399250 </v>
   <v>       0.97427343       0.30904357       0.11363518 </v>
   <v>       0.91163352       0.18376374       0.26807403 </v>
   <v>       0.84899361       0.05848391       0.42251288 </v>
   <v>       0.90947623       0.91524316       0.10295923 </v>
   <v>       0.84683632       0.78996333       0.25739808 </v>
   <v>       0.78419640       0.66468351       0.41183694 </v>
   <v>       0.59702287       0.29033643       0.05147962 </v>
   <v>       0.53438295       0.16505661       0.20591847 </v>
   <v>       0.47174304       0.03977678       0.36035732 </v>
   <v>       0.22192959       0.54014988       0.15443885 </v>
   <v>       0.15928968       0.41487006       0.30887770 </v>
   <v>       0.09664977       0.28959023       0.46331655 </v>
   <v>       0.82518168       0.67443006       0.15301029 </v>
   <v>       0.76254177       0.54915023       0.30744914 </v>
   <v>       0.69990185       0.42387040       0.46188799 </v>
   <v>       0.51272831       0.04952333       0.10153067 </v>
   <v>       0.45008840       0.92424350       0.25596953 </v>
   <v>       0.38744849       0.79896368       0.41040838 </v>
   <v>       0.20027495       0.42461661       0.05005106 </v>
   <v>       0.13763504       0.29933678       0.20448991 </v>
   <v>       0.07499513       0.17405695       0.35892876 </v>
   <v>       0.86674764       0.09399199       0.05052930 </v>
   <v>       0.80410773       0.96871216       0.20496815 </v>
   <v>       0.74146782       0.84343234       0.35940701 </v>
   <v>       0.49165437       0.34380544       0.15348854 </v>
   <v>       0.42901446       0.21852561       0.30792739 </v>
   <v>       0.36637454       0.09324579       0.46236624 </v>
   <v>       0.17920101       0.71889871       0.10200892 </v>
   <v>       0.11656109       0.59361889       0.25644777 </v>
   <v>       0.05392118       0.46833906       0.41088662 </v>
   <v>       0.48875168       0.67443006       0.15301029 </v>
   <v>       0.42611177       0.54915023       0.30744914 </v>
   <v>       0.36347185       0.42387040       0.46188799 </v>
   <v>       0.17629831       0.04952333       0.10153067 </v>
   <v>       0.11365840       0.92424350       0.25596953 </v>
   <v>       0.05101849       0.79896368       0.41040838 </v>
   <v>       0.86384495       0.42461661       0.05005106 </v>
   <v>       0.80120504       0.29933678       0.20448991 </v>
   <v>       0.73856513       0.17405695       0.35892876 </v>
  </varray>
 </structure>
</modeling>
