<?xml version="1.0" encoding="ISO-8859-1"?>
<modeling>
 <generator>
  <i name="program" type="string">vasp </i>
  <i name="version" type="string">5.4.4.18Apr17-6-g9f103f2a35  </i>
  <i name="subversion" type="string">(build Aug 13 2019 17:33:20) gamma-only         parallel </i>
  <i name="platform" type="string">LinuxIFC </i>
  <i name="date" type="string">2020 05 11 </i>
  <i name="time" type="string">07:26:43 </i>
 </generator>
 <incar>
  <i type="string" name="SYSTEM">"Millerite NiS"</i>
  <i type="string" name="PREC">normal</i>
  <i type="int" name="NSIM">     4</i>
  <i type="int" name="NELM">   100</i>
  <i name="ENCUT">    450.00000000</i>
  <i type="string" name="LREAL">A</i>
  <i type="int" name="ISMEAR">     0</i>
  <i type="int" name="NWRITE">     2</i>
  <i type="logical" name="LWAVE"> F  </i>
  <i type="logical" name="LCHARG"> F  </i>
  <v type="int" name="KPOINT_BSE">    -1     0     0     0</v>
  <i type="int" name="NELM">   100</i>
 </incar>
 <structure name="primitive_cell" >
  <crystal>
   <varray name="basis" >
    <v>      11.25646304       0.00000000       0.00000000 </v>
    <v>       5.04456212      10.06282034       0.00000000 </v>
    <v>       0.00000000       0.00000000      22.88364939 </v>
   </varray>
   <i name="volume">   2592.07135999 </i>
   <varray name="rec_basis" >
    <v>       0.08883785      -0.04453504       0.00000000 </v>
    <v>       0.00000000       0.09937572       0.00000000 </v>
    <v>       0.00000000       0.00000000       0.04369932 </v>
   </varray>
  </crystal>
  <varray name="positions" >
   <v>       0.26092070       0.47878036       0.29050611 </v>
   <v>       0.07287764      -0.33317657       0.30639927 </v>
   <v>       0.17409868       0.39738738       0.22126075 </v>
   <v>       0.34231368      -0.43439761       0.22126075 </v>
   <v>       0.43627354       0.47164251       0.34956450 </v>
   <v>       0.26805855       0.30342751       0.34956450 </v>
   <v>       0.36819893       0.23939913       0.25660749 </v>
   <v>      -0.49969806       0.37150212       0.25660749 </v>
   <v>       0.16162494      -0.42260357       0.41115353 </v>
   <v>       0.35488056       0.38482049       0.41880986 </v>
   <v>       0.16696083      -0.42725976       0.16220237 </v>
   <v>       0.47891775       0.26078330       0.17809552 </v>
   <v>      -0.42712237       0.16682343       0.30639927 </v>
   <v>       0.00030194       0.37150212       0.25660749 </v>
   <v>       0.09426181      -0.22245774       0.38491124 </v>
   <v>      -0.03784120      -0.35456074       0.38491124 </v>
   <v>       0.36819893      -0.26060087       0.25660749 </v>
   <v>       0.26805855      -0.19657249       0.34956450 </v>
   <v>      -0.06372646       0.47164251       0.34956450 </v>
   <v>       0.46215880       0.14543926       0.38491124 </v>
   <v>       0.40634206       0.46546199       0.12830375 </v>
   <v>       0.27423906       0.33335899       0.12830375 </v>
   <v>      -0.40573819       0.27754226       0.38491124 </v>
   <v>       0.09426181       0.27754226       0.38491124 </v>
   <v>       0.46215880      -0.35456074       0.38491124 </v>
   <v>       0.00030194      -0.12849788       0.25660749 </v>
   <v>      -0.13180107      -0.26060087       0.25660749 </v>
   <v>      -0.02108225      -0.23921670       0.17809552 </v>
   <v>       0.25846449      -0.34036261       0.11136469 </v>
   <v>       0.08349369       0.47951121       0.11020530 </v>
   <v>       0.34231368       0.06560239       0.22126075 </v>
   <v>      -0.32590132       0.39738738       0.22126075 </v>
   <v>      -0.15768632      -0.43439761       0.22126075 </v>
   <v>       0.17409868      -0.10261262       0.22126075 </v>
   <v>       0.07287763       0.16682343       0.30639927 </v>
   <v>      -0.42712236      -0.33317657       0.30639927 </v>
   <v>       0.40094547       0.46193133       0.49265850 </v>
   <v>       0.36201842       0.20946765       0.47786825 </v>
   <v>       0.02361390       0.37398810       0.46680174 </v>
   <v>      -0.06372646      -0.02835749       0.34956450 </v>
   <v>      -0.23194145      -0.19657249       0.34956450 </v>
   <v>      -0.23194145       0.30342751       0.34956450 </v>
   <v>       0.43627354      -0.02835749       0.34956450 </v>
   <v>      -0.47403267       0.26164896       0.48550719 </v>
   <v>       0.47891775      -0.23921670       0.17809552 </v>
   <v>      -0.02108225       0.26078330       0.17809552 </v>
   <v>       0.27423907      -0.16664101       0.12830375 </v>
   <v>      -0.09365794       0.46546199       0.12830375 </v>
   <v>       0.48471254       0.19260246       0.09025471 </v>
   <v>      -0.35362938       0.09221044       0.42815422 </v>
   <v>       0.38177912       0.37721331       0.05410943 </v>
   <v>       0.39268404      -0.27291801       0.47348717 </v>
   <v>      -0.42263629       0.49102710       0.10363347 </v>
   <v>      -0.34392387       0.33778308       0.46273148 </v>
   <v>      -0.33303917       0.07274024       0.16220237 </v>
   <v>      -0.14511944      -0.11517951       0.41880986 </v>
   <v>       0.26092070      -0.02121964       0.29050611 </v>
   <v>      -0.23907930       0.47878036       0.29050611 </v>
   <v>       0.01854334      -0.12989052       0.46789119 </v>
   <v>      -0.14046082      -0.28107892       0.46539430 </v>
   <v>      -0.45341459      -0.46656367       0.49213044 </v>
   <v>       0.24835381       0.15956225       0.09295701 </v>
   <v>       0.16696083       0.07274024       0.16220237 </v>
   <v>       0.35488056      -0.11517951       0.41880986 </v>
   <v>      -0.14511944       0.38482049       0.41880986 </v>
   <v>      -0.23907930      -0.02121964       0.29050611 </v>
   <v>      -0.33303917      -0.42725976       0.16220237 </v>
   <v>       0.17784796       0.19439759       0.49787798 </v>
   <v>       0.16683750       0.07286357       0.43470302 </v>
   <v>      -0.33316250      -0.42713643       0.43470302 </v>
   <v>      -0.13180107       0.23939913       0.25660749 </v>
   <v>      -0.49969806      -0.12849788       0.25660749 </v>
   <v>      -0.40618815       0.32164988       0.06139745 </v>
   <v>      -0.15768632       0.06560239       0.22126075 </v>
   <v>      -0.32590132      -0.10261262       0.22126075 </v>
   <v>      -0.22576093      -0.16664101       0.12830375 </v>
   <v>      -0.09365794      -0.03453801       0.12830375 </v>
   <v>      -0.03784120       0.14543926       0.38491124 </v>
   <v>      -0.22576094       0.33335899       0.12830375 </v>
   <v>       0.40634206      -0.03453801       0.12830375 </v>
   <v>      -0.40573819      -0.22245774       0.38491124 </v>
   <v>      -0.45276566       0.04504666       0.49535962 </v>
   <v>      -0.24064616      -0.34364820       0.10569914 </v>
   <v>      -0.24514121       0.16234365       0.10394566 </v>
   <v>       0.03180520       0.20265708       0.08937486 </v>
   <v>      -0.41986118      -0.00865276       0.09295701 </v>
   <v>       0.08013882      -0.00865276       0.09295701 </v>
   <v>      -0.12010628      -0.14020138       0.06111374 </v>
   <v>      -0.12001711      -0.14939781      -0.47806452 </v>
   <v>       0.07281802       0.01843033       0.49757141 </v>
   <v>      -0.08126130       0.20722513       0.47398692 </v>
   <v>      -0.13132394       0.38464374      -0.47920976 </v>
   <v>       0.42344917       0.03358460       0.03427565 </v>
   <v>      -0.30574079      -0.30843974       0.49524110 </v>
   <v>      -0.46976658      -0.12231736       0.47786825 </v>
   <v>       0.40583487      -0.14626287       0.05738108 </v>
   <v>      -0.11504211       0.35474317       0.04979178 </v>
   <v>       0.34479743      -0.08097225      -0.48162802 </v>
   <v>      -0.28386833      -0.47464836       0.05743079 </v>
   <v>      -0.28340060       0.03648564       0.05099977 </v>
   <v>       0.22460854       0.01003994       0.04802694 </v>
   <v>      -0.30344642      -0.46165695      -0.45306896 </v>
   <v>       0.18424754       0.05711661      -0.44127532 </v>
   <v>      -0.29479626      -0.01351443      -0.45055695 </v>
  </varray>
 </structure>
 <varray name="primitive_index" >
  <v type="int" >        1 </v>
  <v type="int" >       79 </v>
  <v type="int" >       63 </v>
  <v type="int" >       87 </v>
  <v type="int" >       59 </v>
  <v type="int" >       64 </v>
  <v type="int" >        8 </v>
  <v type="int" >       25 </v>
  <v type="int" >       80 </v>
  <v type="int" >        2 </v>
  <v type="int" >       31 </v>
  <v type="int" >       56 </v>
  <v type="int" >       66 </v>
  <v type="int" >       10 </v>
  <v type="int" >       37 </v>
  <v type="int" >       47 </v>
  <v type="int" >       34 </v>
  <v type="int" >       90 </v>
  <v type="int" >       72 </v>
  <v type="int" >        9 </v>
  <v type="int" >       13 </v>
  <v type="int" >        7 </v>
  <v type="int" >       26 </v>
  <v type="int" >       11 </v>
  <v type="int" >       35 </v>
  <v type="int" >       36 </v>
  <v type="int" >       46 </v>
  <v type="int" >       95 </v>
  <v type="int" >       86 </v>
  <v type="int" >       62 </v>
  <v type="int" >       61 </v>
  <v type="int" >       76 </v>
  <v type="int" >      100 </v>
  <v type="int" >       89 </v>
  <v type="int" >       53 </v>
  <v type="int" >       92 </v>
  <v type="int" >       57 </v>
  <v type="int" >       65 </v>
  <v type="int" >       58 </v>
  <v type="int" >       98 </v>
  <v type="int" >      103 </v>
  <v type="int" >       77 </v>
  <v type="int" >       85 </v>
  <v type="int" >        3 </v>
  <v type="int" >       82 </v>
  <v type="int" >       69 </v>
  <v type="int" >       33 </v>
  <v type="int" >       27 </v>
  <v type="int" >       18 </v>
  <v type="int" >       67 </v>
  <v type="int" >       55 </v>
  <v type="int" >       91 </v>
  <v type="int" >       75 </v>
  <v type="int" >       71 </v>
  <v type="int" >       19 </v>
  <v type="int" >       40 </v>
  <v type="int" >       28 </v>
  <v type="int" >       15 </v>
  <v type="int" >       84 </v>
  <v type="int" >      104 </v>
  <v type="int" >       43 </v>
  <v type="int" >       60 </v>
  <v type="int" >        5 </v>
  <v type="int" >       29 </v>
  <v type="int" >       16 </v>
  <v type="int" >       39 </v>
  <v type="int" >       42 </v>
  <v type="int" >       12 </v>
  <v type="int" >       54 </v>
  <v type="int" >       93 </v>
  <v type="int" >       23 </v>
  <v type="int" >       48 </v>
  <v type="int" >       21 </v>
  <v type="int" >       74 </v>
  <v type="int" >      102 </v>
  <v type="int" >       45 </v>
  <v type="int" >       51 </v>
  <v type="int" >       24 </v>
  <v type="int" >       22 </v>
  <v type="int" >       38 </v>
  <v type="int" >       49 </v>
  <v type="int" >       20 </v>
  <v type="int" >       99 </v>
  <v type="int" >       73 </v>
  <v type="int" >        4 </v>
  <v type="int" >      101 </v>
  <v type="int" >       88 </v>
  <v type="int" >       94 </v>
  <v type="int" >       41 </v>
  <v type="int" >        6 </v>
  <v type="int" >       78 </v>
  <v type="int" >       17 </v>
  <v type="int" >       14 </v>
  <v type="int" >       50 </v>
  <v type="int" >       97 </v>
  <v type="int" >       81 </v>
  <v type="int" >       68 </v>
  <v type="int" >       30 </v>
  <v type="int" >       52 </v>
  <v type="int" >       44 </v>
  <v type="int" >       32 </v>
  <v type="int" >       70 </v>
  <v type="int" >       83 </v>
  <v type="int" >       96 </v>
 </varray>
 <kpoints>
  <generation param="Gamma">
   <v type="int" name="divisions">       1        1        1 </v>
   <v name="usershift">      0.00000000       0.00000000       0.00000000 </v>
   <v name="genvec1">      1.00000000       0.00000000       0.00000000 </v>
   <v name="genvec2">      0.00000000       1.00000000       0.00000000 </v>
   <v name="genvec3">      0.00000000       0.00000000       1.00000000 </v>
   <v name="shift">      0.00000000       0.00000000       0.00000000 </v>
  </generation>
  <varray name="kpointlist" >
   <v>       0.00000000       0.00000000       0.00000000 </v>
  </varray>
  <varray name="weights" >
   <v>       1.00000000 </v>
  </varray>
 </kpoints>
 <parameters>
  <separator name="general" >
   <i type="string" name="SYSTEM">"Millerite NiS"</i>
   <i type="logical" name="LCOMPAT"> F  </i>
  </separator>
  <separator name="electronic" >
   <i type="string" name="PREC">normal</i>
   <i name="ENMAX">    450.00000000</i>
   <i name="ENAUG">    703.44300000</i>
   <i name="EDIFF">      0.00010000</i>
   <i type="int" name="IALGO">    38</i>
   <i type="int" name="IWAVPR">    10</i>
   <i type="int" name="NBANDS">   686</i>
   <i name="NELECT">   1144.00000000</i>
   <i type="int" name="TURBO">     0</i>
   <i type="int" name="IRESTART">     0</i>
   <i type="int" name="NREBOOT">     0</i>
   <i type="int" name="NMIN">     0</i>
   <i name="EREF">      0.00000000</i>
   <separator name="electronic smearing" >
    <i type="int" name="ISMEAR">     0</i>
    <i name="SIGMA">      0.20000000</i>
    <i name="KSPACING">      0.50000000</i>
    <i type="logical" name="KGAMMA"> T  </i>
   </separator>
   <separator name="electronic projectors" >
    <i type="logical" name="LREAL"> T  </i>
    <v name="ROPT">     -0.00050000     -0.00050000</v>
    <i type="int" name="LMAXPAW">  -100</i>
    <i type="int" name="LMAXMIX">     2</i>
    <i type="logical" name="NLSPLINE"> F  </i>
   </separator>
   <separator name="electronic startup" >
    <i type="int" name="ISTART">     0</i>
    <i type="int" name="ICHARG">     2</i>
    <i type="int" name="INIWAV">     1</i>
   </separator>
   <separator name="electronic spin" >
    <i type="int" name="ISPIN">     1</i>
    <i type="logical" name="LNONCOLLINEAR"> F  </i>
    <v name="MAGMOM">      1.00000000      1.00000000      1.00000000      1.00000000      1.00000000      1.00000000      1.00000000      1.00000000      1.00000000      1.00000000      1.00000000      1.00000000      1.00000000      1.00000000      1.00000000      1.00000000      1.00000000      1.00000000      1.00000000      1.00000000
      1.00000000      1.00000000      1.00000000      1.00000000      1.00000000      1.00000000      1.00000000      1.00000000      1.00000000      1.00000000      1.00000000      1.00000000      1.00000000      1.00000000      1.00000000      1.00000000      1.00000000      1.00000000      1.00000000      1.00000000
      1.00000000      1.00000000      1.00000000      1.00000000      1.00000000      1.00000000      1.00000000      1.00000000      1.00000000      1.00000000      1.00000000      1.00000000      1.00000000      1.00000000      1.00000000      1.00000000      1.00000000      1.00000000      1.00000000      1.00000000
      1.00000000      1.00000000      1.00000000      1.00000000      1.00000000      1.00000000      1.00000000      1.00000000      1.00000000      1.00000000      1.00000000      1.00000000      1.00000000      1.00000000      1.00000000      1.00000000      1.00000000      1.00000000      1.00000000      1.00000000
      1.00000000      1.00000000      1.00000000      1.00000000      1.00000000      1.00000000      1.00000000      1.00000000      1.00000000      1.00000000      1.00000000      1.00000000      1.00000000      1.00000000      1.00000000      1.00000000      1.00000000      1.00000000      1.00000000      1.00000000
      1.00000000      1.00000000      1.00000000      1.00000000</v>
    <i name="NUPDOWN">     -1.00000000</i>
    <i type="logical" name="LSORBIT"> F  </i>
    <v name="SAXIS">      0.00000000      0.00000000      1.00000000</v>
    <i type="logical" name="LSPIRAL"> F  </i>
    <v name="QSPIRAL">      0.00000000      0.00000000      0.00000000</v>
    <i type="logical" name="LZEROZ"> F  </i>
   </separator>
   <separator name="electronic exchange-correlation" >
    <i type="logical" name="LASPH"> F  </i>
    <i type="logical" name="LMETAGGA"> F  </i>
   </separator>
   <separator name="electronic convergence" >
    <i type="int" name="NELM">   100</i>
    <i type="int" name="NELMDL">    -5</i>
    <i type="int" name="NELMIN">     2</i>
    <i name="ENINI">    450.00000000</i>
    <separator name="electronic convergence detail" >
     <i type="logical" name="LDIAG"> T  </i>
     <i type="logical" name="LSUBROT"> F  </i>
     <i name="WEIMIN">      0.00000000</i>
     <i name="EBREAK">      0.00000004</i>
     <i name="DEPER">      0.30000000</i>
     <i type="int" name="NRMM">     4</i>
     <i name="TIME">      0.40000000</i>
    </separator>
   </separator>
   <separator name="electronic mixer" >
    <i name="AMIX">      0.40000000</i>
    <i name="BMIX">      1.00000000</i>
    <i name="AMIN">      0.10000000</i>
    <i name="AMIX_MAG">      1.60000000</i>
    <i name="BMIX_MAG">      1.00000000</i>
    <separator name="electronic mixer details" >
     <i type="int" name="IMIX">     4</i>
     <i type="logical" name="MIXFIRST"> F  </i>
     <i type="int" name="MAXMIX">   -45</i>
     <i name="WC">    100.00000000</i>
     <i type="int" name="INIMIX">     1</i>
     <i type="int" name="MIXPRE">     1</i>
     <i type="int" name="MREMOVE">     5</i>
    </separator>
   </separator>
   <separator name="electronic dipolcorrection" >
    <i type="logical" name="LDIPOL"> F  </i>
    <i type="logical" name="LMONO"> F  </i>
    <i type="int" name="IDIPOL">     0</i>
    <i name="EPSILON">      1.00000000</i>
    <v name="DIPOL">   -100.00000000   -100.00000000   -100.00000000</v>
    <i name="EFIELD">      0.00000000</i>
   </separator>
  </separator>
  <separator name="grids" >
   <i type="int" name="NGX">    60</i>
   <i type="int" name="NGY">    60</i>
   <i type="int" name="NGZ">   120</i>
   <i type="int" name="NGXF">   120</i>
   <i type="int" name="NGYF">   120</i>
   <i type="int" name="NGZF">   240</i>
   <i type="logical" name="ADDGRID"> F  </i>
  </separator>
  <separator name="ionic" >
   <i type="int" name="NSW">     0</i>
   <i type="int" name="IBRION">    -1</i>
   <i type="int" name="MDALGO">     0</i>
   <i type="int" name="ISIF">     2</i>
   <i name="PSTRESS">      0.00000000</i>
   <i name="EDIFFG">      0.00100000</i>
   <i type="int" name="NFREE">     0</i>
   <i name="POTIM">      0.50000000</i>
   <i name="SMASS">     -3.00000000</i>
   <i name="SCALEE">      1.00000000</i>
  </separator>
  <separator name="ionic md" >
   <i name="TEBEG">      0.00010000</i>
   <i name="TEEND">      0.00010000</i>
   <i type="int" name="NBLOCK">     1</i>
   <i type="int" name="KBLOCK">     1</i>
   <i type="int" name="NPACO">   256</i>
   <i name="APACO">     16.00000000</i>
  </separator>
  <separator name="symmetry" >
   <i type="int" name="ISYM">     2</i>
   <i name="SYMPREC">      0.00001000</i>
  </separator>
  <separator name="dos" >
   <i type="int" name="LORBIT">     0</i>
   <v name="RWIGS">     -1.00000000     -1.00000000</v>
   <i type="int" name="NEDOS">   301</i>
   <i name="EMIN">     10.00000000</i>
   <i name="EMAX">    -10.00000000</i>
   <i name="EFERMI">      0.00000000</i>
  </separator>
  <separator name="writing" >
   <i type="int" name="NWRITE">     2</i>
   <i type="logical" name="LWAVE"> F  </i>
   <i type="logical" name="LDOWNSAMPLE"> F  </i>
   <i type="logical" name="LCHARG"> F  </i>
   <i type="logical" name="LPARD"> F  </i>
   <i type="logical" name="LVTOT"> F  </i>
   <i type="logical" name="LVHAR"> F  </i>
   <i type="logical" name="LELF"> F  </i>
   <i type="logical" name="LOPTICS"> F  </i>
   <v name="STM">      0.00000000      0.00000000      0.00000000      0.00000000      0.00000000      0.00000000      0.00000000</v>
  </separator>
  <separator name="performance" >
   <i type="int" name="NPAR">     2</i>
   <i type="int" name="NSIM">     4</i>
   <i type="int" name="NBLK">    -1</i>
   <i type="logical" name="LPLANE"> T  </i>
   <i type="logical" name="LSCALAPACK"> T  </i>
   <i type="logical" name="LSCAAWARE"> F  </i>
   <i type="logical" name="LSCALU"> F  </i>
   <i type="logical" name="LASYNC"> F  </i>
   <i type="logical" name="LORBITALREAL"> F  </i>
  </separator>
  <separator name="miscellaneous" >
   <i type="int" name="IDIOT">     3</i>
   <i type="int" name="ISPECIAL">     0</i>
   <i type="logical" name="LMUSIC"> F  </i>
   <v name="POMASS">     58.69000000     32.06600000</v>
   <v name="DARWINR">      0.00000000      0.00000000</v>
   <v name="DARWINV">      1.00000000      1.00000000</v>
   <i type="logical" name="LCORR"> T  </i>
  </separator>
  <i type="logical" name="GGA_COMPAT"> T  </i>
  <i type="logical" name="LBERRY"> F  </i>
  <i type="int" name="ICORELEVEL">     0</i>
  <i type="logical" name="LDAU"> F  </i>
  <i type="int" name="I_CONSTRAINED_M">     0</i>
  <separator name="electronic exchange-correlation" >
   <i type="string" name="GGA">--</i>
   <i type="int" name="VOSKOWN">     0</i>
   <i type="logical" name="LHFCALC"> F  </i>
   <i type="string" name="PRECFOCK"></i>
   <i type="logical" name="LSYMGRAD"> F  </i>
   <i type="logical" name="LHFONE"> F  </i>
   <i type="logical" name="LRHFCALC"> F  </i>
   <i type="logical" name="LTHOMAS"> F  </i>
   <i type="logical" name="LMODELHF"> F  </i>
   <i name="ENCUT4O">     -1.00000000</i>
   <i type="int" name="EXXOEP">     0</i>
   <i type="int" name="FOURORBIT">     0</i>
   <i name="AEXX">      0.00000000</i>
   <i name="HFALPHA">      0.00000000</i>
   <i name="MCALPHA">      0.00000000</i>
   <i name="ALDAX">      1.00000000</i>
   <i name="AGGAX">      1.00000000</i>
   <i name="ALDAC">      1.00000000</i>
   <i name="AGGAC">      1.00000000</i>
   <i type="int" name="NKREDX">     1</i>
   <i type="int" name="NKREDY">     1</i>
   <i type="int" name="NKREDZ">     1</i>
   <i type="logical" name="SHIFTRED"> F  </i>
   <i type="logical" name="ODDONLY"> F  </i>
   <i type="logical" name="EVENONLY"> F  </i>
   <i type="int" name="LMAXFOCK">     0</i>
   <i type="int" name="NMAXFOCKAE">     0</i>
   <i type="logical" name="LFOCKAEDFT"> F  </i>
   <i name="HFSCREEN">      0.00000000</i>
   <i name="HFSCREENC">      0.00000000</i>
   <i type="int" name="NBANDSGWLOW">     0</i>
  </separator>
  <separator name="vdW DFT" >
   <i type="logical" name="LUSE_VDW"> F  </i>
   <i name="Zab_VDW">     -0.84910000</i>
   <i name="PARAM1">      0.12340000</i>
   <i name="PARAM2">      1.00000000</i>
   <i name="PARAM3">      0.00000000</i>
  </separator>
  <separator name="model GW" >
   <i type="int" name="MODEL_GW">     0</i>
   <i name="MODEL_EPS0">     14.95425785</i>
   <i name="MODEL_ALPHA">      1.00000000</i>
  </separator>
  <separator name="linear response parameters" >
   <i type="logical" name="LEPSILON"> F  </i>
   <i type="logical" name="LRPA"> F  </i>
   <i type="logical" name="LNABLA"> F  </i>
   <i type="logical" name="LVEL"> F  </i>
   <i type="int" name="KINTER">     0</i>
   <i name="CSHIFT">      0.10000000</i>
   <i name="OMEGAMAX">     -1.00000000</i>
   <i name="DEG_THRESHOLD">      0.00200000</i>
   <i name="RTIME">     -0.10000000</i>
   <i name="WPLASMAI">      0.00000000</i>
   <v name="DFIELD">      0.00000000      0.00000000      0.00000000</v>
   <v name="WPLASMA">      0.00000000      0.00000000      0.00000000      0.00000000      0.00000000      0.00000000      0.00000000      0.00000000      0.00000000</v>
  </separator>
  <separator name="orbital magnetization" >
   <i type="logical" name="NUCIND"> F  </i>
   <v name="MAGPOS">      0.00000000      0.00000000      0.00000000</v>
   <i type="logical" name="LNICSALL"> T  </i>
   <i type="logical" name="ORBITALMAG"> F  </i>
   <i type="logical" name="LMAGBLOCH"> F  </i>
   <i type="logical" name="LCHIMAG"> F  </i>
   <i type="logical" name="LGAUGE"> T  </i>
   <i type="int" name="MAGATOM">     0</i>
   <v name="MAGDIPOL">      0.00000000      0.00000000      0.00000000</v>
   <v name="AVECCONST">      0.00000000      0.00000000      0.00000000</v>
  </separator>
  <separator name="response functions" >
   <i type="logical" name="LADDER"> F  </i>
   <i type="logical" name="LRPAFORCE"> F  </i>
   <i type="logical" name="LFXC"> F  </i>
   <i type="logical" name="LHARTREE"> T  </i>
   <i type="int" name="IBSE">     0</i>
   <v type="int" name="KPOINT">    -1     0     0     0</v>
   <i type="logical" name="LTCTE"> F  </i>
   <i type="logical" name="LTETE"> F  </i>
   <i type="logical" name="LTRIPLET"> F  </i>
   <i type="logical" name="LFXCEPS"> F  </i>
   <i type="logical" name="LFXHEG"> F  </i>
   <i type="int" name="NATURALO">     2</i>
   <i type="logical" name="L2ORDER"> F  </i>
   <i type="logical" name="LMP2LT"> F  </i>
   <i type="logical" name="LUSEW"> F  </i>
   <i name="ENCUTGW">     -2.00000000</i>
   <i name="ENCUTGWSOFT">     -2.00000000</i>
   <i name="ENCUTLF">     -1.00000000</i>
   <i type="int" name="LMAXMP2">    -1</i>
   <i name="SCISSOR">      0.00000000</i>
   <i type="int" name="NOMEGA">     0</i>
   <i type="int" name="NOMEGAR">     0</i>
   <i type="int" name="NBANDSGW">    -1</i>
   <i type="int" name="NBANDSO">    -1</i>
   <i type="int" name="NBANDSV">    -1</i>
   <i type="int" name="NELM">   100</i>
   <i type="int" name="NELMHF">     1</i>
   <i type="int" name="DIM">     3</i>
   <i type="int" name="ANTIRES">     0</i>
   <i name="OMEGAMAX">    -30.00000000</i>
   <i name="OMEGAMIN">    -30.00000000</i>
   <i name="OMEGATL">   -200.00000000</i>
   <i type="int" name="OMEGAGRID">   140</i>
   <i name="CSHIFT">     -0.10000000</i>
   <i type="logical" name="SELFENERGY"> F  </i>
   <i type="logical" name="LSPECTRAL"> F  </i>
   <i type="logical" name="LSPECTRALGW"> F  </i>
   <i type="logical" name="LSINGLES"> F  </i>
   <i type="logical" name="LFERMIGW"> F  </i>
   <i type="logical" name="ODDONLYGW"> F  </i>
   <i type="logical" name="EVENONLYGW"> F  </i>
   <i type="int" name="NKREDLFX">     1</i>
   <i type="int" name="NKREDLFY">     1</i>
   <i type="int" name="NKREDLFZ">     1</i>
   <i type="int" name="MAXMEM">  2800</i>
   <i type="int" name="TELESCOPE">     0</i>
   <i type="int" name="TAUPAR">     1</i>
   <i type="int" name="OMEGAPAR">    -1</i>
   <i name="LAMBDA">      1.00000000</i>
  </separator>
  <separator name="External order field" >
   <i name="OFIELD_KAPPA">      0.00000000</i>
   <v name="OFIELD_K">      0.00000000      0.00000000      0.00000000</v>
   <i name="OFIELD_Q6_NEAR">      0.00000000</i>
   <i name="OFIELD_Q6_FAR">      0.00000000</i>
   <i name="OFIELD_A">      0.00000000</i>
  </separator>
 </parameters>
 <atominfo>
  <atoms>     104 </atoms>
  <types>       2 </types>
  <array name="atoms" >
   <dimension dim="1">ion</dimension>
   <field type="string">element</field>
   <field type="int">atomtype</field>
   <set>
    <rc><c>Ni</c><c>   1</c></rc>
    <rc><c>Ni</c><c>   1</c></rc>
    <rc><c>Ni</c><c>   1</c></rc>
    <rc><c>Ni</c><c>   1</c></rc>
    <rc><c>Ni</c><c>   1</c></rc>
    <rc><c>Ni</c><c>   1</c></rc>
    <rc><c>Ni</c><c>   1</c></rc>
    <rc><c>Ni</c><c>   1</c></rc>
    <rc><c>Ni</c><c>   1</c></rc>
    <rc><c>Ni</c><c>   1</c></rc>
    <rc><c>Ni</c><c>   1</c></rc>
    <rc><c>Ni</c><c>   1</c></rc>
    <rc><c>Ni</c><c>   1</c></rc>
    <rc><c>Ni</c><c>   1</c></rc>
    <rc><c>Ni</c><c>   1</c></rc>
    <rc><c>Ni</c><c>   1</c></rc>
    <rc><c>Ni</c><c>   1</c></rc>
    <rc><c>Ni</c><c>   1</c></rc>
    <rc><c>Ni</c><c>   1</c></rc>
    <rc><c>Ni</c><c>   1</c></rc>
    <rc><c>Ni</c><c>   1</c></rc>
    <rc><c>Ni</c><c>   1</c></rc>
    <rc><c>Ni</c><c>   1</c></rc>
    <rc><c>Ni</c><c>   1</c></rc>
    <rc><c>Ni</c><c>   1</c></rc>
    <rc><c>Ni</c><c>   1</c></rc>
    <rc><c>Ni</c><c>   1</c></rc>
    <rc><c>Ni</c><c>   1</c></rc>
    <rc><c>Ni</c><c>   1</c></rc>
    <rc><c>Ni</c><c>   1</c></rc>
    <rc><c>Ni</c><c>   1</c></rc>
    <rc><c>Ni</c><c>   1</c></rc>
    <rc><c>Ni</c><c>   1</c></rc>
    <rc><c>Ni</c><c>   1</c></rc>
    <rc><c>Ni</c><c>   1</c></rc>
    <rc><c>Ni</c><c>   1</c></rc>
    <rc><c>Ni</c><c>   1</c></rc>
    <rc><c>Ni</c><c>   1</c></rc>
    <rc><c>Ni</c><c>   1</c></rc>
    <rc><c>Ni</c><c>   1</c></rc>
    <rc><c>Ni</c><c>   1</c></rc>
    <rc><c>Ni</c><c>   1</c></rc>
    <rc><c>Ni</c><c>   1</c></rc>
    <rc><c>Ni</c><c>   1</c></rc>
    <rc><c>Ni</c><c>   1</c></rc>
    <rc><c>Ni</c><c>   1</c></rc>
    <rc><c>Ni</c><c>   1</c></rc>
    <rc><c>Ni</c><c>   1</c></rc>
    <rc><c>Ni</c><c>   1</c></rc>
    <rc><c>Ni</c><c>   1</c></rc>
    <rc><c>Ni</c><c>   1</c></rc>
    <rc><c>Ni</c><c>   1</c></rc>
    <rc><c>S </c><c>   2</c></rc>
    <rc><c>S </c><c>   2</c></rc>
    <rc><c>S </c><c>   2</c></rc>
    <rc><c>S </c><c>   2</c></rc>
    <rc><c>S </c><c>   2</c></rc>
    <rc><c>S </c><c>   2</c></rc>
    <rc><c>S </c><c>   2</c></rc>
    <rc><c>S </c><c>   2</c></rc>
    <rc><c>S </c><c>   2</c></rc>
    <rc><c>S </c><c>   2</c></rc>
    <rc><c>S </c><c>   2</c></rc>
    <rc><c>S </c><c>   2</c></rc>
    <rc><c>S </c><c>   2</c></rc>
    <rc><c>S </c><c>   2</c></rc>
    <rc><c>S </c><c>   2</c></rc>
    <rc><c>S </c><c>   2</c></rc>
    <rc><c>S </c><c>   2</c></rc>
    <rc><c>S </c><c>   2</c></rc>
    <rc><c>S </c><c>   2</c></rc>
    <rc><c>S </c><c>   2</c></rc>
    <rc><c>S </c><c>   2</c></rc>
    <rc><c>S </c><c>   2</c></rc>
    <rc><c>S </c><c>   2</c></rc>
    <rc><c>S </c><c>   2</c></rc>
    <rc><c>S </c><c>   2</c></rc>
    <rc><c>S </c><c>   2</c></rc>
    <rc><c>S </c><c>   2</c></rc>
    <rc><c>S </c><c>   2</c></rc>
    <rc><c>S </c><c>   2</c></rc>
    <rc><c>S </c><c>   2</c></rc>
    <rc><c>S </c><c>   2</c></rc>
    <rc><c>S </c><c>   2</c></rc>
    <rc><c>S </c><c>   2</c></rc>
    <rc><c>S </c><c>   2</c></rc>
    <rc><c>S </c><c>   2</c></rc>
    <rc><c>S </c><c>   2</c></rc>
    <rc><c>S </c><c>   2</c></rc>
    <rc><c>S </c><c>   2</c></rc>
    <rc><c>S </c><c>   2</c></rc>
    <rc><c>S </c><c>   2</c></rc>
    <rc><c>S </c><c>   2</c></rc>
    <rc><c>S </c><c>   2</c></rc>
    <rc><c>S </c><c>   2</c></rc>
    <rc><c>S </c><c>   2</c></rc>
    <rc><c>S </c><c>   2</c></rc>
    <rc><c>S </c><c>   2</c></rc>
    <rc><c>S </c><c>   2</c></rc>
    <rc><c>S </c><c>   2</c></rc>
    <rc><c>S </c><c>   2</c></rc>
    <rc><c>S </c><c>   2</c></rc>
    <rc><c>S </c><c>   2</c></rc>
    <rc><c>S </c><c>   2</c></rc>
   </set>
  </array>
  <array name="atomtypes" >
   <dimension dim="1">type</dimension>
   <field type="int">atomspertype</field>
   <field type="string">element</field>
   <field>mass</field>
   <field>valence</field>
   <field type="string">pseudopotential</field>
   <set>
    <rc><c>  52</c><c>Ni</c><c>     58.69000000</c><c>     16.00000000</c><c>  PAW_PBE Ni_pv 06Sep2000               </c></rc>
    <rc><c>  52</c><c>S </c><c>     32.06600000</c><c>      6.00000000</c><c>  PAW_PBE S 06Sep2000                   </c></rc>
   </set>
  </array>
 </atominfo>
 <structure name="initialpos" >
  <crystal>
   <varray name="basis" >
    <v>      11.25646304       0.00000000       0.00000000 </v>
    <v>       5.04456212      10.06282034       0.00000000 </v>
    <v>       0.00000000       0.00000000      22.88364939 </v>
   </varray>
   <i name="volume">   2592.07135999 </i>
   <varray name="rec_basis" >
    <v>       0.08883785      -0.04453504       0.00000000 </v>
    <v>       0.00000000       0.09937572       0.00000000 </v>
    <v>       0.00000000       0.00000000       0.04369932 </v>
   </varray>
  </crystal>
  <varray name="positions" >
   <v>       0.26092070       0.47878036       0.29050611 </v>
   <v>       0.35488056       0.38482049       0.41880986 </v>
   <v>       0.52596733       0.26164896       0.48550719 </v>
   <v>       0.03180520       0.20265708       0.08937486 </v>
   <v>       0.16696083       0.07274024       0.16220237 </v>
   <v>       0.07281802       0.01843033       0.49757141 </v>
   <v>       0.27423906       0.33335899       0.12830375 </v>
   <v>       0.36819893       0.23939913       0.25660749 </v>
   <v>       0.46215880       0.14543926       0.38491124 </v>
   <v>       0.00030194       0.37150212       0.25660749 </v>
   <v>       0.09426181       0.27754226       0.38491124 </v>
   <v>       0.17784796       0.19439759       0.49787798 </v>
   <v>       0.40634206       0.46546199       0.12830375 </v>
   <v>       0.42344917       0.03358460       0.03427565 </v>
   <v>       0.76092070       0.47878036       0.29050611 </v>
   <v>       0.85488056       0.38482049       0.41880986 </v>
   <v>       0.86867606       0.38464374       0.52079024 </v>
   <v>       0.48471254       0.19260246       0.09025471 </v>
   <v>       0.66696083       0.07274024       0.16220237 </v>
   <v>       0.54723434       0.04504666       0.49535962 </v>
   <v>       0.59381185       0.32164988       0.06139745 </v>
   <v>       0.77423906       0.33335899       0.12830375 </v>
   <v>       0.86819893       0.23939913       0.25660749 </v>
   <v>       0.96215880       0.14543926       0.38491124 </v>
   <v>       0.50030194       0.37150212       0.25660749 </v>
   <v>       0.59426181       0.27754226       0.38491124 </v>
   <v>       0.90634206       0.46546199       0.12830375 </v>
   <v>       0.26092070       0.97878036       0.29050611 </v>
   <v>       0.35488056       0.88482049       0.41880986 </v>
   <v>       0.34479743       0.91902775       0.51837198 </v>
   <v>       0.16696083       0.57274024       0.16220237 </v>
   <v>       0.22460854       0.01003994       0.04802694 </v>
   <v>       0.27423907       0.83335899       0.12830375 </v>
   <v>       0.36819893       0.73939913       0.25660749 </v>
   <v>       0.46215880       0.64543926       0.38491124 </v>
   <v>       0.00030194       0.87150212       0.25660749 </v>
   <v>       0.09426181       0.77754226       0.38491124 </v>
   <v>       0.40634206       0.96546199       0.12830375 </v>
   <v>       0.76092070       0.97878036       0.29050611 </v>
   <v>       0.85488056       0.88482049       0.41880986 </v>
   <v>       0.87998289       0.85060219       0.52193548 </v>
   <v>       0.66696083       0.57274024       0.16220237 </v>
   <v>       0.54658541       0.53343633       0.49213044 </v>
   <v>       0.71659940       0.03648564       0.05099977 </v>
   <v>       0.77423907       0.83335899       0.12830375 </v>
   <v>       0.86819893       0.73939913       0.25660749 </v>
   <v>       0.96215880       0.64543926       0.38491124 </v>
   <v>       0.50030194       0.87150212       0.25660749 </v>
   <v>       0.59426181       0.77754226       0.38491124 </v>
   <v>       0.69425921       0.69156026       0.49524110 </v>
   <v>       0.90634206       0.96546199       0.12830375 </v>
   <v>       0.71613167       0.52535164       0.05743079 </v>
   <v>       0.07287763       0.16682343       0.30639927 </v>
   <v>       0.16683750       0.07286357       0.43470302 </v>
   <v>       0.38177912       0.37721331       0.05410943 </v>
   <v>       0.47891775       0.26078330       0.17809552 </v>
   <v>       0.40094547       0.46193133       0.49265850 </v>
   <v>       0.02361390       0.37398810       0.46680174 </v>
   <v>       0.43627354       0.47164251       0.34956450 </v>
   <v>       0.24835381       0.15956225       0.09295701 </v>
   <v>       0.34231368       0.06560239       0.22126075 </v>
   <v>       0.08349369       0.47951121       0.11020530 </v>
   <v>       0.17409868       0.39738738       0.22126075 </v>
   <v>       0.26805855       0.30342751       0.34956450 </v>
   <v>       0.36201842       0.20946765       0.47786825 </v>
   <v>       0.57287763       0.16682343       0.30639927 </v>
   <v>       0.64637062       0.09221044       0.42815422 </v>
   <v>       0.88495789       0.35474317       0.04979178 </v>
   <v>       0.97891775       0.26078330       0.17809552 </v>
   <v>       0.69655358       0.53834305       0.54693104 </v>
   <v>       0.65607613       0.33778308       0.46273148 </v>
   <v>       0.93627354       0.47164251       0.34956450 </v>
   <v>       0.75485879       0.16234365       0.10394566 </v>
   <v>       0.84231368       0.06560239       0.22126075 </v>
   <v>       0.57736371       0.49102710       0.10363347 </v>
   <v>       0.67409868       0.39738738       0.22126075 </v>
   <v>       0.76805855       0.30342751       0.34956450 </v>
   <v>       0.91873870       0.20722513       0.47398692 </v>
   <v>       0.07287764       0.66682343       0.30639927 </v>
   <v>       0.16162494       0.57739643       0.41115353 </v>
   <v>       0.40583487       0.85373713       0.05738108 </v>
   <v>       0.47891775       0.76078330       0.17809552 </v>
   <v>       0.18424754       0.05711661       0.55872468 </v>
   <v>       0.01854334       0.87010948       0.46789119 </v>
   <v>       0.43627354       0.97164251       0.34956450 </v>
   <v>       0.25846449       0.65963739       0.11136469 </v>
   <v>       0.34231368       0.56560239       0.22126075 </v>
   <v>       0.08013882       0.99134724       0.09295701 </v>
   <v>       0.17409868       0.89738738       0.22126075 </v>
   <v>       0.26805855       0.80342751       0.34956450 </v>
   <v>       0.39268404       0.72708199       0.47348717 </v>
   <v>       0.57287764       0.66682343       0.30639927 </v>
   <v>       0.66683750       0.57286357       0.43470302 </v>
   <v>       0.87989372       0.85979862       0.06111374 </v>
   <v>       0.97891775       0.76078330       0.17809552 </v>
   <v>       0.70520374       0.98648557       0.54944305 </v>
   <v>       0.53023342       0.87768264       0.47786825 </v>
   <v>       0.93627354       0.97164251       0.34956450 </v>
   <v>       0.75935384       0.65635180       0.10569914 </v>
   <v>       0.84231368       0.56560239       0.22126075 </v>
   <v>       0.58013882       0.99134724       0.09295701 </v>
   <v>       0.67409868       0.89738738       0.22126075 </v>
   <v>       0.76805855       0.80342751       0.34956450 </v>
   <v>       0.85953918       0.71892108       0.46539430 </v>
  </varray>
 </structure>
 <calculation>
  <scstep>
   <time name="dav">   15.39   15.39</time>
   <time name="total">   15.89   15.89</time>
   <energy>
    <i name="alphaZ">   2994.23548884 </i>
    <i name="ewald"> 340817.36095287 </i>
    <i name="hartreedc">-518341.66874095 </i>
    <i name="XCdc">   5315.75248425 </i>
    <i name="pawpsdc"> 162831.54814933 </i>
    <i name="pawaedc">-169926.62828172 </i>
    <i name="eentropy">     -0.53073986 </i>
    <i name="bandstr">  -5217.81432729 </i>
    <i name="atom"> 196448.20729987 </i>
    <i name="e_fr_energy">  14920.46228533 </i>
    <i name="e_wo_entrp">  14920.99302519 </i>
    <i name="e_0_energy">  14920.72765526 </i>
   </energy>
  </scstep>
  <scstep>
   <time name="dav">   14.15   14.15</time>
   <time name="total">   14.15   14.15</time>
   <energy>
    <i name="e_fr_energy">   1005.59099926 </i>
    <i name="e_wo_entrp">   1006.52540368 </i>
    <i name="e_0_energy">   1006.05820147 </i>
   </energy>
  </scstep>
  <scstep>
   <time name="dav">   14.78   14.78</time>
   <time name="total">   14.78   14.78</time>
   <energy>
    <i name="e_fr_energy">   -477.87609728 </i>
    <i name="e_wo_entrp">   -476.50441288 </i>
    <i name="e_0_energy">   -477.19025508 </i>
   </energy>
  </scstep>
  <scstep>
   <time name="dav">   14.81   14.82</time>
   <time name="total">   14.81   14.82</time>
   <energy>
    <i name="e_fr_energy">   -577.40739801 </i>
    <i name="e_wo_entrp">   -575.93927515 </i>
    <i name="e_0_energy">   -576.67333658 </i>
   </energy>
  </scstep>
  <scstep>
   <time name="dav">   16.55   16.55</time>
   <time name="total">   17.26   17.26</time>
   <energy>
    <i name="e_fr_energy">   -581.37834593 </i>
    <i name="e_wo_entrp">   -579.92902954 </i>
    <i name="e_0_energy">   -580.65368774 </i>
   </energy>
  </scstep>
  <scstep>
   <time name="dav">   16.13   16.13</time>
   <time name="total">   16.96   16.96</time>
   <energy>
    <i name="e_fr_energy">   -685.37270798 </i>
    <i name="e_wo_entrp">   -684.27117581 </i>
    <i name="e_0_energy">   -684.82194189 </i>
   </energy>
  </scstep>
  <scstep>
   <time name="dav">   14.65   14.66</time>
   <time name="total">   15.74   15.75</time>
   <energy>
    <i name="e_fr_energy">   -546.37677228 </i>
    <i name="e_wo_entrp">   -545.34875144 </i>
    <i name="e_0_energy">   -545.86276186 </i>
   </energy>
  </scstep>
  <scstep>
   <time name="dav">   16.79   16.80</time>
   <time name="total">   17.60   17.61</time>
   <energy>
    <i name="e_fr_energy">   -660.70526222 </i>
    <i name="e_wo_entrp">   -659.62607730 </i>
    <i name="e_0_energy">   -660.16566976 </i>
   </energy>
  </scstep>
  <scstep>
   <time name="dav">   16.30   16.30</time>
   <time name="total">   17.12   17.12</time>
   <energy>
    <i name="e_fr_energy">   -566.90346767 </i>
    <i name="e_wo_entrp">   -565.61531483 </i>
    <i name="e_0_energy">   -566.25939125 </i>
   </energy>
  </scstep>
  <scstep>
   <time name="dav">   18.22   18.23</time>
   <time name="total">   19.04   19.04</time>
   <energy>
    <i name="e_fr_energy">   -599.20985746 </i>
    <i name="e_wo_entrp">   -597.52690241 </i>
    <i name="e_0_energy">   -598.36837993 </i>
   </energy>
  </scstep>
  <scstep>
   <time name="dav">   17.69   17.69</time>
   <time name="total">   18.64   18.65</time>
   <energy>
    <i name="e_fr_energy">   -603.81026026 </i>
    <i name="e_wo_entrp">   -602.14111312 </i>
    <i name="e_0_energy">   -602.97568669 </i>
   </energy>
  </scstep>
  <scstep>
   <time name="dav">   17.14   17.14</time>
   <time name="total">   17.96   17.96</time>
   <energy>
    <i name="e_fr_energy">   -561.59819914 </i>
    <i name="e_wo_entrp">   -560.36514213 </i>
    <i name="e_0_energy">   -560.98167063 </i>
   </energy>
  </scstep>
  <scstep>
   <time name="dav">   17.25   17.25</time>
   <time name="total">   18.07   18.08</time>
   <energy>
    <i name="e_fr_energy">   -556.58234815 </i>
    <i name="e_wo_entrp">   -555.10271452 </i>
    <i name="e_0_energy">   -555.84253133 </i>
   </energy>
  </scstep>
  <scstep>
   <time name="dav">   17.56   17.56</time>
   <time name="total">   18.51   18.51</time>
   <energy>
    <i name="e_fr_energy">   -544.85371999 </i>
    <i name="e_wo_entrp">   -543.46619948 </i>
    <i name="e_0_energy">   -544.15995974 </i>
   </energy>
  </scstep>
  <scstep>
   <time name="dav">   17.47   17.47</time>
   <time name="total">   18.30   18.30</time>
   <energy>
    <i name="e_fr_energy">   -525.02842624 </i>
    <i name="e_wo_entrp">   -523.91876012 </i>
    <i name="e_0_energy">   -524.47359318 </i>
   </energy>
  </scstep>
  <scstep>
   <time name="dav">   17.38   17.38</time>
   <time name="total">   18.47   18.47</time>
   <energy>
    <i name="e_fr_energy">   -520.96243887 </i>
    <i name="e_wo_entrp">   -519.75852848 </i>
    <i name="e_0_energy">   -520.36048367 </i>
   </energy>
  </scstep>
  <scstep>
   <time name="dav">   17.11   17.11</time>
   <time name="total">   17.94   17.94</time>
   <energy>
    <i name="e_fr_energy">   -518.55204841 </i>
    <i name="e_wo_entrp">   -517.35789266 </i>
    <i name="e_0_energy">   -517.95497053 </i>
   </energy>
  </scstep>
  <scstep>
   <time name="dav">   16.50   16.50</time>
   <time name="total">   17.40   17.40</time>
   <energy>
    <i name="e_fr_energy">   -517.75594409 </i>
    <i name="e_wo_entrp">   -516.55508845 </i>
    <i name="e_0_energy">   -517.15551627 </i>
   </energy>
  </scstep>
  <scstep>
   <time name="dav">   17.52   17.52</time>
   <time name="total">   18.36   18.36</time>
   <energy>
    <i name="e_fr_energy">   -516.19172052 </i>
    <i name="e_wo_entrp">   -514.97929054 </i>
    <i name="e_0_energy">   -515.58550553 </i>
   </energy>
  </scstep>
  <scstep>
   <time name="dav">   17.37   17.38</time>
   <time name="total">   18.31   18.32</time>
   <energy>
    <i name="e_fr_energy">   -515.06826393 </i>
    <i name="e_wo_entrp">   -513.83516790 </i>
    <i name="e_0_energy">   -514.45171591 </i>
   </energy>
  </scstep>
  <scstep>
   <time name="dav">   17.54   17.54</time>
   <time name="total">   18.37   18.37</time>
   <energy>
    <i name="e_fr_energy">   -513.42873428 </i>
    <i name="e_wo_entrp">   -512.17137918 </i>
    <i name="e_0_energy">   -512.80005673 </i>
   </energy>
  </scstep>
  <scstep>
   <time name="dav">   17.30   17.30</time>
   <time name="total">   18.20   18.20</time>
   <energy>
    <i name="e_fr_energy">   -511.95820150 </i>
    <i name="e_wo_entrp">   -510.67077933 </i>
    <i name="e_0_energy">   -511.31449042 </i>
   </energy>
  </scstep>
  <scstep>
   <time name="dav">   17.04   17.05</time>
   <time name="total">   17.93   17.94</time>
   <energy>
    <i name="e_fr_energy">   -511.70035230 </i>
    <i name="e_wo_entrp">   -510.39658650 </i>
    <i name="e_0_energy">   -511.04846940 </i>
   </energy>
  </scstep>
  <scstep>
   <time name="dav">   16.72   16.72</time>
   <time name="total">   17.56   17.56</time>
   <energy>
    <i name="e_fr_energy">   -511.52193616 </i>
    <i name="e_wo_entrp">   -510.21379635 </i>
    <i name="e_0_energy">   -510.86786626 </i>
   </energy>
  </scstep>
  <scstep>
   <time name="dav">   16.69   16.69</time>
   <time name="total">   17.52   17.53</time>
   <energy>
    <i name="e_fr_energy">   -511.38535202 </i>
    <i name="e_wo_entrp">   -510.07013903 </i>
    <i name="e_0_energy">   -510.72774552 </i>
   </energy>
  </scstep>
  <scstep>
   <time name="dav">   19.00   19.01</time>
   <time name="total">   19.85   19.85</time>
   <energy>
    <i name="e_fr_energy">   -511.02080884 </i>
    <i name="e_wo_entrp">   -509.68825596 </i>
    <i name="e_0_energy">   -510.35453240 </i>
   </energy>
  </scstep>
  <scstep>
   <time name="dav">   17.26   17.26</time>
   <time name="total">   18.11   18.12</time>
   <energy>
    <i name="e_fr_energy">   -510.99145125 </i>
    <i name="e_wo_entrp">   -509.64454540 </i>
    <i name="e_0_energy">   -510.31799833 </i>
   </energy>
  </scstep>
  <scstep>
   <time name="dav">   16.75   16.75</time>
   <time name="total">   17.60   17.61</time>
   <energy>
    <i name="e_fr_energy">   -510.95165485 </i>
    <i name="e_wo_entrp">   -509.59000185 </i>
    <i name="e_0_energy">   -510.27082835 </i>
   </energy>
  </scstep>
  <scstep>
   <time name="dav">   16.07   16.07</time>
   <time name="total">   17.15   17.16</time>
   <energy>
    <i name="e_fr_energy">   -510.95754817 </i>
    <i name="e_wo_entrp">   -509.59931938 </i>
    <i name="e_0_energy">   -510.27843378 </i>
   </energy>
  </scstep>
  <scstep>
   <time name="dav">   14.65   14.65</time>
   <time name="total">   15.51   15.52</time>
   <energy>
    <i name="e_fr_energy">   -510.94596060 </i>
    <i name="e_wo_entrp">   -509.59032303 </i>
    <i name="e_0_energy">   -510.26814182 </i>
   </energy>
  </scstep>
  <scstep>
   <time name="dav">   17.07   17.08</time>
   <time name="total">   18.19   18.19</time>
   <energy>
    <i name="e_fr_energy">   -510.94611485 </i>
    <i name="e_wo_entrp">   -509.59522805 </i>
    <i name="e_0_energy">   -510.27067145 </i>
   </energy>
  </scstep>
  <scstep>
   <time name="dav">   17.22   17.22</time>
   <time name="total">   18.10   18.10</time>
   <energy>
    <i name="e_fr_energy">   -510.94492302 </i>
    <i name="e_wo_entrp">   -509.59236082 </i>
    <i name="e_0_energy">   -510.26864192 </i>
   </energy>
  </scstep>
  <scstep>
   <time name="dav">   16.31   16.31</time>
   <time name="total">   17.18   17.18</time>
   <energy>
    <i name="e_fr_energy">   -510.94760523 </i>
    <i name="e_wo_entrp">   -509.59269541 </i>
    <i name="e_0_energy">   -510.27015032 </i>
   </energy>
  </scstep>
  <scstep>
   <time name="dav">   15.11   15.11</time>
   <time name="total">   15.98   15.99</time>
   <energy>
    <i name="e_fr_energy">   -510.94539738 </i>
    <i name="e_wo_entrp">   -509.59151162 </i>
    <i name="e_0_energy">   -510.26845450 </i>
   </energy>
  </scstep>
  <scstep>
   <time name="dav">   15.47   15.47</time>
   <time name="total">   16.38   16.38</time>
   <energy>
    <i name="e_fr_energy">   -510.94544126 </i>
    <i name="e_wo_entrp">   -509.59198667 </i>
    <i name="e_0_energy">   -510.26871397 </i>
   </energy>
  </scstep>
  <scstep>
   <time name="dav">   14.99   14.99</time>
   <time name="total">   15.87   15.87</time>
   <energy>
    <i name="e_fr_energy">   -510.94540735 </i>
    <i name="e_wo_entrp">   -509.59303263 </i>
    <i name="e_0_energy">   -510.26921999 </i>
   </energy>
  </scstep>
  <scstep>
   <time name="dav">   11.21   11.22</time>
   <time name="total">   11.61   11.61</time>
   <energy>
    <i name="alphaZ">   2994.23548884 </i>
    <i name="ewald"> 340817.36095287 </i>
    <i name="hartreedc">-517229.78965975 </i>
    <i name="XCdc">   5271.17046056 </i>
    <i name="pawpsdc"> 199951.20197171 </i>
    <i name="pawaedc">-207154.23678127 </i>
    <i name="eentropy">     -1.35258959 </i>
    <i name="bandstr"> -21607.74263195 </i>
    <i name="atom"> 196448.20729987 </i>
    <i name="e_fr_energy">   -510.94548869 </i>
    <i name="e_wo_entrp">   -509.59289910 </i>
    <i name="e_0_energy">   -510.26919390 </i>
   </energy>
  </scstep>
  <structure>
   <crystal>
    <varray name="basis" >
     <v>      11.25646304       0.00000000       0.00000000 </v>
     <v>       5.04456212      10.06282034       0.00000000 </v>
     <v>       0.00000000       0.00000000      22.88364939 </v>
    </varray>
    <i name="volume">   2592.07135999 </i>
    <varray name="rec_basis" >
     <v>       0.08883785      -0.04453504       0.00000000 </v>
     <v>       0.00000000       0.09937572       0.00000000 </v>
     <v>       0.00000000       0.00000000       0.04369932 </v>
    </varray>
   </crystal>
   <varray name="positions" >
    <v>       0.26092070       0.47878036       0.29050611 </v>
    <v>       0.35488056       0.38482049       0.41880986 </v>
    <v>       0.52596733       0.26164896       0.48550719 </v>
    <v>       0.03180520       0.20265708       0.08937486 </v>
    <v>       0.16696083       0.07274024       0.16220237 </v>
    <v>       0.07281802       0.01843033       0.49757141 </v>
    <v>       0.27423906       0.33335899       0.12830375 </v>
    <v>       0.36819893       0.23939913       0.25660749 </v>
    <v>       0.46215880       0.14543926       0.38491124 </v>
    <v>       0.00030194       0.37150212       0.25660749 </v>
    <v>       0.09426181       0.27754226       0.38491124 </v>
    <v>       0.17784796       0.19439759       0.49787798 </v>
    <v>       0.40634206       0.46546199       0.12830375 </v>
    <v>       0.42344917       0.03358460       0.03427565 </v>
    <v>       0.76092070       0.47878036       0.29050611 </v>
    <v>       0.85488056       0.38482049       0.41880986 </v>
    <v>       0.86867606       0.38464374       0.52079024 </v>
    <v>       0.48471254       0.19260246       0.09025471 </v>
    <v>       0.66696083       0.07274024       0.16220237 </v>
    <v>       0.54723434       0.04504666       0.49535962 </v>
    <v>       0.59381185       0.32164988       0.06139745 </v>
    <v>       0.77423906       0.33335899       0.12830375 </v>
    <v>       0.86819893       0.23939913       0.25660749 </v>
    <v>       0.96215880       0.14543926       0.38491124 </v>
    <v>       0.50030194       0.37150212       0.25660749 </v>
    <v>       0.59426181       0.27754226       0.38491124 </v>
    <v>       0.90634206       0.46546199       0.12830375 </v>
    <v>       0.26092070       0.97878036       0.29050611 </v>
    <v>       0.35488056       0.88482049       0.41880986 </v>
    <v>       0.34479743       0.91902775       0.51837198 </v>
    <v>       0.16696083       0.57274024       0.16220237 </v>
    <v>       0.22460854       0.01003994       0.04802694 </v>
    <v>       0.27423907       0.83335899       0.12830375 </v>
    <v>       0.36819893       0.73939913       0.25660749 </v>
    <v>       0.46215880       0.64543926       0.38491124 </v>
    <v>       0.00030194       0.87150212       0.25660749 </v>
    <v>       0.09426181       0.77754226       0.38491124 </v>
    <v>       0.40634206       0.96546199       0.12830375 </v>
    <v>       0.76092070       0.97878036       0.29050611 </v>
    <v>       0.85488056       0.88482049       0.41880986 </v>
    <v>       0.87998289       0.85060219       0.52193548 </v>
    <v>       0.66696083       0.57274024       0.16220237 </v>
    <v>       0.54658541       0.53343633       0.49213044 </v>
    <v>       0.71659940       0.03648564       0.05099977 </v>
    <v>       0.77423907       0.83335899       0.12830375 </v>
    <v>       0.86819893       0.73939913       0.25660749 </v>
    <v>       0.96215880       0.64543926       0.38491124 </v>
    <v>       0.50030194       0.87150212       0.25660749 </v>
    <v>       0.59426181       0.77754226       0.38491124 </v>
    <v>       0.69425921       0.69156026       0.49524110 </v>
    <v>       0.90634206       0.96546199       0.12830375 </v>
    <v>       0.71613167       0.52535164       0.05743079 </v>
    <v>       0.07287763       0.16682343       0.30639927 </v>
    <v>       0.16683750       0.07286357       0.43470302 </v>
    <v>       0.38177912       0.37721331       0.05410943 </v>
    <v>       0.47891775       0.26078330       0.17809552 </v>
    <v>       0.40094547       0.46193133       0.49265850 </v>
    <v>       0.02361390       0.37398810       0.46680174 </v>
    <v>       0.43627354       0.47164251       0.34956450 </v>
    <v>       0.24835381       0.15956225       0.09295701 </v>
    <v>       0.34231368       0.06560239       0.22126075 </v>
    <v>       0.08349369       0.47951121       0.11020530 </v>
    <v>       0.17409868       0.39738738       0.22126075 </v>
    <v>       0.26805855       0.30342751       0.34956450 </v>
    <v>       0.36201842       0.20946765       0.47786825 </v>
    <v>       0.57287763       0.16682343       0.30639927 </v>
    <v>       0.64637062       0.09221044       0.42815422 </v>
    <v>       0.88495789       0.35474317       0.04979178 </v>
    <v>       0.97891775       0.26078330       0.17809552 </v>
    <v>       0.69655358       0.53834305       0.54693104 </v>
    <v>       0.65607613       0.33778308       0.46273148 </v>
    <v>       0.93627354       0.47164251       0.34956450 </v>
    <v>       0.75485879       0.16234365       0.10394566 </v>
    <v>       0.84231368       0.06560239       0.22126075 </v>
    <v>       0.57736371       0.49102710       0.10363347 </v>
    <v>       0.67409868       0.39738738       0.22126075 </v>
    <v>       0.76805855       0.30342751       0.34956450 </v>
    <v>       0.91873870       0.20722513       0.47398692 </v>
    <v>       0.07287764       0.66682343       0.30639927 </v>
    <v>       0.16162494       0.57739643       0.41115353 </v>
    <v>       0.40583487       0.85373713       0.05738108 </v>
    <v>       0.47891775       0.76078330       0.17809552 </v>
    <v>       0.18424754       0.05711661       0.55872468 </v>
    <v>       0.01854334       0.87010948       0.46789119 </v>
    <v>       0.43627354       0.97164251       0.34956450 </v>
    <v>       0.25846449       0.65963739       0.11136469 </v>
    <v>       0.34231368       0.56560239       0.22126075 </v>
    <v>       0.08013882       0.99134724       0.09295701 </v>
    <v>       0.17409868       0.89738738       0.22126075 </v>
    <v>       0.26805855       0.80342751       0.34956450 </v>
    <v>       0.39268404       0.72708199       0.47348717 </v>
    <v>       0.57287764       0.66682343       0.30639927 </v>
    <v>       0.66683750       0.57286357       0.43470302 </v>
    <v>       0.87989372       0.85979862       0.06111374 </v>
    <v>       0.97891775       0.76078330       0.17809552 </v>
    <v>       0.70520374       0.98648557       0.54944305 </v>
    <v>       0.53023342       0.87768264       0.47786825 </v>
    <v>       0.93627354       0.97164251       0.34956450 </v>
    <v>       0.75935384       0.65635180       0.10569914 </v>
    <v>       0.84231368       0.56560239       0.22126075 </v>
    <v>       0.58013882       0.99134724       0.09295701 </v>
    <v>       0.67409868       0.89738738       0.22126075 </v>
    <v>       0.76805855       0.80342751       0.34956450 </v>
    <v>       0.85953918       0.71892108       0.46539430 </v>
   </varray>
  </structure>
  <varray name="forces" >
   <v>       0.19185947      -0.32858112      -0.16620435 </v>
   <v>      -1.51380429       0.67853068      -1.84399059 </v>
   <v>       0.17393554      -1.34192820       1.67978855 </v>
   <v>       0.14632321      -0.38338925      -0.81215891 </v>
   <v>       0.27780489      -0.72019450       1.65795248 </v>
   <v>      -1.50832198      -0.80289377       0.48854509 </v>
   <v>      -0.29861377      -0.28600115       0.99153766 </v>
   <v>      -0.01566856       0.11591213      -0.06105173 </v>
   <v>      -0.87704277       0.10947477      -0.75750555 </v>
   <v>       0.10419497       0.12403901       0.07583506 </v>
   <v>       0.11855414      -0.50115033      -0.91442390 </v>
   <v>       1.23915532       0.96128734       0.28608154 </v>
   <v>       0.35370251       0.56482058       2.39554484 </v>
   <v>       0.28932364       0.49781606      -0.82682009 </v>
   <v>       0.01509641      -0.11620904      -0.10322961 </v>
   <v>      -0.29515118       0.66722681      -2.05123326 </v>
   <v>       0.87943437      -0.77108775       0.85088903 </v>
   <v>       0.02179252      -0.75820848      -1.02425073 </v>
   <v>       0.20329297       0.16415075       1.37225732 </v>
   <v>      -0.29735406       0.43173061       0.29856190 </v>
   <v>       0.43889364      -0.37571950      -0.61940084 </v>
   <v>       0.24135828      -0.44150327       0.86744398 </v>
   <v>      -0.14746860      -0.06177239       0.02643814 </v>
   <v>       0.37081814      -0.12061702      -0.79874318 </v>
   <v>       0.09066106       0.19588275       0.16469680 </v>
   <v>       0.56106652       0.56836429      -1.91576985 </v>
   <v>       0.95554346      -0.72084674       1.23817287 </v>
   <v>      -0.01598142      -0.23972265      -0.00269257 </v>
   <v>       0.44316073       1.00727834      -2.49829473 </v>
   <v>       0.39878992      -1.08635439      -0.02287382 </v>
   <v>      -0.36724849       0.45292253       1.78943569 </v>
   <v>      -0.58331353       0.27433975      -1.86793038 </v>
   <v>       0.15833547      -0.00185531       0.90032945 </v>
   <v>       0.00316879       0.05037504       0.05552809 </v>
   <v>       0.24971720       0.08615753      -0.46613015 </v>
   <v>      -0.01037388      -0.02707040      -0.14704031 </v>
   <v>       0.28613114       0.27824284      -1.23852172 </v>
   <v>       0.31355494       0.07625744       3.33105806 </v>
   <v>       0.10749657      -0.21438255      -0.01701443 </v>
   <v>      -0.80493428       1.21382369      -2.25035586 </v>
   <v>       0.79323862      -0.45874107       0.83363468 </v>
   <v>      -0.06920747       0.61561385       2.25901559 </v>
   <v>      -0.33333822       0.43301467       0.02620222 </v>
   <v>      -0.41753415       1.09042201      -1.81539592 </v>
   <v>      -0.69954787      -0.54676973       1.86018398 </v>
   <v>       0.09484518       0.03444913      -0.03711546 </v>
   <v>      -0.54194830      -0.22380293      -1.23544488 </v>
   <v>       0.01104413      -0.11915346       0.04568942 </v>
   <v>      -0.18080635       0.03634966      -0.31293555 </v>
   <v>       1.06151940       0.51554363       0.54905640 </v>
   <v>       1.48583753       0.05142743       1.80442151 </v>
   <v>      -0.54335641       0.84930875      -1.66235791 </v>
   <v>       0.14398545      -0.10319969      -0.17951384 </v>
   <v>       1.11579172      -1.47079598      -3.36150256 </v>
   <v>      -0.76927324       0.34218494      -3.22199077 </v>
   <v>      -0.18162677      -0.04578728       1.17493384 </v>
   <v>      -0.92541105       1.44432461       2.36461329 </v>
   <v>       1.88242727       2.37643586       1.22307322 </v>
   <v>       0.23722089       0.09694184      -0.14458196 </v>
   <v>       1.02444751       1.62364302      -0.49052042 </v>
   <v>       0.03025501       0.00860789      -0.05128959 </v>
   <v>      -0.97202596       0.55600355      -2.05246134 </v>
   <v>       0.04923431      -0.25834740       0.55043852 </v>
   <v>      -0.01084191      -0.33872766      -0.20596750 </v>
   <v>      -0.96048900       0.69993907       0.16064983 </v>
   <v>      -0.10317886      -0.05936342      -0.26308109 </v>
   <v>       1.43019883      -1.65702759      -0.00456272 </v>
   <v>       0.21164847       0.13475255      -2.46797215 </v>
   <v>      -0.05433456       0.18910783       1.06499498 </v>
   <v>      -0.27585374       0.51658477       3.00391553 </v>
   <v>       0.47590377      -0.98596588       1.09844271 </v>
   <v>      -0.10625777       0.12354021      -0.55069947 </v>
   <v>       0.57194225       0.82463295      -0.40021102 </v>
   <v>       0.14303194      -0.08844903       0.38047680 </v>
   <v>      -1.03977410       1.15638215      -1.00045295 </v>
   <v>       0.06676581       0.01469537       0.49036733 </v>
   <v>       0.11650936      -0.17270099      -0.82806865 </v>
   <v>      -2.85054892      -0.58579466       1.54816810 </v>
   <v>      -0.11135142       0.33617148      -0.87598796 </v>
   <v>       0.40674918      -0.91161408       1.69627885 </v>
   <v>       0.50691109      -2.52320582      -2.62257984 </v>
   <v>       0.09848395       0.09162790       0.40480696 </v>
   <v>      -0.17102582       0.35739054       4.19965820 </v>
   <v>       1.78116650      -0.05214133       1.68006205 </v>
   <v>      -0.01143978       0.05083982      -0.33278742 </v>
   <v>       0.00192890       1.06866633      -2.14172199 </v>
   <v>       0.26322267      -0.00322009       0.62312480 </v>
   <v>      -2.22609691      -0.58334480       0.61063039 </v>
   <v>       0.07973733       0.05816952       0.26211847 </v>
   <v>      -0.00130348       0.16007897      -0.15134736 </v>
   <v>      -2.73326216      -0.33800217       1.93827428 </v>
   <v>       0.15469558       0.01848668      -0.22208569 </v>
   <v>       0.98463016      -0.05983320      -3.05790530 </v>
   <v>       1.21540914      -2.11037519      -3.55887927 </v>
   <v>       0.03689469       0.03076565       0.36998824 </v>
   <v>      -0.03603616       0.54357762       2.12675094 </v>
   <v>      -0.20577838      -0.44087833       0.20598923 </v>
   <v>       0.03582501       0.22157714      -0.20029396 </v>
   <v>       0.39070711       1.83819688      -1.28754554 </v>
   <v>       0.02539675      -0.15536696       0.76339910 </v>
   <v>      -1.24802262      -2.42602114       0.16511378 </v>
   <v>      -0.14990963       0.12368597       0.00971511 </v>
   <v>      -0.32120012       0.24196240      -0.24058042 </v>
   <v>      -0.57471343      -1.37561788       1.41919213 </v>
  </varray>
  <varray name="stress" >
   <v>      73.20865543       4.25929899       0.45153490 </v>
   <v>       4.25929909      76.74080490       0.83754481 </v>
   <v>       0.45153467       0.83754551      73.81744579 </v>
  </varray>
  <energy>
   <i name="e_fr_energy">   -510.94548869 </i>
   <i name="e_wo_entrp">   -510.26919390 </i>
   <i name="e_0_energy">     -1.35258959 </i>
  </energy>
  <time name="totalsc">  649.20  649.35</time>
  <eigenvalues>
   <array>
    <dimension dim="1">band</dimension>
    <dimension dim="2">kpoint</dimension>
    <dimension dim="3">spin</dimension>
    <field>eigene</field>
    <field>occ</field>
    <set>
     <set comment="spin 1">
      <set comment="kpoint 1">
       <r>  -62.7829    1.0000 </r>
       <r>  -62.7698    1.0000 </r>
       <r>  -62.6860    1.0000 </r>
       <r>  -62.6754    1.0000 </r>
       <r>  -62.6206    1.0000 </r>
       <r>  -62.5918    1.0000 </r>
       <r>  -62.5543    1.0000 </r>
       <r>  -62.5444    1.0000 </r>
       <r>  -62.5444    1.0000 </r>
       <r>  -62.5367    1.0000 </r>
       <r>  -62.5281    1.0000 </r>
       <r>  -62.4920    1.0000 </r>
       <r>  -62.4903    1.0000 </r>
       <r>  -62.4807    1.0000 </r>
       <r>  -62.4749    1.0000 </r>
       <r>  -62.4723    1.0000 </r>
       <r>  -62.4638    1.0000 </r>
       <r>  -62.4629    1.0000 </r>
       <r>  -62.4617    1.0000 </r>
       <r>  -62.4560    1.0000 </r>
       <r>  -62.4514    1.0000 </r>
       <r>  -62.4487    1.0000 </r>
       <r>  -62.4473    1.0000 </r>
       <r>  -62.4313    1.0000 </r>
       <r>  -62.4267    1.0000 </r>
       <r>  -62.4188    1.0000 </r>
       <r>  -62.4034    1.0000 </r>
       <r>  -62.3908    1.0000 </r>
       <r>  -62.3866    1.0000 </r>
       <r>  -62.3798    1.0000 </r>
       <r>  -62.3637    1.0000 </r>
       <r>  -62.3564    1.0000 </r>
       <r>  -62.3287    1.0000 </r>
       <r>  -62.3185    1.0000 </r>
       <r>  -62.3180    1.0000 </r>
       <r>  -62.3168    1.0000 </r>
       <r>  -62.3128    1.0000 </r>
       <r>  -62.3114    1.0000 </r>
       <r>  -62.3059    1.0000 </r>
       <r>  -62.3037    1.0000 </r>
       <r>  -62.3022    1.0000 </r>
       <r>  -62.2983    1.0000 </r>
       <r>  -62.2899    1.0000 </r>
       <r>  -62.2870    1.0000 </r>
       <r>  -62.2753    1.0000 </r>
       <r>  -62.2700    1.0000 </r>
       <r>  -62.2632    1.0000 </r>
       <r>  -62.2626    1.0000 </r>
       <r>  -62.2537    1.0000 </r>
       <r>  -62.2413    1.0000 </r>
       <r>  -62.2286    1.0000 </r>
       <r>  -62.2243    1.0000 </r>
       <r>  -62.2209    1.0000 </r>
       <r>  -62.2199    1.0000 </r>
       <r>  -62.2190    1.0000 </r>
       <r>  -62.2170    1.0000 </r>
       <r>  -62.2096    1.0000 </r>
       <r>  -62.2018    1.0000 </r>
       <r>  -62.1985    1.0000 </r>
       <r>  -62.1940    1.0000 </r>
       <r>  -62.1915    1.0000 </r>
       <r>  -62.1818    1.0000 </r>
       <r>  -62.1713    1.0000 </r>
       <r>  -62.1667    1.0000 </r>
       <r>  -62.1579    1.0000 </r>
       <r>  -62.1564    1.0000 </r>
       <r>  -62.1541    1.0000 </r>
       <r>  -62.1503    1.0000 </r>
       <r>  -62.1445    1.0000 </r>
       <r>  -62.1427    1.0000 </r>
       <r>  -62.1420    1.0000 </r>
       <r>  -62.1406    1.0000 </r>
       <r>  -62.1304    1.0000 </r>
       <r>  -62.1231    1.0000 </r>
       <r>  -62.1225    1.0000 </r>
       <r>  -62.1224    1.0000 </r>
       <r>  -62.1199    1.0000 </r>
       <r>  -62.1147    1.0000 </r>
       <r>  -62.1127    1.0000 </r>
       <r>  -62.1119    1.0000 </r>
       <r>  -62.1022    1.0000 </r>
       <r>  -62.0989    1.0000 </r>
       <r>  -62.0986    1.0000 </r>
       <r>  -62.0879    1.0000 </r>
       <r>  -62.0865    1.0000 </r>
       <r>  -62.0855    1.0000 </r>
       <r>  -62.0853    1.0000 </r>
       <r>  -62.0785    1.0000 </r>
       <r>  -62.0782    1.0000 </r>
       <r>  -62.0758    1.0000 </r>
       <r>  -62.0752    1.0000 </r>
       <r>  -62.0737    1.0000 </r>
       <r>  -62.0734    1.0000 </r>
       <r>  -62.0727    1.0000 </r>
       <r>  -62.0677    1.0000 </r>
       <r>  -62.0640    1.0000 </r>
       <r>  -62.0630    1.0000 </r>
       <r>  -62.0584    1.0000 </r>
       <r>  -62.0568    1.0000 </r>
       <r>  -62.0564    1.0000 </r>
       <r>  -62.0541    1.0000 </r>
       <r>  -62.0526    1.0000 </r>
       <r>  -62.0427    1.0000 </r>
       <r>  -62.0425    1.0000 </r>
       <r>  -62.0284    1.0000 </r>
       <r>  -62.0278    1.0000 </r>
       <r>  -62.0258    1.0000 </r>
       <r>  -62.0244    1.0000 </r>
       <r>  -62.0234    1.0000 </r>
       <r>  -62.0144    1.0000 </r>
       <r>  -62.0144    1.0000 </r>
       <r>  -62.0123    1.0000 </r>
       <r>  -62.0092    1.0000 </r>
       <r>  -62.0004    1.0000 </r>
       <r>  -61.9996    1.0000 </r>
       <r>  -61.9965    1.0000 </r>
       <r>  -61.9940    1.0000 </r>
       <r>  -61.9890    1.0000 </r>
       <r>  -61.9756    1.0000 </r>
       <r>  -61.9699    1.0000 </r>
       <r>  -61.9669    1.0000 </r>
       <r>  -61.9616    1.0000 </r>
       <r>  -61.9569    1.0000 </r>
       <r>  -61.9462    1.0000 </r>
       <r>  -61.9391    1.0000 </r>
       <r>  -61.9341    1.0000 </r>
       <r>  -61.9276    1.0000 </r>
       <r>  -61.9260    1.0000 </r>
       <r>  -61.9187    1.0000 </r>
       <r>  -61.9099    1.0000 </r>
       <r>  -61.8935    1.0000 </r>
       <r>  -61.8876    1.0000 </r>
       <r>  -61.8852    1.0000 </r>
       <r>  -61.8766    1.0000 </r>
       <r>  -61.8647    1.0000 </r>
       <r>  -61.8613    1.0000 </r>
       <r>  -61.8587    1.0000 </r>
       <r>  -61.8518    1.0000 </r>
       <r>  -61.8380    1.0000 </r>
       <r>  -61.8376    1.0000 </r>
       <r>  -61.7954    1.0000 </r>
       <r>  -61.7899    1.0000 </r>
       <r>  -61.7884    1.0000 </r>
       <r>  -61.7333    1.0000 </r>
       <r>  -61.7015    1.0000 </r>
       <r>  -61.6774    1.0000 </r>
       <r>  -61.5844    1.0000 </r>
       <r>  -61.5681    1.0000 </r>
       <r>  -61.5509    1.0000 </r>
       <r>  -61.5492    1.0000 </r>
       <r>  -61.5233    1.0000 </r>
       <r>  -61.5177    1.0000 </r>
       <r>  -61.3426    1.0000 </r>
       <r>  -61.3338    1.0000 </r>
       <r>  -61.3236    1.0000 </r>
       <r>  -61.2554    1.0000 </r>
       <r>  -14.4395    1.0000 </r>
       <r>  -14.1261    1.0000 </r>
       <r>  -13.8913    1.0000 </r>
       <r>  -13.5363    1.0000 </r>
       <r>  -13.4595    1.0000 </r>
       <r>  -13.4423    1.0000 </r>
       <r>  -13.3385    1.0000 </r>
       <r>  -13.2599    1.0000 </r>
       <r>  -13.1902    1.0000 </r>
       <r>  -13.0967    1.0000 </r>
       <r>  -13.0008    1.0000 </r>
       <r>  -12.9381    1.0000 </r>
       <r>  -12.8031    1.0000 </r>
       <r>  -12.7396    1.0000 </r>
       <r>  -12.6993    1.0000 </r>
       <r>  -12.5693    1.0000 </r>
       <r>  -12.4800    1.0000 </r>
       <r>  -12.4657    1.0000 </r>
       <r>  -12.4091    1.0000 </r>
       <r>  -12.3865    1.0000 </r>
       <r>  -12.3344    1.0000 </r>
       <r>  -12.2979    1.0000 </r>
       <r>  -12.2739    1.0000 </r>
       <r>  -12.2502    1.0000 </r>
       <r>  -12.1896    1.0000 </r>
       <r>  -12.1578    1.0000 </r>
       <r>  -12.0903    1.0000 </r>
       <r>  -12.0158    1.0000 </r>
       <r>  -12.0013    1.0000 </r>
       <r>  -11.9436    1.0000 </r>
       <r>  -11.8804    1.0000 </r>
       <r>  -11.8702    1.0000 </r>
       <r>  -11.7639    1.0000 </r>
       <r>  -11.7119    1.0000 </r>
       <r>  -11.6436    1.0000 </r>
       <r>  -11.6360    1.0000 </r>
       <r>  -11.6308    1.0000 </r>
       <r>  -11.5909    1.0000 </r>
       <r>  -11.5206    1.0000 </r>
       <r>  -11.5178    1.0000 </r>
       <r>  -11.4583    1.0000 </r>
       <r>  -11.4313    1.0000 </r>
       <r>  -11.4052    1.0000 </r>
       <r>  -11.3358    1.0000 </r>
       <r>  -11.3128    1.0000 </r>
       <r>  -11.2797    1.0000 </r>
       <r>  -11.2026    1.0000 </r>
       <r>  -11.1437    1.0000 </r>
       <r>  -11.0694    1.0000 </r>
       <r>  -10.9787    1.0000 </r>
       <r>  -10.8700    1.0000 </r>
       <r>  -10.7300    1.0000 </r>
       <r>   -6.2117    1.0000 </r>
       <r>   -6.1060    1.0000 </r>
       <r>   -6.0342    1.0000 </r>
       <r>   -5.9186    1.0000 </r>
       <r>   -5.8566    1.0000 </r>
       <r>   -5.8362    1.0000 </r>
       <r>   -5.7302    1.0000 </r>
       <r>   -5.6323    1.0000 </r>
       <r>   -5.5056    1.0000 </r>
       <r>   -5.4863    1.0000 </r>
       <r>   -5.4130    1.0000 </r>
       <r>   -5.3588    1.0000 </r>
       <r>   -5.2914    1.0000 </r>
       <r>   -5.2523    1.0000 </r>
       <r>   -5.2397    1.0000 </r>
       <r>   -5.1439    1.0000 </r>
       <r>   -5.1285    1.0000 </r>
       <r>   -5.0676    1.0000 </r>
       <r>   -5.0164    1.0000 </r>
       <r>   -4.9750    1.0000 </r>
       <r>   -4.9625    1.0000 </r>
       <r>   -4.9331    1.0000 </r>
       <r>   -4.8862    1.0000 </r>
       <r>   -4.8538    1.0000 </r>
       <r>   -4.8232    1.0000 </r>
       <r>   -4.7861    1.0000 </r>
       <r>   -4.7502    1.0000 </r>
       <r>   -4.7205    1.0000 </r>
       <r>   -4.7032    1.0000 </r>
       <r>   -4.6672    1.0000 </r>
       <r>   -4.6113    1.0000 </r>
       <r>   -4.5888    1.0000 </r>
       <r>   -4.5769    1.0000 </r>
       <r>   -4.5521    1.0000 </r>
       <r>   -4.5194    1.0000 </r>
       <r>   -4.4987    1.0000 </r>
       <r>   -4.4411    1.0000 </r>
       <r>   -4.4285    1.0000 </r>
       <r>   -4.3859    1.0000 </r>
       <r>   -4.3578    1.0000 </r>
       <r>   -4.3366    1.0000 </r>
       <r>   -4.3073    1.0000 </r>
       <r>   -4.2724    1.0000 </r>
       <r>   -4.2202    1.0000 </r>
       <r>   -4.1949    1.0000 </r>
       <r>   -4.1516    1.0000 </r>
       <r>   -4.1413    1.0000 </r>
       <r>   -4.1172    1.0000 </r>
       <r>   -4.0438    1.0000 </r>
       <r>   -4.0373    1.0000 </r>
       <r>   -4.0191    1.0000 </r>
       <r>   -3.9393    1.0000 </r>
       <r>   -3.9085    1.0000 </r>
       <r>   -3.8946    1.0000 </r>
       <r>   -3.8560    1.0000 </r>
       <r>   -3.8495    1.0000 </r>
       <r>   -3.8159    1.0000 </r>
       <r>   -3.7659    1.0000 </r>
       <r>   -3.7308    1.0000 </r>
       <r>   -3.7103    1.0000 </r>
       <r>   -3.6677    1.0000 </r>
       <r>   -3.6214    1.0000 </r>
       <r>   -3.6158    1.0000 </r>
       <r>   -3.5762    1.0000 </r>
       <r>   -3.5368    1.0000 </r>
       <r>   -3.5057    1.0000 </r>
       <r>   -3.4867    1.0000 </r>
       <r>   -3.4483    1.0000 </r>
       <r>   -3.4283    1.0000 </r>
       <r>   -3.4137    1.0000 </r>
       <r>   -3.3891    1.0000 </r>
       <r>   -3.3333    1.0000 </r>
       <r>   -3.3175    1.0000 </r>
       <r>   -3.2930    1.0000 </r>
       <r>   -3.2647    1.0000 </r>
       <r>   -3.2418    1.0000 </r>
       <r>   -3.2256    1.0000 </r>
       <r>   -3.1992    1.0000 </r>
       <r>   -3.1911    1.0000 </r>
       <r>   -3.1591    1.0000 </r>
       <r>   -3.1217    1.0000 </r>
       <r>   -3.1009    1.0000 </r>
       <r>   -3.0897    1.0000 </r>
       <r>   -3.0676    1.0000 </r>
       <r>   -3.0413    1.0000 </r>
       <r>   -3.0360    1.0000 </r>
       <r>   -3.0223    1.0000 </r>
       <r>   -3.0020    1.0000 </r>
       <r>   -2.9736    1.0000 </r>
       <r>   -2.9529    1.0000 </r>
       <r>   -2.9462    1.0000 </r>
       <r>   -2.9229    1.0000 </r>
       <r>   -2.9157    1.0000 </r>
       <r>   -2.8712    1.0000 </r>
       <r>   -2.8498    1.0000 </r>
       <r>   -2.8417    1.0000 </r>
       <r>   -2.8167    1.0000 </r>
       <r>   -2.8043    1.0000 </r>
       <r>   -2.7888    1.0000 </r>
       <r>   -2.7659    1.0000 </r>
       <r>   -2.7318    1.0000 </r>
       <r>   -2.7030    1.0000 </r>
       <r>   -2.6920    1.0000 </r>
       <r>   -2.6871    1.0000 </r>
       <r>   -2.6305    1.0000 </r>
       <r>   -2.6149    1.0000 </r>
       <r>   -2.5805    1.0000 </r>
       <r>   -2.5681    1.0000 </r>
       <r>   -2.5629    1.0000 </r>
       <r>   -2.5443    1.0000 </r>
       <r>   -2.5182    1.0000 </r>
       <r>   -2.4990    1.0000 </r>
       <r>   -2.4625    1.0000 </r>
       <r>   -2.4134    1.0000 </r>
       <r>   -2.3967    1.0000 </r>
       <r>   -2.3761    1.0000 </r>
       <r>   -2.3494    1.0000 </r>
       <r>   -2.3319    1.0000 </r>
       <r>   -2.2786    1.0000 </r>
       <r>   -2.2641    1.0000 </r>
       <r>   -2.2420    1.0000 </r>
       <r>   -2.2364    1.0000 </r>
       <r>   -2.2051    1.0000 </r>
       <r>   -2.2021    1.0000 </r>
       <r>   -2.1849    1.0000 </r>
       <r>   -2.1626    1.0000 </r>
       <r>   -2.1274    1.0000 </r>
       <r>   -2.1193    1.0000 </r>
       <r>   -2.1098    1.0000 </r>
       <r>   -2.0814    1.0000 </r>
       <r>   -2.0443    1.0000 </r>
       <r>   -2.0397    1.0000 </r>
       <r>   -2.0140    1.0000 </r>
       <r>   -2.0044    1.0000 </r>
       <r>   -1.9784    1.0000 </r>
       <r>   -1.9674    1.0000 </r>
       <r>   -1.9355    1.0000 </r>
       <r>   -1.9147    1.0000 </r>
       <r>   -1.8950    1.0000 </r>
       <r>   -1.8415    1.0000 </r>
       <r>   -1.8174    1.0000 </r>
       <r>   -1.7427    1.0000 </r>
       <r>   -1.7071    1.0000 </r>
       <r>   -1.6551    1.0000 </r>
       <r>   -1.6124    1.0000 </r>
       <r>   -1.6068    1.0000 </r>
       <r>   -1.6045    1.0000 </r>
       <r>   -1.5689    1.0000 </r>
       <r>   -1.5110    1.0000 </r>
       <r>   -1.5025    1.0000 </r>
       <r>   -1.4869    1.0000 </r>
       <r>   -1.4333    1.0000 </r>
       <r>   -1.4082    1.0000 </r>
       <r>   -1.3474    1.0000 </r>
       <r>   -1.3365    1.0000 </r>
       <r>   -1.3125    1.0000 </r>
       <r>   -1.2537    1.0000 </r>
       <r>   -1.2306    1.0000 </r>
       <r>   -1.1999    1.0000 </r>
       <r>   -1.1733    1.0000 </r>
       <r>   -1.1540    1.0000 </r>
       <r>   -1.1469    1.0000 </r>
       <r>   -1.1258    1.0000 </r>
       <r>   -1.1065    1.0000 </r>
       <r>   -1.0958    1.0000 </r>
       <r>   -1.0814    1.0000 </r>
       <r>   -1.0618    1.0000 </r>
       <r>   -1.0390    1.0000 </r>
       <r>   -1.0206    1.0000 </r>
       <r>   -1.0001    1.0000 </r>
       <r>   -0.9823    1.0000 </r>
       <r>   -0.9650    1.0000 </r>
       <r>   -0.9460    1.0000 </r>
       <r>   -0.9349    1.0000 </r>
       <r>   -0.9066    1.0000 </r>
       <r>   -0.9022    1.0000 </r>
       <r>   -0.8952    1.0000 </r>
       <r>   -0.8600    1.0000 </r>
       <r>   -0.8491    1.0000 </r>
       <r>   -0.8283    1.0000 </r>
       <r>   -0.8113    1.0000 </r>
       <r>   -0.7731    1.0000 </r>
       <r>   -0.7391    1.0000 </r>
       <r>   -0.7184    1.0000 </r>
       <r>   -0.7052    1.0000 </r>
       <r>   -0.6882    1.0000 </r>
       <r>   -0.6734    1.0000 </r>
       <r>   -0.6560    1.0000 </r>
       <r>   -0.6489    1.0000 </r>
       <r>   -0.6201    1.0000 </r>
       <r>   -0.6093    1.0000 </r>
       <r>   -0.6061    1.0000 </r>
       <r>   -0.5947    1.0000 </r>
       <r>   -0.5602    1.0000 </r>
       <r>   -0.5487    1.0000 </r>
       <r>   -0.5288    1.0000 </r>
       <r>   -0.5259    1.0000 </r>
       <r>   -0.5050    1.0000 </r>
       <r>   -0.4850    1.0000 </r>
       <r>   -0.4742    1.0000 </r>
       <r>   -0.4689    1.0000 </r>
       <r>   -0.4543    1.0000 </r>
       <r>   -0.4462    1.0000 </r>
       <r>   -0.4329    1.0000 </r>
       <r>   -0.4159    1.0000 </r>
       <r>   -0.4067    1.0000 </r>
       <r>   -0.3932    1.0000 </r>
       <r>   -0.3866    1.0000 </r>
       <r>   -0.3654    1.0000 </r>
       <r>   -0.3618    1.0000 </r>
       <r>   -0.3515    1.0000 </r>
       <r>   -0.3371    1.0000 </r>
       <r>   -0.3246    1.0000 </r>
       <r>   -0.3080    1.0000 </r>
       <r>   -0.2884    1.0000 </r>
       <r>   -0.2856    1.0000 </r>
       <r>   -0.2750    1.0000 </r>
       <r>   -0.2569    1.0000 </r>
       <r>   -0.2516    1.0000 </r>
       <r>   -0.2457    1.0000 </r>
       <r>   -0.2344    1.0000 </r>
       <r>   -0.2246    1.0000 </r>
       <r>   -0.2033    1.0000 </r>
       <r>   -0.1913    1.0000 </r>
       <r>   -0.1745    1.0000 </r>
       <r>   -0.1639    1.0000 </r>
       <r>   -0.1591    1.0000 </r>
       <r>   -0.1270    1.0000 </r>
       <r>   -0.1113    1.0000 </r>
       <r>   -0.1031    1.0000 </r>
       <r>   -0.0971    1.0000 </r>
       <r>   -0.0870    1.0000 </r>
       <r>   -0.0772    1.0000 </r>
       <r>   -0.0592    1.0000 </r>
       <r>   -0.0466    1.0000 </r>
       <r>   -0.0415    1.0000 </r>
       <r>   -0.0310    1.0000 </r>
       <r>   -0.0191    1.0000 </r>
       <r>   -0.0131    1.0000 </r>
       <r>   -0.0101    1.0000 </r>
       <r>   -0.0039    1.0000 </r>
       <r>    0.0050    1.0000 </r>
       <r>    0.0242    1.0000 </r>
       <r>    0.0328    1.0000 </r>
       <r>    0.0527    1.0000 </r>
[...]
       <r>   -55.6606     0.0000   312.0000 </r>
       <r>   -55.4003     0.0000   312.0000 </r>
       <r>   -55.1400     0.0000   312.0000 </r>
       <r>   -54.8797     0.0000   312.0000 </r>
       <r>   -54.6194     0.0000   312.0000 </r>
       <r>   -54.3592     0.0000   312.0000 </r>
       <r>   -54.0989     0.0000   312.0000 </r>
       <r>   -53.8386     0.0000   312.0000 </r>
       <r>   -53.5783     0.0000   312.0000 </r>
       <r>   -53.3180     0.0000   312.0000 </r>
       <r>   -53.0577     0.0000   312.0000 </r>
       <r>   -52.7974     0.0000   312.0000 </r>
       <r>   -52.5372     0.0000   312.0000 </r>
       <r>   -52.2769     0.0000   312.0000 </r>
       <r>   -52.0166     0.0000   312.0000 </r>
       <r>   -51.7563     0.0000   312.0000 </r>
       <r>   -51.4960     0.0000   312.0000 </r>
       <r>   -51.2357     0.0000   312.0000 </r>
       <r>   -50.9755     0.0000   312.0000 </r>
       <r>   -50.7152     0.0000   312.0000 </r>
       <r>   -50.4549     0.0000   312.0000 </r>
       <r>   -50.1946     0.0000   312.0000 </r>
       <r>   -49.9343     0.0000   312.0000 </r>
       <r>   -49.6740     0.0000   312.0000 </r>
       <r>   -49.4138     0.0000   312.0000 </r>
       <r>   -49.1535     0.0000   312.0000 </r>
       <r>   -48.8932     0.0000   312.0000 </r>
       <r>   -48.6329     0.0000   312.0000 </r>
       <r>   -48.3726     0.0000   312.0000 </r>
       <r>   -48.1123     0.0000   312.0000 </r>
       <r>   -47.8520     0.0000   312.0000 </r>
       <r>   -47.5918     0.0000   312.0000 </r>
       <r>   -47.3315     0.0000   312.0000 </r>
       <r>   -47.0712     0.0000   312.0000 </r>
       <r>   -46.8109     0.0000   312.0000 </r>
       <r>   -46.5506     0.0000   312.0000 </r>
       <r>   -46.2903     0.0000   312.0000 </r>
       <r>   -46.0301     0.0000   312.0000 </r>
       <r>   -45.7698     0.0000   312.0000 </r>
       <r>   -45.5095     0.0000   312.0000 </r>
       <r>   -45.2492     0.0000   312.0000 </r>
       <r>   -44.9889     0.0000   312.0000 </r>
       <r>   -44.7286     0.0000   312.0000 </r>
       <r>   -44.4683     0.0000   312.0000 </r>
       <r>   -44.2081     0.0000   312.0000 </r>
       <r>   -43.9478     0.0000   312.0000 </r>
       <r>   -43.6875     0.0000   312.0000 </r>
       <r>   -43.4272     0.0000   312.0000 </r>
       <r>   -43.1669     0.0000   312.0000 </r>
       <r>   -42.9066     0.0000   312.0000 </r>
       <r>   -42.6464     0.0000   312.0000 </r>
       <r>   -42.3861     0.0000   312.0000 </r>
       <r>   -42.1258     0.0000   312.0000 </r>
       <r>   -41.8655     0.0000   312.0000 </r>
       <r>   -41.6052     0.0000   312.0000 </r>
       <r>   -41.3449     0.0000   312.0000 </r>
       <r>   -41.0846     0.0000   312.0000 </r>
       <r>   -40.8244     0.0000   312.0000 </r>
       <r>   -40.5641     0.0000   312.0000 </r>
       <r>   -40.3038     0.0000   312.0000 </r>
       <r>   -40.0435     0.0000   312.0000 </r>
       <r>   -39.7832     0.0000   312.0000 </r>
       <r>   -39.5229     0.0000   312.0000 </r>
       <r>   -39.2627     0.0000   312.0000 </r>
       <r>   -39.0024     0.0000   312.0000 </r>
       <r>   -38.7421     0.0000   312.0000 </r>
       <r>   -38.4818     0.0000   312.0000 </r>
       <r>   -38.2215     0.0000   312.0000 </r>
       <r>   -37.9612     0.0000   312.0000 </r>
       <r>   -37.7010     0.0000   312.0000 </r>
       <r>   -37.4407     0.0000   312.0000 </r>
       <r>   -37.1804     0.0000   312.0000 </r>
       <r>   -36.9201     0.0000   312.0000 </r>
       <r>   -36.6598     0.0000   312.0000 </r>
       <r>   -36.3995     0.0000   312.0000 </r>
       <r>   -36.1392     0.0000   312.0000 </r>
       <r>   -35.8790     0.0000   312.0000 </r>
       <r>   -35.6187     0.0000   312.0000 </r>
       <r>   -35.3584     0.0000   312.0000 </r>
       <r>   -35.0981     0.0000   312.0000 </r>
       <r>   -34.8378     0.0000   312.0000 </r>
       <r>   -34.5775     0.0000   312.0000 </r>
       <r>   -34.3173     0.0000   312.0000 </r>
       <r>   -34.0570     0.0000   312.0000 </r>
       <r>   -33.7967     0.0000   312.0000 </r>
       <r>   -33.5364     0.0000   312.0000 </r>
       <r>   -33.2761     0.0000   312.0000 </r>
       <r>   -33.0158     0.0000   312.0000 </r>
       <r>   -32.7555     0.0000   312.0000 </r>
       <r>   -32.4953     0.0000   312.0000 </r>
       <r>   -32.2350     0.0000   312.0000 </r>
       <r>   -31.9747     0.0000   312.0000 </r>
       <r>   -31.7144     0.0000   312.0000 </r>
       <r>   -31.4541     0.0000   312.0000 </r>
       <r>   -31.1938     0.0000   312.0000 </r>
       <r>   -30.9336     0.0000   312.0000 </r>
       <r>   -30.6733     0.0000   312.0000 </r>
       <r>   -30.4130     0.0000   312.0000 </r>
       <r>   -30.1527     0.0000   312.0000 </r>
       <r>   -29.8924     0.0000   312.0000 </r>
       <r>   -29.6321     0.0000   312.0000 </r>
       <r>   -29.3719     0.0000   312.0000 </r>
       <r>   -29.1116     0.0000   312.0000 </r>
       <r>   -28.8513     0.0000   312.0000 </r>
       <r>   -28.5910     0.0000   312.0000 </r>
       <r>   -28.3307     0.0000   312.0000 </r>
       <r>   -28.0704     0.0000   312.0000 </r>
       <r>   -27.8101     0.0000   312.0000 </r>
       <r>   -27.5499     0.0000   312.0000 </r>
       <r>   -27.2896     0.0000   312.0000 </r>
       <r>   -27.0293     0.0000   312.0000 </r>
       <r>   -26.7690     0.0000   312.0000 </r>
       <r>   -26.5087     0.0000   312.0000 </r>
       <r>   -26.2484     0.0000   312.0000 </r>
       <r>   -25.9882     0.0000   312.0000 </r>
       <r>   -25.7279     0.0000   312.0000 </r>
       <r>   -25.4676     0.0000   312.0000 </r>
       <r>   -25.2073     0.0000   312.0000 </r>
       <r>   -24.9470     0.0000   312.0000 </r>
       <r>   -24.6867     0.0000   312.0000 </r>
       <r>   -24.4264     0.0000   312.0000 </r>
       <r>   -24.1662     0.0000   312.0000 </r>
       <r>   -23.9059     0.0000   312.0000 </r>
       <r>   -23.6456     0.0000   312.0000 </r>
       <r>   -23.3853     0.0000   312.0000 </r>
       <r>   -23.1250     0.0000   312.0000 </r>
       <r>   -22.8647     0.0000   312.0000 </r>
       <r>   -22.6045     0.0000   312.0000 </r>
       <r>   -22.3442     0.0000   312.0000 </r>
       <r>   -22.0839     0.0000   312.0000 </r>
       <r>   -21.8236     0.0000   312.0000 </r>
       <r>   -21.5633     0.0000   312.0000 </r>
       <r>   -21.3030     0.0000   312.0000 </r>
       <r>   -21.0427     0.0000   312.0000 </r>
       <r>   -20.7825     0.0000   312.0000 </r>
       <r>   -20.5222     0.0000   312.0000 </r>
       <r>   -20.2619     0.0000   312.0000 </r>
       <r>   -20.0016     0.0000   312.0000 </r>
       <r>   -19.7413     0.0000   312.0000 </r>
       <r>   -19.4810     0.0000   312.0000 </r>
       <r>   -19.2208     0.0000   312.0000 </r>
       <r>   -18.9605     0.0000   312.0000 </r>
       <r>   -18.7002     0.0000   312.0000 </r>
       <r>   -18.4399     0.0000   312.0000 </r>
       <r>   -18.1796     0.0000   312.0000 </r>
       <r>   -17.9193     0.0000   312.0000 </r>
       <r>   -17.6591     0.0000   312.0000 </r>
       <r>   -17.3988     0.0000   312.0000 </r>
       <r>   -17.1385     0.0000   312.0000 </r>
       <r>   -16.8782     0.0000   312.0000 </r>
       <r>   -16.6179     0.0000   312.0000 </r>
       <r>   -16.3576     0.0000   312.0000 </r>
       <r>   -16.0973     0.0000   312.0000 </r>
       <r>   -15.8371     0.0000   312.0000 </r>
       <r>   -15.5768     0.0000   312.0000 </r>
       <r>   -15.3165     0.0000   312.0000 </r>
       <r>   -15.0562     0.0000   312.0000 </r>
       <r>   -14.7959     0.0450   312.0117 </r>
       <r>   -14.5356     1.8776   312.5004 </r>
       <r>   -14.2754     5.9609   314.0520 </r>
       <r>   -14.0151     7.2811   315.9471 </r>
       <r>   -13.7548     7.2992   317.8470 </r>
       <r>   -13.4945    12.6811   321.1477 </r>
       <r>   -13.2342    24.8759   327.6225 </r>
       <r>   -12.9739    23.6045   333.7664 </r>
       <r>   -12.7136    23.6688   339.9270 </r>
       <r>   -12.4534    31.7766   348.1979 </r>
       <r>   -12.1931    46.6264   360.3341 </r>
       <r>   -11.9328    41.8441   371.2254 </r>
       <r>   -11.6725    41.9226   382.1372 </r>
       <r>   -11.4122    51.1984   395.4634 </r>
       <r>   -11.1519    40.7589   406.0723 </r>
       <r>   -10.8917    23.8129   412.2704 </r>
       <r>   -10.6314    12.0487   415.4065 </r>
       <r>   -10.3711     2.2355   415.9884 </r>
       <r>   -10.1108     0.0445   416.0000 </r>
       <r>    -9.8505     0.0000   416.0000 </r>
       <r>    -9.5902     0.0000   416.0000 </r>
       <r>    -9.3300     0.0000   416.0000 </r>
       <r>    -9.0697     0.0000   416.0000 </r>
       <r>    -8.8094     0.0000   416.0000 </r>
       <r>    -8.5491     0.0000   416.0000 </r>
       <r>    -8.2888     0.0000   416.0000 </r>
       <r>    -8.0285     0.0000   416.0000 </r>
       <r>    -7.7682     0.0000   416.0000 </r>
       <r>    -7.5080     0.0000   416.0000 </r>
       <r>    -7.2477     0.0000   416.0000 </r>
       <r>    -6.9874     0.0000   416.0000 </r>
       <r>    -6.7271     0.0011   416.0003 </r>
       <r>    -6.4668     0.3229   416.0843 </r>
       <r>    -6.2065     6.5685   417.7940 </r>
       <r>    -5.9463    20.4264   423.1107 </r>
       <r>    -5.6860    25.5510   429.7612 </r>
       <r>    -5.4257    27.7875   436.9938 </r>
       <r>    -5.1654    39.1609   447.1868 </r>
       <r>    -4.9051    50.4424   460.3162 </r>
       <r>    -4.6448    61.4711   476.3161 </r>
       <r>    -4.3845    65.4028   493.3395 </r>
       <r>    -4.1243    61.6306   509.3810 </r>
       <r>    -3.8640    60.2497   525.0630 </r>
       <r>    -3.6037    62.7896   541.4062 </r>
       <r>    -3.3434    70.9022   559.8609 </r>
       <r>    -3.0831    87.1093   582.5341 </r>
       <r>    -2.8228    98.7850   608.2463 </r>
       <r>    -2.5626    90.5688   631.8199 </r>
       <r>    -2.3023    83.8710   653.6502 </r>
       <r>    -2.0420    93.2877   677.9316 </r>
       <r>    -1.7817    74.7301   697.3826 </r>
       <r>    -1.5214    60.8621   713.2241 </r>
       <r>    -1.2611    67.4906   730.7908 </r>
       <r>    -1.0008    94.4916   755.3855 </r>
       <r>    -0.7406   107.1964   783.2871 </r>
       <r>    -0.4803   128.1982   816.6551 </r>
       <r>    -0.2200   159.0130   858.0437 </r>
       <r>     0.0403   176.5333   903.9925 </r>
       <r>     0.3006   195.1703   954.7923 </r>
       <r>     0.5609   188.4583  1003.8451 </r>
       <r>     0.8211   153.7476  1043.8632 </r>
       <r>     1.0814   112.9705  1073.2677 </r>
       <r>     1.3417    91.7668  1097.1532 </r>
       <r>     1.6020    78.4925  1117.5835 </r>
       <r>     1.8623    76.4242  1137.4756 </r>
       <r>     2.1226    64.8831  1154.3636 </r>
       <r>     2.3828    60.4964  1170.1099 </r>
       <r>     2.6431    70.5531  1188.4738 </r>
       <r>     2.9034    74.5578  1207.8800 </r>
       <r>     3.1637    60.7596  1223.6948 </r>
       <r>     3.4240    48.0489  1236.2011 </r>
       <r>     3.6843    29.8123  1243.9608 </r>
       <r>     3.9446    13.0470  1247.3568 </r>
       <r>     4.2048     2.9585  1248.1268 </r>
       <r>     4.4651     4.4416  1249.2829 </r>
       <r>     4.7254     2.9392  1250.0479 </r>
       <r>     4.9857     5.8319  1251.5659 </r>
       <r>     5.2460    16.0141  1255.7341 </r>
       <r>     5.5063    19.1877  1260.7283 </r>
       <r>     5.7665    17.6811  1265.3305 </r>
       <r>     6.0268    21.2146  1270.8523 </r>
       <r>     6.2871    31.6948  1279.1020 </r>
       <r>     6.5474    37.2709  1288.8030 </r>
       <r>     6.8077    33.2418  1297.4553 </r>
       <r>     7.0680    40.3155  1307.9488 </r>
       <r>     7.3283    49.1095  1320.7313 </r>
       <r>     7.5885    57.6520  1335.7372 </r>
       <r>     7.8488    57.1040  1350.6005 </r>
       <r>     8.1091    51.6639  1364.0478 </r>
       <r>     8.3694    27.8530  1371.2975 </r>
       <r>     8.6297     2.6785  1371.9947 </r>
       <r>     8.8900     0.0205  1372.0000 </r>
       <r>     9.1502     0.0000  1372.0000 </r>
       <r>     9.4105     0.0000  1372.0000 </r>
       <r>     9.6708     0.0000  1372.0000 </r>
       <r>     9.9311     0.0000  1372.0000 </r>
       <r>    10.1914     0.0000  1372.0000 </r>
       <r>    10.4517     0.0000  1372.0000 </r>
       <r>    10.7119     0.0000  1372.0000 </r>
       <r>    10.9722     0.0000  1372.0000 </r>
       <r>    11.2325     0.0000  1372.0000 </r>
       <r>    11.4928     0.0000  1372.0000 </r>
       <r>    11.7531     0.0000  1372.0000 </r>
      </set>
     </set>
    </array>
   </total>
  </dos>
 </calculation>
 <structure name="finalpos" >
  <crystal>
   <varray name="basis" >
    <v>      11.25646304       0.00000000       0.00000000 </v>
    <v>       5.04456212      10.06282034       0.00000000 </v>
    <v>       0.00000000       0.00000000      22.88364939 </v>
   </varray>
   <i name="volume">   2592.07135999 </i>
   <varray name="rec_basis" >
    <v>       0.08883785      -0.04453504       0.00000000 </v>
    <v>       0.00000000       0.09937572       0.00000000 </v>
    <v>       0.00000000       0.00000000       0.04369932 </v>
   </varray>
  </crystal>
  <varray name="positions" >
   <v>       0.26092070       0.47878036       0.29050611 </v>
   <v>       0.35488056       0.38482049       0.41880986 </v>
   <v>       0.52596733       0.26164896       0.48550719 </v>
   <v>       0.03180520       0.20265708       0.08937486 </v>
   <v>       0.16696083       0.07274024       0.16220237 </v>
   <v>       0.07281802       0.01843033       0.49757141 </v>
   <v>       0.27423906       0.33335899       0.12830375 </v>
   <v>       0.36819893       0.23939913       0.25660749 </v>
   <v>       0.46215880       0.14543926       0.38491124 </v>
   <v>       0.00030194       0.37150212       0.25660749 </v>
   <v>       0.09426181       0.27754226       0.38491124 </v>
   <v>       0.17784796       0.19439759       0.49787798 </v>
   <v>       0.40634206       0.46546199       0.12830375 </v>
   <v>       0.42344917       0.03358460       0.03427565 </v>
   <v>       0.76092070       0.47878036       0.29050611 </v>
   <v>       0.85488056       0.38482049       0.41880986 </v>
   <v>       0.86867606       0.38464374       0.52079024 </v>
   <v>       0.48471254       0.19260246       0.09025471 </v>
   <v>       0.66696083       0.07274024       0.16220237 </v>
   <v>       0.54723434       0.04504666       0.49535962 </v>
   <v>       0.59381185       0.32164988       0.06139745 </v>
   <v>       0.77423906       0.33335899       0.12830375 </v>
   <v>       0.86819893       0.23939913       0.25660749 </v>
   <v>       0.96215880       0.14543926       0.38491124 </v>
   <v>       0.50030194       0.37150212       0.25660749 </v>
   <v>       0.59426181       0.27754226       0.38491124 </v>
   <v>       0.90634206       0.46546199       0.12830375 </v>
   <v>       0.26092070       0.97878036       0.29050611 </v>
   <v>       0.35488056       0.88482049       0.41880986 </v>
   <v>       0.34479743       0.91902775       0.51837198 </v>
   <v>       0.16696083       0.57274024       0.16220237 </v>
   <v>       0.22460854       0.01003994       0.04802694 </v>
   <v>       0.27423907       0.83335899       0.12830375 </v>
   <v>       0.36819893       0.73939913       0.25660749 </v>
   <v>       0.46215880       0.64543926       0.38491124 </v>
   <v>       0.00030194       0.87150212       0.25660749 </v>
   <v>       0.09426181       0.77754226       0.38491124 </v>
   <v>       0.40634206       0.96546199       0.12830375 </v>
   <v>       0.76092070       0.97878036       0.29050611 </v>
   <v>       0.85488056       0.88482049       0.41880986 </v>
   <v>       0.87998289       0.85060219       0.52193548 </v>
   <v>       0.66696083       0.57274024       0.16220237 </v>
   <v>       0.54658541       0.53343633       0.49213044 </v>
   <v>       0.71659940       0.03648564       0.05099977 </v>
   <v>       0.77423907       0.83335899       0.12830375 </v>
   <v>       0.86819893       0.73939913       0.25660749 </v>
   <v>       0.96215880       0.64543926       0.38491124 </v>
   <v>       0.50030194       0.87150212       0.25660749 </v>
   <v>       0.59426181       0.77754226       0.38491124 </v>
   <v>       0.69425921       0.69156026       0.49524110 </v>
   <v>       0.90634206       0.96546199       0.12830375 </v>
   <v>       0.71613167       0.52535164       0.05743079 </v>
   <v>       0.07287763       0.16682343       0.30639927 </v>
   <v>       0.16683750       0.07286357       0.43470302 </v>
   <v>       0.38177912       0.37721331       0.05410943 </v>
   <v>       0.47891775       0.26078330       0.17809552 </v>
   <v>       0.40094547       0.46193133       0.49265850 </v>
   <v>       0.02361390       0.37398810       0.46680174 </v>
   <v>       0.43627354       0.47164251       0.34956450 </v>
   <v>       0.24835381       0.15956225       0.09295701 </v>
   <v>       0.34231368       0.06560239       0.22126075 </v>
   <v>       0.08349369       0.47951121       0.11020530 </v>
   <v>       0.17409868       0.39738738       0.22126075 </v>
   <v>       0.26805855       0.30342751       0.34956450 </v>
   <v>       0.36201842       0.20946765       0.47786825 </v>
   <v>       0.57287763       0.16682343       0.30639927 </v>
   <v>       0.64637062       0.09221044       0.42815422 </v>
   <v>       0.88495789       0.35474317       0.04979178 </v>
   <v>       0.97891775       0.26078330       0.17809552 </v>
   <v>       0.69655358       0.53834305       0.54693104 </v>
   <v>       0.65607613       0.33778308       0.46273148 </v>
   <v>       0.93627354       0.47164251       0.34956450 </v>
   <v>       0.75485879       0.16234365       0.10394566 </v>
   <v>       0.84231368       0.06560239       0.22126075 </v>
   <v>       0.57736371       0.49102710       0.10363347 </v>
   <v>       0.67409868       0.39738738       0.22126075 </v>
   <v>       0.76805855       0.30342751       0.34956450 </v>
   <v>       0.91873870       0.20722513       0.47398692 </v>
   <v>       0.07287764       0.66682343       0.30639927 </v>
   <v>       0.16162494       0.57739643       0.41115353 </v>
   <v>       0.40583487       0.85373713       0.05738108 </v>
   <v>       0.47891775       0.76078330       0.17809552 </v>
   <v>       0.18424754       0.05711661       0.55872468 </v>
   <v>       0.01854334       0.87010948       0.46789119 </v>
   <v>       0.43627354       0.97164251       0.34956450 </v>
   <v>       0.25846449       0.65963739       0.11136469 </v>
   <v>       0.34231368       0.56560239       0.22126075 </v>
   <v>       0.08013882       0.99134724       0.09295701 </v>
   <v>       0.17409868       0.89738738       0.22126075 </v>
   <v>       0.26805855       0.80342751       0.34956450 </v>
   <v>       0.39268404       0.72708199       0.47348717 </v>
   <v>       0.57287764       0.66682343       0.30639927 </v>
   <v>       0.66683750       0.57286357       0.43470302 </v>
   <v>       0.87989372       0.85979862       0.06111374 </v>
   <v>       0.97891775       0.76078330       0.17809552 </v>
   <v>       0.70520374       0.98648557       0.54944305 </v>
   <v>       0.53023342       0.87768264       0.47786825 </v>
   <v>       0.93627354       0.97164251       0.34956450 </v>
   <v>       0.75935384       0.65635180       0.10569914 </v>
   <v>       0.84231368       0.56560239       0.22126075 </v>
   <v>       0.58013882       0.99134724       0.09295701 </v>
   <v>       0.67409868       0.89738738       0.22126075 </v>
   <v>       0.76805855       0.80342751       0.34956450 </v>
   <v>       0.85953918       0.71892108       0.46539430 </v>
  </varray>
 </structure>
</modeling>
