<?xml version="1.0" encoding="ISO-8859-1"?>
<modeling>
 <generator>
  <i name="program" type="string">vasp </i>
  <i name="version" type="string">5.4.4.18Apr17-6-g9f103f2a35  </i>
  <i name="subversion" type="string">(build Aug 13 2019 17:33:20) gamma-only         parallel </i>
  <i name="platform" type="string">LinuxIFC </i>
  <i name="date" type="string">2020 05 12 </i>
  <i name="time" type="string">08:41:26 </i>
 </generator>
 <incar>
  <i type="string" name="SYSTEM">"Millerite NiS"</i>
  <i type="string" name="PREC">normal</i>
  <i type="int" name="NSIM">     4</i>
  <i type="int" name="NELM">   100</i>
  <i name="ENCUT">    450.00000000</i>
  <i type="string" name="LREAL">A</i>
  <i type="int" name="ISMEAR">     0</i>
  <i type="int" name="NWRITE">     2</i>
  <i type="logical" name="LWAVE"> F  </i>
  <i type="logical" name="LCHARG"> F  </i>
  <v type="int" name="KPOINT_BSE">    -1     0     0     0</v>
  <i type="int" name="NELM">   100</i>
 </incar>
 <structure name="primitive_cell" >
  <crystal>
   <varray name="basis" >
    <v>       6.27856000       0.00000000       0.00000000 </v>
    <v>       2.09285340      11.06019551       0.00000000 </v>
    <v>       0.00000000       0.00000000      29.15682000 </v>
   </varray>
   <i name="volume">   2024.71084344 </i>
   <varray name="rec_basis" >
    <v>       0.15927219      -0.03013811       0.00000000 </v>
    <v>       0.00000000       0.09041431       0.00000000 </v>
    <v>       0.00000000       0.00000000       0.03429729 </v>
   </varray>
  </crystal>
  <varray name="positions" >
   <v>       0.25630944       0.01645859       0.15239349 </v>
   <v>       0.21840411      -0.08338242       0.21799173 </v>
   <v>      -0.03159590       0.16661759       0.16425677 </v>
   <v>       0.05251161      -0.08570492       0.10899586 </v>
   <v>       0.46840410       0.16661759       0.16425677 </v>
   <v>      -0.44748839      -0.08570492       0.10899586 </v>
   <v>       0.22159646       0.02191352       0.07032352 </v>
   <v>       0.18458766       0.22548685       0.11965931 </v>
   <v>      -0.24369056       0.01645859       0.15239349 </v>
   <v>      -0.03373818       0.17276049       0.07160886 </v>
   <v>      -0.28159589      -0.08338242       0.21799173 </v>
   <v>      -0.18528844       0.02143992       0.06997261 </v>
   <v>       0.00630944       0.26645858       0.22985501 </v>
   <v>       0.44025794      -0.03538692       0.27325263 </v>
   <v>      -0.49369056      -0.23354142       0.22985501 </v>
   <v>       0.19025794      -0.28538692       0.10899586 </v>
   <v>      -0.29156258       0.22602950       0.12001639 </v>
   <v>       0.30251160       0.16429509       0.27325263 </v>
   <v>       0.46840411      -0.33338241       0.16425677 </v>
   <v>      -0.49369056       0.26645858       0.22985501 </v>
   <v>      -0.05974206      -0.03538692       0.27325263 </v>
   <v>      -0.30974206      -0.28538692       0.10899586 </v>
   <v>       0.00630944      -0.23354142       0.22985501 </v>
   <v>       0.03715059      -0.03202277       0.02095656 </v>
   <v>       0.05251161       0.41429508       0.10899586 </v>
   <v>      -0.19748840       0.16429509       0.27325263 </v>
   <v>      -0.03159589      -0.33338241       0.16425677 </v>
   <v>       0.46790392      -0.35840498       0.06846582 </v>
   <v>       0.21840410       0.41661758       0.21799173 </v>
   <v>       0.21840411      -0.08338242       0.32851354 </v>
   <v>       0.30251161      -0.33570491       0.27325263 </v>
   <v>      -0.44748839       0.41429508       0.10899586 </v>
   <v>      -0.28159590       0.41661758       0.21799173 </v>
   <v>      -0.03189395      -0.35932109       0.06860607 </v>
   <v>       0.00630944       0.26645858       0.31665025 </v>
   <v>      -0.49369056      -0.23354142       0.31665025 </v>
   <v>       0.25630944      -0.48354141       0.15239349 </v>
   <v>      -0.28159589      -0.08338242       0.32851354 </v>
   <v>      -0.19748839      -0.33570491       0.27325263 </v>
   <v>      -0.49369056       0.26645858       0.31665025 </v>
   <v>       0.00630944      -0.23354142       0.31665025 </v>
   <v>      -0.24369056      -0.48354141       0.15239349 </v>
   <v>       0.26505614      -0.48764815       0.07264255 </v>
   <v>      -0.05974206       0.46461308       0.27325263 </v>
   <v>      -0.23755136      -0.48756951       0.07261941 </v>
   <v>       0.44025794       0.46461308       0.27325263 </v>
   <v>       0.21840410       0.41661758       0.32851354 </v>
   <v>       0.25630944       0.01645859       0.39411177 </v>
   <v>      -0.03159590       0.16661759       0.38224849 </v>
   <v>       0.46840410       0.16661759       0.38224849 </v>
   <v>      -0.28159590       0.41661758       0.32851354 </v>
   <v>      -0.24369056       0.01645859       0.39411177 </v>
   <v>       0.46840411      -0.33338241       0.38224849 </v>
   <v>      -0.03159589      -0.33338241       0.38224849 </v>
   <v>       0.05251161      -0.08570492       0.43750940 </v>
   <v>      -0.44748839      -0.08570492       0.43750940 </v>
   <v>       0.19025794       0.21461308       0.43750940 </v>
   <v>       0.19025794      -0.28538692       0.43750940 </v>
   <v>       0.25630944      -0.48354141       0.39411177 </v>
   <v>      -0.30974206       0.21461308       0.43750940 </v>
   <v>      -0.30974206      -0.28538692       0.43750940 </v>
   <v>      -0.24369056      -0.48354141       0.39411177 </v>
   <v>       0.05251161       0.41429508       0.43750940 </v>
   <v>       0.25630944       0.01645859       0.48090702 </v>
   <v>      -0.44748839       0.41429508       0.43750940 </v>
   <v>      -0.24369056       0.01645859       0.48090702 </v>
   <v>      -0.03159590       0.16661759       0.49277030 </v>
   <v>       0.46840410       0.16661759       0.49277030 </v>
   <v>       0.46840411      -0.33338241       0.49277030 </v>
   <v>      -0.03159589      -0.33338241       0.49277030 </v>
   <v>       0.25630944      -0.48354141       0.48090702 </v>
   <v>      -0.24369056      -0.48354141       0.48090702 </v>
   <v>       0.21840411      -0.08338242      -0.45349474 </v>
   <v>      -0.28159589      -0.08338242      -0.45349474 </v>
   <v>       0.00630944       0.26645858      -0.44163146 </v>
   <v>      -0.49369056      -0.23354142      -0.44163146 </v>
   <v>       0.21840410       0.41661758      -0.45349474 </v>
   <v>      -0.49369056       0.26645858      -0.44163146 </v>
   <v>       0.00630944      -0.23354142      -0.44163146 </v>
   <v>      -0.28159590       0.41661758      -0.45349474 </v>
   <v>       0.44025794      -0.03538692      -0.39823383 </v>
   <v>       0.30251160       0.16429509      -0.39823383 </v>
   <v>      -0.05974206      -0.03538692      -0.39823383 </v>
   <v>      -0.19748840       0.16429509      -0.39823383 </v>
   <v>       0.30251161      -0.33570491      -0.39823383 </v>
   <v>      -0.19748839      -0.33570491      -0.39823383 </v>
   <v>      -0.05974206       0.46461308      -0.39823383 </v>
   <v>       0.44025794       0.46461308      -0.39823383 </v>
   <v>       0.21824764      -0.10938773      -0.35784093 </v>
   <v>       0.01413213       0.26175715      -0.36196557 </v>
   <v>      -0.48586787      -0.23824285      -0.36196557 </v>
   <v>      -0.48586787       0.26175715      -0.36196557 </v>
   <v>       0.01413213      -0.23824285      -0.36196557 </v>
   <v>      -0.28175236      -0.10938773      -0.35784093 </v>
   <v>       0.21824764       0.39061227      -0.35784093 </v>
   <v>      -0.28175236       0.39061227      -0.35784093 </v>
  </varray>
 </structure>
 <varray name="primitive_index" >
  <v type="int" >        1 </v>
  <v type="int" >       74 </v>
  <v type="int" >       64 </v>
  <v type="int" >       81 </v>
  <v type="int" >       52 </v>
  <v type="int" >       93 </v>
  <v type="int" >        5 </v>
  <v type="int" >        9 </v>
  <v type="int" >       13 </v>
  <v type="int" >       60 </v>
  <v type="int" >       87 </v>
  <v type="int" >       17 </v>
  <v type="int" >        7 </v>
  <v type="int" >       35 </v>
  <v type="int" >       43 </v>
  <v type="int" >       33 </v>
  <v type="int" >       21 </v>
  <v type="int" >       58 </v>
  <v type="int" >       76 </v>
  <v type="int" >       19 </v>
  <v type="int" >       47 </v>
  <v type="int" >       45 </v>
  <v type="int" >       31 </v>
  <v type="int" >       78 </v>
  <v type="int" >       56 </v>
  <v type="int" >       70 </v>
  <v type="int" >       89 </v>
  <v type="int" >       72 </v>
  <v type="int" >       50 </v>
  <v type="int" >       79 </v>
  <v type="int" >       83 </v>
  <v type="int" >       68 </v>
  <v type="int" >       62 </v>
  <v type="int" >       85 </v>
  <v type="int" >        3 </v>
  <v type="int" >       39 </v>
  <v type="int" >       25 </v>
  <v type="int" >       91 </v>
  <v type="int" >       95 </v>
  <v type="int" >       15 </v>
  <v type="int" >       27 </v>
  <v type="int" >       37 </v>
  <v type="int" >       29 </v>
  <v type="int" >       23 </v>
  <v type="int" >       41 </v>
  <v type="int" >       11 </v>
  <v type="int" >       54 </v>
  <v type="int" >        6 </v>
  <v type="int" >       61 </v>
  <v type="int" >       49 </v>
  <v type="int" >       66 </v>
  <v type="int" >       18 </v>
  <v type="int" >       73 </v>
  <v type="int" >       86 </v>
  <v type="int" >       82 </v>
  <v type="int" >       94 </v>
  <v type="int" >       10 </v>
  <v type="int" >       34 </v>
  <v type="int" >       30 </v>
  <v type="int" >       22 </v>
  <v type="int" >       46 </v>
  <v type="int" >       42 </v>
  <v type="int" >       57 </v>
  <v type="int" >        2 </v>
  <v type="int" >       69 </v>
  <v type="int" >       14 </v>
  <v type="int" >       65 </v>
  <v type="int" >       53 </v>
  <v type="int" >       77 </v>
  <v type="int" >       90 </v>
  <v type="int" >       26 </v>
  <v type="int" >       38 </v>
  <v type="int" >       75 </v>
  <v type="int" >       88 </v>
  <v type="int" >        8 </v>
  <v type="int" >       44 </v>
  <v type="int" >       51 </v>
  <v type="int" >       20 </v>
  <v type="int" >       32 </v>
  <v type="int" >       63 </v>
  <v type="int" >       36 </v>
  <v type="int" >       59 </v>
  <v type="int" >       48 </v>
  <v type="int" >       71 </v>
  <v type="int" >       84 </v>
  <v type="int" >       96 </v>
  <v type="int" >       24 </v>
  <v type="int" >       12 </v>
  <v type="int" >       80 </v>
  <v type="int" >        4 </v>
  <v type="int" >       40 </v>
  <v type="int" >       16 </v>
  <v type="int" >       28 </v>
  <v type="int" >       92 </v>
  <v type="int" >       55 </v>
  <v type="int" >       67 </v>
 </varray>
 <kpoints>
  <generation param="Gamma">
   <v type="int" name="divisions">       1        1        1 </v>
   <v name="usershift">      0.00000000       0.00000000       0.00000000 </v>
   <v name="genvec1">      1.00000000       0.00000000       0.00000000 </v>
   <v name="genvec2">      0.00000000       1.00000000       0.00000000 </v>
   <v name="genvec3">      0.00000000       0.00000000       1.00000000 </v>
   <v name="shift">      0.00000000       0.00000000       0.00000000 </v>
  </generation>
  <varray name="kpointlist" >
   <v>       0.00000000       0.00000000       0.00000000 </v>
  </varray>
  <varray name="weights" >
   <v>       1.00000000 </v>
  </varray>
 </kpoints>
 <parameters>
  <separator name="general" >
   <i type="string" name="SYSTEM">"Millerite NiS"</i>
   <i type="logical" name="LCOMPAT"> F  </i>
  </separator>
  <separator name="electronic" >
   <i type="string" name="PREC">normal</i>
   <i name="ENMAX">    450.00000000</i>
   <i name="ENAUG">    703.44300000</i>
   <i name="EDIFF">      0.00010000</i>
   <i type="int" name="IALGO">    38</i>
   <i type="int" name="IWAVPR">    10</i>
   <i type="int" name="NBANDS">   634</i>
   <i name="NELECT">   1056.00000000</i>
   <i type="int" name="TURBO">     0</i>
   <i type="int" name="IRESTART">     0</i>
   <i type="int" name="NREBOOT">     0</i>
   <i type="int" name="NMIN">     0</i>
   <i name="EREF">      0.00000000</i>
   <separator name="electronic smearing" >
    <i type="int" name="ISMEAR">     0</i>
    <i name="SIGMA">      0.20000000</i>
    <i name="KSPACING">      0.50000000</i>
    <i type="logical" name="KGAMMA"> T  </i>
   </separator>
   <separator name="electronic projectors" >
    <i type="logical" name="LREAL"> T  </i>
    <v name="ROPT">     -0.00050000     -0.00050000</v>
    <i type="int" name="LMAXPAW">  -100</i>
    <i type="int" name="LMAXMIX">     2</i>
    <i type="logical" name="NLSPLINE"> F  </i>
   </separator>
   <separator name="electronic startup" >
    <i type="int" name="ISTART">     0</i>
    <i type="int" name="ICHARG">     2</i>
    <i type="int" name="INIWAV">     1</i>
   </separator>
   <separator name="electronic spin" >
    <i type="int" name="ISPIN">     1</i>
    <i type="logical" name="LNONCOLLINEAR"> F  </i>
    <v name="MAGMOM">      1.00000000      1.00000000      1.00000000      1.00000000      1.00000000      1.00000000      1.00000000      1.00000000      1.00000000      1.00000000      1.00000000      1.00000000      1.00000000      1.00000000      1.00000000      1.00000000      1.00000000      1.00000000      1.00000000      1.00000000
      1.00000000      1.00000000      1.00000000      1.00000000      1.00000000      1.00000000      1.00000000      1.00000000      1.00000000      1.00000000      1.00000000      1.00000000      1.00000000      1.00000000      1.00000000      1.00000000      1.00000000      1.00000000      1.00000000      1.00000000
      1.00000000      1.00000000      1.00000000      1.00000000      1.00000000      1.00000000      1.00000000      1.00000000      1.00000000      1.00000000      1.00000000      1.00000000      1.00000000      1.00000000      1.00000000      1.00000000      1.00000000      1.00000000      1.00000000      1.00000000
      1.00000000      1.00000000      1.00000000      1.00000000      1.00000000      1.00000000      1.00000000      1.00000000      1.00000000      1.00000000      1.00000000      1.00000000      1.00000000      1.00000000      1.00000000      1.00000000      1.00000000      1.00000000      1.00000000      1.00000000
      1.00000000      1.00000000      1.00000000      1.00000000      1.00000000      1.00000000      1.00000000      1.00000000      1.00000000      1.00000000      1.00000000      1.00000000      1.00000000      1.00000000      1.00000000      1.00000000</v>
    <i name="NUPDOWN">     -1.00000000</i>
    <i type="logical" name="LSORBIT"> F  </i>
    <v name="SAXIS">      0.00000000      0.00000000      1.00000000</v>
    <i type="logical" name="LSPIRAL"> F  </i>
    <v name="QSPIRAL">      0.00000000      0.00000000      0.00000000</v>
    <i type="logical" name="LZEROZ"> F  </i>
   </separator>
   <separator name="electronic exchange-correlation" >
    <i type="logical" name="LASPH"> F  </i>
    <i type="logical" name="LMETAGGA"> F  </i>
   </separator>
   <separator name="electronic convergence" >
    <i type="int" name="NELM">   100</i>
    <i type="int" name="NELMDL">    -5</i>
    <i type="int" name="NELMIN">     2</i>
    <i name="ENINI">    450.00000000</i>
    <separator name="electronic convergence detail" >
     <i type="logical" name="LDIAG"> T  </i>
     <i type="logical" name="LSUBROT"> F  </i>
     <i name="WEIMIN">      0.00000000</i>
     <i name="EBREAK">      0.00000004</i>
     <i name="DEPER">      0.30000000</i>
     <i type="int" name="NRMM">     4</i>
     <i name="TIME">      0.40000000</i>
    </separator>
   </separator>
   <separator name="electronic mixer" >
    <i name="AMIX">      0.40000000</i>
    <i name="BMIX">      1.00000000</i>
    <i name="AMIN">      0.10000000</i>
    <i name="AMIX_MAG">      1.60000000</i>
    <i name="BMIX_MAG">      1.00000000</i>
    <separator name="electronic mixer details" >
     <i type="int" name="IMIX">     4</i>
     <i type="logical" name="MIXFIRST"> F  </i>
     <i type="int" name="MAXMIX">   -45</i>
     <i name="WC">    100.00000000</i>
     <i type="int" name="INIMIX">     1</i>
     <i type="int" name="MIXPRE">     1</i>
     <i type="int" name="MREMOVE">     5</i>
    </separator>
   </separator>
   <separator name="electronic dipolcorrection" >
    <i type="logical" name="LDIPOL"> F  </i>
    <i type="logical" name="LMONO"> F  </i>
    <i type="int" name="IDIPOL">     0</i>
    <i name="EPSILON">      1.00000000</i>
    <v name="DIPOL">   -100.00000000   -100.00000000   -100.00000000</v>
    <i name="EFIELD">      0.00000000</i>
   </separator>
  </separator>
  <separator name="grids" >
   <i type="int" name="NGX">    36</i>
   <i type="int" name="NGY">    60</i>
   <i type="int" name="NGZ">   160</i>
   <i type="int" name="NGXF">    72</i>
   <i type="int" name="NGYF">   120</i>
   <i type="int" name="NGZF">   320</i>
   <i type="logical" name="ADDGRID"> F  </i>
  </separator>
  <separator name="ionic" >
   <i type="int" name="NSW">     0</i>
   <i type="int" name="IBRION">    -1</i>
   <i type="int" name="MDALGO">     0</i>
   <i type="int" name="ISIF">     2</i>
   <i name="PSTRESS">      0.00000000</i>
   <i name="EDIFFG">      0.00100000</i>
   <i type="int" name="NFREE">     0</i>
   <i name="POTIM">      0.50000000</i>
   <i name="SMASS">     -3.00000000</i>
   <i name="SCALEE">      1.00000000</i>
  </separator>
  <separator name="ionic md" >
   <i name="TEBEG">      0.00010000</i>
   <i name="TEEND">      0.00010000</i>
   <i type="int" name="NBLOCK">     1</i>
   <i type="int" name="KBLOCK">     1</i>
   <i type="int" name="NPACO">   256</i>
   <i name="APACO">     16.00000000</i>
  </separator>
  <separator name="symmetry" >
   <i type="int" name="ISYM">     2</i>
   <i name="SYMPREC">      0.00001000</i>
  </separator>
  <separator name="dos" >
   <i type="int" name="LORBIT">     0</i>
   <v name="RWIGS">     -1.00000000     -1.00000000</v>
   <i type="int" name="NEDOS">   301</i>
   <i name="EMIN">     10.00000000</i>
   <i name="EMAX">    -10.00000000</i>
   <i name="EFERMI">      0.00000000</i>
  </separator>
  <separator name="writing" >
   <i type="int" name="NWRITE">     2</i>
   <i type="logical" name="LWAVE"> F  </i>
   <i type="logical" name="LDOWNSAMPLE"> F  </i>
   <i type="logical" name="LCHARG"> F  </i>
   <i type="logical" name="LPARD"> F  </i>
   <i type="logical" name="LVTOT"> F  </i>
   <i type="logical" name="LVHAR"> F  </i>
   <i type="logical" name="LELF"> F  </i>
   <i type="logical" name="LOPTICS"> F  </i>
   <v name="STM">      0.00000000      0.00000000      0.00000000      0.00000000      0.00000000      0.00000000      0.00000000</v>
  </separator>
  <separator name="performance" >
   <i type="int" name="NPAR">     2</i>
   <i type="int" name="NSIM">     4</i>
   <i type="int" name="NBLK">    -1</i>
   <i type="logical" name="LPLANE"> T  </i>
   <i type="logical" name="LSCALAPACK"> T  </i>
   <i type="logical" name="LSCAAWARE"> F  </i>
   <i type="logical" name="LSCALU"> F  </i>
   <i type="logical" name="LASYNC"> F  </i>
   <i type="logical" name="LORBITALREAL"> F  </i>
  </separator>
  <separator name="miscellaneous" >
   <i type="int" name="IDIOT">     3</i>
   <i type="int" name="ISPECIAL">     0</i>
   <i type="logical" name="LMUSIC"> F  </i>
   <v name="POMASS">     58.69000000     32.06600000</v>
   <v name="DARWINR">      0.00000000      0.00000000</v>
   <v name="DARWINV">      1.00000000      1.00000000</v>
   <i type="logical" name="LCORR"> T  </i>
  </separator>
  <i type="logical" name="GGA_COMPAT"> T  </i>
  <i type="logical" name="LBERRY"> F  </i>
  <i type="int" name="ICORELEVEL">     0</i>
  <i type="logical" name="LDAU"> F  </i>
  <i type="int" name="I_CONSTRAINED_M">     0</i>
  <separator name="electronic exchange-correlation" >
   <i type="string" name="GGA">--</i>
   <i type="int" name="VOSKOWN">     0</i>
   <i type="logical" name="LHFCALC"> F  </i>
   <i type="string" name="PRECFOCK"></i>
   <i type="logical" name="LSYMGRAD"> F  </i>
   <i type="logical" name="LHFONE"> F  </i>
   <i type="logical" name="LRHFCALC"> F  </i>
   <i type="logical" name="LTHOMAS"> F  </i>
   <i type="logical" name="LMODELHF"> F  </i>
   <i name="ENCUT4O">     -1.00000000</i>
   <i type="int" name="EXXOEP">     0</i>
   <i type="int" name="FOURORBIT">     0</i>
   <i name="AEXX">      0.00000000</i>
   <i name="HFALPHA">      0.00000000</i>
   <i name="MCALPHA">      0.00000000</i>
   <i name="ALDAX">      1.00000000</i>
   <i name="AGGAX">      1.00000000</i>
   <i name="ALDAC">      1.00000000</i>
   <i name="AGGAC">      1.00000000</i>
   <i type="int" name="NKREDX">     1</i>
   <i type="int" name="NKREDY">     1</i>
   <i type="int" name="NKREDZ">     1</i>
   <i type="logical" name="SHIFTRED"> F  </i>
   <i type="logical" name="ODDONLY"> F  </i>
   <i type="logical" name="EVENONLY"> F  </i>
   <i type="int" name="LMAXFOCK">     0</i>
   <i type="int" name="NMAXFOCKAE">     0</i>
   <i type="logical" name="LFOCKAEDFT"> F  </i>
   <i name="HFSCREEN">      0.00000000</i>
   <i name="HFSCREENC">      0.00000000</i>
   <i type="int" name="NBANDSGWLOW">     0</i>
  </separator>
  <separator name="vdW DFT" >
   <i type="logical" name="LUSE_VDW"> F  </i>
   <i name="Zab_VDW">     -0.84910000</i>
   <i name="PARAM1">      0.12340000</i>
   <i name="PARAM2">      1.00000000</i>
   <i name="PARAM3">      0.00000000</i>
  </separator>
  <separator name="model GW" >
   <i type="int" name="MODEL_GW">     0</i>
   <i name="MODEL_EPS0">     12.65444277</i>
   <i name="MODEL_ALPHA">      1.00000000</i>
  </separator>
  <separator name="linear response parameters" >
   <i type="logical" name="LEPSILON"> F  </i>
   <i type="logical" name="LRPA"> F  </i>
   <i type="logical" name="LNABLA"> F  </i>
   <i type="logical" name="LVEL"> F  </i>
   <i type="int" name="KINTER">     0</i>
   <i name="CSHIFT">      0.10000000</i>
   <i name="OMEGAMAX">     -1.00000000</i>
   <i name="DEG_THRESHOLD">      0.00200000</i>
   <i name="RTIME">     -0.10000000</i>
   <i name="WPLASMAI">      0.00000000</i>
   <v name="DFIELD">      0.00000000      0.00000000      0.00000000</v>
   <v name="WPLASMA">      0.00000000      0.00000000      0.00000000      0.00000000      0.00000000      0.00000000      0.00000000      0.00000000      0.00000000</v>
  </separator>
  <separator name="orbital magnetization" >
   <i type="logical" name="NUCIND"> F  </i>
   <v name="MAGPOS">      0.00000000      0.00000000      0.00000000</v>
   <i type="logical" name="LNICSALL"> T  </i>
   <i type="logical" name="ORBITALMAG"> F  </i>
   <i type="logical" name="LMAGBLOCH"> F  </i>
   <i type="logical" name="LCHIMAG"> F  </i>
   <i type="logical" name="LGAUGE"> T  </i>
   <i type="int" name="MAGATOM">     0</i>
   <v name="MAGDIPOL">      0.00000000      0.00000000      0.00000000</v>
   <v name="AVECCONST">      0.00000000      0.00000000      0.00000000</v>
  </separator>
  <separator name="response functions" >
   <i type="logical" name="LADDER"> F  </i>
   <i type="logical" name="LRPAFORCE"> F  </i>
   <i type="logical" name="LFXC"> F  </i>
   <i type="logical" name="LHARTREE"> T  </i>
   <i type="int" name="IBSE">     0</i>
   <v type="int" name="KPOINT">    -1     0     0     0</v>
   <i type="logical" name="LTCTE"> F  </i>
   <i type="logical" name="LTETE"> F  </i>
   <i type="logical" name="LTRIPLET"> F  </i>
   <i type="logical" name="LFXCEPS"> F  </i>
   <i type="logical" name="LFXHEG"> F  </i>
   <i type="int" name="NATURALO">     2</i>
   <i type="logical" name="L2ORDER"> F  </i>
   <i type="logical" name="LMP2LT"> F  </i>
   <i type="logical" name="LUSEW"> F  </i>
   <i name="ENCUTGW">     -2.00000000</i>
   <i name="ENCUTGWSOFT">     -2.00000000</i>
   <i name="ENCUTLF">     -1.00000000</i>
   <i type="int" name="LMAXMP2">    -1</i>
   <i name="SCISSOR">      0.00000000</i>
   <i type="int" name="NOMEGA">     0</i>
   <i type="int" name="NOMEGAR">     0</i>
   <i type="int" name="NBANDSGW">    -1</i>
   <i type="int" name="NBANDSO">    -1</i>
   <i type="int" name="NBANDSV">    -1</i>
   <i type="int" name="NELM">   100</i>
   <i type="int" name="NELMHF">     1</i>
   <i type="int" name="DIM">     3</i>
   <i type="int" name="ANTIRES">     0</i>
   <i name="OMEGAMAX">    -30.00000000</i>
   <i name="OMEGAMIN">    -30.00000000</i>
   <i name="OMEGATL">   -200.00000000</i>
   <i type="int" name="OMEGAGRID">   140</i>
   <i name="CSHIFT">     -0.10000000</i>
   <i type="logical" name="SELFENERGY"> F  </i>
   <i type="logical" name="LSPECTRAL"> F  </i>
   <i type="logical" name="LSPECTRALGW"> F  </i>
   <i type="logical" name="LSINGLES"> F  </i>
   <i type="logical" name="LFERMIGW"> F  </i>
   <i type="logical" name="ODDONLYGW"> F  </i>
   <i type="logical" name="EVENONLYGW"> F  </i>
   <i type="int" name="NKREDLFX">     1</i>
   <i type="int" name="NKREDLFY">     1</i>
   <i type="int" name="NKREDLFZ">     1</i>
   <i type="int" name="MAXMEM">  2800</i>
   <i type="int" name="TELESCOPE">     0</i>
   <i type="int" name="TAUPAR">     1</i>
   <i type="int" name="OMEGAPAR">    -1</i>
   <i name="LAMBDA">      1.00000000</i>
  </separator>
  <separator name="External order field" >
   <i name="OFIELD_KAPPA">      0.00000000</i>
   <v name="OFIELD_K">      0.00000000      0.00000000      0.00000000</v>
   <i name="OFIELD_Q6_NEAR">      0.00000000</i>
   <i name="OFIELD_Q6_FAR">      0.00000000</i>
   <i name="OFIELD_A">      0.00000000</i>
  </separator>
 </parameters>
 <atominfo>
  <atoms>      96 </atoms>
  <types>       2 </types>
  <array name="atoms" >
   <dimension dim="1">ion</dimension>
   <field type="string">element</field>
   <field type="int">atomtype</field>
   <set>
    <rc><c>Ni</c><c>   1</c></rc>
    <rc><c>Ni</c><c>   1</c></rc>
    <rc><c>Ni</c><c>   1</c></rc>
    <rc><c>Ni</c><c>   1</c></rc>
    <rc><c>Ni</c><c>   1</c></rc>
    <rc><c>Ni</c><c>   1</c></rc>
    <rc><c>Ni</c><c>   1</c></rc>
    <rc><c>Ni</c><c>   1</c></rc>
    <rc><c>Ni</c><c>   1</c></rc>
    <rc><c>Ni</c><c>   1</c></rc>
    <rc><c>Ni</c><c>   1</c></rc>
    <rc><c>Ni</c><c>   1</c></rc>
    <rc><c>Ni</c><c>   1</c></rc>
    <rc><c>Ni</c><c>   1</c></rc>
    <rc><c>Ni</c><c>   1</c></rc>
    <rc><c>Ni</c><c>   1</c></rc>
    <rc><c>Ni</c><c>   1</c></rc>
    <rc><c>Ni</c><c>   1</c></rc>
    <rc><c>Ni</c><c>   1</c></rc>
    <rc><c>Ni</c><c>   1</c></rc>
    <rc><c>Ni</c><c>   1</c></rc>
    <rc><c>Ni</c><c>   1</c></rc>
    <rc><c>Ni</c><c>   1</c></rc>
    <rc><c>Ni</c><c>   1</c></rc>
    <rc><c>Ni</c><c>   1</c></rc>
    <rc><c>Ni</c><c>   1</c></rc>
    <rc><c>Ni</c><c>   1</c></rc>
    <rc><c>Ni</c><c>   1</c></rc>
    <rc><c>Ni</c><c>   1</c></rc>
    <rc><c>Ni</c><c>   1</c></rc>
    <rc><c>Ni</c><c>   1</c></rc>
    <rc><c>Ni</c><c>   1</c></rc>
    <rc><c>Ni</c><c>   1</c></rc>
    <rc><c>Ni</c><c>   1</c></rc>
    <rc><c>Ni</c><c>   1</c></rc>
    <rc><c>Ni</c><c>   1</c></rc>
    <rc><c>Ni</c><c>   1</c></rc>
    <rc><c>Ni</c><c>   1</c></rc>
    <rc><c>Ni</c><c>   1</c></rc>
    <rc><c>Ni</c><c>   1</c></rc>
    <rc><c>Ni</c><c>   1</c></rc>
    <rc><c>Ni</c><c>   1</c></rc>
    <rc><c>Ni</c><c>   1</c></rc>
    <rc><c>Ni</c><c>   1</c></rc>
    <rc><c>Ni</c><c>   1</c></rc>
    <rc><c>Ni</c><c>   1</c></rc>
    <rc><c>Ni</c><c>   1</c></rc>
    <rc><c>Ni</c><c>   1</c></rc>
    <rc><c>S </c><c>   2</c></rc>
    <rc><c>S </c><c>   2</c></rc>
    <rc><c>S </c><c>   2</c></rc>
    <rc><c>S </c><c>   2</c></rc>
    <rc><c>S </c><c>   2</c></rc>
    <rc><c>S </c><c>   2</c></rc>
    <rc><c>S </c><c>   2</c></rc>
    <rc><c>S </c><c>   2</c></rc>
    <rc><c>S </c><c>   2</c></rc>
    <rc><c>S </c><c>   2</c></rc>
    <rc><c>S </c><c>   2</c></rc>
    <rc><c>S </c><c>   2</c></rc>
    <rc><c>S </c><c>   2</c></rc>
    <rc><c>S </c><c>   2</c></rc>
    <rc><c>S </c><c>   2</c></rc>
    <rc><c>S </c><c>   2</c></rc>
    <rc><c>S </c><c>   2</c></rc>
    <rc><c>S </c><c>   2</c></rc>
    <rc><c>S </c><c>   2</c></rc>
    <rc><c>S </c><c>   2</c></rc>
    <rc><c>S </c><c>   2</c></rc>
    <rc><c>S </c><c>   2</c></rc>
    <rc><c>S </c><c>   2</c></rc>
    <rc><c>S </c><c>   2</c></rc>
    <rc><c>S </c><c>   2</c></rc>
    <rc><c>S </c><c>   2</c></rc>
    <rc><c>S </c><c>   2</c></rc>
    <rc><c>S </c><c>   2</c></rc>
    <rc><c>S </c><c>   2</c></rc>
    <rc><c>S </c><c>   2</c></rc>
    <rc><c>S </c><c>   2</c></rc>
    <rc><c>S </c><c>   2</c></rc>
    <rc><c>S </c><c>   2</c></rc>
    <rc><c>S </c><c>   2</c></rc>
    <rc><c>S </c><c>   2</c></rc>
    <rc><c>S </c><c>   2</c></rc>
    <rc><c>S </c><c>   2</c></rc>
    <rc><c>S </c><c>   2</c></rc>
    <rc><c>S </c><c>   2</c></rc>
    <rc><c>S </c><c>   2</c></rc>
    <rc><c>S </c><c>   2</c></rc>
    <rc><c>S </c><c>   2</c></rc>
    <rc><c>S </c><c>   2</c></rc>
    <rc><c>S </c><c>   2</c></rc>
    <rc><c>S </c><c>   2</c></rc>
    <rc><c>S </c><c>   2</c></rc>
    <rc><c>S </c><c>   2</c></rc>
    <rc><c>S </c><c>   2</c></rc>
   </set>
  </array>
  <array name="atomtypes" >
   <dimension dim="1">type</dimension>
   <field type="int">atomspertype</field>
   <field type="string">element</field>
   <field>mass</field>
   <field>valence</field>
   <field type="string">pseudopotential</field>
   <set>
    <rc><c>  48</c><c>Ni</c><c>     58.69000000</c><c>     16.00000000</c><c>  PAW_PBE Ni_pv 06Sep2000               </c></rc>
    <rc><c>  48</c><c>S </c><c>     32.06600000</c><c>      6.00000000</c><c>  PAW_PBE S 06Sep2000                   </c></rc>
   </set>
  </array>
 </atominfo>
 <structure name="initialpos" >
  <crystal>
   <varray name="basis" >
    <v>       6.27856000       0.00000000       0.00000000 </v>
    <v>       2.09285340      11.06019551       0.00000000 </v>
    <v>       0.00000000       0.00000000      29.15682000 </v>
   </varray>
   <i name="volume">   2024.71084344 </i>
   <varray name="rec_basis" >
    <v>       0.15927219      -0.03013811       0.00000000 </v>
    <v>       0.00000000       0.09041431       0.00000000 </v>
    <v>       0.00000000       0.00000000       0.03429729 </v>
   </varray>
  </crystal>
  <varray name="positions" >
   <v>       0.25630944       0.01645859       0.15239349 </v>
   <v>       0.25630944       0.01645859       0.48090702 </v>
   <v>       0.00630944       0.26645858       0.31665025 </v>
   <v>       0.01413213       0.26175715       0.63803443 </v>
   <v>       0.22159646       0.02191352       0.07032352 </v>
   <v>       0.25630944       0.01645859       0.39411177 </v>
   <v>       0.00630944       0.26645858       0.22985501 </v>
   <v>       0.00630944       0.26645858       0.55836854 </v>
   <v>       0.18458766       0.22548685       0.11965931 </v>
   <v>       0.19025794       0.21461308       0.43750940 </v>
   <v>       0.44025794       0.46461308       0.27325263 </v>
   <v>       0.44025794       0.46461308       0.60176617 </v>
   <v>       0.75630944       0.01645859       0.15239349 </v>
   <v>       0.75630944       0.01645859       0.48090702 </v>
   <v>       0.50630944       0.26645858       0.31665025 </v>
   <v>       0.51413213       0.26175715       0.63803443 </v>
   <v>       0.81471156       0.02143992       0.06997261 </v>
   <v>       0.75630944       0.01645859       0.39411177 </v>
   <v>       0.50630944       0.26645858       0.22985501 </v>
   <v>       0.50630944       0.26645858       0.55836854 </v>
   <v>       0.70843742       0.22602950       0.12001639 </v>
   <v>       0.69025794       0.21461308       0.43750940 </v>
   <v>       0.94025794       0.46461308       0.27325263 </v>
   <v>       0.94025794       0.46461308       0.60176617 </v>
   <v>       0.25630944       0.51645859       0.15239349 </v>
   <v>       0.25630944       0.51645859       0.48090702 </v>
   <v>       0.00630944       0.76645858       0.31665025 </v>
   <v>       0.01413213       0.76175715       0.63803443 </v>
   <v>       0.26505614       0.51235185       0.07264255 </v>
   <v>       0.25630944       0.51645859       0.39411177 </v>
   <v>       0.00630944       0.76645858       0.22985501 </v>
   <v>       0.00630944       0.76645858       0.55836854 </v>
   <v>       0.19025794       0.71461308       0.10899586 </v>
   <v>       0.19025794       0.71461308       0.43750940 </v>
   <v>       0.44025794       0.96461308       0.27325263 </v>
   <v>       0.44025794       0.96461308       0.60176617 </v>
   <v>       0.75630944       0.51645859       0.15239349 </v>
   <v>       0.75630944       0.51645859       0.48090702 </v>
   <v>       0.50630944       0.76645858       0.31665025 </v>
   <v>       0.51413213       0.76175715       0.63803443 </v>
   <v>       0.76244864       0.51243049       0.07261941 </v>
   <v>       0.75630944       0.51645859       0.39411177 </v>
   <v>       0.50630944       0.76645858       0.22985501 </v>
   <v>       0.50630944       0.76645858       0.55836854 </v>
   <v>       0.69025794       0.71461308       0.10899586 </v>
   <v>       0.69025794       0.71461308       0.43750940 </v>
   <v>       0.94025794       0.96461308       0.27325263 </v>
   <v>       0.94025794       0.96461308       0.60176617 </v>
   <v>       0.46840410       0.16661759       0.38224849 </v>
   <v>       0.21840410       0.41661758       0.21799173 </v>
   <v>       0.21840410       0.41661758       0.54650526 </v>
   <v>       0.46840410       0.16661759       0.16425677 </v>
   <v>       0.46840410       0.16661759       0.49277030 </v>
   <v>       0.21840410       0.41661758       0.32851354 </v>
   <v>       0.21824764       0.39061227       0.64215907 </v>
   <v>       0.05251161       0.41429508       0.10899586 </v>
   <v>       0.05251161       0.41429508       0.43750940 </v>
   <v>       0.30251160       0.16429509       0.27325263 </v>
   <v>       0.30251160       0.16429509       0.60176617 </v>
   <v>       0.96626182       0.17276049       0.07160886 </v>
   <v>       0.96840410       0.16661759       0.38224849 </v>
   <v>       0.71840410       0.41661758       0.21799173 </v>
   <v>       0.71840410       0.41661758       0.54650526 </v>
   <v>       0.96840410       0.16661759       0.16425677 </v>
   <v>       0.96840410       0.16661759       0.49277030 </v>
   <v>       0.71840410       0.41661758       0.32851354 </v>
   <v>       0.71824764       0.39061227       0.64215907 </v>
   <v>       0.55251161       0.41429508       0.10899586 </v>
   <v>       0.55251161       0.41429508       0.43750940 </v>
   <v>       0.80251160       0.16429509       0.27325263 </v>
   <v>       0.80251160       0.16429509       0.60176617 </v>
   <v>       0.46790392       0.64159502       0.06846582 </v>
   <v>       0.46840411       0.66661759       0.38224849 </v>
   <v>       0.21840411       0.91661758       0.21799173 </v>
   <v>       0.21840411       0.91661758       0.54650526 </v>
   <v>       0.46840411       0.66661759       0.16425677 </v>
   <v>       0.46840411       0.66661759       0.49277030 </v>
   <v>       0.03715059       0.96797723       0.02095656 </v>
   <v>       0.21840411       0.91661758       0.32851354 </v>
   <v>       0.21824764       0.89061227       0.64215907 </v>
   <v>       0.05251161       0.91429508       0.10899586 </v>
   <v>       0.05251161       0.91429508       0.43750940 </v>
   <v>       0.30251161       0.66429509       0.27325263 </v>
   <v>       0.30251161       0.66429509       0.60176617 </v>
   <v>       0.96810605       0.64067891       0.06860607 </v>
   <v>       0.96840411       0.66661759       0.38224849 </v>
   <v>       0.71840411       0.91661758       0.21799173 </v>
   <v>       0.71840411       0.91661758       0.54650526 </v>
   <v>       0.96840411       0.66661759       0.16425677 </v>
   <v>       0.96840411       0.66661759       0.49277030 </v>
   <v>       0.71840411       0.91661758       0.32851354 </v>
   <v>       0.71824764       0.89061227       0.64215907 </v>
   <v>       0.55251161       0.91429508       0.10899586 </v>
   <v>       0.55251161       0.91429508       0.43750940 </v>
   <v>       0.80251161       0.66429509       0.27325263 </v>
   <v>       0.80251161       0.66429509       0.60176617 </v>
  </varray>
 </structure>
 <calculation>
  <scstep>
   <time name="dav">   10.70   10.70</time>
   <time name="total">   11.01   11.01</time>
   <energy>
    <i name="alphaZ">   3266.22189490 </i>
    <i name="ewald"> 348374.26931593 </i>
    <i name="hartreedc">-514331.76328920 </i>
    <i name="XCdc">   4899.51310560 </i>
    <i name="pawpsdc"> 150306.04444553 </i>
    <i name="pawaedc">-156855.34918313 </i>
    <i name="eentropy">     -0.37919084 </i>
    <i name="bandstr">  -2273.66183252 </i>
    <i name="atom"> 181336.80673834 </i>
    <i name="e_fr_energy">  14721.70200462 </i>
    <i name="e_wo_entrp">  14722.08119546 </i>
    <i name="e_0_energy">  14721.89160004 </i>
   </energy>
  </scstep>
  <scstep>
   <time name="dav">    9.61    9.62</time>
   <time name="total">    9.61    9.62</time>
   <energy>
    <i name="e_fr_energy">   1188.42251711 </i>
    <i name="e_wo_entrp">   1189.12596354 </i>
    <i name="e_0_energy">   1188.77424032 </i>
   </energy>
  </scstep>
  <scstep>
   <time name="dav">   10.34   10.34</time>
   <time name="total">   10.34   10.34</time>
   <energy>
    <i name="e_fr_energy">   -409.62704844 </i>
    <i name="e_wo_entrp">   -408.75956834 </i>
    <i name="e_0_energy">   -409.19330839 </i>
   </energy>
  </scstep>
  <scstep>
   <time name="dav">   10.58   10.58</time>
   <time name="total">   10.58   10.58</time>
   <energy>
    <i name="e_fr_energy">   -538.99172518 </i>
    <i name="e_wo_entrp">   -538.01760697 </i>
    <i name="e_0_energy">   -538.50466608 </i>
   </energy>
  </scstep>
  <scstep>
   <time name="dav">   11.12   11.12</time>
   <time name="total">   11.42   11.42</time>
   <energy>
    <i name="e_fr_energy">   -544.04997522 </i>
    <i name="e_wo_entrp">   -543.07170810 </i>
    <i name="e_0_energy">   -543.56084166 </i>
   </energy>
  </scstep>
  <scstep>
   <time name="dav">   11.27   11.28</time>
   <time name="total">   11.86   11.86</time>
   <energy>
    <i name="e_fr_energy">   -684.45417005 </i>
    <i name="e_wo_entrp">   -683.20745949 </i>
    <i name="e_0_energy">   -683.83081477 </i>
   </energy>
  </scstep>
  <scstep>
   <time name="dav">   10.92   10.93</time>
   <time name="total">   11.51   11.52</time>
   <energy>
    <i name="e_fr_energy">   -615.84885437 </i>
    <i name="e_wo_entrp">   -614.96019772 </i>
    <i name="e_0_energy">   -615.40452604 </i>
   </energy>
  </scstep>
  <scstep>
   <time name="dav">   12.06   12.06</time>
   <time name="total">   12.65   12.65</time>
   <energy>
    <i name="e_fr_energy">   -628.93784154 </i>
    <i name="e_wo_entrp">   -627.49251974 </i>
    <i name="e_0_energy">   -628.21518064 </i>
   </energy>
  </scstep>
  <scstep>
   <time name="dav">   12.38   12.39</time>
   <time name="total">   12.98   12.98</time>
   <energy>
    <i name="e_fr_energy">   -519.60748380 </i>
    <i name="e_wo_entrp">   -517.91572932 </i>
    <i name="e_0_energy">   -518.76160656 </i>
   </energy>
  </scstep>
  <scstep>
   <time name="dav">   12.19   12.20</time>
   <time name="total">   12.80   12.81</time>
   <energy>
    <i name="e_fr_energy">   -569.33181316 </i>
    <i name="e_wo_entrp">   -567.50592590 </i>
    <i name="e_0_energy">   -568.41886953 </i>
   </energy>
  </scstep>
  <scstep>
   <time name="dav">   11.67   11.67</time>
   <time name="total">   12.25   12.26</time>
   <energy>
    <i name="e_fr_energy">   -561.02368099 </i>
    <i name="e_wo_entrp">   -559.49017510 </i>
    <i name="e_0_energy">   -560.25692804 </i>
   </energy>
  </scstep>
  <scstep>
   <time name="dav">   12.02   12.03</time>
   <time name="total">   12.61   12.61</time>
   <energy>
    <i name="e_fr_energy">   -552.51760719 </i>
    <i name="e_wo_entrp">   -550.78570052 </i>
    <i name="e_0_energy">   -551.65165385 </i>
   </energy>
  </scstep>
  <scstep>
   <time name="dav">   11.77   11.78</time>
   <time name="total">   12.36   12.37</time>
   <energy>
    <i name="e_fr_energy">   -540.89905759 </i>
    <i name="e_wo_entrp">   -539.55946467 </i>
    <i name="e_0_energy">   -540.22926113 </i>
   </energy>
  </scstep>
  <scstep>
   <time name="dav">   12.02   12.02</time>
   <time name="total">   12.85   12.85</time>
   <energy>
    <i name="e_fr_energy">   -523.82106915 </i>
    <i name="e_wo_entrp">   -523.00239129 </i>
    <i name="e_0_energy">   -523.41173022 </i>
   </energy>
  </scstep>
  <scstep>
   <time name="dav">   11.71   11.71</time>
   <time name="total">   12.30   12.30</time>
   <energy>
    <i name="e_fr_energy">   -514.36498108 </i>
    <i name="e_wo_entrp">   -513.38540675 </i>
    <i name="e_0_energy">   -513.87519391 </i>
   </energy>
  </scstep>
  <scstep>
   <time name="dav">   11.67   11.67</time>
   <time name="total">   12.26   12.27</time>
   <energy>
    <i name="e_fr_energy">   -506.79315277 </i>
    <i name="e_wo_entrp">   -505.87340472 </i>
    <i name="e_0_energy">   -506.33327874 </i>
   </energy>
  </scstep>
  <scstep>
   <time name="dav">   11.77   11.77</time>
   <time name="total">   12.36   12.36</time>
   <energy>
    <i name="e_fr_energy">   -494.24204781 </i>
    <i name="e_wo_entrp">   -493.48346487 </i>
    <i name="e_0_energy">   -493.86275634 </i>
   </energy>
  </scstep>
  <scstep>
   <time name="dav">   12.17   12.17</time>
   <time name="total">   12.76   12.76</time>
   <energy>
    <i name="e_fr_energy">   -487.84459370 </i>
    <i name="e_wo_entrp">   -487.13131370 </i>
    <i name="e_0_energy">   -487.48795370 </i>
   </energy>
  </scstep>
  <scstep>
   <time name="dav">   12.08   12.09</time>
   <time name="total">   12.68   12.69</time>
   <energy>
    <i name="e_fr_energy">   -484.50730311 </i>
    <i name="e_wo_entrp">   -483.50562354 </i>
    <i name="e_0_energy">   -484.00646333 </i>
   </energy>
  </scstep>
  <scstep>
   <time name="dav">   11.70   11.70</time>
   <time name="total">   12.30   12.30</time>
   <energy>
    <i name="e_fr_energy">   -483.87542379 </i>
    <i name="e_wo_entrp">   -482.90947502 </i>
    <i name="e_0_energy">   -483.39244941 </i>
   </energy>
  </scstep>
  <scstep>
   <time name="dav">   11.80   11.80</time>
   <time name="total">   12.61   12.61</time>
   <energy>
    <i name="e_fr_energy">   -482.96575327 </i>
    <i name="e_wo_entrp">   -481.93491706 </i>
    <i name="e_0_energy">   -482.45033516 </i>
   </energy>
  </scstep>
  <scstep>
   <time name="dav">   11.47   11.47</time>
   <time name="total">   12.07   12.07</time>
   <energy>
    <i name="e_fr_energy">   -483.01510081 </i>
    <i name="e_wo_entrp">   -481.98931571 </i>
    <i name="e_0_energy">   -482.50220826 </i>
   </energy>
  </scstep>
  <scstep>
   <time name="dav">   11.99   11.99</time>
   <time name="total">   12.59   12.59</time>
   <energy>
    <i name="e_fr_energy">   -482.65910802 </i>
    <i name="e_wo_entrp">   -481.59565791 </i>
    <i name="e_0_energy">   -482.12738296 </i>
   </energy>
  </scstep>
  <scstep>
   <time name="dav">   12.39   12.39</time>
   <time name="total">   13.24   13.24</time>
   <energy>
    <i name="e_fr_energy">   -482.18543179 </i>
    <i name="e_wo_entrp">   -480.99974878 </i>
    <i name="e_0_energy">   -481.59259029 </i>
   </energy>
  </scstep>
  <scstep>
   <time name="dav">   11.92   11.92</time>
   <time name="total">   12.53   12.53</time>
   <energy>
    <i name="e_fr_energy">   -481.94029211 </i>
    <i name="e_wo_entrp">   -480.73340142 </i>
    <i name="e_0_energy">   -481.33684676 </i>
   </energy>
  </scstep>
  <scstep>
   <time name="dav">   11.55   11.55</time>
   <time name="total">   12.15   12.16</time>
   <energy>
    <i name="e_fr_energy">   -481.90473872 </i>
    <i name="e_wo_entrp">   -480.70582910 </i>
    <i name="e_0_energy">   -481.30528391 </i>
   </energy>
  </scstep>
  <scstep>
   <time name="dav">   11.26   11.27</time>
   <time name="total">   11.88   11.88</time>
   <energy>
    <i name="e_fr_energy">   -481.83196058 </i>
    <i name="e_wo_entrp">   -480.59394120 </i>
    <i name="e_0_energy">   -481.21295089 </i>
   </energy>
  </scstep>
  <scstep>
   <time name="dav">   11.47   11.47</time>
   <time name="total">   12.33   12.33</time>
   <energy>
    <i name="e_fr_energy">   -481.77253065 </i>
    <i name="e_wo_entrp">   -480.55219396 </i>
    <i name="e_0_energy">   -481.16236231 </i>
   </energy>
  </scstep>
  <scstep>
   <time name="dav">   11.73   11.73</time>
   <time name="total">   12.34   12.35</time>
   <energy>
    <i name="e_fr_energy">   -481.68660087 </i>
    <i name="e_wo_entrp">   -480.48517239 </i>
    <i name="e_0_energy">   -481.08588663 </i>
   </energy>
  </scstep>
  <scstep>
   <time name="dav">   11.82   11.82</time>
   <time name="total">   12.43   12.44</time>
   <energy>
    <i name="e_fr_energy">   -481.66620598 </i>
    <i name="e_wo_entrp">   -480.43902952 </i>
    <i name="e_0_energy">   -481.05261775 </i>
   </energy>
  </scstep>
  <scstep>
   <time name="dav">   11.86   11.86</time>
   <time name="total">   12.48   12.48</time>
   <energy>
    <i name="e_fr_energy">   -481.64378698 </i>
    <i name="e_wo_entrp">   -480.39986249 </i>
    <i name="e_0_energy">   -481.02182474 </i>
   </energy>
  </scstep>
  <scstep>
   <time name="dav">   11.94   11.94</time>
   <time name="total">   12.56   12.56</time>
   <energy>
    <i name="e_fr_energy">   -481.60081298 </i>
    <i name="e_wo_entrp">   -480.36968498 </i>
    <i name="e_0_energy">   -480.98524898 </i>
   </energy>
  </scstep>
  <scstep>
   <time name="dav">   11.69   11.69</time>
   <time name="total">   12.30   12.31</time>
   <energy>
    <i name="e_fr_energy">   -481.56842907 </i>
    <i name="e_wo_entrp">   -480.33769403 </i>
    <i name="e_0_energy">   -480.95306155 </i>
   </energy>
  </scstep>
  <scstep>
   <time name="dav">   11.80   11.80</time>
   <time name="total">   12.42   12.42</time>
   <energy>
    <i name="e_fr_energy">   -481.56334790 </i>
    <i name="e_wo_entrp">   -480.34813312 </i>
    <i name="e_0_energy">   -480.95574051 </i>
   </energy>
  </scstep>
  <scstep>
   <time name="dav">   11.60   11.61</time>
   <time name="total">   12.34   12.35</time>
   <energy>
    <i name="e_fr_energy">   -481.55848528 </i>
    <i name="e_wo_entrp">   -480.34523851 </i>
    <i name="e_0_energy">   -480.95186189 </i>
   </energy>
  </scstep>
  <scstep>
   <time name="dav">   11.63   11.63</time>
   <time name="total">   12.30   12.30</time>
   <energy>
    <i name="e_fr_energy">   -481.55793834 </i>
    <i name="e_wo_entrp">   -480.34023139 </i>
    <i name="e_0_energy">   -480.94908486 </i>
   </energy>
  </scstep>
  <scstep>
   <time name="dav">   10.78   10.78</time>
   <time name="total">   11.39   11.40</time>
   <energy>
    <i name="e_fr_energy">   -481.55718724 </i>
    <i name="e_wo_entrp">   -480.33681948 </i>
    <i name="e_0_energy">   -480.94700336 </i>
   </energy>
  </scstep>
  <scstep>
   <time name="dav">   11.88   11.88</time>
   <time name="total">   12.50   12.50</time>
   <energy>
    <i name="e_fr_energy">   -481.55617657 </i>
    <i name="e_wo_entrp">   -480.33740147 </i>
    <i name="e_0_energy">   -480.94678902 </i>
   </energy>
  </scstep>
  <scstep>
   <time name="dav">   11.41   11.42</time>
   <time name="total">   12.04   12.04</time>
   <energy>
    <i name="e_fr_energy">   -481.55592359 </i>
    <i name="e_wo_entrp">   -480.34002146 </i>
    <i name="e_0_energy">   -480.94797253 </i>
   </energy>
  </scstep>
  <scstep>
   <time name="dav">   10.35   10.36</time>
   <time name="total">   10.98   10.99</time>
   <energy>
    <i name="e_fr_energy">   -481.55575635 </i>
    <i name="e_wo_entrp">   -480.33978856 </i>
    <i name="e_0_energy">   -480.94777245 </i>
   </energy>
  </scstep>
  <scstep>
   <time name="dav">    8.68    8.68</time>
   <time name="total">    9.30    9.30</time>
   <energy>
    <i name="e_fr_energy">   -481.55562871 </i>
    <i name="e_wo_entrp">   -480.34065153 </i>
    <i name="e_0_energy">   -480.94814012 </i>
   </energy>
  </scstep>
  <scstep>
   <time name="dav">    7.12    7.12</time>
   <time name="total">    7.42    7.42</time>
   <energy>
    <i name="alphaZ">   3266.22189490 </i>
    <i name="ewald"> 348374.26931593 </i>
    <i name="hartreedc">-513161.61187664 </i>
    <i name="XCdc">   4859.69059363 </i>
    <i name="pawpsdc"> 179336.34715211 </i>
    <i name="pawaedc">-185964.65919477 </i>
    <i name="eentropy">     -1.21401644 </i>
    <i name="bandstr"> -18527.40617409 </i>
    <i name="atom"> 181336.80673834 </i>
    <i name="e_fr_energy">   -481.55556702 </i>
    <i name="e_wo_entrp">   -480.34155058 </i>
    <i name="e_0_energy">   -480.94855880 </i>
   </energy>
  </scstep>
  <structure>
   <crystal>
    <varray name="basis" >
     <v>       6.27856000       0.00000000       0.00000000 </v>
     <v>       2.09285340      11.06019551       0.00000000 </v>
     <v>       0.00000000       0.00000000      29.15682000 </v>
    </varray>
    <i name="volume">   2024.71084344 </i>
    <varray name="rec_basis" >
     <v>       0.15927219      -0.03013811       0.00000000 </v>
     <v>       0.00000000       0.09041431       0.00000000 </v>
     <v>       0.00000000       0.00000000       0.03429729 </v>
    </varray>
   </crystal>
   <varray name="positions" >
    <v>       0.25630944       0.01645859       0.15239349 </v>
    <v>       0.25630944       0.01645859       0.48090702 </v>
    <v>       0.00630944       0.26645858       0.31665025 </v>
    <v>       0.01413213       0.26175715       0.63803443 </v>
    <v>       0.22159646       0.02191352       0.07032352 </v>
    <v>       0.25630944       0.01645859       0.39411177 </v>
    <v>       0.00630944       0.26645858       0.22985501 </v>
    <v>       0.00630944       0.26645858       0.55836854 </v>
    <v>       0.18458766       0.22548685       0.11965931 </v>
    <v>       0.19025794       0.21461308       0.43750940 </v>
    <v>       0.44025794       0.46461308       0.27325263 </v>
    <v>       0.44025794       0.46461308       0.60176617 </v>
    <v>       0.75630944       0.01645859       0.15239349 </v>
    <v>       0.75630944       0.01645859       0.48090702 </v>
    <v>       0.50630944       0.26645858       0.31665025 </v>
    <v>       0.51413213       0.26175715       0.63803443 </v>
    <v>       0.81471156       0.02143992       0.06997261 </v>
    <v>       0.75630944       0.01645859       0.39411177 </v>
    <v>       0.50630944       0.26645858       0.22985501 </v>
    <v>       0.50630944       0.26645858       0.55836854 </v>
    <v>       0.70843742       0.22602950       0.12001639 </v>
    <v>       0.69025794       0.21461308       0.43750940 </v>
    <v>       0.94025794       0.46461308       0.27325263 </v>
    <v>       0.94025794       0.46461308       0.60176617 </v>
    <v>       0.25630944       0.51645859       0.15239349 </v>
    <v>       0.25630944       0.51645859       0.48090702 </v>
    <v>       0.00630944       0.76645858       0.31665025 </v>
    <v>       0.01413213       0.76175715       0.63803443 </v>
    <v>       0.26505614       0.51235185       0.07264255 </v>
    <v>       0.25630944       0.51645859       0.39411177 </v>
    <v>       0.00630944       0.76645858       0.22985501 </v>
    <v>       0.00630944       0.76645858       0.55836854 </v>
    <v>       0.19025794       0.71461308       0.10899586 </v>
    <v>       0.19025794       0.71461308       0.43750940 </v>
    <v>       0.44025794       0.96461308       0.27325263 </v>
    <v>       0.44025794       0.96461308       0.60176617 </v>
    <v>       0.75630944       0.51645859       0.15239349 </v>
    <v>       0.75630944       0.51645859       0.48090702 </v>
    <v>       0.50630944       0.76645858       0.31665025 </v>
    <v>       0.51413213       0.76175715       0.63803443 </v>
    <v>       0.76244864       0.51243049       0.07261941 </v>
    <v>       0.75630944       0.51645859       0.39411177 </v>
    <v>       0.50630944       0.76645858       0.22985501 </v>
    <v>       0.50630944       0.76645858       0.55836854 </v>
    <v>       0.69025794       0.71461308       0.10899586 </v>
    <v>       0.69025794       0.71461308       0.43750940 </v>
    <v>       0.94025794       0.96461308       0.27325263 </v>
    <v>       0.94025794       0.96461308       0.60176617 </v>
    <v>       0.46840410       0.16661759       0.38224849 </v>
    <v>       0.21840410       0.41661758       0.21799173 </v>
    <v>       0.21840410       0.41661758       0.54650526 </v>
    <v>       0.46840410       0.16661759       0.16425677 </v>
    <v>       0.46840410       0.16661759       0.49277030 </v>
    <v>       0.21840410       0.41661758       0.32851354 </v>
    <v>       0.21824764       0.39061227       0.64215907 </v>
    <v>       0.05251161       0.41429508       0.10899586 </v>
    <v>       0.05251161       0.41429508       0.43750940 </v>
    <v>       0.30251160       0.16429509       0.27325263 </v>
    <v>       0.30251160       0.16429509       0.60176617 </v>
    <v>       0.96626182       0.17276049       0.07160886 </v>
    <v>       0.96840410       0.16661759       0.38224849 </v>
    <v>       0.71840410       0.41661758       0.21799173 </v>
    <v>       0.71840410       0.41661758       0.54650526 </v>
    <v>       0.96840410       0.16661759       0.16425677 </v>
    <v>       0.96840410       0.16661759       0.49277030 </v>
    <v>       0.71840410       0.41661758       0.32851354 </v>
    <v>       0.71824764       0.39061227       0.64215907 </v>
    <v>       0.55251161       0.41429508       0.10899586 </v>
    <v>       0.55251161       0.41429508       0.43750940 </v>
    <v>       0.80251160       0.16429509       0.27325263 </v>
    <v>       0.80251160       0.16429509       0.60176617 </v>
    <v>       0.46790392       0.64159502       0.06846582 </v>
    <v>       0.46840411       0.66661759       0.38224849 </v>
    <v>       0.21840411       0.91661758       0.21799173 </v>
    <v>       0.21840411       0.91661758       0.54650526 </v>
    <v>       0.46840411       0.66661759       0.16425677 </v>
    <v>       0.46840411       0.66661759       0.49277030 </v>
    <v>       0.03715059       0.96797723       0.02095656 </v>
    <v>       0.21840411       0.91661758       0.32851354 </v>
    <v>       0.21824764       0.89061227       0.64215907 </v>
    <v>       0.05251161       0.91429508       0.10899586 </v>
    <v>       0.05251161       0.91429508       0.43750940 </v>
    <v>       0.30251161       0.66429509       0.27325263 </v>
    <v>       0.30251161       0.66429509       0.60176617 </v>
    <v>       0.96810605       0.64067891       0.06860607 </v>
    <v>       0.96840411       0.66661759       0.38224849 </v>
    <v>       0.71840411       0.91661758       0.21799173 </v>
    <v>       0.71840411       0.91661758       0.54650526 </v>
    <v>       0.96840411       0.66661759       0.16425677 </v>
    <v>       0.96840411       0.66661759       0.49277030 </v>
    <v>       0.71840411       0.91661758       0.32851354 </v>
    <v>       0.71824764       0.89061227       0.64215907 </v>
    <v>       0.55251161       0.91429508       0.10899586 </v>
    <v>       0.55251161       0.91429508       0.43750940 </v>
    <v>       0.80251161       0.66429509       0.27325263 </v>
    <v>       0.80251161       0.66429509       0.60176617 </v>
   </varray>
  </structure>
  <varray name="forces" >
   <v>       0.24358821      -0.14108241       0.64974509 </v>
   <v>       0.10827704       0.12672882      -0.34571126 </v>
   <v>       0.07870859       0.20441378      -0.32491490 </v>
   <v>       0.07409330      -0.63980718      -0.08054690 </v>
   <v>       2.43030643      -0.03750552       1.12276823 </v>
   <v>       0.09154379       0.14676611       0.31880512 </v>
   <v>       0.07814248       0.00071688       0.58972298 </v>
   <v>       0.09624345       0.23635030      -1.05453806 </v>
   <v>       1.03219311      -0.58338297      -0.00500721 </v>
   <v>       0.16180762      -0.34140813      -0.01541931 </v>
   <v>       0.20728868      -0.35351640       0.06885602 </v>
   <v>       0.10038817       0.01918221      -2.11553202 </v>
   <v>      -0.11762575      -0.03361355       0.47201149 </v>
   <v>       0.10779088       0.12795276      -0.34328671 </v>
   <v>       0.07164019       0.19300200      -0.33309822 </v>
   <v>       0.07458533      -0.64096470      -0.07819764 </v>
   <v>      -2.50565932       0.00035116       1.05332005 </v>
   <v>       0.10403985       0.14640306       0.31685883 </v>
   <v>       0.09465458       0.11930064       0.66298393 </v>
   <v>       0.09585646       0.23717120      -1.05541714 </v>
   <v>      -1.45579325      -0.52290022      -0.18107767 </v>
   <v>       0.17227820      -0.34474751      -0.01978133 </v>
   <v>       0.21212435      -0.33135781       0.06643780 </v>
   <v>       0.09980213       0.01907298      -2.11558419 </v>
   <v>       0.05543144       0.41145693       1.07571634 </v>
   <v>       0.10976880       0.12902724      -0.34593083 </v>
   <v>       0.06913722       0.15959338      -0.35313731 </v>
   <v>       0.07385115      -0.64080274      -0.07578745 </v>
   <v>      -0.00052511      -0.79288834       0.27334651 </v>
   <v>       0.09041875       0.14873362       0.30472168 </v>
   <v>       0.12258431       0.14822651       0.42456688 </v>
   <v>       0.09110298       0.23688354      -1.04776869 </v>
   <v>       0.12589274       0.08629073       2.24704789 </v>
   <v>       0.16539140      -0.34438165      -0.01642715 </v>
   <v>       0.17433774      -0.35625204       0.05326596 </v>
   <v>       0.10162664       0.01936995      -2.11451580 </v>
   <v>       0.11245258       0.41890228       0.99651355 </v>
   <v>       0.11010762       0.12728833      -0.34513935 </v>
   <v>       0.08037618       0.17472858      -0.35730536 </v>
   <v>       0.07336472      -0.63794682      -0.08055922 </v>
   <v>       0.16307841      -0.73049978       0.25569966 </v>
   <v>       0.09139570       0.14988069       0.31354806 </v>
   <v>       0.11159120       0.12495793       0.37089259 </v>
   <v>       0.09213599       0.23510497      -1.04865528 </v>
   <v>       0.03029854       0.07307547       2.17713666 </v>
   <v>       0.16201734      -0.34789047      -0.01886273 </v>
   <v>       0.16801200      -0.40284927       0.02617474 </v>
   <v>       0.10111517       0.01845366      -2.11524070 </v>
   <v>      -0.12661669      -0.26821114       0.39248084 </v>
   <v>      -0.12074858      -0.34657796       0.35588107 </v>
   <v>      -0.08273238      -0.06496961      -0.27258326 </v>
   <v>       0.06793851       0.26651232      -0.30535884 </v>
   <v>      -0.11396227      -0.22053446      -0.41036234 </v>
   <v>      -0.10600937      -0.24776311      -0.44431818 </v>
   <v>      -0.05065937       1.29595283       3.83109795 </v>
   <v>       0.06364865      -0.33618584       0.18070277 </v>
   <v>      -0.12178128       0.52711498       0.01327094 </v>
   <v>      -0.15238949       0.60378806      -0.02749660 </v>
   <v>      -0.13100192      -0.83089748      -0.01065571 </v>
   <v>      -0.29817770       2.28050097      -2.59865793 </v>
   <v>      -0.13344654      -0.26787305       0.40566208 </v>
   <v>      -0.06820051      -0.30934624       0.35208946 </v>
   <v>      -0.08236954      -0.06380771      -0.27285818 </v>
   <v>       0.14557379      -0.74628332       2.21368275 </v>
   <v>      -0.11251705      -0.21837811      -0.41283056 </v>
   <v>      -0.10618163      -0.24440873      -0.40748402 </v>
   <v>      -0.04917283       1.29617991       3.83170390 </v>
   <v>      -0.26383963      -1.11229480       0.08900596 </v>
   <v>      -0.12054443       0.52895006       0.01186963 </v>
   <v>      -0.10465043       0.58172989      -0.15539070 </v>
   <v>      -0.12986716      -0.83003064      -0.01216558 </v>
   <v>      -0.06608434       1.51216356      -3.97281070 </v>
   <v>      -0.11341848      -0.25711084       0.41041918 </v>
   <v>      -0.12707016      -0.20969410       0.27439647 </v>
   <v>      -0.08506699      -0.06847476      -0.27214126 </v>
   <v>      -0.15615881      -0.19521013       0.18797677 </v>
   <v>      -0.11927378      -0.21503558      -0.40527127 </v>
   <v>      -0.05854927      -1.87489890      -3.90804235 </v>
   <v>      -0.09202153      -0.24923263      -0.41722486 </v>
   <v>      -0.04873517       1.29457873       3.82916266 </v>
   <v>       0.16964674      -0.88544401       1.48599549 </v>
   <v>      -0.12885291       0.52764983       0.00705610 </v>
   <v>      -0.16404238       0.55067250      -0.02441829 </v>
   <v>      -0.12806314      -0.82979819      -0.01490192 </v>
   <v>       0.01481516       1.55364555      -3.99110580 </v>
   <v>      -0.11943642      -0.26276168       0.40320026 </v>
   <v>      -0.08788544      -0.12594781       0.30097153 </v>
   <v>      -0.08513024      -0.06769027      -0.27347122 </v>
   <v>      -0.09942500      -0.13544439       0.15527363 </v>
   <v>      -0.11848556      -0.21568432      -0.40273373 </v>
   <v>      -0.09495062      -0.25303547      -0.41758516 </v>
   <v>      -0.05162632       1.29544895       3.82879113 </v>
   <v>       0.21000604       1.58162517      -0.98576107 </v>
   <v>      -0.12389541       0.52434886       0.01348014 </v>
   <v>      -0.12976174       0.54659952       0.00472896 </v>
   <v>      -0.13006444      -0.83002468      -0.01596780 </v>
  </varray>
  <varray name="stress" >
   <v>      37.56339782       7.02595826       0.93127010 </v>
   <v>       7.02595801      23.11644851       2.48130781 </v>
   <v>       0.93126957       2.48130758      37.46041332 </v>
  </varray>
  <energy>
   <i name="e_fr_energy">   -481.55556702 </i>
   <i name="e_wo_entrp">   -480.94855880 </i>
   <i name="e_0_energy">     -1.21401644 </i>
  </energy>
  <time name="totalsc">  510.95  511.08</time>
  <eigenvalues>
   <array>
    <dimension dim="1">band</dimension>
    <dimension dim="2">kpoint</dimension>
    <dimension dim="3">spin</dimension>
    <field>eigene</field>
    <field>occ</field>
    <set>
     <set comment="spin 1">
      <set comment="kpoint 1">
       <r>  -61.1706    1.0000 </r>
       <r>  -61.1694    1.0000 </r>
       <r>  -61.1622    1.0000 </r>
       <r>  -61.1610    1.0000 </r>
       <r>  -61.0785    1.0000 </r>
       <r>  -61.0669    1.0000 </r>
       <r>  -61.0666    1.0000 </r>
       <r>  -61.0659    1.0000 </r>
       <r>  -61.0650    1.0000 </r>
       <r>  -61.0638    1.0000 </r>
       <r>  -61.0580    1.0000 </r>
       <r>  -61.0550    1.0000 </r>
       <r>  -61.0468    1.0000 </r>
       <r>  -61.0454    1.0000 </r>
       <r>  -60.9581    1.0000 </r>
       <r>  -60.9485    1.0000 </r>
       <r>  -60.9483    1.0000 </r>
       <r>  -60.9452    1.0000 </r>
       <r>  -60.9423    1.0000 </r>
       <r>  -60.9418    1.0000 </r>
       <r>  -60.9255    1.0000 </r>
       <r>  -60.9208    1.0000 </r>
       <r>  -60.9135    1.0000 </r>
       <r>  -60.9134    1.0000 </r>
       <r>  -60.9128    1.0000 </r>
       <r>  -60.9127    1.0000 </r>
       <r>  -60.9117    1.0000 </r>
       <r>  -60.9114    1.0000 </r>
       <r>  -60.9096    1.0000 </r>
       <r>  -60.9082    1.0000 </r>
       <r>  -60.9060    1.0000 </r>
       <r>  -60.9048    1.0000 </r>
       <r>  -60.9037    1.0000 </r>
       <r>  -60.9037    1.0000 </r>
       <r>  -60.9031    1.0000 </r>
       <r>  -60.9025    1.0000 </r>
       <r>  -60.8997    1.0000 </r>
       <r>  -60.8972    1.0000 </r>
       <r>  -60.8965    1.0000 </r>
       <r>  -60.8950    1.0000 </r>
       <r>  -60.8936    1.0000 </r>
       <r>  -60.8930    1.0000 </r>
       <r>  -60.8926    1.0000 </r>
       <r>  -60.8916    1.0000 </r>
       <r>  -60.8915    1.0000 </r>
       <r>  -60.8897    1.0000 </r>
       <r>  -60.8893    1.0000 </r>
       <r>  -60.8883    1.0000 </r>
       <r>  -60.8870    1.0000 </r>
       <r>  -60.8856    1.0000 </r>
       <r>  -60.8834    1.0000 </r>
       <r>  -60.8824    1.0000 </r>
       <r>  -60.8823    1.0000 </r>
       <r>  -60.8810    1.0000 </r>
       <r>  -60.8797    1.0000 </r>
       <r>  -60.8796    1.0000 </r>
       <r>  -60.8795    1.0000 </r>
       <r>  -60.8783    1.0000 </r>
       <r>  -60.8751    1.0000 </r>
       <r>  -60.8751    1.0000 </r>
       <r>  -60.8735    1.0000 </r>
       <r>  -60.8719    1.0000 </r>
       <r>  -60.8713    1.0000 </r>
       <r>  -60.8703    1.0000 </r>
       <r>  -60.8686    1.0000 </r>
       <r>  -60.8677    1.0000 </r>
       <r>  -60.8674    1.0000 </r>
       <r>  -60.8670    1.0000 </r>
       <r>  -60.8639    1.0000 </r>
       <r>  -60.8628    1.0000 </r>
       <r>  -60.8510    1.0000 </r>
       <r>  -60.8501    1.0000 </r>
       <r>  -60.8489    1.0000 </r>
       <r>  -60.8476    1.0000 </r>
       <r>  -60.8461    1.0000 </r>
       <r>  -60.8403    1.0000 </r>
       <r>  -60.8349    1.0000 </r>
       <r>  -60.8155    1.0000 </r>
       <r>  -60.8138    1.0000 </r>
       <r>  -60.8048    1.0000 </r>
       <r>  -60.8023    1.0000 </r>
       <r>  -60.8003    1.0000 </r>
       <r>  -60.7880    1.0000 </r>
       <r>  -60.7774    1.0000 </r>
       <r>  -60.7703    1.0000 </r>
       <r>  -60.7650    1.0000 </r>
       <r>  -60.7479    1.0000 </r>
       <r>  -60.7418    1.0000 </r>
       <r>  -60.7311    1.0000 </r>
       <r>  -60.7114    1.0000 </r>
       <r>  -60.7039    1.0000 </r>
       <r>  -60.6876    1.0000 </r>
       <r>  -60.6871    1.0000 </r>
       <r>  -60.6867    1.0000 </r>
       <r>  -60.6858    1.0000 </r>
       <r>  -60.6727    1.0000 </r>
       <r>  -60.6236    1.0000 </r>
       <r>  -60.5880    1.0000 </r>
       <r>  -60.5865    1.0000 </r>
       <r>  -60.5838    1.0000 </r>
       <r>  -60.5834    1.0000 </r>
       <r>  -60.5826    1.0000 </r>
       <r>  -60.5819    1.0000 </r>
       <r>  -60.5810    1.0000 </r>
       <r>  -60.5618    1.0000 </r>
       <r>  -60.5489    1.0000 </r>
       <r>  -60.5474    1.0000 </r>
       <r>  -60.5398    1.0000 </r>
       <r>  -60.5381    1.0000 </r>
       <r>  -60.5293    1.0000 </r>
       <r>  -60.5292    1.0000 </r>
       <r>  -60.5267    1.0000 </r>
       <r>  -60.5266    1.0000 </r>
       <r>  -60.5239    1.0000 </r>
       <r>  -60.5232    1.0000 </r>
       <r>  -60.5197    1.0000 </r>
       <r>  -60.5148    1.0000 </r>
       <r>  -60.5057    1.0000 </r>
       <r>  -60.5038    1.0000 </r>
       <r>  -60.5023    1.0000 </r>
       <r>  -60.5014    1.0000 </r>
       <r>  -60.5011    1.0000 </r>
       <r>  -60.5006    1.0000 </r>
       <r>  -60.4841    1.0000 </r>
       <r>  -60.4492    1.0000 </r>
       <r>  -60.4439    1.0000 </r>
       <r>  -60.4383    1.0000 </r>
       <r>  -60.4370    1.0000 </r>
       <r>  -60.4361    1.0000 </r>
       <r>  -60.4360    1.0000 </r>
       <r>  -60.3990    1.0000 </r>
       <r>  -60.3840    1.0000 </r>
       <r>  -60.3805    1.0000 </r>
       <r>  -60.3730    1.0000 </r>
       <r>  -60.3711    1.0000 </r>
       <r>  -60.3473    1.0000 </r>
       <r>  -60.3260    1.0000 </r>
       <r>  -60.2534    1.0000 </r>
       <r>  -60.2497    1.0000 </r>
       <r>  -60.2469    1.0000 </r>
       <r>  -60.2463    1.0000 </r>
       <r>  -60.2264    1.0000 </r>
       <r>  -60.1450    1.0000 </r>
       <r>  -60.1340    1.0000 </r>
       <r>  -12.9573    1.0000 </r>
       <r>  -12.8077    1.0000 </r>
       <r>  -12.5677    1.0000 </r>
       <r>  -12.4288    1.0000 </r>
       <r>  -12.3475    1.0000 </r>
       <r>  -12.0523    1.0000 </r>
       <r>  -11.8720    1.0000 </r>
       <r>  -11.8706    1.0000 </r>
       <r>  -11.6090    1.0000 </r>
       <r>  -11.5369    1.0000 </r>
       <r>  -11.4661    1.0000 </r>
       <r>  -11.3879    1.0000 </r>
       <r>  -11.3488    1.0000 </r>
       <r>  -11.3321    1.0000 </r>
       <r>  -11.3098    1.0000 </r>
       <r>  -11.2866    1.0000 </r>
       <r>  -11.0868    1.0000 </r>
       <r>  -10.9622    1.0000 </r>
       <r>  -10.9431    1.0000 </r>
       <r>  -10.9246    1.0000 </r>
       <r>  -10.8682    1.0000 </r>
       <r>  -10.7669    1.0000 </r>
       <r>  -10.7521    1.0000 </r>
       <r>  -10.7369    1.0000 </r>
       <r>  -10.7312    1.0000 </r>
       <r>  -10.7072    1.0000 </r>
       <r>  -10.6730    1.0000 </r>
       <r>  -10.6529    1.0000 </r>
       <r>  -10.5537    1.0000 </r>
       <r>  -10.5263    1.0000 </r>
       <r>  -10.4881    1.0000 </r>
       <r>  -10.4397    1.0000 </r>
       <r>  -10.3351    1.0000 </r>
       <r>  -10.3066    1.0000 </r>
       <r>  -10.2623    1.0000 </r>
       <r>  -10.2472    1.0000 </r>
       <r>  -10.1928    1.0000 </r>
       <r>  -10.1612    1.0000 </r>
       <r>  -10.1223    1.0000 </r>
       <r>  -10.0999    1.0000 </r>
       <r>  -10.0281    1.0000 </r>
       <r>   -9.9996    1.0000 </r>
       <r>   -9.9273    1.0000 </r>
       <r>   -9.8954    1.0000 </r>
       <r>   -9.8637    1.0000 </r>
       <r>   -9.8579    1.0000 </r>
       <r>   -9.8009    1.0000 </r>
       <r>   -9.0240    1.0000 </r>
       <r>   -5.2001    1.0000 </r>
       <r>   -5.0584    1.0000 </r>
       <r>   -5.0336    1.0000 </r>
       <r>   -4.6732    1.0000 </r>
       <r>   -4.6571    1.0000 </r>
       <r>   -4.6006    1.0000 </r>
       <r>   -4.5664    1.0000 </r>
       <r>   -4.5029    1.0000 </r>
       <r>   -4.4524    1.0000 </r>
       <r>   -4.3165    1.0000 </r>
       <r>   -4.3142    1.0000 </r>
       <r>   -4.2429    1.0000 </r>
       <r>   -4.1517    1.0000 </r>
       <r>   -4.0126    1.0000 </r>
       <r>   -3.9563    1.0000 </r>
       <r>   -3.9153    1.0000 </r>
       <r>   -3.9115    1.0000 </r>
       <r>   -3.7994    1.0000 </r>
       <r>   -3.7478    1.0000 </r>
       <r>   -3.7069    1.0000 </r>
       <r>   -3.6953    1.0000 </r>
       <r>   -3.6726    1.0000 </r>
       <r>   -3.6478    1.0000 </r>
       <r>   -3.6360    1.0000 </r>
       <r>   -3.6074    1.0000 </r>
       <r>   -3.5323    1.0000 </r>
       <r>   -3.5267    1.0000 </r>
       <r>   -3.4996    1.0000 </r>
       <r>   -3.4879    1.0000 </r>
       <r>   -3.4613    1.0000 </r>
       <r>   -3.4242    1.0000 </r>
       <r>   -3.3944    1.0000 </r>
       <r>   -3.3853    1.0000 </r>
       <r>   -3.3731    1.0000 </r>
       <r>   -3.3483    1.0000 </r>
       <r>   -3.3397    1.0000 </r>
       <r>   -3.3216    1.0000 </r>
       <r>   -3.3024    1.0000 </r>
       <r>   -3.1616    1.0000 </r>
       <r>   -2.9670    1.0000 </r>
       <r>   -2.9647    1.0000 </r>
       <r>   -2.8973    1.0000 </r>
       <r>   -2.8476    1.0000 </r>
       <r>   -2.7687    1.0000 </r>
       <r>   -2.7056    1.0000 </r>
       <r>   -2.7007    1.0000 </r>
       <r>   -2.6922    1.0000 </r>
       <r>   -2.6848    1.0000 </r>
       <r>   -2.5748    1.0000 </r>
       <r>   -2.5008    1.0000 </r>
       <r>   -2.3873    1.0000 </r>
       <r>   -2.3134    1.0000 </r>
       <r>   -2.3054    1.0000 </r>
       <r>   -2.2997    1.0000 </r>
       <r>   -2.2541    1.0000 </r>
       <r>   -2.2159    1.0000 </r>
       <r>   -2.1916    1.0000 </r>
       <r>   -2.1599    1.0000 </r>
       <r>   -2.1274    1.0000 </r>
       <r>   -2.1223    1.0000 </r>
       <r>   -2.0792    1.0000 </r>
       <r>   -2.0310    1.0000 </r>
       <r>   -1.9708    1.0000 </r>
       <r>   -1.8959    1.0000 </r>
       <r>   -1.8795    1.0000 </r>
       <r>   -1.8682    1.0000 </r>
       <r>   -1.8095    1.0000 </r>
       <r>   -1.7965    1.0000 </r>
       <r>   -1.7913    1.0000 </r>
       <r>   -1.7646    1.0000 </r>
       <r>   -1.7489    1.0000 </r>
       <r>   -1.6913    1.0000 </r>
       <r>   -1.6578    1.0000 </r>
       <r>   -1.6284    1.0000 </r>
       <r>   -1.6196    1.0000 </r>
       <r>   -1.6008    1.0000 </r>
       <r>   -1.5713    1.0000 </r>
       <r>   -1.5564    1.0000 </r>
       <r>   -1.5447    1.0000 </r>
       <r>   -1.5225    1.0000 </r>
       <r>   -1.5111    1.0000 </r>
       <r>   -1.4754    1.0000 </r>
       <r>   -1.4328    1.0000 </r>
       <r>   -1.4075    1.0000 </r>
       <r>   -1.3976    1.0000 </r>
       <r>   -1.3893    1.0000 </r>
       <r>   -1.3854    1.0000 </r>
       <r>   -1.3495    1.0000 </r>
       <r>   -1.3084    1.0000 </r>
       <r>   -1.2706    1.0000 </r>
       <r>   -1.2559    1.0000 </r>
       <r>   -1.2476    1.0000 </r>
       <r>   -1.2366    1.0000 </r>
       <r>   -1.2014    1.0000 </r>
       <r>   -1.1697    1.0000 </r>
       <r>   -1.1354    1.0000 </r>
       <r>   -1.0848    1.0000 </r>
       <r>   -1.0380    1.0000 </r>
       <r>   -1.0190    1.0000 </r>
       <r>   -1.0144    1.0000 </r>
       <r>   -1.0063    1.0000 </r>
       <r>   -1.0003    1.0000 </r>
       <r>   -0.9913    1.0000 </r>
       <r>   -0.9801    1.0000 </r>
       <r>   -0.9728    1.0000 </r>
       <r>   -0.9692    1.0000 </r>
       <r>   -0.9564    1.0000 </r>
       <r>   -0.9488    1.0000 </r>
       <r>   -0.9424    1.0000 </r>
       <r>   -0.9241    1.0000 </r>
       <r>   -0.8854    1.0000 </r>
       <r>   -0.8726    1.0000 </r>
       <r>   -0.8066    1.0000 </r>
       <r>   -0.7915    1.0000 </r>
       <r>   -0.7839    1.0000 </r>
       <r>   -0.7677    1.0000 </r>
       <r>   -0.7608    1.0000 </r>
       <r>   -0.7356    1.0000 </r>
       <r>   -0.7321    1.0000 </r>
       <r>   -0.7164    1.0000 </r>
       <r>   -0.7026    1.0000 </r>
       <r>   -0.6962    1.0000 </r>
       <r>   -0.6785    1.0000 </r>
       <r>   -0.6500    1.0000 </r>
       <r>   -0.6140    1.0000 </r>
       <r>   -0.6060    1.0000 </r>
       <r>   -0.5380    1.0000 </r>
       <r>   -0.5048    1.0000 </r>
       <r>   -0.4452    1.0000 </r>
       <r>   -0.4004    1.0000 </r>
       <r>   -0.3907    1.0000 </r>
       <r>   -0.2809    1.0000 </r>
       <r>   -0.2724    1.0000 </r>
       <r>   -0.2368    1.0000 </r>
       <r>   -0.1176    1.0000 </r>
       <r>   -0.1146    1.0000 </r>
       <r>   -0.0886    1.0000 </r>
       <r>   -0.0699    1.0000 </r>
       <r>   -0.0599    1.0000 </r>
       <r>   -0.0364    1.0000 </r>
       <r>   -0.0313    1.0000 </r>
       <r>    0.0120    1.0000 </r>
       <r>    0.0682    1.0000 </r>
       <r>    0.0956    1.0000 </r>
       <r>    0.1034    1.0000 </r>
       <r>    0.1145    1.0000 </r>
       <r>    0.1206    1.0000 </r>
       <r>    0.1481    1.0000 </r>
       <r>    0.1848    1.0000 </r>
       <r>    0.1943    1.0000 </r>
       <r>    0.2100    1.0000 </r>
       <r>    0.2516    1.0000 </r>
       <r>    0.3144    1.0000 </r>
       <r>    0.3179    1.0000 </r>
       <r>    0.3750    1.0000 </r>
       <r>    0.4351    1.0000 </r>
       <r>    0.4402    1.0000 </r>
       <r>    0.4791    1.0000 </r>
       <r>    0.4964    1.0000 </r>
       <r>    0.5462    1.0000 </r>
       <r>    0.5636    1.0000 </r>
       <r>    0.5830    1.0000 </r>
       <r>    0.6063    1.0000 </r>
       <r>    0.6351    1.0000 </r>
       <r>    0.6404    1.0000 </r>
       <r>    0.6468    1.0000 </r>
       <r>    0.6683    1.0000 </r>
       <r>    0.6951    1.0000 </r>
       <r>    0.7129    1.0000 </r>
       <r>    0.7336    1.0000 </r>
       <r>    0.7371    1.0000 </r>
       <r>    0.7473    1.0000 </r>
       <r>    0.7597    1.0000 </r>
       <r>    0.7787    1.0000 </r>
       <r>    0.7881    1.0000 </r>
       <r>    0.8017    1.0000 </r>
       <r>    0.8094    1.0000 </r>
       <r>    0.8316    1.0000 </r>
       <r>    0.8483    1.0000 </r>
       <r>    0.8571    1.0000 </r>
       <r>    0.8694    1.0000 </r>
       <r>    0.8775    1.0000 </r>
       <r>    0.8795    1.0000 </r>
       <r>    0.8854    1.0000 </r>
       <r>    0.8930    1.0000 </r>
       <r>    0.8994    1.0000 </r>
       <r>    0.9169    1.0000 </r>
       <r>    0.9326    1.0000 </r>
       <r>    0.9388    1.0000 </r>
       <r>    0.9422    1.0000 </r>
       <r>    0.9502    1.0000 </r>
       <r>    0.9531    1.0000 </r>
       <r>    0.9598    1.0000 </r>
       <r>    0.9733    1.0000 </r>
       <r>    0.9867    1.0000 </r>
       <r>    1.0076    1.0000 </r>
       <r>    1.0287    1.0000 </r>
       <r>    1.0392    1.0000 </r>
       <r>    1.0468    1.0000 </r>
       <r>    1.0495    1.0000 </r>
       <r>    1.0601    1.0000 </r>
       <r>    1.0625    1.0000 </r>
       <r>    1.0867    1.0000 </r>
       <r>    1.0891    1.0000 </r>
       <r>    1.1160    1.0000 </r>
       <r>    1.1532    1.0000 </r>
       <r>    1.1630    1.0000 </r>
       <r>    1.1718    1.0000 </r>
       <r>    1.1888    1.0000 </r>
       <r>    1.1984    1.0000 </r>
       <r>    1.2079    1.0000 </r>
       <r>    1.2265    1.0000 </r>
       <r>    1.2311    1.0000 </r>
       <r>    1.2622    1.0000 </r>
       <r>    1.2977    1.0000 </r>
       <r>    1.3127    1.0000 </r>
       <r>    1.3287    1.0000 </r>
       <r>    1.3447    1.0000 </r>
       <r>    1.3491    1.0000 </r>
       <r>    1.3655    1.0000 </r>
       <r>    1.3727    1.0000 </r>
       <r>    1.4005    1.0000 </r>
       <r>    1.4087    1.0000 </r>
       <r>    1.4186    1.0000 </r>
       <r>    1.4313    1.0000 </r>
       <r>    1.4350    1.0000 </r>
       <r>    1.4389    1.0000 </r>
       <r>    1.4476    1.0000 </r>
       <r>    1.4517    1.0000 </r>
       <r>    1.4535    1.0000 </r>
       <r>    1.4586    1.0000 </r>
       <r>    1.4712    1.0000 </r>
       <r>    1.4727    1.0000 </r>
       <r>    1.4752    1.0000 </r>
       <r>    1.4872    1.0000 </r>
       <r>    1.4979    1.0000 </r>
       <r>    1.5058    1.0000 </r>
       <r>    1.5194    1.0000 </r>
       <r>    1.5321    1.0000 </r>
       <r>    1.5504    1.0000 </r>
       <r>    1.5571    1.0000 </r>
       <r>    1.5624    1.0000 </r>
       <r>    1.5741    1.0000 </r>
       <r>    1.5774    1.0000 </r>
       <r>    1.5853    1.0000 </r>
       <r>    1.5900    1.0000 </r>
       <r>    1.5941    1.0000 </r>
       <r>    1.5984    1.0000 </r>
       <r>    1.6116    1.0000 </r>
       <r>    1.6246    1.0000 </r>
       <r>    1.6304    1.0000 </r>
       <r>    1.6345    1.0000 </r>
       <r>    1.6368    1.0000 </r>
       <r>    1.6408    1.0000 </r>
       <r>    1.6453    1.0000 </r>
       <r>    1.6559    1.0000 </r>
       <r>    1.6565    1.0000 </r>
       <r>    1.6657    1.0000 </r>
       <r>    1.6707    1.0000 </r>
       <r>    1.6820    1.0000 </r>
       <r>    1.6871    1.0000 </r>
       <r>    1.6907    1.0000 </r>
       <r>    1.6972    1.0000 </r>
       <r>    1.7020    1.0000 </r>
       <r>    1.7117    1.0000 </r>
       <r>    1.7181    1.0000 </r>
       <r>    1.7403    1.0000 </r>
       <r>    1.7492    1.0000 </r>
       <r>    1.7538    1.0000 </r>
       <r>    1.7597    1.0000 </r>
       <r>    1.7615    1.0000 </r>
       <r>    1.7788    1.0000 </r>
       <r>    1.7809    1.0000 </r>
       <r>    1.7928    1.0000 </r>
       <r>    1.7993    1.0000 </r>
       <r>    1.8068    1.0000 </r>
       <r>    1.8280    1.0000 </r>
       <r>    1.8363    1.0000 </r>
       <r>    1.8529    1.0000 </r>
       <r>    1.8683    1.0000 </r>
       <r>    1.9007    1.0000 </r>
       <r>    1.9092    1.0000 </r>
       <r>    1.9262    1.0000 </r>
       <r>    1.9305    1.0000 </r>
       <r>    1.9466    1.0000 </r>
       <r>    1.9719    1.0000 </r>
       <r>    1.9991    1.0000 </r>
       <r>    2.0093    1.0000 </r>
       <r>    2.0247    1.0000 </r>
       <r>    2.0534    1.0000 </r>
       <r>    2.0753    1.0000 </r>
       <r>    2.1070    1.0000 </r>
       <r>    2.1122    1.0000 </r>
       <r>    2.1216    1.0000 </r>
       <r>    2.1300    1.0000 </r>
       <r>    2.1366    1.0000 </r>
[...]
       <r>   -56.6777     0.0000   288.0000 </r>
       <r>   -56.4190     0.0000   288.0000 </r>
       <r>   -56.1602     0.0000   288.0000 </r>
       <r>   -55.9015     0.0000   288.0000 </r>
       <r>   -55.6428     0.0000   288.0000 </r>
       <r>   -55.3840     0.0000   288.0000 </r>
       <r>   -55.1253     0.0000   288.0000 </r>
       <r>   -54.8665     0.0000   288.0000 </r>
       <r>   -54.6078     0.0000   288.0000 </r>
       <r>   -54.3490     0.0000   288.0000 </r>
       <r>   -54.0903     0.0000   288.0000 </r>
       <r>   -53.8315     0.0000   288.0000 </r>
       <r>   -53.5728     0.0000   288.0000 </r>
       <r>   -53.3140     0.0000   288.0000 </r>
       <r>   -53.0553     0.0000   288.0000 </r>
       <r>   -52.7965     0.0000   288.0000 </r>
       <r>   -52.5378     0.0000   288.0000 </r>
       <r>   -52.2790     0.0000   288.0000 </r>
       <r>   -52.0203     0.0000   288.0000 </r>
       <r>   -51.7615     0.0000   288.0000 </r>
       <r>   -51.5028     0.0000   288.0000 </r>
       <r>   -51.2440     0.0000   288.0000 </r>
       <r>   -50.9853     0.0000   288.0000 </r>
       <r>   -50.7265     0.0000   288.0000 </r>
       <r>   -50.4678     0.0000   288.0000 </r>
       <r>   -50.2090     0.0000   288.0000 </r>
       <r>   -49.9503     0.0000   288.0000 </r>
       <r>   -49.6915     0.0000   288.0000 </r>
       <r>   -49.4328     0.0000   288.0000 </r>
       <r>   -49.1740     0.0000   288.0000 </r>
       <r>   -48.9153     0.0000   288.0000 </r>
       <r>   -48.6565     0.0000   288.0000 </r>
       <r>   -48.3978     0.0000   288.0000 </r>
       <r>   -48.1390     0.0000   288.0000 </r>
       <r>   -47.8803     0.0000   288.0000 </r>
       <r>   -47.6215     0.0000   288.0000 </r>
       <r>   -47.3628     0.0000   288.0000 </r>
       <r>   -47.1040     0.0000   288.0000 </r>
       <r>   -46.8453     0.0000   288.0000 </r>
       <r>   -46.5865     0.0000   288.0000 </r>
       <r>   -46.3278     0.0000   288.0000 </r>
       <r>   -46.0691     0.0000   288.0000 </r>
       <r>   -45.8103     0.0000   288.0000 </r>
       <r>   -45.5516     0.0000   288.0000 </r>
       <r>   -45.2928     0.0000   288.0000 </r>
       <r>   -45.0341     0.0000   288.0000 </r>
       <r>   -44.7753     0.0000   288.0000 </r>
       <r>   -44.5166     0.0000   288.0000 </r>
       <r>   -44.2578     0.0000   288.0000 </r>
       <r>   -43.9991     0.0000   288.0000 </r>
       <r>   -43.7403     0.0000   288.0000 </r>
       <r>   -43.4816     0.0000   288.0000 </r>
       <r>   -43.2228     0.0000   288.0000 </r>
       <r>   -42.9641     0.0000   288.0000 </r>
       <r>   -42.7053     0.0000   288.0000 </r>
       <r>   -42.4466     0.0000   288.0000 </r>
       <r>   -42.1878     0.0000   288.0000 </r>
       <r>   -41.9291     0.0000   288.0000 </r>
       <r>   -41.6703     0.0000   288.0000 </r>
       <r>   -41.4116     0.0000   288.0000 </r>
       <r>   -41.1528     0.0000   288.0000 </r>
       <r>   -40.8941     0.0000   288.0000 </r>
       <r>   -40.6353     0.0000   288.0000 </r>
       <r>   -40.3766     0.0000   288.0000 </r>
       <r>   -40.1178     0.0000   288.0000 </r>
       <r>   -39.8591     0.0000   288.0000 </r>
       <r>   -39.6003     0.0000   288.0000 </r>
       <r>   -39.3416     0.0000   288.0000 </r>
       <r>   -39.0828     0.0000   288.0000 </r>
       <r>   -38.8241     0.0000   288.0000 </r>
       <r>   -38.5653     0.0000   288.0000 </r>
       <r>   -38.3066     0.0000   288.0000 </r>
       <r>   -38.0478     0.0000   288.0000 </r>
       <r>   -37.7891     0.0000   288.0000 </r>
       <r>   -37.5303     0.0000   288.0000 </r>
       <r>   -37.2716     0.0000   288.0000 </r>
       <r>   -37.0128     0.0000   288.0000 </r>
       <r>   -36.7541     0.0000   288.0000 </r>
       <r>   -36.4953     0.0000   288.0000 </r>
       <r>   -36.2366     0.0000   288.0000 </r>
       <r>   -35.9779     0.0000   288.0000 </r>
       <r>   -35.7191     0.0000   288.0000 </r>
       <r>   -35.4604     0.0000   288.0000 </r>
       <r>   -35.2016     0.0000   288.0000 </r>
       <r>   -34.9429     0.0000   288.0000 </r>
       <r>   -34.6841     0.0000   288.0000 </r>
       <r>   -34.4254     0.0000   288.0000 </r>
       <r>   -34.1666     0.0000   288.0000 </r>
       <r>   -33.9079     0.0000   288.0000 </r>
       <r>   -33.6491     0.0000   288.0000 </r>
       <r>   -33.3904     0.0000   288.0000 </r>
       <r>   -33.1316     0.0000   288.0000 </r>
       <r>   -32.8729     0.0000   288.0000 </r>
       <r>   -32.6141     0.0000   288.0000 </r>
       <r>   -32.3554     0.0000   288.0000 </r>
       <r>   -32.0966     0.0000   288.0000 </r>
       <r>   -31.8379     0.0000   288.0000 </r>
       <r>   -31.5791     0.0000   288.0000 </r>
       <r>   -31.3204     0.0000   288.0000 </r>
       <r>   -31.0616     0.0000   288.0000 </r>
       <r>   -30.8029     0.0000   288.0000 </r>
       <r>   -30.5441     0.0000   288.0000 </r>
       <r>   -30.2854     0.0000   288.0000 </r>
       <r>   -30.0266     0.0000   288.0000 </r>
       <r>   -29.7679     0.0000   288.0000 </r>
       <r>   -29.5091     0.0000   288.0000 </r>
       <r>   -29.2504     0.0000   288.0000 </r>
       <r>   -28.9916     0.0000   288.0000 </r>
       <r>   -28.7329     0.0000   288.0000 </r>
       <r>   -28.4741     0.0000   288.0000 </r>
       <r>   -28.2154     0.0000   288.0000 </r>
       <r>   -27.9566     0.0000   288.0000 </r>
       <r>   -27.6979     0.0000   288.0000 </r>
       <r>   -27.4391     0.0000   288.0000 </r>
       <r>   -27.1804     0.0000   288.0000 </r>
       <r>   -26.9216     0.0000   288.0000 </r>
       <r>   -26.6629     0.0000   288.0000 </r>
       <r>   -26.4042     0.0000   288.0000 </r>
       <r>   -26.1454     0.0000   288.0000 </r>
       <r>   -25.8867     0.0000   288.0000 </r>
       <r>   -25.6279     0.0000   288.0000 </r>
       <r>   -25.3692     0.0000   288.0000 </r>
       <r>   -25.1104     0.0000   288.0000 </r>
       <r>   -24.8517     0.0000   288.0000 </r>
       <r>   -24.5929     0.0000   288.0000 </r>
       <r>   -24.3342     0.0000   288.0000 </r>
       <r>   -24.0754     0.0000   288.0000 </r>
       <r>   -23.8167     0.0000   288.0000 </r>
       <r>   -23.5579     0.0000   288.0000 </r>
       <r>   -23.2992     0.0000   288.0000 </r>
       <r>   -23.0404     0.0000   288.0000 </r>
       <r>   -22.7817     0.0000   288.0000 </r>
       <r>   -22.5229     0.0000   288.0000 </r>
       <r>   -22.2642     0.0000   288.0000 </r>
       <r>   -22.0054     0.0000   288.0000 </r>
       <r>   -21.7467     0.0000   288.0000 </r>
       <r>   -21.4879     0.0000   288.0000 </r>
       <r>   -21.2292     0.0000   288.0000 </r>
       <r>   -20.9704     0.0000   288.0000 </r>
       <r>   -20.7117     0.0000   288.0000 </r>
       <r>   -20.4529     0.0000   288.0000 </r>
       <r>   -20.1942     0.0000   288.0000 </r>
       <r>   -19.9354     0.0000   288.0000 </r>
       <r>   -19.6767     0.0000   288.0000 </r>
       <r>   -19.4179     0.0000   288.0000 </r>
       <r>   -19.1592     0.0000   288.0000 </r>
       <r>   -18.9004     0.0000   288.0000 </r>
       <r>   -18.6417     0.0000   288.0000 </r>
       <r>   -18.3829     0.0000   288.0000 </r>
       <r>   -18.1242     0.0000   288.0000 </r>
       <r>   -17.8654     0.0000   288.0000 </r>
       <r>   -17.6067     0.0000   288.0000 </r>
       <r>   -17.3479     0.0000   288.0000 </r>
       <r>   -17.0892     0.0000   288.0000 </r>
       <r>   -16.8304     0.0000   288.0000 </r>
       <r>   -16.5717     0.0000   288.0000 </r>
       <r>   -16.3130     0.0000   288.0000 </r>
       <r>   -16.0542     0.0000   288.0000 </r>
       <r>   -15.7955     0.0000   288.0000 </r>
       <r>   -15.5367     0.0000   288.0000 </r>
       <r>   -15.2780     0.0000   288.0000 </r>
       <r>   -15.0192     0.0000   288.0000 </r>
       <r>   -14.7605     0.0000   288.0000 </r>
       <r>   -14.5017     0.0000   288.0000 </r>
       <r>   -14.2430     0.0000   288.0000 </r>
       <r>   -13.9842     0.0000   288.0000 </r>
       <r>   -13.7255     0.0000   288.0000 </r>
       <r>   -13.4667     0.0012   288.0003 </r>
       <r>   -13.2080     0.3116   288.0809 </r>
       <r>   -12.9492     4.9803   289.3696 </r>
       <r>   -12.6905    10.1606   291.9987 </r>
       <r>   -12.4317    12.3670   295.1986 </r>
       <r>   -12.1730    11.4713   298.1668 </r>
       <r>   -11.9142    11.8459   301.2319 </r>
       <r>   -11.6555    15.3369   305.2003 </r>
       <r>   -11.3967    27.2851   312.2603 </r>
       <r>   -11.1380    31.4132   320.3884 </r>
       <r>   -10.8792    32.3332   328.7546 </r>
       <r>   -10.6205    51.4638   342.0708 </r>
       <r>   -10.3617    44.3323   353.5417 </r>
       <r>   -10.1030    46.8455   365.6629 </r>
       <r>    -9.8442    43.9627   377.0382 </r>
       <r>    -9.5855    18.0920   381.7195 </r>
       <r>    -9.3267     1.2043   382.0311 </r>
       <r>    -9.0680     2.8003   382.7557 </r>
       <r>    -8.8092     4.3109   383.8711 </r>
       <r>    -8.5505     0.4950   383.9992 </r>
       <r>    -8.2917     0.0031   384.0000 </r>
       <r>    -8.0330     0.0000   384.0000 </r>
       <r>    -7.7742     0.0000   384.0000 </r>
       <r>    -7.5155     0.0000   384.0000 </r>
       <r>    -7.2567     0.0000   384.0000 </r>
       <r>    -6.9980     0.0000   384.0000 </r>
       <r>    -6.7392     0.0000   384.0000 </r>
       <r>    -6.4805     0.0000   384.0000 </r>
       <r>    -6.2218     0.0000   384.0000 </r>
       <r>    -5.9630     0.0000   384.0000 </r>
       <r>    -5.7043     0.0014   384.0004 </r>
       <r>    -5.4455     0.3559   384.0925 </r>
       <r>    -5.1868     6.2835   385.7183 </r>
       <r>    -4.9280    13.8239   389.2952 </r>
       <r>    -4.6693    15.9596   393.4247 </r>
       <r>    -4.4105    30.9729   401.4390 </r>
       <r>    -4.1518    27.7952   408.6309 </r>
       <r>    -3.8930    30.8053   416.6018 </r>
       <r>    -3.6343    53.1758   430.3609 </r>
       <r>    -3.3755    73.1865   449.2979 </r>
       <r>    -3.1168    46.0971   461.2254 </r>
       <r>    -2.8580    29.3756   468.8263 </r>
       <r>    -2.5993    40.4054   479.2812 </r>
       <r>    -2.3405    37.7578   489.0510 </r>
       <r>    -2.0818    55.1664   503.3252 </r>
       <r>    -1.8230    58.7545   518.5279 </r>
       <r>    -1.5643    78.1917   538.7599 </r>
       <r>    -1.3055    86.9895   561.2683 </r>
       <r>    -1.0468    90.4864   584.6815 </r>
       <r>    -0.7880   112.4440   613.7763 </r>
       <r>    -0.5293    86.5130   636.1614 </r>
       <r>    -0.2705    49.7237   649.0273 </r>
       <r>    -0.0118    61.3248   664.8950 </r>
       <r>     0.2470    76.8499   684.7798 </r>
       <r>     0.5057    69.6171   702.7932 </r>
       <r>     0.7645   113.5628   732.1774 </r>
       <r>     1.0232   167.5325   775.5262 </r>
       <r>     1.2820   151.2901   814.6723 </r>
       <r>     1.5407   196.9530   865.6337 </r>
       <r>     1.7995   231.6338   925.5686 </r>
       <r>     2.0582   153.8484   965.3767 </r>
       <r>     2.3170   134.7863  1000.2525 </r>
       <r>     2.5757    93.6243  1024.4776 </r>
       <r>     2.8345    37.7929  1034.2565 </r>
       <r>     3.0932    22.7121  1040.1332 </r>
       <r>     3.3519    27.4396  1047.2332 </r>
       <r>     3.6107    50.7905  1060.3751 </r>
       <r>     3.8694    94.2260  1084.7560 </r>
       <r>     4.1282    96.9323  1109.8371 </r>
       <r>     4.3869    68.5458  1127.5732 </r>
       <r>     4.6457    38.5869  1137.5575 </r>
       <r>     4.9044    23.8164  1143.7200 </r>
       <r>     5.1632    17.4684  1148.2399 </r>
       <r>     5.4219    12.8118  1151.5550 </r>
       <r>     5.6807     2.4004  1152.1761 </r>
       <r>     5.9394    10.2257  1154.8220 </r>
       <r>     6.1982    24.6802  1161.2079 </r>
       <r>     6.4569    22.1267  1166.9332 </r>
       <r>     6.7157    18.1083  1171.6187 </r>
       <r>     6.9744    20.1452  1176.8312 </r>
       <r>     7.2332    18.0821  1181.5100 </r>
       <r>     7.4919    31.2326  1189.5914 </r>
       <r>     7.7507    35.9657  1198.8974 </r>
       <r>     8.0094    28.7133  1206.3269 </r>
       <r>     8.2682    41.1760  1216.9812 </r>
       <r>     8.5269    43.0304  1228.1152 </r>
       <r>     8.7857    49.4046  1240.8986 </r>
       <r>     9.0444    40.6008  1251.4040 </r>
       <r>     9.3032    37.3704  1261.0736 </r>
       <r>     9.5619    24.1860  1267.3317 </r>
       <r>     9.8207     2.5620  1267.9946 </r>
       <r>    10.0794     0.0209  1268.0000 </r>
       <r>    10.3382     0.0000  1268.0000 </r>
       <r>    10.5969     0.0000  1268.0000 </r>
       <r>    10.8557     0.0000  1268.0000 </r>
       <r>    11.1144     0.0000  1268.0000 </r>
       <r>    11.3732     0.0000  1268.0000 </r>
       <r>    11.6319     0.0000  1268.0000 </r>
       <r>    11.8907     0.0000  1268.0000 </r>
       <r>    12.1494     0.0000  1268.0000 </r>
       <r>    12.4082     0.0000  1268.0000 </r>
       <r>    12.6669     0.0000  1268.0000 </r>
       <r>    12.9257     0.0000  1268.0000 </r>
      </set>
     </set>
    </array>
   </total>
  </dos>
 </calculation>
 <structure name="finalpos" >
  <crystal>
   <varray name="basis" >
    <v>       6.27856000       0.00000000       0.00000000 </v>
    <v>       2.09285340      11.06019551       0.00000000 </v>
    <v>       0.00000000       0.00000000      29.15682000 </v>
   </varray>
   <i name="volume">   2024.71084344 </i>
   <varray name="rec_basis" >
    <v>       0.15927219      -0.03013811       0.00000000 </v>
    <v>       0.00000000       0.09041431       0.00000000 </v>
    <v>       0.00000000       0.00000000       0.03429729 </v>
   </varray>
  </crystal>
  <varray name="positions" >
   <v>       0.25630944       0.01645859       0.15239349 </v>
   <v>       0.25630944       0.01645859       0.48090702 </v>
   <v>       0.00630944       0.26645858       0.31665025 </v>
   <v>       0.01413213       0.26175715       0.63803443 </v>
   <v>       0.22159646       0.02191352       0.07032352 </v>
   <v>       0.25630944       0.01645859       0.39411177 </v>
   <v>       0.00630944       0.26645858       0.22985501 </v>
   <v>       0.00630944       0.26645858       0.55836854 </v>
   <v>       0.18458766       0.22548685       0.11965931 </v>
   <v>       0.19025794       0.21461308       0.43750940 </v>
   <v>       0.44025794       0.46461308       0.27325263 </v>
   <v>       0.44025794       0.46461308       0.60176617 </v>
   <v>       0.75630944       0.01645859       0.15239349 </v>
   <v>       0.75630944       0.01645859       0.48090702 </v>
   <v>       0.50630944       0.26645858       0.31665025 </v>
   <v>       0.51413213       0.26175715       0.63803443 </v>
   <v>       0.81471156       0.02143992       0.06997261 </v>
   <v>       0.75630944       0.01645859       0.39411177 </v>
   <v>       0.50630944       0.26645858       0.22985501 </v>
   <v>       0.50630944       0.26645858       0.55836854 </v>
   <v>       0.70843742       0.22602950       0.12001639 </v>
   <v>       0.69025794       0.21461308       0.43750940 </v>
   <v>       0.94025794       0.46461308       0.27325263 </v>
   <v>       0.94025794       0.46461308       0.60176617 </v>
   <v>       0.25630944       0.51645859       0.15239349 </v>
   <v>       0.25630944       0.51645859       0.48090702 </v>
   <v>       0.00630944       0.76645858       0.31665025 </v>
   <v>       0.01413213       0.76175715       0.63803443 </v>
   <v>       0.26505614       0.51235185       0.07264255 </v>
   <v>       0.25630944       0.51645859       0.39411177 </v>
   <v>       0.00630944       0.76645858       0.22985501 </v>
   <v>       0.00630944       0.76645858       0.55836854 </v>
   <v>       0.19025794       0.71461308       0.10899586 </v>
   <v>       0.19025794       0.71461308       0.43750940 </v>
   <v>       0.44025794       0.96461308       0.27325263 </v>
   <v>       0.44025794       0.96461308       0.60176617 </v>
   <v>       0.75630944       0.51645859       0.15239349 </v>
   <v>       0.75630944       0.51645859       0.48090702 </v>
   <v>       0.50630944       0.76645858       0.31665025 </v>
   <v>       0.51413213       0.76175715       0.63803443 </v>
   <v>       0.76244864       0.51243049       0.07261941 </v>
   <v>       0.75630944       0.51645859       0.39411177 </v>
   <v>       0.50630944       0.76645858       0.22985501 </v>
   <v>       0.50630944       0.76645858       0.55836854 </v>
   <v>       0.69025794       0.71461308       0.10899586 </v>
   <v>       0.69025794       0.71461308       0.43750940 </v>
   <v>       0.94025794       0.96461308       0.27325263 </v>
   <v>       0.94025794       0.96461308       0.60176617 </v>
   <v>       0.46840410       0.16661759       0.38224849 </v>
   <v>       0.21840410       0.41661758       0.21799173 </v>
   <v>       0.21840410       0.41661758       0.54650526 </v>
   <v>       0.46840410       0.16661759       0.16425677 </v>
   <v>       0.46840410       0.16661759       0.49277030 </v>
   <v>       0.21840410       0.41661758       0.32851354 </v>
   <v>       0.21824764       0.39061227       0.64215907 </v>
   <v>       0.05251161       0.41429508       0.10899586 </v>
   <v>       0.05251161       0.41429508       0.43750940 </v>
   <v>       0.30251160       0.16429509       0.27325263 </v>
   <v>       0.30251160       0.16429509       0.60176617 </v>
   <v>       0.96626182       0.17276049       0.07160886 </v>
   <v>       0.96840410       0.16661759       0.38224849 </v>
   <v>       0.71840410       0.41661758       0.21799173 </v>
   <v>       0.71840410       0.41661758       0.54650526 </v>
   <v>       0.96840410       0.16661759       0.16425677 </v>
   <v>       0.96840410       0.16661759       0.49277030 </v>
   <v>       0.71840410       0.41661758       0.32851354 </v>
   <v>       0.71824764       0.39061227       0.64215907 </v>
   <v>       0.55251161       0.41429508       0.10899586 </v>
   <v>       0.55251161       0.41429508       0.43750940 </v>
   <v>       0.80251160       0.16429509       0.27325263 </v>
   <v>       0.80251160       0.16429509       0.60176617 </v>
   <v>       0.46790392       0.64159502       0.06846582 </v>
   <v>       0.46840411       0.66661759       0.38224849 </v>
   <v>       0.21840411       0.91661758       0.21799173 </v>
   <v>       0.21840411       0.91661758       0.54650526 </v>
   <v>       0.46840411       0.66661759       0.16425677 </v>
   <v>       0.46840411       0.66661759       0.49277030 </v>
   <v>       0.03715059       0.96797723       0.02095656 </v>
   <v>       0.21840411       0.91661758       0.32851354 </v>
   <v>       0.21824764       0.89061227       0.64215907 </v>
   <v>       0.05251161       0.91429508       0.10899586 </v>
   <v>       0.05251161       0.91429508       0.43750940 </v>
   <v>       0.30251161       0.66429509       0.27325263 </v>
   <v>       0.30251161       0.66429509       0.60176617 </v>
   <v>       0.96810605       0.64067891       0.06860607 </v>
   <v>       0.96840411       0.66661759       0.38224849 </v>
   <v>       0.71840411       0.91661758       0.21799173 </v>
   <v>       0.71840411       0.91661758       0.54650526 </v>
   <v>       0.96840411       0.66661759       0.16425677 </v>
   <v>       0.96840411       0.66661759       0.49277030 </v>
   <v>       0.71840411       0.91661758       0.32851354 </v>
   <v>       0.71824764       0.89061227       0.64215907 </v>
   <v>       0.55251161       0.91429508       0.10899586 </v>
   <v>       0.55251161       0.91429508       0.43750940 </v>
   <v>       0.80251161       0.66429509       0.27325263 </v>
   <v>       0.80251161       0.66429509       0.60176617 </v>
  </varray>
 </structure>
</modeling>
