 vasp.6.1.0 28Jan20 (build Mar 31 2020 17:42:31) gamma-only                     
  
 executed on             LinuxIFC date 2020.04.12  22:03:48
 running on   48 total cores
 distrk:  each k-point on   48 cores,    1 groups
 distr:  one band on NCORE=   6 cores,    8 groups


--------------------------------------------------------------------------------------------------------


 INCAR:
 POTCAR:    PAW_PBE Ni_pv 06Sep2000               
 POTCAR:    PAW_PBE S 06Sep2000                   
 POTCAR:    PAW_PBE Ni_pv 06Sep2000               
   VRHFIN =Ni:                                                                                      
   LEXCH  = PE                                                                                      
   EATOM  =  3501.1230 eV,  257.3253 Ry                                                             
                                                                                                    
   TITEL  = PAW_PBE Ni_pv 06Sep2000                                                                 
   LULTRA =        F    use ultrasoft PP ?                                                          
   IUNSCR =        1    unscreen: 0-lin 1-nonlin 2-no                                               
   RPACOR =    1.500    partial core radius                                                         
   POMASS =   58.690; ZVAL   =   16.000    mass and valenz                                          
   RCORE  =    2.000    outmost cutoff radius                                                       
   RWIGS  =    2.000; RWIGS  =    1.058    wigner-seitz radius (au A)                               
   ENMAX  =  367.986; ENMIN  =  275.989 eV                                                          
   RCLOC  =    1.301    cutoff for local pot                                                        
   LCOR   =        T    correct aug charges                                                         
   LPAW   =        T    paw PP                                                                      
   EAUG   =  703.443                                                                                
   DEXC   =    0.000                                                                                
   RMAX   =    2.041    core radius for proj-oper                                                   
   RAUG   =    1.300    factor for augmentation sphere                                              
   RDEP   =    2.103    radius for radial grids                                                     
   RDEPT  =    1.618    core radius for aug-charge                                                  
                                                                                                    
   Atomic configuration                                                                             
    8 entries                                                                                       
     n  l   j            E        occ.                                                              
     1  0  0.50     -8206.4253   2.0000                                                             
     2  0  0.50      -976.1748   2.0000                                                             
     2  1  1.50      -839.0571   6.0000                                                             
     3  0  0.50      -105.9991   2.0000                                                             
     3  1  1.50       -66.4603   6.0000                                                             
     3  2  2.50        -4.6458   9.0000                                                             
     4  0  0.50        -4.4926   1.0000                                                             
     4  3  2.50        -1.3606   0.0000                                                             
   Description                                                                                      
     l       E           TYP  RCUT    TYP  RCUT                                                     
     1    -66.4602962     23  1.700                                                                 
     1     -1.3605826     23  1.700                                                                 
     2     -4.6457867     23  2.000                                                                 
     2     -6.0063693     23  2.000                                                                 
     0     -4.4925576     23  1.900                                                                 
     0     16.3626226     23  1.900                                                                 
  local pseudopotential read in
  partial core-charges read in
  partial kinetic energy density read in
  atomic valenz-charges read in
  non local Contribution for L=           1  read in
    real space projection operators read in
  non local Contribution for L=           1  read in
    real space projection operators read in
  non local Contribution for L=           2  read in
    real space projection operators read in
  non local Contribution for L=           2  read in
    real space projection operators read in
  non local Contribution for L=           0  read in
    real space projection operators read in
  non local Contribution for L=           0  read in
    real space projection operators read in
    PAW grid and wavefunctions read in
 
   number of l-projection  operators is LMAX  =           6
   number of lm-projection operators is LMMAX =          18
 
 POTCAR:    PAW_PBE S 06Sep2000                   
   VRHFIN =S : s2p4                                                                                 
   LEXCH  = PE                                                                                      
   EATOM  =   276.8230 eV,   20.3459 Ry                                                             
                                                                                                    
   TITEL  = PAW_PBE S 06Sep2000                                                                     
   LULTRA =        F    use ultrasoft PP ?                                                          
   IUNSCR =        1    unscreen: 0-lin 1-nonlin 2-no                                               
   RPACOR =    1.500    partial core radius                                                         
   POMASS =   32.066; ZVAL   =    6.000    mass and valenz                                          
   RCORE  =    1.900    outmost cutoff radius                                                       
   RWIGS  =    2.200; RWIGS  =    1.164    wigner-seitz radius (au A)                               
   ENMAX  =  258.689; ENMIN  =  194.016 eV                                                          
   ICORE  =        2    local potential                                                             
   LCOR   =        T    correct aug charges                                                         
   LPAW   =        T    paw PP                                                                      
   EAUG   =  335.092                                                                                
   DEXC   =    0.000                                                                                
   RMAX   =    1.942    core radius for proj-oper                                                   
   RAUG   =    1.300    factor for augmentation sphere                                              
   RDEP   =    1.954    radius for radial grids                                                     
   RDEPT  =    1.744    core radius for aug-charge                                                  
                                                                                                    
   Atomic configuration                                                                             
    6 entries                                                                                       
     n  l   j            E        occ.                                                              
     1  0  0.50     -2405.8406   2.0000                                                             
     2  0  0.50      -211.7007   2.0000                                                             
     2  1  1.50      -156.4958   6.0000                                                             
     3  0  0.50       -17.2562   2.0000                                                             
     3  1  0.50        -7.0085   4.0000                                                             
     3  2  1.50        -6.8029   0.0000                                                             
   Description                                                                                      
     l       E           TYP  RCUT    TYP  RCUT                                                     
     0    -17.2561641     23  1.900                                                                 
     0    -15.8743224     23  1.900                                                                 
     1     -7.0085400     23  1.900                                                                 
     1     -2.7779785     23  1.900                                                                 
     2     -6.8029130     23  1.900                                                                 
  local pseudopotential read in
  partial core-charges read in
  partial kinetic energy density read in
  atomic valenz-charges read in
  non local Contribution for L=           0  read in
    real space projection operators read in
  non local Contribution for L=           0  read in
    real space projection operators read in
  non local Contribution for L=           1  read in
    real space projection operators read in
  non local Contribution for L=           1  read in
    real space projection operators read in
    PAW grid and wavefunctions read in
 
   number of l-projection  operators is LMAX  =           4
   number of lm-projection operators is LMMAX =           8
 
 Optimization of the real space projectors (new method)

 maximal supplied QI-value         = 18.90
 optimisation between [QCUT,QGAM] = [ 10.77, 21.73] = [ 32.49,132.25] Ry 
 Optimized for a Real-space Cutoff    1.38 Angstroem

   l    n(q)    QCUT    max X(q) W(low)/X(q) W(high)/X(q)  e(spline) 
   1      8    10.771     2.836    0.40E-04    0.29E-04    0.12E-06
   1      8    10.771     4.023    0.10E-03    0.48E-04    0.29E-06
   2      8    10.771    73.368    0.42E-03    0.97E-04    0.44E-06
   2      8    10.771    69.010    0.42E-03    0.99E-04    0.45E-06
   0      9    10.771    54.797    0.10E-03    0.56E-04    0.74E-07
   0      9    10.771    24.266    0.89E-04    0.49E-04    0.67E-07
 Optimization of the real space projectors (new method)

 maximal supplied QI-value         = 19.84
 optimisation between [QCUT,QGAM] = [ 10.71, 21.63] = [ 32.15,130.99] Ry 
 Optimized for a Real-space Cutoff    1.19 Angstroem

   l    n(q)    QCUT    max X(q) W(low)/X(q) W(high)/X(q)  e(spline) 
   0      8    10.715   187.594    0.41E-03    0.53E-04    0.66E-07
   0      8    10.715   164.243    0.41E-03    0.53E-04    0.65E-07
   1      7    10.715    67.533    0.19E-03    0.59E-03    0.68E-07
   1      7    10.715    50.729    0.19E-03    0.58E-03    0.67E-07
  PAW_PBE Ni_pv 06Sep2000               :
 energy of atom  1       EATOM=-3501.1230
 kinetic energy error for atom=    0.0925 (will be added to EATOM!!)
  PAW_PBE S 06Sep2000                   :
 energy of atom  2       EATOM= -276.8230
 kinetic energy error for atom=    0.0033 (will be added to EATOM!!)
 
 
 POSCAR: Structure 17 made from 001-2.xsd file
  positions in direct lattice
  No initial velocities read in
 exchange correlation table for  LEXCH =        8
   RHO(1)=    0.500       N(1)  =     2000
   RHO(2)=  100.500       N(2)  =     4000
 


--------------------------------------------------------------------------------------------------------


 ion  position               nearest neighbor table
   1  0.458  0.542  0.077-  32 2.25  37 2.26  47 2.36  38 2.36  10 2.53  19 2.53
   2  0.458  0.542  0.239-  33 2.25  47 2.26  38 2.26  48 2.36  39 2.36  11 2.53  20 2.53
   3  0.458  0.542  0.400-  34 2.25  48 2.26  39 2.26  49 2.36  40 2.36  12 2.53  21 2.53
   4  0.125  0.875  0.131-  35 2.25  41 2.26  50 2.36  42 2.36  13 2.53  22 2.53
   5  0.125  0.875  0.292-  36 2.25  50 2.26  42 2.26  51 2.36  43 2.36  14 2.53  23 2.53
   6  0.125  0.875  0.454-  51 2.26  43 2.26  15 2.53  24 2.53
   7  0.792  0.208  0.023-  28 2.25  52 2.36  44 2.36  16 2.53  25 2.53
   8  0.792  0.208  0.185-  29 2.25  52 2.26  44 2.26  53 2.36  45 2.36  17 2.53  26 2.53
   9  0.792  0.208  0.346-  30 2.25  53 2.26  45 2.26  54 2.36  46 2.36  18 2.53  27 2.53
  10  0.458  0.277  0.077-  41 2.25  28 2.26  47 2.36  29 2.36   1 2.53  19 2.53
  11  0.458  0.277  0.239-  42 2.25  47 2.26  29 2.26  48 2.36  30 2.36   2 2.53  20 2.53
  12  0.458  0.277  0.400-  43 2.25  48 2.26  30 2.26  49 2.36  31 2.36   3 2.53  21 2.53
  13  0.125  0.611  0.131-  44 2.25  32 2.26  50 2.36  33 2.36   4 2.53  22 2.53
  14  0.125  0.611  0.292-  45 2.25  50 2.26  33 2.26  51 2.36  34 2.36   5 2.53  23 2.53
  15  0.125  0.611  0.454-  46 2.25  51 2.26  34 2.26   6 2.53  24 2.53
  16  0.792  0.944  0.023-  37 2.25  52 2.36  35 2.36   7 2.53  25 2.53
  17  0.792  0.944  0.185-  38 2.25  52 2.26  35 2.26  53 2.36  36 2.36   8 2.53  26 2.53
  18  0.792  0.944  0.346-  39 2.25  53 2.26  36 2.26  54 2.36   9 2.53  27 2.53
  19  0.723  0.542  0.077-  28 2.26  37 2.26  29 2.36  38 2.36   1 2.53  10 2.53
  20  0.723  0.542  0.239-  50 2.25  38 2.26  29 2.26  30 2.36  39 2.36  11 2.53   2 2.53
  21  0.723  0.542  0.400-  51 2.25  39 2.26  30 2.26  40 2.36  31 2.36  12 2.53   3 2.53
  22  0.389  0.875  0.131-  52 2.25  41 2.26  32 2.26  42 2.36  33 2.36  13 2.53   4 2.53
  23  0.389  0.875  0.292-  53 2.25  42 2.26  33 2.26  34 2.36  43 2.36  14 2.53   5 2.53
  24  0.389  0.875  0.454-  54 2.25  34 2.26  43 2.26  15 2.53   6 2.53
  25  0.056  0.208  0.023-  35 2.36  44 2.36   7 2.53  16 2.53
  26  0.056  0.208  0.185-  47 2.25  35 2.26  44 2.26  36 2.36  45 2.36  17 2.53   8 2.53
  27  0.056  0.208  0.346-  48 2.25  45 2.26  36 2.26  46 2.36   9 2.53  18 2.53
  28  0.659  0.341  0.000-   7 2.25  19 2.26  10 2.26
  29  0.659  0.341  0.162-   8 2.25  20 2.26  11 2.26  19 2.36  10 2.36
  30  0.659  0.341  0.323-   9 2.25  21 2.26  12 2.26  20 2.36  11 2.36
  31  0.659  0.341  0.485-  21 2.36  12 2.36
  32  0.325  0.675  0.054-   1 2.25  22 2.26  13 2.26
  33  0.325  0.675  0.216-   2 2.25  23 2.26  14 2.26  22 2.36  13 2.36
  34  0.325  0.675  0.377-   3 2.25  24 2.26  15 2.26  23 2.36  14 2.36
  35  0.992  0.008  0.108-   4 2.25  26 2.26  17 2.26  25 2.36  16 2.36
  36  0.992  0.008  0.269-   5 2.25  27 2.26  18 2.26  26 2.36  17 2.36
  37  0.659  0.678  0.000-  16 2.25  19 2.26   1 2.26
  38  0.659  0.678  0.162-  17 2.25  20 2.26   2 2.26  19 2.36   1 2.36
  39  0.659  0.678  0.323-  18 2.25  21 2.26   3 2.26  20 2.36   2 2.36
  40  0.659  0.678  0.485-  21 2.36   3 2.36
  41  0.325  0.011  0.054-  10 2.25  22 2.26   4 2.26
  42  0.325  0.011  0.216-  11 2.25  23 2.26   5 2.26  22 2.36   4 2.36
  43  0.325  0.011  0.377-  12 2.25  24 2.26   6 2.26  23 2.36   5 2.36
  44  0.992  0.344  0.108-  13 2.25  26 2.26   8 2.26  25 2.36   7 2.36
  45  0.992  0.344  0.269-  14 2.25  27 2.26   9 2.26  26 2.36   8 2.36
  46  0.992  0.344  0.431-  15 2.25  27 2.36   9 2.36
  47  0.322  0.341  0.162-  26 2.25  11 2.26   2 2.26   1 2.36  10 2.36
  48  0.322  0.341  0.323-  27 2.25  12 2.26   3 2.26   2 2.36  11 2.36
  49  0.322  0.341  0.485-   3 2.36  12 2.36
  50  0.989  0.675  0.216-  20 2.25  14 2.26   5 2.26   4 2.36  13 2.36
  51  0.989  0.675  0.377-  21 2.25  15 2.26   6 2.26   5 2.36  14 2.36
  52  0.656  0.008  0.108-  22 2.25  17 2.26   8 2.26   7 2.36  16 2.36
  53  0.656  0.008  0.269-  23 2.25  18 2.26   9 2.26   8 2.36  17 2.36
  54  0.656  0.008  0.431-  24 2.25  18 2.36   9 2.36
 
  LATTYP: Found a hexagonal cell.
 ALAT       =     9.5784100000
 C/A-ratio  =     2.0272508694
  
  Lattice vectors:
  
 A1 = (   8.2951463879,  -4.7892050000,   0.0000000000)
 A2 = (   0.0000000000,   9.5784100000,   0.0000000000)
 A3 = (   0.0000000000,   0.0000000000,  19.4178400000)


Analysis of symmetry for initial positions (statically):
=====================================================================
 Subroutine PRICEL returns:
 Original cell was already a primitive cell.
 

 Routine SETGRP: Setting up the symmetry group for a 
 hexagonal supercell.


 Subroutine GETGRP returns: Found  1 space group operations
 (whereof  1 operations were pure point group operations)
 out of a pool of 24 trial point group operations.


The static configuration has the point symmetry C_1 .


Analysis of symmetry for dynamics (positions and initial velocities):
=====================================================================
 Subroutine PRICEL returns:
 Original cell was already a primitive cell.
 

 Routine SETGRP: Setting up the symmetry group for a 
 hexagonal supercell.


 Subroutine GETGRP returns: Found  1 space group operations
 (whereof  1 operations were pure point group operations)
 out of a pool of 24 trial point group operations.


The dynamic configuration has the point symmetry C_1 .


 Subroutine INISYM returns: Found  1 space group operations
 (whereof  1 operations are pure point group operations),
 and found     1 'primitive' translations


----------------------------------------------------------------------------------------

                                     Primitive cell                                     

  volume of cell :    1542.8311

  direct lattice vectors                    reciprocal lattice vectors
     8.295146388 -4.789205000  0.000000000     0.120552423  0.000000000  0.000000000
     0.000000000  9.578410000  0.000000000     0.060276212  0.104401461  0.000000000
     0.000000000  0.000000000 19.417840000     0.000000000  0.000000000  0.051499034

  length of vectors
     9.578410000  9.578410000 19.417840000     0.120552423  0.120552423  0.051499034

  position of ions in fractional coordinates (direct lattice)
     0.458432433  0.541567567  0.076907120
     0.458432433  0.541567567  0.238577007
     0.458432433  0.541567567  0.400246894
     0.125099100  0.874900900  0.130797082
     0.125099100  0.874900900  0.292466969
     0.125099100  0.874900900  0.454136856
     0.791765767  0.208234233  0.023017157
     0.791765767  0.208234233  0.184687044
     0.791765767  0.208234233  0.346356932
     0.458432433  0.277361567  0.076907120
     0.458432433  0.277361567  0.238577007
     0.458432433  0.277361567  0.400246894
     0.125099100  0.610694900  0.130797082
     0.125099100  0.610694900  0.292466969
     0.125099100  0.610694900  0.454136856
     0.791765767  0.944028233  0.023017157
     0.791765767  0.944028233  0.184687044
     0.791765767  0.944028233  0.346356932
     0.722638433  0.541567567  0.076907120
     0.722638433  0.541567567  0.238577007
     0.722638433  0.541567567  0.400246894
     0.389305100  0.874900900  0.130797082
     0.389305100  0.874900900  0.292466969
     0.389305100  0.874900900  0.454136856
     0.055971767  0.208234233  0.023017157
     0.055971767  0.208234233  0.184687044
     0.055971767  0.208234233  0.346356932
     0.658644433  0.341355567  0.000000000
     0.658644433  0.341355567  0.161669887
     0.658644433  0.341355567  0.323339774
     0.658644433  0.341355567  0.485009661
     0.325311100  0.674688900  0.053889962
     0.325311100  0.674688900  0.215559849
     0.325311100  0.674688900  0.377229737
     0.991977767  0.008022233  0.107779925
     0.991977767  0.008022233  0.269449812
     0.658644433  0.677785567  0.000000000
     0.658644433  0.677785567  0.161669887
     0.658644433  0.677785567  0.323339774
     0.658644433  0.677785567  0.485009661
     0.325311100  0.011118900  0.053889962
     0.325311100  0.011118900  0.215559849
     0.325311100  0.011118900  0.377229737
     0.991977767  0.344452233  0.107779925
     0.991977767  0.344452233  0.269449812
     0.991977767  0.344452233  0.431119699
     0.322214433  0.341355567  0.161669887
     0.322214433  0.341355567  0.323339774
     0.322214433  0.341355567  0.485009661
     0.988881100  0.674688900  0.215559849
     0.988881100  0.674688900  0.377229737
     0.655547767  0.008022233  0.107779925
     0.655547767  0.008022233  0.269449812
     0.655547767  0.008022233  0.431119699

  ion indices of the primitive-cell ions
   primitive index   ion index
                 1           1
                 2           2
                 3           3
                 4           4
                 5           5
                 6           6
                 7           7
                 8           8
                 9           9
                10          10
                11          11
                12          12
                13          13
                14          14
                15          15
                16          16
                17          17
                18          18
                19          19
                20          20
                21          21
                22          22
                23          23
                24          24
                25          25
                26          26
                27          27
                28          28
                29          29
                30          30
                31          31
                32          32
                33          33
                34          34
                35          35
                36          36
                37          37
                38          38
                39          39
                40          40
                41          41
                42          42
                43          43
                44          44
                45          45
                46          46
                47          47
                48          48
                49          49
                50          50
                51          51
                52          52
                53          53
                54          54

----------------------------------------------------------------------------------------

 
 
 KPOINTS: gamma-point-only calculation. no periodi

Automatic generation of k-mesh.
Space group operators:
 irot       det(A)        alpha          n_x          n_y          n_z        tau_x        tau_y        tau_z
    1     1.000000     0.000001     1.000000     0.000000     0.000000     0.000000     0.000000     0.000000
 
 Subroutine IBZKPT returns following result:
 ===========================================
 
 Found      1 irreducible k-points:
 
 Following reciprocal coordinates:
            Coordinates               Weight
  0.000000  0.000000  0.000000      1.000000
 
 Following cartesian coordinates:
            Coordinates               Weight
  0.000000  0.000000  0.000000      1.000000
 


--------------------------------------------------------------------------------------------------------




 Dimension of arrays:
   k-points           NKPTS =      1   k-points in BZ     NKDIM =      1   number of bands    NBANDS=    360
   number of dos      NEDOS =    301   number of ions     NIONS =     54
   non local maximal  LDIM  =      6   non local SUM 2l+1 LMDIM =     18
   total plane-waves  NPLWV = 270000
   max r-space proj   IRMAX =   1980   max aug-charges    IRDMAX=   5712
   dimension x,y,z NGX =    50 NGY =   50 NGZ =  108
   dimension x,y,z NGXF=   100 NGYF=  100 NGZF=  216
   support grid    NGXF=   100 NGYF=  100 NGZF=  216
   ions per type =              27  27
   NGX,Y,Z   is equivalent  to a cutoff of   8.68,  8.68,  9.25 a.u.
   NGXF,Y,Z  is equivalent  to a cutoff of  17.36, 17.36, 18.49 a.u.

 SYSTEM =  "Millerite NiS"                         
 POSCAR =  Structure 17 made from 001-2.xsd file   

 Startparameter for this run:
   NWRITE =      2    write-flag & timer
   PREC   = normal    normal or accurate (medium, high low for compatibility)
   ISTART =      0    job   : 0-new  1-cont  2-samecut
   ICHARG =      2    charge: 1-file 2-atom 10-const
   ISPIN  =      1    spin polarized calculation?
   LNONCOLLINEAR =      F non collinear calculations
   LSORBIT =      F    spin-orbit coupling
   INIWAV =      1    electr: 0-lowe 1-rand  2-diag
   LASPH  =      F    aspherical Exc in radial PAW
   METAGGA=      F    non-selfconsistent MetaGGA calc.

 Electronic Relaxation 1
   ENCUT  =  450.0 eV  33.07 Ry    5.75 a.u.  16.57 16.57 33.59*2*pi/ulx,y,z
   ENINI  =  450.0     initial cutoff
   ENAUG  =  703.4 eV  augmentation charge cutoff
   NELM   =    100;   NELMIN=  2; NELMDL= -5     # of ELM steps 
   EDIFF  = 0.1E-03   stopping-criterion for ELM
   LREAL  =      T    real-space projection
   NLSPLINE    = F    spline interpolate recip. space projectors
   LCOMPAT=      F    compatible to vasp.4.4
   GGA_COMPAT  = T    GGA compatible to vasp.4.4-vasp.4.6
   LMAXPAW     = -100 max onsite density
   LMAXMIX     =    2 max onsite mixed and CHGCAR
   VOSKOWN=      0    Vosko Wilk Nusair interpolation
   ROPT   =   -0.00050  -0.00050
 Ionic relaxation
   EDIFFG = 0.1E-02   stopping-criterion for IOM
   NSW    =      0    number of steps for IOM
   NBLOCK =      1;   KBLOCK =      1    inner block; outer block 
   IBRION =     -1    ionic relax: 0-MD 1-quasi-New 2-CG
   NFREE  =      0    steps in history (QN), initial steepest desc. (CG)
   ISIF   =      2    stress and relaxation
   IWAVPR =     10    prediction:  0-non 1-charg 2-wave 3-comb
   ISYM   =      2    0-nonsym 1-usesym 2-fastsym
   LCORR  =      T    Harris-Foulkes like correction to forces

   POTIM  = 0.5000    time-step for ionic-motion
   TEIN   =    0.0    initial temperature
   TEBEG  =    0.0;   TEEND  =   0.0 temperature during run
   SMASS  =  -3.00    Nose mass-parameter (am)
   estimated Nose-frequenzy (Omega)   =  0.10E-29 period in steps = 0.13E+47 mass=  -0.210E-26a.u.
   SCALEE = 1.0000    scale energy and forces
   NPACO  =    256;   APACO  = 16.0  distance and # of slots for P.C.
   PSTRESS=    0.0 pullay stress

  Mass of Ions in am
   POMASS =  58.69 32.07
  Ionic Valenz
   ZVAL   =  16.00  6.00
  Atomic Wigner-Seitz radii
   RWIGS  =  -1.00 -1.00
  virtual crystal weights 
   VCA    =   1.00  1.00
   NELECT =     594.0000    total number of electrons
   NUPDOWN=      -1.0000    fix difference up-down

 DOS related values:
   EMIN   =  10.00;   EMAX   =-10.00  energy-range for DOS
   EFERMI =   0.00
   ISMEAR =     0;   SIGMA  =   0.20  broadening in eV -4-tet -1-fermi 0-gaus

 Electronic relaxation 2 (details)
   IALGO  =     38    algorithm
   LDIAG  =      T    sub-space diagonalisation (order eigenvalues)
   LSUBROT=      F    optimize rotation matrix (better conditioning)
   TURBO    =      0    0=normal 1=particle mesh
   IRESTART =      0    0=no restart 2=restart with 2 vectors
   NREBOOT  =      0    no. of reboots
   NMIN     =      0    reboot dimension
   EREF     =   0.00    reference energy to select bands
   IMIX   =      4    mixing-type and parameters
     AMIX     =   0.40;   BMIX     =  1.00
     AMIX_MAG =   1.60;   BMIX_MAG =  1.00
     AMIN     =   0.10
     WC   =   100.;   INIMIX=   1;  MIXPRE=   1;  MAXMIX= -45

 Intra band minimization:
   WEIMIN = 0.0000     energy-eigenvalue tresh-hold
   EBREAK =  0.69E-07  absolut break condition
   DEPER  =   0.30     relativ break condition  

   TIME   =   0.40     timestep for ELM

  volume/ion in A,a.u.               =      28.57       192.81
  Fermi-wavevector in a.u.,A,eV,Ry     =   1.190961  2.250590 19.298339  1.418388
  Thomas-Fermi vector in A             =   2.327034
 
 Write flags
   LWAVE        =      F    write WAVECAR
   LDOWNSAMPLE  =      F    k-point downsampling of WAVECAR
   LCHARG       =      F    write CHGCAR
   LVTOT        =      F    write LOCPOT, total local potential
   LVHAR        =      F    write LOCPOT, Hartree potential only
   LELF         =      F    write electronic localiz. function (ELF)
   LORBIT       =      0    0 simple, 1 ext, 2 COOP (PROOUT), +10 PAW based schemes


 Dipole corrections
   LMONO  =      F    monopole corrections only (constant potential shift)
   LDIPOL =      F    correct potential (dipole corrections)
   IDIPOL =      0    1-x, 2-y, 3-z, 4-all directions 
   EPSILON=  1.0000000 bulk dielectric constant

 Exchange correlation treatment:
   GGA     =    --    GGA type
   LEXCH   =     8    internal setting for exchange type
   VOSKOWN=      0    Vosko Wilk Nusair interpolation
   LHFCALC =     F    Hartree Fock is set to
   LHFONE  =     F    Hartree Fock one center treatment
   AEXX    =    0.0000 exact exchange contribution

 Linear response parameters
   LEPSILON=     F    determine dielectric tensor
   LRPA    =     F    only Hartree local field effects (RPA)
   LNABLA  =     F    use nabla operator in PAW spheres
   LVEL    =     F    velocity operator in full k-point grid
   LINTERFAST=   F  fast interpolation
   KINTER  =     0    interpolate to denser k-point grid
   CSHIFT  =0.1000    complex shift for real part using Kramers Kronig
   OMEGAMAX=  -1.0    maximum frequency
   DEG_THRESHOLD= 0.2000000E-02 threshold for treating states as degnerate
   RTIME   =   -0.100 relaxation time in fs
  (WPLASMAI=    0.000 imaginary part of plasma frequency in eV, 0.658/RTIME)
   DFIELD  = 0.0000000 0.0000000 0.0000000 field for delta impulse in time
 
 Orbital magnetization related:
   ORBITALMAG=     F  switch on orbital magnetization
   LCHIMAG   =     F  perturbation theory with respect to B field
   DQ        =  0.001000  dq finite difference perturbation B field
   LLRAUG    =     F  two centre corrections for induced B field



--------------------------------------------------------------------------------------------------------


 Static calculation
 charge density and potential will be updated during run
 non-spin polarized calculation
 Variant of blocked Davidson
 Davidson routine will perform the subspace rotation
 perform sub-space diagonalisation
    after iterative eigenvector-optimisation
 modified Broyden-mixing scheme, WC =      100.0
 initial mixing is a Kerker type mixing with AMIX =  0.4000 and BMIX =      1.0000
 Hartree-type preconditioning will be used
 using additional bands           63
 real space projection scheme for non local part
 use partial core corrections
 calculate Harris-corrections to forces 
   (improved forces if not selfconsistent)
 use gradient corrections 
 use of overlap-Matrix (Vanderbilt PP)
 Gauss-broadening in eV      SIGMA  =   0.20


--------------------------------------------------------------------------------------------------------


  energy-cutoff  :      450.00
  volume of cell :     1542.83
      direct lattice vectors                 reciprocal lattice vectors
     8.295146388 -4.789205000  0.000000000     0.120552423  0.000000000  0.000000000
     0.000000000  9.578410000  0.000000000     0.060276212  0.104401461  0.000000000
     0.000000000  0.000000000 19.417840000     0.000000000  0.000000000  0.051499034

  length of vectors
     9.578410000  9.578410000 19.417840000     0.120552423  0.120552423  0.051499034


 
 k-points in units of 2pi/SCALE and weight: gamma-point-only calculation. no periodi
   0.00000000  0.00000000  0.00000000       1.000
 
 k-points in reciprocal lattice and weights: gamma-point-only calculation. no periodi
   0.00000000  0.00000000  0.00000000       1.000
 
 position of ions in fractional coordinates (direct lattice) 
   0.45843243  0.54156757  0.07690712
   0.45843243  0.54156757  0.23857701
   0.45843243  0.54156757  0.40024689
   0.12509910  0.87490090  0.13079708
   0.12509910  0.87490090  0.29246697
   0.12509910  0.87490090  0.45413686
   0.79176577  0.20823423  0.02301716
   0.79176577  0.20823423  0.18468704
   0.79176577  0.20823423  0.34635693
   0.45843243  0.27736157  0.07690712
   0.45843243  0.27736157  0.23857701
   0.45843243  0.27736157  0.40024689
   0.12509910  0.61069490  0.13079708
   0.12509910  0.61069490  0.29246697
   0.12509910  0.61069490  0.45413686
   0.79176577  0.94402823  0.02301716
   0.79176577  0.94402823  0.18468704
   0.79176577  0.94402823  0.34635693
   0.72263843  0.54156757  0.07690712
   0.72263843  0.54156757  0.23857701
   0.72263843  0.54156757  0.40024689
   0.38930510  0.87490090  0.13079708
   0.38930510  0.87490090  0.29246697
   0.38930510  0.87490090  0.45413686
   0.05597177  0.20823423  0.02301716
   0.05597177  0.20823423  0.18468704
   0.05597177  0.20823423  0.34635693
   0.65864443  0.34135557  0.00000000
   0.65864443  0.34135557  0.16166989
   0.65864443  0.34135557  0.32333977
   0.65864443  0.34135557  0.48500966
   0.32531110  0.67468890  0.05388996
   0.32531110  0.67468890  0.21555985
   0.32531110  0.67468890  0.37722974
   0.99197777  0.00802223  0.10777993
   0.99197777  0.00802223  0.26944981
   0.65864443  0.67778557  0.00000000
   0.65864443  0.67778557  0.16166989
   0.65864443  0.67778557  0.32333977
   0.65864443  0.67778557  0.48500966
   0.32531110  0.01111890  0.05388996
   0.32531110  0.01111890  0.21555985
   0.32531110  0.01111890  0.37722974
   0.99197777  0.34445223  0.10777993
   0.99197777  0.34445223  0.26944981
   0.99197777  0.34445223  0.43111970
   0.32221443  0.34135557  0.16166989
   0.32221443  0.34135557  0.32333977
   0.32221443  0.34135557  0.48500966
   0.98888110  0.67468890  0.21555985
   0.98888110  0.67468890  0.37722974
   0.65554777  0.00802223  0.10777993
   0.65554777  0.00802223  0.26944981
   0.65554777  0.00802223  0.43111970
 
 position of ions in cartesian coordinates  (Angst):
   3.80276414  2.99182930  1.49337015
   3.80276414  2.99182930  4.63265015
   3.80276414  2.99182930  7.77193015
   1.03771535  7.78103429  2.53979681
   1.03771535  7.78103429  5.67907681
   1.03771535  7.78103429  8.81835681
   6.56781294 -1.79737571  0.44694347
   6.56781294 -1.79737571  3.58622347
   6.56781294 -1.79737571  6.72550349
   3.80276414  0.46115591  1.49337015
   3.80276414  0.46115591  4.63265015
   3.80276414  0.46115591  7.77193015
   1.03771535  5.25036090  2.53979681
   1.03771535  5.25036090  5.67907681
   1.03771535  5.25036090  8.81835681
   6.56781294  5.25036090  0.44694347
   6.56781294  5.25036090  3.58622347
   6.56781294  5.25036090  6.72550349
   5.99439159  1.72649260  1.49337015
   5.99439159  1.72649260  4.63265015
   5.99439159  1.72649260  7.77193015
   3.22934279  6.51569760  2.53979681
   3.22934279  6.51569760  5.67907681
   3.22934279  6.51569760  8.81835681
   0.46429400  1.72649259  0.44694347
   0.46429400  1.72649259  3.58622347
   0.46429400  1.72649259  6.72550349
   5.46355199  0.11526036  0.00000000
   5.46355199  0.11526036  3.13928000
   5.46355199  0.11526036  6.27856000
   5.46355199  0.11526036  9.41784000
   2.69850320  4.90446536  1.04642666
   2.69850320  4.90446536  4.18570666
   2.69850320  4.90446536  7.32498668
   8.22860079 -4.67394464  2.09285334
   8.22860079 -4.67394464  5.23213334
   5.46355199  3.33772484  0.00000000
   5.46355199  3.33772484  3.13928000
   5.46355199  3.33772484  6.27856000
   5.46355199  3.33772484  9.41784000
   2.69850320 -1.45148016  1.04642666
   2.69850320 -1.45148016  4.18570666
   2.69850320 -1.45148016  7.32498668
   8.22860079 -1.45148017  2.09285334
   8.22860079 -1.45148017  5.23213334
   8.22860079 -1.45148017  8.37141334
   2.67281589  1.72649260  3.13928000
   2.67281589  1.72649260  6.27856000
   2.67281589  1.72649260  9.41784000
   8.20291348  1.72649260  4.18570666
   8.20291348  1.72649260  7.32498668
   5.43786469 -3.06271241  2.09285334
   5.43786469 -3.06271241  5.23213334
   5.43786469 -3.06271241  8.37141334
 


--------------------------------------------------------------------------------------------------------


 use parallel FFT for orbitals z direction half grid
 k-point   1 :   0.0000 0.0000 0.0000  plane waves:   16750

 maximum and minimum number of plane-waves per node :      2794     2790

 maximum number of plane-waves:     16750
 maximum index in each direction: 
   IXMAX=   16   IYMAX=   16   IZMAX=   33
   IXMIN=  -16   IYMIN=  -16   IZMIN=    0


 real space projection operators:
  total allocation   :       9132.36 KBytes
  max/ min on nodes  :       1632.56       1462.67


 parallel 3D FFT for wavefunctions:
    minimum data exchange during FFTs selected (reduces bandwidth)
 parallel 3D FFT for charge:
    minimum data exchange during FFTs selected (reduces bandwidth)


 total amount of memory used by VASP MPI-rank0    42815. kBytes
=======================================================================

   base      :      30000. kBytes
   nonlr-proj:       1986. kBytes
   fftplans  :       3094. kBytes
   grid      :       5604. kBytes
   one-center:         69. kBytes
   wavefun   :       2062. kBytes
 
     INWAV:  cpu time    0.0000: real time    0.0000
 Broyden mixing: mesh for mixing (old mesh)
   NGX = 33   NGY = 33   NGZ = 67
  (NGX  =100   NGY  =100   NGZ  =216)
  gives a total of  72963 points

 initial charge density was supplied:
 charge density of overlapping atoms calculated
 number of electron     594.0000000 magnetization 
 keeping initial charge density in first step


--------------------------------------------------------------------------------------------------------


 Maximum index for non-local projection operator          409
 Maximum index for augmentation-charges          663 (set IRDMAX)


--------------------------------------------------------------------------------------------------------


 First call to EWALD:  gamma=   0.153
 Maximum number of real-space cells 4x 4x 2
 Maximum number of reciprocal cells 2x 2x 4

    FEWALD:  cpu time    0.0028: real time    0.0030


--------------------------------------- Iteration      1(   1)  ---------------------------------------


    POTLOK:  cpu time    0.0385: real time    0.0388
    SETDIJ:  cpu time    0.0049: real time    0.0050
     EDDAV:  cpu time    1.1353: real time    1.1403
       DOS:  cpu time    0.0008: real time    0.0009
    --------------------------------------------
      LOOP:  cpu time    1.1795: real time    1.1850

 eigenvalue-minimisations  :   880
 total energy-change (2. order) : 0.7142216E+04  (-0.3807865E+05)
 number of electron     594.0000000 magnetization 
 augmentation part      594.0000000 magnetization 

 Free energy of the ion-electron system (eV)
  ---------------------------------------------------
  alpha Z        PSCENC =      1356.23626288
  Ewald energy   TEWEN  =    112516.90257262
  -Hartree energ DENC   =   -204217.80128731
  -exchange      EXHF   =         0.00000000
  -V(xc)+E(xc)   XCENC  =      2736.44486787
  PAW double counting   =     84547.15000061   -88231.13391551
  entropy T*S    EENTRO =        -0.31063442
  eigenvalues    EBANDS =     -3567.22582487
  atomic energy  EATOM  =    102001.95379032
  Solvation  Ediel_sol  =         0.00000000
  ---------------------------------------------------
  free energy    TOTEN  =      7142.21583220 eV

  energy without entropy =     7142.52646662  energy(sigma->0) =     7142.37114941


--------------------------------------------------------------------------------------------------------




--------------------------------------- Iteration      1(   2)  ---------------------------------------


     EDDAV:  cpu time    0.9930: real time    0.9985
       DOS:  cpu time    0.0006: real time    0.0005
    --------------------------------------------
      LOOP:  cpu time    0.9936: real time    0.9990

 eigenvalue-minimisations  :   760
 total energy-change (2. order) :-0.6708748E+04  (-0.6472745E+04)
 number of electron     594.0000000 magnetization 
 augmentation part      594.0000000 magnetization 

 Free energy of the ion-electron system (eV)
  ---------------------------------------------------
  alpha Z        PSCENC =      1356.23626288
  Ewald energy   TEWEN  =    112516.90257262
  -Hartree energ DENC   =   -204217.80128731
  -exchange      EXHF   =         0.00000000
  -V(xc)+E(xc)   XCENC  =      2736.44486787
  PAW double counting   =     84547.15000061   -88231.13391551
  entropy T*S    EENTRO =        -0.69855147
  eigenvalues    EBANDS =    -10275.58635653
  atomic energy  EATOM  =    102001.95379032
  Solvation  Ediel_sol  =         0.00000000
  ---------------------------------------------------
  free energy    TOTEN  =       433.46738348 eV

  energy without entropy =      434.16593496  energy(sigma->0) =      433.81665922


--------------------------------------------------------------------------------------------------------




--------------------------------------- Iteration      1(   3)  ---------------------------------------


     EDDAV:  cpu time    1.0895: real time    1.0937
       DOS:  cpu time    0.0005: real time    0.0005
    --------------------------------------------
      LOOP:  cpu time    1.0900: real time    1.0942

 eigenvalue-minimisations  :   832
 total energy-change (2. order) :-0.6918715E+03  (-0.6518779E+03)
 number of electron     594.0000000 magnetization 
 augmentation part      594.0000000 magnetization 

 Free energy of the ion-electron system (eV)
  ---------------------------------------------------
  alpha Z        PSCENC =      1356.23626288
  Ewald energy   TEWEN  =    112516.90257262
  -Hartree energ DENC   =   -204217.80128731
  -exchange      EXHF   =         0.00000000
  -V(xc)+E(xc)   XCENC  =      2736.44486787
  PAW double counting   =     84547.15000061   -88231.13391551
  entropy T*S    EENTRO =        -1.03445081
  eigenvalues    EBANDS =    -10967.12199691
  atomic energy  EATOM  =    102001.95379032
  Solvation  Ediel_sol  =         0.00000000
  ---------------------------------------------------
  free energy    TOTEN  =      -258.40415623 eV

  energy without entropy =     -257.36970542  energy(sigma->0) =     -257.88693083


--------------------------------------------------------------------------------------------------------




--------------------------------------- Iteration      1(   4)  ---------------------------------------


     EDDAV:  cpu time    1.0831: real time    1.0879
       DOS:  cpu time    0.0005: real time    0.0005
    --------------------------------------------
      LOOP:  cpu time    1.0836: real time    1.0884

 eigenvalue-minimisations  :   848
 total energy-change (2. order) :-0.4366856E+02  (-0.4317171E+02)
 number of electron     594.0000000 magnetization 
 augmentation part      594.0000000 magnetization 

 Free energy of the ion-electron system (eV)
  ---------------------------------------------------
  alpha Z        PSCENC =      1356.23626288
  Ewald energy   TEWEN  =    112516.90257262
  -Hartree energ DENC   =   -204217.80128731
  -exchange      EXHF   =         0.00000000
  -V(xc)+E(xc)   XCENC  =      2736.44486787
  PAW double counting   =     84547.15000061   -88231.13391551
  entropy T*S    EENTRO =        -1.07285211
  eigenvalues    EBANDS =    -11010.75215180
  atomic energy  EATOM  =    102001.95379032
  Solvation  Ediel_sol  =         0.00000000
  ---------------------------------------------------
  free energy    TOTEN  =      -302.07271242 eV

  energy without entropy =     -300.99986031  energy(sigma->0) =     -301.53628637


--------------------------------------------------------------------------------------------------------




--------------------------------------- Iteration      1(   5)  ---------------------------------------


     EDDAV:  cpu time    1.1696: real time    1.1724
       DOS:  cpu time    0.0005: real time    0.0005
    CHARGE:  cpu time    0.0294: real time    0.0295
    MIXING:  cpu time    0.0021: real time    0.0024
    --------------------------------------------
      LOOP:  cpu time    1.2016: real time    1.2048

 eigenvalue-minimisations  :   936
 total energy-change (2. order) :-0.1470755E+01  (-0.1468446E+01)
 number of electron     593.9999705 magnetization 
 augmentation part      213.8662427 magnetization 

 Broyden mixing:
  rms(total) = 0.71780E+01    rms(broyden)= 0.71667E+01
  rms(prec ) = 0.76345E+01
  weight for this iteration     100.00

 Free energy of the ion-electron system (eV)
  ---------------------------------------------------
  alpha Z        PSCENC =      1356.23626288
  Ewald energy   TEWEN  =    112516.90257262
  -Hartree energ DENC   =   -204217.80128731
  -exchange      EXHF   =         0.00000000
  -V(xc)+E(xc)   XCENC  =      2736.44486787
  PAW double counting   =     84547.15000061   -88231.13391551
  entropy T*S    EENTRO =        -1.06177806
  eigenvalues    EBANDS =    -11012.23398111
  atomic energy  EATOM  =    102001.95379032
  Solvation  Ediel_sol  =         0.00000000
  ---------------------------------------------------
  free energy    TOTEN  =      -303.54346769 eV

  energy without entropy =     -302.48168962  energy(sigma->0) =     -303.01257865


--------------------------------------------------------------------------------------------------------




--------------------------------------- Iteration      1(   6)  ---------------------------------------


    POTLOK:  cpu time    0.0373: real time    0.0374
    SETDIJ:  cpu time    0.0043: real time    0.0060
     EDDAV:  cpu time    1.0737: real time    1.0764
       DOS:  cpu time    0.0006: real time    0.0006
    CHARGE:  cpu time    0.0282: real time    0.0283
    MIXING:  cpu time    0.0017: real time    0.0018
    --------------------------------------------
      LOOP:  cpu time    1.1458: real time    1.1504

 eigenvalue-minimisations  :   848
 total energy-change (2. order) :-0.8447244E+02  (-0.7626040E+02)
 number of electron     593.9999589 magnetization 
 augmentation part      266.7933324 magnetization 

 Broyden mixing:
  rms(total) = 0.15014E+02    rms(broyden)= 0.15011E+02
  rms(prec ) = 0.15770E+02
  weight for this iteration     100.00

 eigenvalues of (default mixing * dielectric matrix)
  average eigenvalue GAMMA=   0.2056
  0.2056

 Free energy of the ion-electron system (eV)
  ---------------------------------------------------
  alpha Z        PSCENC =      1356.23626288
  Ewald energy   TEWEN  =    112516.90257262
  -Hartree energ DENC   =   -201950.97608780
  -exchange      EXHF   =         0.00000000
  -V(xc)+E(xc)   XCENC  =      2676.98881259
  PAW double counting   =     85599.72828707   -89097.44068856
  entropy T*S    EENTRO =        -0.55788199
  eigenvalues    EBANDS =    -13490.85097078
  atomic energy  EATOM  =    102001.95379032
  Solvation  Ediel_sol  =         0.00000000
  ---------------------------------------------------
  free energy    TOTEN  =      -388.01590364 eV

  energy without entropy =     -387.45802165  energy(sigma->0) =     -387.73696264


--------------------------------------------------------------------------------------------------------




--------------------------------------- Iteration      1(   7)  ---------------------------------------


    POTLOK:  cpu time    0.0364: real time    0.0364
    SETDIJ:  cpu time    0.0046: real time    0.0046
     EDDAV:  cpu time    1.0945: real time    1.0991
       DOS:  cpu time    0.0005: real time    0.0005
    CHARGE:  cpu time    0.0290: real time    0.0290
    MIXING:  cpu time    0.0017: real time    0.0017
    --------------------------------------------
      LOOP:  cpu time    1.1666: real time    1.1714

 eigenvalue-minimisations  :   840
 total energy-change (2. order) : 0.1009110E+03  (-0.1397774E+02)
 number of electron     593.9999629 magnetization 
 augmentation part      251.8627151 magnetization 

 Broyden mixing:
  rms(total) = 0.62133E+01    rms(broyden)= 0.62125E+01
  rms(prec ) = 0.65658E+01
  weight for this iteration     100.00

 eigenvalues of (default mixing * dielectric matrix)
  average eigenvalue GAMMA=   0.4926
  0.4926  0.4926

 Free energy of the ion-electron system (eV)
  ---------------------------------------------------
  alpha Z        PSCENC =      1356.23626288
  Ewald energy   TEWEN  =    112516.90257262
  -Hartree energ DENC   =   -202927.21198487
  -exchange      EXHF   =         0.00000000
  -V(xc)+E(xc)   XCENC  =      2698.51122267
  PAW double counting   =     88597.42290087   -92202.36753263
  entropy T*S    EENTRO =        -0.67368612
  eigenvalues    EBANDS =    -12327.87843891
  atomic energy  EATOM  =    102001.95379032
  Solvation  Ediel_sol  =         0.00000000
  ---------------------------------------------------
  free energy    TOTEN  =      -287.10489316 eV

  energy without entropy =     -286.43120704  energy(sigma->0) =     -286.76805010


--------------------------------------------------------------------------------------------------------




--------------------------------------- Iteration      1(   8)  ---------------------------------------


    POTLOK:  cpu time    0.0372: real time    0.0396
    SETDIJ:  cpu time    0.0040: real time    0.0058
     EDDAV:  cpu time    1.2400: real time    1.2429
       DOS:  cpu time    0.0005: real time    0.0005
    CHARGE:  cpu time    0.0282: real time    0.0283
    MIXING:  cpu time    0.0015: real time    0.0015
    --------------------------------------------
      LOOP:  cpu time    1.3114: real time    1.3186

 eigenvalue-minimisations  :  1008
 total energy-change (2. order) : 0.8848833E+01  (-0.1322550E+02)
 number of electron     593.9999711 magnetization 
 augmentation part      230.6288487 magnetization 

 Broyden mixing:
  rms(total) = 0.73300E+01    rms(broyden)= 0.73269E+01
  rms(prec ) = 0.88655E+01
  weight for this iteration     100.00

 eigenvalues of (default mixing * dielectric matrix)
  average eigenvalue GAMMA=   0.3970
  0.5352  0.5036  0.1523

 Free energy of the ion-electron system (eV)
  ---------------------------------------------------
  alpha Z        PSCENC =      1356.23626288
  Ewald energy   TEWEN  =    112516.90257262
  -Hartree energ DENC   =   -203505.85755790
  -exchange      EXHF   =         0.00000000
  -V(xc)+E(xc)   XCENC  =      2717.83488757
  PAW double counting   =     92746.05069149   -96441.85637778
  entropy T*S    EENTRO =        -1.24202404
  eigenvalues    EBANDS =    -11668.27830514
  atomic energy  EATOM  =    102001.95379032
  Solvation  Ediel_sol  =         0.00000000
  ---------------------------------------------------
  free energy    TOTEN  =      -278.25605997 eV

  energy without entropy =     -277.01403594  energy(sigma->0) =     -277.63504796


--------------------------------------------------------------------------------------------------------




--------------------------------------- Iteration      1(   9)  ---------------------------------------


    POTLOK:  cpu time    0.0365: real time    0.0366
    SETDIJ:  cpu time    0.0045: real time    0.0045
     EDDAV:  cpu time    1.1515: real time    1.1543
       DOS:  cpu time    0.0005: real time    0.0005
    CHARGE:  cpu time    0.0287: real time    0.0287
    MIXING:  cpu time    0.0016: real time    0.0016
    --------------------------------------------
      LOOP:  cpu time    1.2233: real time    1.2262

 eigenvalue-minimisations  :   920
 total energy-change (2. order) : 0.1169495E+01  (-0.1000094E+02)
 number of electron     593.9999663 magnetization 
 augmentation part      229.2647890 magnetization 

 Broyden mixing:
  rms(total) = 0.41777E+01    rms(broyden)= 0.41711E+01
  rms(prec ) = 0.50392E+01
  weight for this iteration     100.00

 eigenvalues of (default mixing * dielectric matrix)
  average eigenvalue GAMMA=   0.5560
  1.3477  0.3891  0.3891  0.0983

 Free energy of the ion-electron system (eV)
  ---------------------------------------------------
  alpha Z        PSCENC =      1356.23626288
  Ewald energy   TEWEN  =    112516.90257262
  -Hartree energ DENC   =   -203582.17252111
  -exchange      EXHF   =         0.00000000
  -V(xc)+E(xc)   XCENC  =      2717.74294188
  PAW double counting   =     93589.93651400   -97292.86560301
  entropy T*S    EENTRO =        -0.95646826
  eigenvalues    EBANDS =    -11583.86405429
  atomic energy  EATOM  =    102001.95379032
  Solvation  Ediel_sol  =         0.00000000
  ---------------------------------------------------
  free energy    TOTEN  =      -277.08656499 eV

  energy without entropy =     -276.13009672  energy(sigma->0) =     -276.60833085


--------------------------------------------------------------------------------------------------------




--------------------------------------- Iteration      1(  10)  ---------------------------------------


    POTLOK:  cpu time    0.0360: real time    0.0361
    SETDIJ:  cpu time    0.0046: real time    0.0046
     EDDAV:  cpu time    1.2291: real time    1.2321
       DOS:  cpu time    0.0005: real time    0.0005
    CHARGE:  cpu time    0.0287: real time    0.0288
    MIXING:  cpu time    0.0016: real time    0.0016
    --------------------------------------------
      LOOP:  cpu time    1.3005: real time    1.3037

 eigenvalue-minimisations  :  1000
 total energy-change (2. order) :-0.1768769E+02  (-0.4787236E+01)
 number of electron     593.9999674 magnetization 
 augmentation part      228.9625612 magnetization 

 Broyden mixing:
  rms(total) = 0.85641E+01    rms(broyden)= 0.85609E+01
  rms(prec ) = 0.10057E+02
  weight for this iteration     100.00

 eigenvalues of (default mixing * dielectric matrix)
  average eigenvalue GAMMA=   0.5548
  1.7750  0.4008  0.4008  0.0987  0.0987

 Free energy of the ion-electron system (eV)
  ---------------------------------------------------
  alpha Z        PSCENC =      1356.23626288
  Ewald energy   TEWEN  =    112516.90257262
  -Hartree energ DENC   =   -203578.50968862
  -exchange      EXHF   =         0.00000000
  -V(xc)+E(xc)   XCENC  =      2715.08610068
  PAW double counting   =     95986.21198719   -99702.72848896
  entropy T*S    EENTRO =        -0.94186193
  eigenvalues    EBANDS =    -11588.98492846
  atomic energy  EATOM  =    102001.95379032
  Solvation  Ediel_sol  =         0.00000000
  ---------------------------------------------------
  free energy    TOTEN  =      -294.77425428 eV

  energy without entropy =     -293.83239235  energy(sigma->0) =     -294.30332332


--------------------------------------------------------------------------------------------------------




--------------------------------------- Iteration      1(  11)  ---------------------------------------


    POTLOK:  cpu time    0.0361: real time    0.0362
    SETDIJ:  cpu time    0.0045: real time    0.0045
     EDDAV:  cpu time    1.1905: real time    1.1933
       DOS:  cpu time    0.0005: real time    0.0005
    CHARGE:  cpu time    0.0307: real time    0.0308
    MIXING:  cpu time    0.0017: real time    0.0017
    --------------------------------------------
      LOOP:  cpu time    1.2640: real time    1.2670

 eigenvalue-minimisations  :   968
 total energy-change (2. order) : 0.1296543E+02  (-0.3996415E+01)
 number of electron     593.9999690 magnetization 
 augmentation part      231.4054860 magnetization 

 Broyden mixing:
  rms(total) = 0.58373E+01    rms(broyden)= 0.58349E+01
  rms(prec ) = 0.66854E+01
  weight for this iteration     100.00

 eigenvalues of (default mixing * dielectric matrix)
  average eigenvalue GAMMA=   0.5215
  1.9925  0.4050  0.4050  0.1232  0.1232  0.0801

 Free energy of the ion-electron system (eV)
  ---------------------------------------------------
  alpha Z        PSCENC =      1356.23626288
  Ewald energy   TEWEN  =    112516.90257262
  -Hartree energ DENC   =   -203519.53607376
  -exchange      EXHF   =         0.00000000
  -V(xc)+E(xc)   XCENC  =      2713.69024711
  PAW double counting   =     97460.62499963  -101185.96165478
  entropy T*S    EENTRO =        -1.08914012
  eigenvalues    EBANDS =    -11624.62982477
  atomic energy  EATOM  =    102001.95379032
  Solvation  Ediel_sol  =         0.00000000
  ---------------------------------------------------
  free energy    TOTEN  =      -281.80882086 eV

  energy without entropy =     -280.71968074  energy(sigma->0) =     -281.26425080


--------------------------------------------------------------------------------------------------------




--------------------------------------- Iteration      1(  12)  ---------------------------------------


    POTLOK:  cpu time    0.0363: real time    0.0364
    SETDIJ:  cpu time    0.0045: real time    0.0045
     EDDAV:  cpu time    1.2473: real time    1.2506
       DOS:  cpu time    0.0005: real time    0.0005
    CHARGE:  cpu time    0.0311: real time    0.0312
    MIXING:  cpu time    0.0018: real time    0.0018
    --------------------------------------------
      LOOP:  cpu time    1.3216: real time    1.3251

 eigenvalue-minimisations  :  1000
 total energy-change (2. order) : 0.1118489E+02  (-0.3246954E+01)
 number of electron     593.9999656 magnetization 
 augmentation part      234.8219666 magnetization 

 Broyden mixing:
  rms(total) = 0.30506E+01    rms(broyden)= 0.30469E+01
  rms(prec ) = 0.35173E+01
  weight for this iteration     100.00

 eigenvalues of (default mixing * dielectric matrix)
  average eigenvalue GAMMA=   0.4750
  2.0098  0.4059  0.4059  0.1557  0.1557  0.0961  0.0961

 Free energy of the ion-electron system (eV)
  ---------------------------------------------------
  alpha Z        PSCENC =      1356.23626288
  Ewald energy   TEWEN  =    112516.90257262
  -Hartree energ DENC   =   -203489.98469732
  -exchange      EXHF   =         0.00000000
  -V(xc)+E(xc)   XCENC  =      2712.94367672
  PAW double counting   =     98292.58543635  -102024.09850587
  entropy T*S    EENTRO =        -0.66529247
  eigenvalues    EBANDS =    -11636.49717127
  atomic energy  EATOM  =    102001.95379032
  Solvation  Ediel_sol  =         0.00000000
  ---------------------------------------------------
  free energy    TOTEN  =      -270.62392803 eV

  energy without entropy =     -269.95863557  energy(sigma->0) =     -270.29128180


--------------------------------------------------------------------------------------------------------




--------------------------------------- Iteration      1(  13)  ---------------------------------------


    POTLOK:  cpu time    0.0369: real time    0.0379
    SETDIJ:  cpu time    0.0040: real time    0.0058
     EDDAV:  cpu time    1.2234: real time    1.2263
       DOS:  cpu time    0.0005: real time    0.0005
    CHARGE:  cpu time    0.0306: real time    0.0307
    MIXING:  cpu time    0.0018: real time    0.0018
    --------------------------------------------
      LOOP:  cpu time    1.2972: real time    1.3029

 eigenvalue-minimisations  :  1000
 total energy-change (2. order) : 0.3758432E+01  (-0.9572071E+00)
 number of electron     593.9999663 magnetization 
 augmentation part      234.5510276 magnetization 

 Broyden mixing:
  rms(total) = 0.19627E+01    rms(broyden)= 0.19583E+01
  rms(prec ) = 0.23991E+01
  weight for this iteration     100.00

 eigenvalues of (default mixing * dielectric matrix)
  average eigenvalue GAMMA=   0.4865
  1.9670  0.6459  0.4054  0.4054  0.1396  0.1221  0.1221  0.0845

 Free energy of the ion-electron system (eV)
  ---------------------------------------------------
  alpha Z        PSCENC =      1356.23626288
  Ewald energy   TEWEN  =    112516.90257262
  -Hartree energ DENC   =   -203490.34592660
  -exchange      EXHF   =         0.00000000
  -V(xc)+E(xc)   XCENC  =      2713.50941009
  PAW double counting   =     98389.79339714  -102124.25574839
  entropy T*S    EENTRO =        -0.81903654
  eigenvalues    EBANDS =    -11629.84021757
  atomic energy  EATOM  =    102001.95379032
  Solvation  Ediel_sol  =         0.00000000
  ---------------------------------------------------
  free energy    TOTEN  =      -266.86549605 eV

  energy without entropy =     -266.04645950  energy(sigma->0) =     -266.45597778


--------------------------------------------------------------------------------------------------------




--------------------------------------- Iteration      1(  14)  ---------------------------------------


    POTLOK:  cpu time    0.0366: real time    0.0367
    SETDIJ:  cpu time    0.0045: real time    0.0045
     EDDAV:  cpu time    1.2000: real time    1.2029
       DOS:  cpu time    0.0005: real time    0.0005
    CHARGE:  cpu time    0.0306: real time    0.0306
    MIXING:  cpu time    0.0018: real time    0.0018
    --------------------------------------------
      LOOP:  cpu time    1.2740: real time    1.2770

 eigenvalue-minimisations  :   976
 total energy-change (2. order) :-0.3425317E+00  (-0.8836950E+00)
 number of electron     593.9999668 magnetization 
 augmentation part      233.9064416 magnetization 

 Broyden mixing:
  rms(total) = 0.23848E+01    rms(broyden)= 0.23821E+01
  rms(prec ) = 0.27298E+01
  weight for this iteration     100.00

 eigenvalues of (default mixing * dielectric matrix)
  average eigenvalue GAMMA=   0.4524
  1.9933  0.6198  0.4102  0.4102  0.2016  0.1236  0.1236  0.1041  0.0854

 Free energy of the ion-electron system (eV)
  ---------------------------------------------------
  alpha Z        PSCENC =      1356.23626288
  Ewald energy   TEWEN  =    112516.90257262
  -Hartree energ DENC   =   -203526.97845854
  -exchange      EXHF   =         0.00000000
  -V(xc)+E(xc)   XCENC  =      2714.39139586
  PAW double counting   =     98295.68572126  -102032.32448669
  entropy T*S    EENTRO =        -0.81962007
  eigenvalues    EBANDS =    -11592.25520535
  atomic energy  EATOM  =    102001.95379032
  Solvation  Ediel_sol  =         0.00000000
  ---------------------------------------------------
  free energy    TOTEN  =      -267.20802771 eV

  energy without entropy =     -266.38840765  energy(sigma->0) =     -266.79821768


--------------------------------------------------------------------------------------------------------




--------------------------------------- Iteration      1(  15)  ---------------------------------------


    POTLOK:  cpu time    0.0362: real time    0.0363
    SETDIJ:  cpu time    0.0045: real time    0.0045
     EDDAV:  cpu time    1.1462: real time    1.1489
       DOS:  cpu time    0.0005: real time    0.0005
    CHARGE:  cpu time    0.0306: real time    0.0307
    MIXING:  cpu time    0.0019: real time    0.0019
    --------------------------------------------
      LOOP:  cpu time    1.2199: real time    1.2228

 eigenvalue-minimisations  :   920
 total energy-change (2. order) : 0.1803928E+01  (-0.4954604E+00)
 number of electron     593.9999667 magnetization 
 augmentation part      234.3917300 magnetization 

 Broyden mixing:
  rms(total) = 0.10490E+01    rms(broyden)= 0.10457E+01
  rms(prec ) = 0.11777E+01
  weight for this iteration     100.00

 eigenvalues of (default mixing * dielectric matrix)
  average eigenvalue GAMMA=   0.4489
  2.0183  0.5507  0.5507  0.4011  0.4011  0.1308  0.1308  0.0853  0.1102  0.1102

 Free energy of the ion-electron system (eV)
  ---------------------------------------------------
  alpha Z        PSCENC =      1356.23626288
  Ewald energy   TEWEN  =    112516.90257262
  -Hartree energ DENC   =   -203526.21239058
  -exchange      EXHF   =         0.00000000
  -V(xc)+E(xc)   XCENC  =      2714.35158721
  PAW double counting   =     98308.78190579  -102045.30524933
  entropy T*S    EENTRO =        -0.81220641
  eigenvalues    EBANDS =    -11591.30037247
  atomic energy  EATOM  =    102001.95379032
  Solvation  Ediel_sol  =         0.00000000
  ---------------------------------------------------
  free energy    TOTEN  =      -265.40409997 eV

  energy without entropy =     -264.59189356  energy(sigma->0) =     -264.99799677


--------------------------------------------------------------------------------------------------------




--------------------------------------- Iteration      1(  16)  ---------------------------------------


    POTLOK:  cpu time    0.0367: real time    0.0368
    SETDIJ:  cpu time    0.0044: real time    0.0045
     EDDAV:  cpu time    1.1911: real time    1.1939
       DOS:  cpu time    0.0005: real time    0.0005
    CHARGE:  cpu time    0.0278: real time    0.0279
    MIXING:  cpu time    0.0020: real time    0.0020
    --------------------------------------------
      LOOP:  cpu time    1.2626: real time    1.2655

 eigenvalue-minimisations  :   968
 total energy-change (2. order) : 0.7576447E-01  (-0.9144997E-01)
 number of electron     593.9999665 magnetization 
 augmentation part      234.1306397 magnetization 

 Broyden mixing:
  rms(total) = 0.90819E+00    rms(broyden)= 0.90779E+00
  rms(prec ) = 0.10429E+01
  weight for this iteration     100.00

 eigenvalues of (default mixing * dielectric matrix)
  average eigenvalue GAMMA=   0.4612
  2.0110  0.7660  0.7660  0.3988  0.3988  0.1490  0.1490  0.1234  0.1234  0.0859
  0.1018

 Free energy of the ion-electron system (eV)
  ---------------------------------------------------
  alpha Z        PSCENC =      1356.23626288
  Ewald energy   TEWEN  =    112516.90257262
  -Hartree energ DENC   =   -203532.88118435
  -exchange      EXHF   =         0.00000000
  -V(xc)+E(xc)   XCENC  =      2714.38373725
  PAW double counting   =     98258.08309420  -101993.72332794
  entropy T*S    EENTRO =        -0.82001162
  eigenvalues    EBANDS =    -11585.46326887
  atomic energy  EATOM  =    102001.95379032
  Solvation  Ediel_sol  =         0.00000000
  ---------------------------------------------------
  free energy    TOTEN  =      -265.32833550 eV

  energy without entropy =     -264.50832389  energy(sigma->0) =     -264.91832969


--------------------------------------------------------------------------------------------------------




--------------------------------------- Iteration      1(  17)  ---------------------------------------


    POTLOK:  cpu time    0.0364: real time    0.0365
    SETDIJ:  cpu time    0.0045: real time    0.0045
     EDDAV:  cpu time    1.1277: real time    1.1303
       DOS:  cpu time    0.0005: real time    0.0005
    CHARGE:  cpu time    0.0275: real time    0.0275
    MIXING:  cpu time    0.0022: real time    0.0022
    --------------------------------------------
      LOOP:  cpu time    1.1987: real time    1.2015

 eigenvalue-minimisations  :   904
 total energy-change (2. order) : 0.2026120E+00  (-0.3761494E-01)
 number of electron     593.9999667 magnetization 
 augmentation part      233.9955297 magnetization 

 Broyden mixing:
  rms(total) = 0.69362E+00    rms(broyden)= 0.69329E+00
  rms(prec ) = 0.79747E+00
  weight for this iteration     100.00

 eigenvalues of (default mixing * dielectric matrix)
  average eigenvalue GAMMA=   0.4894
  1.9909  1.0246  1.0246  0.3979  0.3979  0.3015  0.1726  0.1265  0.1265  0.0857
  0.1201  0.1043

 Free energy of the ion-electron system (eV)
  ---------------------------------------------------
  alpha Z        PSCENC =      1356.23626288
  Ewald energy   TEWEN  =    112516.90257262
  -Hartree energ DENC   =   -203541.29636022
  -exchange      EXHF   =         0.00000000
  -V(xc)+E(xc)   XCENC  =      2714.49641055
  PAW double counting   =     98123.76302951  -101857.78141110
  entropy T*S    EENTRO =        -0.82672020
  eigenvalues    EBANDS =    -11578.57329790
  atomic energy  EATOM  =    102001.95379032
  Solvation  Ediel_sol  =         0.00000000
  ---------------------------------------------------
  free energy    TOTEN  =      -265.12572354 eV

  energy without entropy =     -264.29900334  energy(sigma->0) =     -264.71236344


--------------------------------------------------------------------------------------------------------




--------------------------------------- Iteration      1(  18)  ---------------------------------------


    POTLOK:  cpu time    0.0363: real time    0.0364
    SETDIJ:  cpu time    0.0043: real time    0.0043
     EDDAV:  cpu time    1.2167: real time    1.2196
       DOS:  cpu time    0.0005: real time    0.0005
    CHARGE:  cpu time    0.0278: real time    0.0279
    MIXING:  cpu time    0.0022: real time    0.0022
    --------------------------------------------
      LOOP:  cpu time    1.2879: real time    1.2909

 eigenvalue-minimisations  :   992
 total energy-change (2. order) :-0.2102003E-01  (-0.4211108E-01)
 number of electron     593.9999671 magnetization 
 augmentation part      233.7884678 magnetization 

 Broyden mixing:
  rms(total) = 0.87112E+00    rms(broyden)= 0.86999E+00
  rms(prec ) = 0.97881E+00
  weight for this iteration     100.00

 eigenvalues of (default mixing * dielectric matrix)
  average eigenvalue GAMMA=   0.5281
  1.9795  1.3297  1.3297  0.5645  0.4066  0.4066  0.1756  0.1269  0.1269  0.1266
  0.0857  0.1036  0.1036

 Free energy of the ion-electron system (eV)
  ---------------------------------------------------
  alpha Z        PSCENC =      1356.23626288
  Ewald energy   TEWEN  =    112516.90257262
  -Hartree energ DENC   =   -203546.11644683
  -exchange      EXHF   =         0.00000000
  -V(xc)+E(xc)   XCENC  =      2714.65448169
  PAW double counting   =     97925.61432738  -101657.30219462
  entropy T*S    EENTRO =        -0.87727217
  eigenvalues    EBANDS =    -11576.21226484
  atomic energy  EATOM  =    102001.95379032
  Solvation  Ediel_sol  =         0.00000000
  ---------------------------------------------------
  free energy    TOTEN  =      -265.14674357 eV

  energy without entropy =     -264.26947139  energy(sigma->0) =     -264.70810748


--------------------------------------------------------------------------------------------------------




--------------------------------------- Iteration      1(  19)  ---------------------------------------


    POTLOK:  cpu time    0.0365: real time    0.0366
    SETDIJ:  cpu time    0.0045: real time    0.0045
     EDDAV:  cpu time    1.1542: real time    1.1569
       DOS:  cpu time    0.0005: real time    0.0005
    CHARGE:  cpu time    0.0276: real time    0.0277
    MIXING:  cpu time    0.0022: real time    0.0022
    --------------------------------------------
      LOOP:  cpu time    1.2255: real time    1.2284

 eigenvalue-minimisations  :   928
 total energy-change (2. order) : 0.1558022E+00  (-0.5131664E-01)
 number of electron     593.9999666 magnetization 
 augmentation part      234.2120212 magnetization 

 Broyden mixing:
  rms(total) = 0.45385E+00    rms(broyden)= 0.45212E+00
  rms(prec ) = 0.50721E+00
  weight for this iteration     100.00

 eigenvalues of (default mixing * dielectric matrix)
  average eigenvalue GAMMA=   0.5327
  1.9402  1.5066  1.5066  0.6305  0.4068  0.4068  0.2293  0.1613  0.1272  0.1272
  0.1297  0.0858  0.1020  0.0978

 Free energy of the ion-electron system (eV)
  ---------------------------------------------------
  alpha Z        PSCENC =      1356.23626288
  Ewald energy   TEWEN  =    112516.90257262
  -Hartree energ DENC   =   -203548.96108917
  -exchange      EXHF   =         0.00000000
  -V(xc)+E(xc)   XCENC  =      2714.61912156
  PAW double counting   =     97740.04251604  -101469.15341088
  entropy T*S    EENTRO =        -0.89105687
  eigenvalues    EBANDS =    -11575.73964785
  atomic energy  EATOM  =    102001.95379032
  Solvation  Ediel_sol  =         0.00000000
  ---------------------------------------------------
  free energy    TOTEN  =      -264.99094134 eV

  energy without entropy =     -264.09988447  energy(sigma->0) =     -264.54541291


--------------------------------------------------------------------------------------------------------




--------------------------------------- Iteration      1(  20)  ---------------------------------------


    POTLOK:  cpu time    0.0362: real time    0.0363
    SETDIJ:  cpu time    0.0044: real time    0.0044
     EDDAV:  cpu time    1.2017: real time    1.2045
       DOS:  cpu time    0.0005: real time    0.0005
    CHARGE:  cpu time    0.0278: real time    0.0278
    MIXING:  cpu time    0.0023: real time    0.0023
    --------------------------------------------
      LOOP:  cpu time    1.2729: real time    1.2759

 eigenvalue-minimisations  :   976
 total energy-change (2. order) : 0.6705018E-02  (-0.3297034E-01)
 number of electron     593.9999668 magnetization 
 augmentation part      234.0852939 magnetization 

 Broyden mixing:
  rms(total) = 0.41049E+00    rms(broyden)= 0.40970E+00
  rms(prec ) = 0.46012E+00
  weight for this iteration     100.00

 eigenvalues of (default mixing * dielectric matrix)
  average eigenvalue GAMMA=   0.5327
  1.8269  1.6072  1.6072  0.6983  0.4077  0.4077  0.4529  0.1710  0.1267  0.1267
  0.1496  0.1234  0.0858  0.1012  0.0988

 Free energy of the ion-electron system (eV)
  ---------------------------------------------------
  alpha Z        PSCENC =      1356.23626288
  Ewald energy   TEWEN  =    112516.90257262
  -Hartree energ DENC   =   -203563.81550059
  -exchange      EXHF   =         0.00000000
  -V(xc)+E(xc)   XCENC  =      2714.67466778
  PAW double counting   =     97522.66370905  -101249.19408879
  entropy T*S    EENTRO =        -0.88557683
  eigenvalues    EBANDS =    -11563.52007277
  atomic energy  EATOM  =    102001.95379032
  Solvation  Ediel_sol  =         0.00000000
  ---------------------------------------------------
  free energy    TOTEN  =      -264.98423633 eV

  energy without entropy =     -264.09865949  energy(sigma->0) =     -264.54144791


--------------------------------------------------------------------------------------------------------




--------------------------------------- Iteration      1(  21)  ---------------------------------------


    POTLOK:  cpu time    0.0410: real time    0.0411
    SETDIJ:  cpu time    0.0051: real time    0.0081
     EDDAV:  cpu time    1.2075: real time    1.2118
       DOS:  cpu time    0.0005: real time    0.0005
    CHARGE:  cpu time    0.0285: real time    0.0286
    MIXING:  cpu time    0.0025: real time    0.0025
    --------------------------------------------
      LOOP:  cpu time    1.2852: real time    1.2927

 eigenvalue-minimisations  :   976
 total energy-change (2. order) : 0.4115327E-01  (-0.1995556E-01)
 number of electron     593.9999669 magnetization 
 augmentation part      233.8952397 magnetization 

 Broyden mixing:
  rms(total) = 0.28182E+00    rms(broyden)= 0.28129E+00
  rms(prec ) = 0.31806E+00
  weight for this iteration     100.00

 eigenvalues of (default mixing * dielectric matrix)
  average eigenvalue GAMMA=   0.5333
  2.0630  1.4722  1.4722  0.7482  0.7482  0.4029  0.4029  0.2590  0.1643  0.1269
  0.1269  0.1344  0.1266  0.0858  0.0999  0.0999

 Free energy of the ion-electron system (eV)
  ---------------------------------------------------
  alpha Z        PSCENC =      1356.23626288
  Ewald energy   TEWEN  =    112516.90257262
  -Hartree energ DENC   =   -203580.69086033
  -exchange      EXHF   =         0.00000000
  -V(xc)+E(xc)   XCENC  =      2714.73741876
  PAW double counting   =     97364.51889631  -101089.44179784
  entropy T*S    EENTRO =        -0.89329379
  eigenvalues    EBANDS =    -11548.26607199
  atomic energy  EATOM  =    102001.95379032
  Solvation  Ediel_sol  =         0.00000000
  ---------------------------------------------------
  free energy    TOTEN  =      -264.94308305 eV

  energy without entropy =     -264.04978926  energy(sigma->0) =     -264.49643615


--------------------------------------------------------------------------------------------------------




--------------------------------------- Iteration      1(  22)  ---------------------------------------


    POTLOK:  cpu time    0.0371: real time    0.0389
    SETDIJ:  cpu time    0.0039: real time    0.0053
     EDDAV:  cpu time    1.2071: real time    1.2099
       DOS:  cpu time    0.0005: real time    0.0005
    CHARGE:  cpu time    0.0268: real time    0.0269
    MIXING:  cpu time    0.0025: real time    0.0025
    --------------------------------------------
      LOOP:  cpu time    1.2779: real time    1.2841

 eigenvalue-minimisations  :   984
 total energy-change (2. order) :-0.8991897E-02  (-0.1598998E-01)
 number of electron     593.9999669 magnetization 
 augmentation part      234.0277967 magnetization 

 Broyden mixing:
  rms(total) = 0.33942E+00    rms(broyden)= 0.33900E+00
  rms(prec ) = 0.38129E+00
  weight for this iteration     100.00

 eigenvalues of (default mixing * dielectric matrix)
  average eigenvalue GAMMA=   0.5449
  2.3851  1.2956  1.2956  1.0159  1.0159  0.4031  0.4031  0.3486  0.1729  0.1268
  0.1268  0.1473  0.1271  0.0858  0.1140  0.1007  0.0988

 Free energy of the ion-electron system (eV)
  ---------------------------------------------------
  alpha Z        PSCENC =      1356.23626288
  Ewald energy   TEWEN  =    112516.90257262
  -Hartree energ DENC   =   -203581.09100320
  -exchange      EXHF   =         0.00000000
  -V(xc)+E(xc)   XCENC  =      2714.67811486
  PAW double counting   =     97358.29059780  -101083.24190581
  entropy T*S    EENTRO =        -0.89012561
  eigenvalues    EBANDS =    -11547.79037881
  atomic energy  EATOM  =    102001.95379032
  Solvation  Ediel_sol  =         0.00000000
  ---------------------------------------------------
  free energy    TOTEN  =      -264.95207495 eV

  energy without entropy =     -264.06194934  energy(sigma->0) =     -264.50701214


--------------------------------------------------------------------------------------------------------




--------------------------------------- Iteration      1(  23)  ---------------------------------------


    POTLOK:  cpu time    0.0366: real time    0.0367
    SETDIJ:  cpu time    0.0044: real time    0.0044
     EDDAV:  cpu time    1.1650: real time    1.1678
       DOS:  cpu time    0.0005: real time    0.0005
    CHARGE:  cpu time    0.0268: real time    0.0269
    MIXING:  cpu time    0.0026: real time    0.0026
    --------------------------------------------
      LOOP:  cpu time    1.2359: real time    1.2388

 eigenvalue-minimisations  :   944
 total energy-change (2. order) : 0.4480943E-01  (-0.1111419E-01)
 number of electron     593.9999667 magnetization 
 augmentation part      234.3235400 magnetization 

 Broyden mixing:
  rms(total) = 0.16263E+00    rms(broyden)= 0.16211E+00
  rms(prec ) = 0.18021E+00
  weight for this iteration     100.00

 eigenvalues of (default mixing * dielectric matrix)
  average eigenvalue GAMMA=   0.5510
  2.5717  1.5375  1.1515  1.1515  0.9506  0.4040  0.4040  0.4081  0.2480  0.1268
  0.1268  0.1578  0.1578  0.1271  0.0858  0.1000  0.1000  0.1097

 Free energy of the ion-electron system (eV)
  ---------------------------------------------------
  alpha Z        PSCENC =      1356.23626288
  Ewald energy   TEWEN  =    112516.90257262
  -Hartree energ DENC   =   -203576.94084062
  -exchange      EXHF   =         0.00000000
  -V(xc)+E(xc)   XCENC  =      2714.56795034
  PAW double counting   =     97389.81349008  -101115.13418183
  entropy T*S    EENTRO =        -0.88309191
  eigenvalues    EBANDS =    -11551.42321739
  atomic energy  EATOM  =    102001.95379032
  Solvation  Ediel_sol  =         0.00000000
  ---------------------------------------------------
  free energy    TOTEN  =      -264.90726552 eV

  energy without entropy =     -264.02417361  energy(sigma->0) =     -264.46571956


--------------------------------------------------------------------------------------------------------




--------------------------------------- Iteration      1(  24)  ---------------------------------------


    POTLOK:  cpu time    0.0367: real time    0.0368
    SETDIJ:  cpu time    0.0044: real time    0.0044
     EDDAV:  cpu time    1.2128: real time    1.2157
       DOS:  cpu time    0.0005: real time    0.0005
    CHARGE:  cpu time    0.0280: real time    0.0281
    MIXING:  cpu time    0.0027: real time    0.0027
[...]
-64.819   0.089   0.044  11.811  -0.039  -0.019   0.010   0.000
  0.089 -64.776   0.061  -0.039  11.793  -0.027   0.004   0.035
  0.044   0.061 -64.861  -0.019  -0.027  11.829   0.034   0.004
 11.811  -0.039  -0.019   4.997   0.010   0.006  -0.003  -0.001
 -0.039  11.793  -0.027   0.010   5.003   0.008  -0.001  -0.010
 -0.019  -0.027  11.829   0.006   0.008   4.993  -0.010  -0.001
  0.010   0.004   0.034  -0.003  -0.001  -0.010 -10.075   0.028
  0.000   0.035   0.004  -0.001  -0.010  -0.001   0.028  -9.986
 -0.024  -0.004  -0.011   0.007  -0.001   0.004  -0.064   0.034
  0.004   0.009   0.003  -0.001  -0.003  -0.002   0.075  -0.009
 -0.042   0.001   0.018   0.012  -0.000  -0.006  -0.017  -0.043
  0.010   0.004   0.033  -0.003  -0.001  -0.009 -10.628   0.028
  0.000   0.034   0.004  -0.001  -0.010  -0.001   0.028 -10.539
 -0.023  -0.004  -0.011   0.007  -0.000   0.003  -0.064   0.034
  0.004   0.009   0.003  -0.001  -0.003  -0.002   0.074  -0.008
 -0.042   0.001   0.018   0.012  -0.000  -0.006  -0.016  -0.043
 -0.012   0.001  -0.003   0.001   0.002   0.002  -0.010  -0.020
 -0.026   0.003  -0.007   0.002   0.005   0.004  -0.020  -0.043
 total augmentation occupancy for first ion, spin component:           1
  1.995   0.000   0.000  -0.018   0.001   0.000  -0.000  -0.006   0.002  -0.002   0.002   0.001   0.006  -0.002   0.002  -0.002
  0.000   1.995   0.000   0.001  -0.017   0.001  -0.002  -0.001  -0.009  -0.009   0.001   0.002   0.000   0.009   0.008  -0.000
  0.000   0.000   1.995   0.000   0.001  -0.018  -0.003  -0.002   0.002  -0.004  -0.013   0.002   0.002  -0.003   0.005   0.012
 -0.018   0.001   0.000   0.112  -0.023  -0.015   0.151  -0.024   0.057  -0.087   0.034  -0.138   0.019  -0.047   0.084  -0.021
  0.001  -0.017   0.001  -0.023   0.090  -0.018  -0.091   0.003  -0.063  -0.179   0.016   0.079   0.001   0.063   0.187  -0.013
  0.000   0.001  -0.018  -0.015  -0.018   0.108  -0.046  -0.117  -0.020  -0.037  -0.241   0.055   0.101   0.034   0.021   0.224
 -0.000  -0.002  -0.003   0.151  -0.091  -0.046   3.102  -0.223  -0.195   0.241  -0.176  -1.437   0.175  -0.183   0.062  -0.026
 -0.006  -0.001  -0.002  -0.024   0.003  -0.117  -0.223   3.539   0.217  -0.092   0.481   0.172  -1.424  -0.129  -0.180  -0.412
  0.002  -0.009   0.002   0.057  -0.063  -0.020  -0.195   0.217   3.415   0.205  -0.326  -0.177  -0.126  -1.378  -0.051   0.045
 -0.002  -0.009  -0.004  -0.087  -0.179  -0.037   0.241  -0.092   0.205   3.496   0.294   0.054  -0.190  -0.050  -2.006  -0.102
  0.002   0.001  -0.013   0.034   0.016  -0.241  -0.176   0.481  -0.326   0.294   3.483  -0.021  -0.408   0.043  -0.106  -1.549
  0.001   0.002   0.002  -0.138   0.079   0.055  -1.437   0.172  -0.177   0.054  -0.021   1.461  -0.137   0.405  -0.251   0.157
  0.006   0.000   0.002   0.019   0.001   0.101   0.175  -1.424  -0.126  -0.190  -0.408  -0.137   1.172   0.065   0.337   0.360
 -0.002   0.009  -0.003  -0.047   0.063   0.034  -0.183  -0.129  -1.378  -0.050   0.043   0.405   0.065   1.176  -0.055   0.134
  0.002   0.008   0.005   0.084   0.187   0.021   0.062  -0.180  -0.051  -2.006  -0.106  -0.251   0.337  -0.055   2.101  -0.029
 -0.002  -0.000   0.012  -0.021  -0.013   0.224  -0.026  -0.412   0.045  -0.102  -1.549   0.157   0.360   0.134  -0.029   1.419
  0.030  -0.010   0.006   0.029  -0.006   0.035   0.290   0.687   0.279   0.409  -0.070  -0.226  -0.488  -0.227  -0.306   0.018
 -0.014   0.005  -0.003  -0.001  -0.002  -0.003  -0.026  -0.078  -0.023  -0.029   0.026   0.007   0.030   0.007   0.008  -0.009


------------------------ aborting loop because EDIFF is reached ----------------------------------------


    CHARGE:  cpu time    0.0274: real time    0.0275
    FORLOC:  cpu time    0.0115: real time    0.0115
    FORNL :  cpu time    0.2178: real time    0.2186
    STRESS:  cpu time    0.6548: real time    0.6566
    FORCOR:  cpu time    0.0441: real time    0.0442
    FORHAR:  cpu time    0.0177: real time    0.0177
    MIXING:  cpu time    0.0033: real time    0.0034
    OFIELD:  cpu time    0.0001: real time    0.0001

  FORCE on cell =-STRESS in cart. coord.  units (eV):
  Direction    XX          YY          ZZ          XY          YZ          ZX
  --------------------------------------------------------------------------------------
  Alpha Z  1356.23626  1356.23626  1356.23626
  Ewald  148991.93639149974.70233************   197.76114   318.34169  -716.98247
  Hartree176699.19532177406.76725************   130.42707   207.59345  -473.48870
  E(xc)   -3769.01374 -3768.01874 -3770.76118     0.23979     0.34989    -0.70728
  Local  ************************327283.02101  -327.53125  -519.80595  1179.43406
  n-local  -522.91496  -520.09376  -517.30438     2.62784     1.63803    -2.97749
  augment  4351.13991  4344.10298  4337.80558    -2.17830    -2.81194     4.84558
  Kinetic  8230.59890  8213.84761  8234.24178    -1.48527    -9.07265    15.30851
  Fock        0.00000     0.00000     0.00000     0.00000     0.00000     0.00000
  -------------------------------------------------------------------------------------
  Total     -23.17372   -28.79026   -31.38709    -0.13898    -3.76750     5.43221
  in kB     -24.06511   -29.89770   -32.59442    -0.14433    -3.91242     5.64117
  external pressure =      -28.85 kB  Pullay stress =        0.00 kB


 VOLUME and BASIS-vectors are now :
 -----------------------------------------------------------------------------
  energy-cutoff  :      450.00
  volume of cell :     1542.83
      direct lattice vectors                 reciprocal lattice vectors
     8.295146388 -4.789205000  0.000000000     0.120552423  0.000000000  0.000000000
     0.000000000  9.578410000  0.000000000     0.060276212  0.104401461  0.000000000
     0.000000000  0.000000000 19.417840000     0.000000000  0.000000000  0.051499034

  length of vectors
     9.578410000  9.578410000 19.417840000     0.120552423  0.120552423  0.051499034


 FORCES acting on ions
    electron-ion (+dipol)            ewald-force                    non-local-force                 convergence-correction
 -----------------------------------------------------------------------------------------------
   0.412E+03 -.384E+03 0.364E+04   -.413E+03 0.389E+03 -.364E+04   0.110E+00 -.359E+01 0.265E+01   0.143E+00 -.732E-01 -.328E-01
   0.268E+03 -.452E+03 0.464E+02   -.268E+03 0.452E+03 -.477E+02   0.520E+00 -.883E+00 0.898E+00   0.229E-01 -.268E-01 0.181E+00
   0.243E+03 -.419E+03 -.349E+04   -.243E+03 0.419E+03 0.350E+04   0.264E+00 -.552E+00 -.460E+01   -.643E-01 0.148E+00 0.104E+00
   0.313E+03 -.220E+03 0.280E+04   -.310E+03 0.222E+03 -.280E+04   -.169E+01 -.889E+00 0.304E+01   -.497E-01 -.793E-02 0.615E-01
   0.306E+03 -.513E+03 -.115E+04   -.306E+03 0.514E+03 0.115E+04   0.582E+00 -.129E+01 0.274E+00   -.164E-01 0.285E-01 0.354E+00
   0.448E+03 -.774E+03 -.430E+04   -.441E+03 0.763E+03 0.429E+04   -.640E+01 0.112E+02 0.685E+01   0.131E+00 -.164E+00 0.126E+00
   0.198E+03 -.465E+03 0.429E+04   -.199E+03 0.467E+03 -.429E+04   0.103E+01 -.182E+01 -.188E+01   -.120E+00 0.113E+00 -.183E+00
   0.237E+03 -.464E+03 0.118E+04   -.238E+03 0.465E+03 -.118E+04   0.453E+00 -.102E+01 0.545E-01   -.219E-01 0.340E-01 0.148E+00
   0.167E+03 -.295E+03 -.260E+04   -.167E+03 0.295E+03 0.260E+04   0.321E+00 -.739E+00 -.224E+01   0.870E-01 -.224E+00 0.205E+00
   0.414E+03 0.384E+03 0.363E+04   -.414E+03 -.389E+03 -.364E+04   0.440E-03 0.366E+01 0.266E+01   0.132E+00 0.391E-01 -.336E-01
   0.281E+03 0.454E+03 0.438E+02   -.281E+03 -.455E+03 -.448E+02   0.611E+00 0.769E+00 0.712E+00   -.322E-01 0.230E-01 0.150E+00
   0.299E+03 0.428E+03 -.349E+04   -.299E+03 -.428E+03 0.350E+04   0.163E+00 0.357E+00 -.470E+01   -.185E+00 -.879E-01 0.677E-01
   0.311E+03 0.215E+03 0.280E+04   -.309E+03 -.217E+03 -.281E+04   -.168E+01 0.851E+00 0.304E+01   -.559E-01 0.739E-01 0.458E-01
   0.283E+03 0.457E+03 -.110E+04   -.283E+03 -.458E+03 0.110E+04   0.382E+00 0.143E+01 0.668E+00   0.359E-01 0.568E-01 0.344E+00
   0.328E+03 0.534E+03 -.434E+04   -.328E+03 -.534E+03 0.433E+04   -.229E+00 -.147E+01 0.587E+01   0.208E+00 0.263E+00 0.155E+00
   0.198E+03 0.466E+03 0.429E+04   -.199E+03 -.468E+03 -.429E+04   0.665E+00 0.198E+01 -.204E+01   -.107E+00 -.738E-01 -.161E+00
   0.232E+03 0.474E+03 0.116E+04   -.232E+03 -.475E+03 -.117E+04   0.538E+00 0.820E+00 0.914E+00   0.830E-02 -.874E-01 0.226E+00
   0.359E+02 0.384E+03 -.273E+04   -.377E+02 -.383E+03 0.273E+04   0.998E+00 -.822E+00 -.157E-01   0.125E+00 0.183E-01 0.245E+00
   -.796E+03 -.108E+01 0.354E+04   0.791E+03 0.117E+01 -.355E+04   0.447E+01 -.887E-01 0.566E+01   0.423E-01 -.626E-02 -.561E-01
   -.557E+03 -.105E+02 0.587E+02   0.558E+03 0.106E+02 -.605E+02   -.132E+01 -.149E+00 0.163E+01   0.736E-02 0.474E-01 0.108E+00
   -.522E+03 -.445E+02 -.349E+04   0.522E+03 0.444E+02 0.350E+04   -.236E+00 0.481E-01 -.486E+01   0.141E+00 0.134E+00 0.634E-01
   -.317E+03 -.121E+01 0.266E+04   0.317E+03 0.114E+01 -.267E+04   -.105E+00 0.462E-01 0.389E+01   -.269E-01 0.390E-01 0.407E-01
   -.529E+03 -.816E+01 -.111E+04   0.530E+03 0.811E+01 0.111E+04   -.123E+01 0.566E-01 0.144E+01   -.458E-01 0.409E-03 0.376E+00
   -.626E+03 -.167E+02 -.434E+04   0.625E+03 0.167E+02 0.433E+04   0.122E+01 0.315E-01 0.566E+01   -.261E+00 -.165E-01 0.157E+00
   -.738E+03 0.860E+00 0.434E+04   0.725E+03 -.865E+00 -.433E+04   0.121E+02 -.172E-01 -.616E+01   -.387E-01 0.547E-02 -.156E+00
   -.538E+03 0.979E+01 0.119E+04   0.539E+03 -.949E+01 -.119E+04   -.141E+01 -.162E+00 0.105E+01   0.509E-01 -.517E-01 0.268E+00
   -.351E+03 0.158E+03 -.273E+04   0.351E+03 -.156E+03 0.273E+04   0.412E+00 -.144E+01 0.619E-01   -.114E+00 -.132E+00 0.231E+00
   -.180E+02 0.343E+01 0.180E+04   0.177E+02 -.310E+01 -.181E+04   0.555E+00 -.703E+00 0.534E+01   0.204E-01 0.288E-01 -.393E-01
   -.940E+02 0.133E+03 0.705E+03   0.951E+02 -.135E+03 -.706E+03   -.828E+00 0.214E+01 0.488E+00   -.496E-02 0.548E-01 -.303E-02
   -.942E+02 0.160E+03 -.641E+03   0.959E+02 -.162E+03 0.641E+03   -.171E+01 0.256E+01 0.117E+00   -.702E-03 -.112E-01 0.459E-01
   -.939E+02 0.162E+03 -.177E+04   0.953E+02 -.165E+03 0.178E+04   -.192E+01 0.320E+01 -.445E+01   0.647E-02 -.273E-01 0.426E-01
   0.596E+02 -.316E+02 0.170E+04   -.600E+02 0.324E+02 -.170E+04   -.762E-02 -.112E+01 0.498E+01   0.763E-02 0.210E-02 -.547E-01
   -.680E+02 0.132E+03 0.292E+03   0.690E+02 -.135E+03 -.293E+03   -.949E+00 0.267E+01 0.474E+00   0.670E-02 -.471E-02 0.904E-01
   -.928E+02 0.163E+03 -.104E+04   0.942E+02 -.165E+03 0.104E+04   -.139E+01 0.168E+01 0.316E+00   -.247E-01 0.850E-01 0.156E+00
   -.129E+03 0.217E+03 0.115E+04   0.130E+03 -.218E+03 -.115E+04   -.869E+00 0.158E+01 -.123E+01   -.652E-02 -.610E-01 0.358E-01
   -.794E+02 0.138E+03 -.244E+03   0.804E+02 -.140E+03 0.243E+03   -.959E+00 0.193E+01 0.111E+01   -.211E-01 0.151E-01 0.171E+00
   -.182E+02 -.348E+01 0.180E+04   0.180E+02 0.322E+01 -.181E+04   0.567E+00 0.632E+00 0.524E+01   0.167E-01 -.459E-01 -.408E-01
   -.960E+02 -.134E+03 0.703E+03   0.971E+02 0.136E+03 -.704E+03   -.875E+00 -.233E+01 0.559E+00   0.131E-01 -.473E-01 0.123E-01
   -.112E+03 -.170E+03 -.651E+03   0.113E+03 0.172E+03 0.651E+03   -.138E+01 -.224E+01 0.824E-01   0.409E-01 0.701E-01 0.764E-01
   -.123E+03 -.179E+03 -.176E+04   0.124E+03 0.181E+03 0.177E+04   -.142E+01 -.275E+01 -.460E+01   0.241E-01 0.622E-01 0.281E-01
   0.600E+02 0.313E+02 0.170E+04   -.604E+02 -.322E+02 -.170E+04   -.400E-01 0.115E+01 0.501E+01   -.245E-02 0.390E-02 -.411E-01
   -.634E+02 -.135E+03 0.289E+03   0.647E+02 0.137E+03 -.289E+03   -.115E+01 -.241E+01 0.224E+00   -.161E-01 0.150E-01 0.787E-01
   -.641E+02 -.179E+03 -.105E+04   0.656E+02 0.181E+03 0.105E+04   -.176E+01 -.199E+01 0.109E+01   -.665E-01 -.837E-01 0.153E+00
   -.130E+03 -.215E+03 0.115E+04   0.130E+03 0.217E+03 -.115E+04   -.332E+00 -.164E+01 -.120E+01   -.258E-01 0.399E-01 0.926E-02
   -.791E+02 -.127E+03 -.212E+03   0.804E+02 0.130E+03 0.211E+03   -.158E+01 -.243E+01 0.770E+00   0.168E-01 -.365E-01 0.134E+00
   0.448E+02 0.116E+03 -.161E+04   -.459E+02 -.118E+03 0.162E+04   0.933E+00 0.558E+00 -.439E+01   0.474E-01 -.193E-02 0.286E-01
   0.173E+03 0.114E+01 0.726E+03   -.175E+03 -.117E+01 -.726E+03   0.211E+01 0.320E-01 -.595E+00   0.324E-01 -.114E-01 0.531E-01
   0.204E+03 0.103E+02 -.651E+03   -.207E+03 -.102E+02 0.651E+03   0.288E+01 -.122E+00 0.138E+00   -.598E-01 -.612E-02 0.716E-01
   0.216E+03 0.167E+02 -.176E+04   -.219E+03 -.167E+02 0.177E+04   0.298E+01 -.187E+00 -.459E+01   -.571E-01 0.246E-02 0.323E-01
   0.153E+03 -.497E+01 0.317E+03   -.156E+03 0.497E+01 -.317E+03   0.213E+01 0.399E-01 -.110E+01   -.135E-01 0.258E-01 0.621E-01
   0.187E+03 -.329E+02 -.105E+04   -.190E+03 0.329E+02 0.105E+04   0.297E+01 0.293E+00 0.123E+01   0.101E+00 0.367E-01 0.137E+00
   0.224E+03 0.104E+01 0.113E+04   -.225E+03 -.521E+00 -.113E+04   0.184E+01 -.455E+00 -.189E+00   -.377E-02 0.611E-02 -.221E-01
   0.145E+03 0.482E+01 -.218E+03   -.148E+03 -.506E+01 0.217E+03   0.266E+01 0.444E+00 0.555E+00   0.244E-01 -.424E-01 0.152E+00
   -.124E+03 0.195E+02 -.162E+04   0.125E+03 -.190E+02 0.162E+04   -.999E+00 -.558E+00 -.433E+01   -.456E-01 -.516E-01 0.240E-01
 -----------------------------------------------------------------------------------------------
   -.121E+02 -.639E+01 -.261E+02   0.711E-13 -.515E-12 0.136E-11   0.120E+02 0.633E+01 0.216E+02   0.483E-02 0.877E-01 0.443E+01
 
 
 POSITION                                       TOTAL-FORCE (eV/Angst)
 -----------------------------------------------------------------------------------
      3.80276      2.99183      1.49337         0.231319      0.757410      0.075770
      3.80276      2.99183      4.63265         0.270059     -0.156054     -0.182862
      3.80276      2.99183      7.77193         0.176279     -0.337412      0.852663
      1.03772      7.78103      2.53980         0.568588      0.436532     -0.019042
      1.03772      7.78103      5.67908         0.044407      0.019808      0.105127
      1.03772      7.78103      8.81836         0.371601     -0.712340     -1.336009
      6.56781     -1.79738      0.44694        -0.183144      0.345643      0.941873
      6.56781     -1.79738      3.58622        -0.060555      0.080505     -0.182967
      6.56781     -1.79738      6.72550         0.310197     -0.463022      0.432867
      3.80276      0.46116      1.49337         0.231206     -0.718357      0.066674
      3.80276      0.46116      4.63265         0.277405      0.172794     -0.123358
      3.80276      0.46116      7.77193         0.058516      0.156513      0.764471
      1.03772      5.25036      2.53980         0.560655     -0.516245     -0.029113
      1.03772      5.25036      5.67908         0.165049      0.140684      0.089580
      1.03772      5.25036      8.81836        -0.235328     -0.342342     -1.618184
      6.56781      5.25036      0.44694        -0.181131     -0.368910      0.956831
      6.56781      5.25036      3.58622        -0.124033      0.000963     -0.158125
      6.56781      5.25036      6.72550        -0.664056      0.448283     -0.215437
      5.99439      1.72649      1.49337        -0.957379     -0.006316     -0.208319
      5.99439      1.72649      4.63265        -0.255788     -0.031829     -0.057853
      5.99439      1.72649      7.77193        -0.092929      0.038003      0.751765
      3.22934      6.51570      2.53980        -0.195715      0.014543     -0.360492
      3.22934      6.51570      5.67908        -0.110021      0.003188      0.180780
      3.22934      6.51570      8.81836         0.414250     -0.007705     -1.567995
      0.46429      1.72649      0.44694        -0.838919     -0.017455      1.565455
      0.46429      1.72649      3.58622         0.133567      0.088247     -0.035641
      0.46429      1.72649      6.72550        -0.008146      0.815040     -0.196378
      5.46355      0.11526      0.00000         0.313892     -0.352147      0.516040
      5.46355      0.11526      3.13928         0.253419      0.286322      0.167475
      5.46355      0.11526      6.27856        -0.076674      0.024358      0.327404
      5.46355      0.11526      9.41784        -0.560565      0.883083     -1.216549
      2.69850      4.90447      1.04643        -0.406004     -0.315818      0.467051
      2.69850      4.90447      4.18571         0.081420      0.194094      0.196950
      2.69850      4.90447      7.32499        -0.047862      0.229456      1.046874
      8.22860     -4.67394      2.09285         0.014941     -0.193098     -1.222820
      8.22860     -4.67394      5.23213        -0.008917     -0.053634      1.105654
      5.46355      3.33772      0.00000         0.352310      0.326113      0.526969
      5.46355      3.33772      3.13928         0.241976     -0.302713      0.200302
      5.46355      3.33772      6.27856         0.005265      0.083468      0.399552
      5.46355      3.33772      9.41784        -0.262691     -0.630440     -1.485581
      2.69850     -1.45148      1.04643        -0.418807      0.278172      0.419606
      2.69850     -1.45148      4.18571         0.123009     -0.218380      0.218300
      2.69850     -1.45148      7.32499        -0.376914     -0.028662      1.112918
      8.22860     -1.45148      2.09285         0.027899      0.265982     -1.190751
      8.22860     -1.45148      5.23213        -0.241091      0.000616     -0.020495
      8.22860     -1.45148      8.37141        -0.177099     -0.576783      0.325407
      2.67282      1.72649      3.13928        -0.170785     -0.009357     -0.889499
      2.67282      1.72649      6.27856        -0.079407     -0.016693      0.313291
      2.67282      1.72649      9.41784         0.688066     -0.121952     -1.481414
      8.20291      1.72649      4.18571        -0.317318      0.064463     -0.901607
      8.20291      1.72649      7.32499         0.291351      0.264763      1.155995
      5.43786     -3.06271      2.09285         0.279370      0.071890     -1.016364
      5.43786     -3.06271      5.23213         0.029749      0.162551      0.038946
      5.43786     -3.06271      8.37141         0.535510     -0.155823      0.394266
 -----------------------------------------------------------------------------------
    total drift:                               -0.005913      0.020428     -0.062080


--------------------------------------------------------------------------------------------------------



  FREE ENERGIE OF THE ION-ELECTRON SYSTEM (eV)
  ---------------------------------------------------
  free  energy   TOTEN  =      -264.89924407 eV

  energy  without entropy=     -264.01856855  energy(sigma->0) =     -264.45890631
 


--------------------------------------------------------------------------------------------------------


    POTLOK:  cpu time    0.0415: real time    0.0419


--------------------------------------------------------------------------------------------------------


     LOOP+:  cpu time   39.3058: real time   39.4907
    4ORBIT:  cpu time    0.0000: real time    0.0000

 total amount of memory used by VASP MPI-rank0    42815. kBytes
=======================================================================

   base      :      30000. kBytes
   nonlr-proj:       1986. kBytes
   fftplans  :       3094. kBytes
   grid      :       5604. kBytes
   one-center:         69. kBytes
   wavefun   :       2062. kBytes
 
  
  
 General timing and accounting informations for this job:
 ========================================================
  
                  Total CPU time used (sec):       40.887
                            User time (sec):       40.354
                          System time (sec):        0.534
                         Elapsed time (sec):       41.558
  
                   Maximum memory used (kb):      198956.
                   Average memory used (kb):           0.
  
                          Minor page faults:        58724
                          Major page faults:            0
                 Voluntary context switches:          986
