
72 atoms
2 atom types
   0.0000000000   11.8257374458 xlo xhi
   0.0000000000   11.2351097481 ylo yhi
   0.0000000000   18.3232149811 zlo zhi
   3.6905792348    0.0000000000    0.0000000000 xy xz yz

Atoms # atomic

     1      1   -0.1824136822    2.1775614116    1.3226758220
     2      1    0.9287310228    0.6430082393    3.8257904682
     3      1    2.0398756763   -0.8915450904    6.3289051143
     4      1    1.8673382384    1.5042460594    0.0000000000
     5      1    2.9784829435   -0.0303071130    2.5031146461
     6      1    4.0896275969   -1.5648604427    5.0062292923
     7      1    1.8673382382    3.6617530698    1.3226758220
     8      1    2.9784829432    2.1271998974    3.8257904682
     9      1    4.0896275967    0.5926465677    6.3289051143
    10      1    5.7304550407    2.1775614116    1.3226758220
    11      1    6.8415997458    0.6430082393    3.8257904682
    12      1    7.9527443992   -0.8915450904    6.3289051143
    13      1    7.7802069613    1.5042460594    0.0000000000
    14      1    8.8913516664   -0.0303071130    2.5031146461
    15      1   10.0024963198   -1.5648604427    5.0062292923
    16      1    7.7802069611    3.6617530698    1.3226758220
    17      1    8.8913516662    2.1271998974    3.8257904682
    18      1   10.0024963196    0.5926465677    6.3289051143
    19      1    1.6628759352    7.7951162857    1.3226758220
    20      1    2.7740206403    6.2605631133    3.8257904682
    21      1    3.8851652937    4.7260097836    6.3289051143
    22      1    3.7126278558    7.1218009334    0.0000000000
    23      1    4.8237725609    5.5872477610    2.5031146461
    24      1    5.9349172143    4.0526944314    5.0062292923
    25      1    3.7126278556    9.2793079438    1.3226758220
    26      1    4.8237725607    7.7447547714    3.8257904682
    27      1    5.9349172141    6.2102014417    6.3289051143
    28      1    7.5757446581    7.7951162857    1.3226758220
    29      1    8.6868893632    6.2605631133    3.8257904682
    30      1    9.7980340166    4.7260097836    6.3289051143
    31      1    9.6254965787    7.1218009334    0.0000000000
    32      1   10.7366412838    5.5872477610    2.5031146461
    33      1   11.8477859372    4.0526944314    5.0062292923
    34      1    9.6254965785    9.2793079438    1.3226758220
    35      1   10.7366412836    7.7447547714    3.8257904682
    36      1   11.8477859370    6.2102014417    6.3289051143
    37      2    3.5067070073    1.9874742640    1.6327399650
    38      2    4.6178517124    0.4529210916    4.1358546111
    39      2    5.7289963658   -1.0816322380    6.6389692573
    40      2    0.8966298673    2.8448487456    3.3169856811
    41      2    2.0077745760    1.3102955844    5.8201003272
    42      2    3.1189192413   -0.2242577453    8.3232149734
    43      2    0.8966298744    0.0975603339    1.6327399650
    44      2    2.0077745795   -1.4369928385    4.1358546111
    45      2    3.1189192329   -2.9715461681    6.6389692573
    46      2    9.4195757302    1.9874742640    1.6327399650
    47      2   10.5307204353    0.4529210916    4.1358546111
    48      2   11.6418650887   -1.0816322380    6.6389692573
    49      2    6.8094985902    2.8448487456    3.3169856811
    50      2    7.9206432990    1.3102955844    5.8201003272
    51      2    9.0317879642   -0.2242577453    8.3232149734
    52      2    6.8094985973    0.0975603339    1.6327399650
    53      2    7.9206433024   -1.4369928385    4.1358546111
    54      2    9.0317879558   -2.9715461681    6.6389692573
    55      2    5.3519966247    7.6050291380    1.6327399650
    56      2    6.4631413298    6.0704759657    4.1358546111
    57      2    7.5742859832    4.5359226360    6.6389692573
    58      2    2.7419194847    8.4624036196    3.3169856811
    59      2    3.8530641935    6.9278504584    5.8201003272
    60      2    4.9642088587    5.3932971288    8.3232149734
    61      2    2.7419194918    5.7151152079    1.6327399650
    62      2    3.8530641969    4.1805620356    4.1358546111
    63      2    4.9642088503    2.6460087059    6.6389692573
    64      2   11.2648653476    7.6050291380    1.6327399650
    65      2   12.3760100527    6.0704759657    4.1358546111
    66      2   13.4871547061    4.5359226360    6.6389692573
    67      2    8.6547882076    8.4624036196    3.3169856811
    68      2    9.7659329164    6.9278504584    5.8201003272
    69      2   10.8770775816    5.3932971288    8.3232149734
    70      2    8.6547882147    5.7151152079    1.6327399650
    71      2    9.7659329198    4.1805620356    4.1358546111
    72      2   10.8770775733    2.6460087059    6.6389692573
