
74 atoms
2 atom types
   0.0000000000   16.8846940542 xlo xhi
   0.0000000000    9.5784100000 ylo yhi
   0.0000000000   16.1976191476 zlo zhi
   0.0000000000    0.0000000000    0.0000000000 xy xz yz

Atoms # atomic

     1      1    1.0970426586    8.8448295298    5.0342927908
     2      1    1.6807120367    8.8448295298    1.9497492390
     3      1    9.8312243663    4.0556245298    3.4920210149
     4      1   10.4148937612    4.0556245298    0.4074774632
     5      1    4.0084365668    4.0556245298    4.5202022096
     6      1    4.5921059448    4.0556245298    1.4356586417
     7      1   12.1589488965    8.8448295298    6.0624739855
     8      1   12.7426182745    8.8448295298    2.9779304176
     9      1    6.9198304750    8.8448295298    4.0061116123
    10      1    7.5034998530    8.8448295298    0.9215680443
    11      1   15.0703428047    4.0556245298    5.5483833881
    12      1   15.6540121827    4.0556245298    2.4638398364
    13      1    7.0941407285    5.3209612260    6.1690871197
    14      1    7.6778101065    5.3209612260    3.0845435679
    15      1    8.2614794845    5.3209612260    0.0000000000
    16      1   15.8283224530    0.5317562260    4.6268153438
    17      1   16.4119918310    0.5317562260    1.5422717759
    18      1    1.8550223070    5.3209612260    4.1127247464
    19      1    2.4386916850    5.3209612260    1.0281811947
    20      1   10.0055346367    0.5317562260    5.6549965223
    21      1   10.5892040147    0.5317562260    2.5704529706
    22      1    4.7664161983    0.5317562260    3.5986341491
    23      1    5.3500855932    0.5317562260    0.5140905974
    24      1   12.9169285448    5.3209612260    5.1409059411
    25      1   13.5005979229    5.3209612260    2.0563623732
    26      1    1.0970426586    1.7970929222    5.0342927908
    27      1    1.6807120367    1.7970929222    1.9497492390
    28      1    9.8312243663    6.5862979222    3.4920210149
    29      1   10.4148937612    6.5862979222    0.4074774632
    30      1    4.0084365668    6.5862979222    4.5202022096
    31      1    4.5921059448    6.5862979222    1.4356586417
    32      1   12.1589488965    1.7970929222    6.0624739855
    33      1   12.7426182745    1.7970929222    2.9779304176
    34      1    6.9198304750    1.7970929222    4.0061116123
    35      1    7.5034998530    1.7970929222    0.9215680443
    36      1   15.0703428047    6.5862979222    5.5483833881
    37      1   15.6540121827    6.5862979222    2.4638398364
    38      2    0.3548968010    2.1429884642    0.0237561247
    39      2    7.9217397526    6.9321934642    4.6505714685
    40      2    8.5054091306    6.9321934642    1.5660279006
    41      2   16.0722520822    2.1429884642    6.1928432444
    42      2   16.6559214603    2.1429884642    3.1082996927
    43      2    2.0989519362    6.9321934642    5.6787526470
    44      2    2.6826213142    6.9321934642    2.5942090953
    45      2   10.8331336608    2.1429884642    4.1364808712
    46      2   11.4168030388    2.1429884642    1.0519373194
    47      2    5.5940152224    2.1429884642    2.0801184980
    48      2   13.7445275690    6.9321934642    3.6223902738
    49      2   14.3281969470    6.9321934642    0.5378467221
    50      2    2.5133042869    0.5317562260    3.6271661742
    51      2    3.0969736650    0.5317562260    0.5426226225
    52      2   10.6638166166    5.3209612260    5.1694379663
    53      2   11.2474859946    5.3209612260    2.0848943984
    54      2    5.4246981782    5.3209612260    3.1130755931
    55      2    6.0083675731    5.3209612260    0.0285320251
    56      2   13.5752105248    0.5317562260    4.6553473689
    57      2   14.1588799028    0.5317562260    1.5708038010
    58      2    0.1855797568    5.3209612260    1.0567132198
    59      2    7.7524227084    0.5317562260    5.6835285474
    60      2    8.3360920864    0.5317562260    2.5989849957
    61      2   16.4866044329    5.3209612260    4.1412567716
    62      2    0.3548968010    8.4989339879    0.0237561247
    63      2    7.9217397526    3.7097289879    4.6505714685
    64      2    8.5054091306    3.7097289879    1.5660279006
    65      2   16.0722520822    8.4989339879    6.1928432444
    66      2   16.6559214603    8.4989339879    3.1082996927
    67      2    2.0989519362    3.7097289879    5.6787526470
    68      2    2.6826213142    3.7097289879    2.5942090953
    69      2   10.8331336608    8.4989339879    4.1364808712
    70      2   11.4168030388    8.4989339879    1.0519373194
    71      2    5.0103458444    8.4989339879    5.1646620659
    72      2    5.5940152224    8.4989339879    2.0801184980
    73      2   13.7445275690    3.7097289879    3.6223902738
    74      2   14.3281969470    3.7097289879    0.5378467221
