LAMMPS data file via write_data, version 5 Jun 2019, timestep = 33

74 atoms
2 atom types

0.0000000000000000e+00 1.6884694054200001e+01 xlo xhi
0.0000000000000000e+00 9.5784099999999999e+00 ylo yhi
0.0000000000000000e+00 1.6197619147600001e+01 zlo zhi
0.0000000000000000e+00 0.0000000000000000e+00 0.0000000000000000e+00 xy xz yz

Masses

1 58.71
2 32.06

Atoms # atomic

1 1 1.2809598238032371e+00 8.5804272484679647e+00 4.5366967420962157e+00 0 0 0
2 1 1.6807120366999999e+00 8.8448295298000001e+00 1.9497492390000000e+00 0 0 0
3 1 9.8312243663000007e+00 4.0556245298000002e+00 3.4920210149000002e+00 0 0 0
4 1 1.0519319105522356e+01 3.6151090728223161e+00 1.1804251283041454e+00 0 0 0
5 1 3.9712445879974645e+00 4.2163879257869672e+00 4.1414425793662231e+00 0 0 0
6 1 4.5962336964195494e+00 4.0478023761947499e+00 1.6783359795014618e+00 0 0 0
7 1 1.2204995568420664e+01 8.9249644229726037e+00 5.5128510087303422e+00 0 0 0
8 1 1.2742618274500002e+01 8.8448295298000001e+00 2.9779304176000001e+00 0 0 0
9 1 6.9198304750000004e+00 8.8448295298000001e+00 4.0061116122999998e+00 0 0 0
10 1 7.4821914702492505e+00 8.7445469269921023e+00 1.3258249021779751e+00 0 0 0
11 1 1.5744480796653653e+01 3.2786641373867234e+00 4.6633771045328167e+00 0 0 0
12 1 1.5654012182700001e+01 4.0556245298000002e+00 2.4638398364000000e+00 0 0 0
13 1 8.5074350419932756e+00 5.2929339864781220e+00 5.3614997642981619e+00 0 0 0
14 1 7.6778101065000000e+00 5.3209612259999997e+00 3.0845435678999999e+00 0 0 0
15 1 7.4019778353709729e+00 5.3191480340910919e+00 7.3747725592861091e-01 0 0 0
16 1 1.5828322453000000e+01 5.3175622600000005e-01 4.6268153437999997e+00 0 0 0
17 1 1.6411991831000002e+01 5.3175622600000005e-01 1.5422717759000000e+00 0 0 0
18 1 1.8550223070000005e+00 5.3209612259999997e+00 4.1127247463999996e+00 0 0 0
19 1 2.1595751221883521e+00 5.3181348812347089e+00 1.4700452983570942e+00 0 0 0
20 1 9.3136936778684962e+00 5.3344434553144116e-01 4.5432133110738446e+00 0 0 0
21 1 1.0589204014700000e+01 5.3175622600000005e-01 2.5704529705999999e+00 0 0 0
22 1 4.5375647781210189e+00 4.2030902764876915e-01 3.0685965800135953e+00 0 0 0
23 1 5.3436006642669902e+00 5.4036712089277372e-01 7.9569468262655862e-01 0 0 0
24 1 1.2227562745874152e+01 5.3163088482264298e+00 3.9891678735483986e+00 0 0 0
25 1 1.3500597922900003e+01 5.3209612259999997e+00 2.0563623731999998e+00 0 0 0
26 1 1.2826502586823978e+00 2.0760224309045667e+00 4.5319371876449308e+00 0 0 0
27 1 1.6807120366999999e+00 1.7970929222000001e+00 1.9497492390000000e+00 0 0 0
28 1 9.8312243663000007e+00 6.5862979222000009e+00 3.4920210149000002e+00 0 0 0
29 1 1.0518198229874663e+01 7.0247594173213814e+00 1.1789612654670643e+00 0 0 0
30 1 4.0551122491524643e+00 6.7893869612539168e+00 4.1492818602610830e+00 0 0 0
31 1 4.5880266824711580e+00 6.5780128775422488e+00 1.6742039184027608e+00 0 0 0
32 1 1.2258796477721294e+01 1.7983672646473678e+00 5.4883433548540390e+00 0 0 0
33 1 1.2742618274500002e+01 1.7970929222000001e+00 2.9779304176000001e+00 0 0 0
34 1 7.0099820014776286e+00 1.7641728357273923e+00 3.7005783339216634e+00 0 0 0
35 1 7.4817062332114421e+00 1.8920788706647127e+00 1.2607677397566410e+00 0 0 0
36 1 1.5747263204874603e+01 7.3613147084982407e+00 4.6627731503166618e+00 0 0 0
37 1 1.5654012182700001e+01 6.5862979222000009e+00 2.4638398364000000e+00 0 0 0
38 2 4.5723041129210112e-01 1.8771010658583591e+00 3.6501764175905421e-01 0 0 0
39 2 7.9280412619148848e+00 7.0050045274103852e+00 4.3862566449386664e+00 0 0 0
40 2 8.5054091306000004e+00 6.9321934642000000e+00 1.5660279006000000e+00 0 0 0
41 2 1.6624600832627021e+01 1.9496918706500450e+00 5.9036447265327459e+00 0 0 0
42 2 1.6655921460300000e+01 2.1429884642000001e+00 3.1082996927000002e+00 0 0 0
43 2 2.3351840069191052e+00 6.9472452741835564e+00 5.3022967400495595e+00 0 0 0
44 2 2.6826213141999999e+00 6.9321934642000000e+00 2.5942090953000001e+00 0 0 0
45 2 1.0833133660800000e+01 2.1429884642000001e+00 4.1364808711999999e+00 0 0 0
46 2 1.1553474305295795e+01 1.8961111692151940e+00 1.3013339967175026e+00 0 0 0
47 2 5.5940152224000004e+00 2.1429884642000001e+00 2.0801184980000000e+00 0 0 0
48 2 1.3744527569000001e+01 6.9321934642000000e+00 3.6223902737999998e+00 0 0 0
49 2 1.4386033938024168e+01 6.7281150515720620e+00 8.9815607702663214e-01 0 0 0
50 2 2.5133042869000000e+00 5.3175622600000005e-01 3.6271661742000001e+00 0 0 0
51 2 3.2728091966440935e+00 5.2304244478534845e-01 1.1745461929352552e+00 0 0 0
52 2 1.0510095038358093e+01 5.3209475549907488e+00 5.0701922402346522e+00 0 0 0
53 2 1.1247485994600000e+01 5.3209612259999997e+00 2.0848943983999999e+00 0 0 0
54 2 5.4246981781999999e+00 5.3209612259999997e+00 3.1130755930999987e+00 0 0 0
55 2 5.4336011848560357e+00 5.3128502257515668e+00 2.7779931391116858e-01 0 0 0
56 2 1.3575210524799999e+01 5.3175622600000005e-01 4.6553473689000002e+00 0 0 0
57 2 1.4218648767899994e+01 5.3080443715915826e-01 2.0554231357439892e+00 0 0 0
58 2 9.3674776755493169e-02 5.3208398809830113e+00 1.4271092857949930e+00 0 0 0
59 2 7.4745038038608955e+00 6.7420127552291098e-01 5.3873686932488631e+00 0 0 0
60 2 8.3360920864000008e+00 5.3175622600000005e-01 2.5989849956999986e+00 0 0 0
61 2 1.6486604432899998e+01 5.3209612259999997e+00 4.1412567715999975e+00 0 0 0
62 2 4.5408604892417415e-01 8.7621834856248419e+00 3.6569941449766169e-01 0 0 0
63 2 7.9085935239183858e+00 3.6086134187600432e+00 4.3449879684622044e+00 0 0 0
64 2 8.5054091306000004e+00 3.7097289879000002e+00 1.5660279006000000e+00 0 0 0
65 2 1.6618284261948986e+01 8.6925888449421915e+00 5.9065882333736557e+00 0 0 0
66 2 1.6655921460300000e+01 8.4989339878999992e+00 3.1082996927000002e+00 0 0 0
67 2 2.3475558093635853e+00 3.6978097986533633e+00 5.2994930377154335e+00 0 0 0
68 2 2.6826213141999999e+00 3.7097289879000002e+00 2.5942090953000001e+00 0 0 0
69 2 1.0833133660800000e+01 8.4989339878999992e+00 4.1364808711999999e+00 0 0 0
70 2 1.1552276379659492e+01 8.7435021675305702e+00 1.3033869895569061e+00 0 0 0
71 2 4.9477536426558801e+00 8.6224629314777381e+00 4.6434073918481262e+00 0 0 0
72 2 5.5940152224000004e+00 8.4989339878999992e+00 2.0801184980000000e+00 0 0 0
73 2 1.3744527569000001e+01 3.7097289879000002e+00 3.6223902737999998e+00 0 0 0
74 2 1.4386445495606964e+01 3.9144177859926690e+00 8.9759793026432855e-01 0 0 0

Velocities

1 0.0000000000000000e+00 0.0000000000000000e+00 0.0000000000000000e+00
2 0.0000000000000000e+00 0.0000000000000000e+00 0.0000000000000000e+00
3 0.0000000000000000e+00 0.0000000000000000e+00 0.0000000000000000e+00
4 0.0000000000000000e+00 0.0000000000000000e+00 0.0000000000000000e+00
5 0.0000000000000000e+00 0.0000000000000000e+00 0.0000000000000000e+00
6 0.0000000000000000e+00 0.0000000000000000e+00 0.0000000000000000e+00
7 0.0000000000000000e+00 0.0000000000000000e+00 0.0000000000000000e+00
8 0.0000000000000000e+00 0.0000000000000000e+00 0.0000000000000000e+00
9 0.0000000000000000e+00 0.0000000000000000e+00 0.0000000000000000e+00
10 0.0000000000000000e+00 0.0000000000000000e+00 0.0000000000000000e+00
11 0.0000000000000000e+00 0.0000000000000000e+00 0.0000000000000000e+00
12 0.0000000000000000e+00 0.0000000000000000e+00 0.0000000000000000e+00
13 0.0000000000000000e+00 0.0000000000000000e+00 0.0000000000000000e+00
14 0.0000000000000000e+00 0.0000000000000000e+00 0.0000000000000000e+00
15 0.0000000000000000e+00 0.0000000000000000e+00 0.0000000000000000e+00
16 0.0000000000000000e+00 0.0000000000000000e+00 0.0000000000000000e+00
17 0.0000000000000000e+00 0.0000000000000000e+00 0.0000000000000000e+00
18 0.0000000000000000e+00 0.0000000000000000e+00 0.0000000000000000e+00
19 0.0000000000000000e+00 0.0000000000000000e+00 0.0000000000000000e+00
20 0.0000000000000000e+00 0.0000000000000000e+00 0.0000000000000000e+00
21 0.0000000000000000e+00 0.0000000000000000e+00 0.0000000000000000e+00
22 0.0000000000000000e+00 0.0000000000000000e+00 0.0000000000000000e+00
23 0.0000000000000000e+00 0.0000000000000000e+00 0.0000000000000000e+00
24 0.0000000000000000e+00 0.0000000000000000e+00 0.0000000000000000e+00
25 0.0000000000000000e+00 0.0000000000000000e+00 0.0000000000000000e+00
26 0.0000000000000000e+00 0.0000000000000000e+00 0.0000000000000000e+00
27 0.0000000000000000e+00 0.0000000000000000e+00 0.0000000000000000e+00
28 0.0000000000000000e+00 0.0000000000000000e+00 0.0000000000000000e+00
29 0.0000000000000000e+00 0.0000000000000000e+00 0.0000000000000000e+00
30 0.0000000000000000e+00 0.0000000000000000e+00 0.0000000000000000e+00
31 0.0000000000000000e+00 0.0000000000000000e+00 0.0000000000000000e+00
32 0.0000000000000000e+00 0.0000000000000000e+00 0.0000000000000000e+00
33 0.0000000000000000e+00 0.0000000000000000e+00 0.0000000000000000e+00
34 0.0000000000000000e+00 0.0000000000000000e+00 0.0000000000000000e+00
35 0.0000000000000000e+00 0.0000000000000000e+00 0.0000000000000000e+00
36 0.0000000000000000e+00 0.0000000000000000e+00 0.0000000000000000e+00
37 0.0000000000000000e+00 0.0000000000000000e+00 0.0000000000000000e+00
38 0.0000000000000000e+00 0.0000000000000000e+00 0.0000000000000000e+00
39 0.0000000000000000e+00 0.0000000000000000e+00 0.0000000000000000e+00
40 0.0000000000000000e+00 0.0000000000000000e+00 0.0000000000000000e+00
41 0.0000000000000000e+00 0.0000000000000000e+00 0.0000000000000000e+00
42 0.0000000000000000e+00 0.0000000000000000e+00 0.0000000000000000e+00
43 0.0000000000000000e+00 0.0000000000000000e+00 0.0000000000000000e+00
44 0.0000000000000000e+00 0.0000000000000000e+00 0.0000000000000000e+00
45 0.0000000000000000e+00 0.0000000000000000e+00 0.0000000000000000e+00
46 0.0000000000000000e+00 0.0000000000000000e+00 0.0000000000000000e+00
47 0.0000000000000000e+00 0.0000000000000000e+00 0.0000000000000000e+00
48 0.0000000000000000e+00 0.0000000000000000e+00 0.0000000000000000e+00
49 0.0000000000000000e+00 0.0000000000000000e+00 0.0000000000000000e+00
50 0.0000000000000000e+00 0.0000000000000000e+00 0.0000000000000000e+00
51 0.0000000000000000e+00 0.0000000000000000e+00 0.0000000000000000e+00
52 0.0000000000000000e+00 0.0000000000000000e+00 0.0000000000000000e+00
53 0.0000000000000000e+00 0.0000000000000000e+00 0.0000000000000000e+00
54 0.0000000000000000e+00 0.0000000000000000e+00 0.0000000000000000e+00
55 0.0000000000000000e+00 0.0000000000000000e+00 0.0000000000000000e+00
56 0.0000000000000000e+00 0.0000000000000000e+00 0.0000000000000000e+00
57 0.0000000000000000e+00 0.0000000000000000e+00 0.0000000000000000e+00
58 0.0000000000000000e+00 0.0000000000000000e+00 0.0000000000000000e+00
59 0.0000000000000000e+00 0.0000000000000000e+00 0.0000000000000000e+00
60 0.0000000000000000e+00 0.0000000000000000e+00 0.0000000000000000e+00
61 0.0000000000000000e+00 0.0000000000000000e+00 0.0000000000000000e+00
62 0.0000000000000000e+00 0.0000000000000000e+00 0.0000000000000000e+00
63 0.0000000000000000e+00 0.0000000000000000e+00 0.0000000000000000e+00
64 0.0000000000000000e+00 0.0000000000000000e+00 0.0000000000000000e+00
65 0.0000000000000000e+00 0.0000000000000000e+00 0.0000000000000000e+00
66 0.0000000000000000e+00 0.0000000000000000e+00 0.0000000000000000e+00
67 0.0000000000000000e+00 0.0000000000000000e+00 0.0000000000000000e+00
68 0.0000000000000000e+00 0.0000000000000000e+00 0.0000000000000000e+00
69 0.0000000000000000e+00 0.0000000000000000e+00 0.0000000000000000e+00
70 0.0000000000000000e+00 0.0000000000000000e+00 0.0000000000000000e+00
71 0.0000000000000000e+00 0.0000000000000000e+00 0.0000000000000000e+00
72 0.0000000000000000e+00 0.0000000000000000e+00 0.0000000000000000e+00
73 0.0000000000000000e+00 0.0000000000000000e+00 0.0000000000000000e+00
74 0.0000000000000000e+00 0.0000000000000000e+00 0.0000000000000000e+00
