LAMMPS (5 Jun 2019)
OMP_NUM_THREADS environment is not set. Defaulting to 1 thread. (../comm.cpp:88)
  using 1 OpenMP thread(s) per MPI task
Reading data file ...
  triclinic box = (0 0 0) to (10.0797 9.4251 20.6835) with tilt (3.5733 0 0)
  1 by 1 by 1 MPI processor grid
  reading atoms ...
  72 atoms
  read_data CPU = 0.000780508 secs
46 atoms in group bulk
WARNING: Using 'neigh_modify every 1 delay 0 check yes' setting during minimization (../min.cpp:168)
Neighbor list info ...
  update every 1 steps, delay 0 steps, check yes
  max neighbors/atom: 2000, page size: 100000
  master list distance cutoff = 8.5
  ghost atom cutoff = 8.5
  binsize = 4.25, bins = 4 3 5
  1 neighbor lists, perpetual/occasional/extra = 1 0 0
  (1) pair eam/alloy, perpetual
      attributes: half, newton on
      pair build: half/bin/newton/tri
      stencil: half/bin/3d/newton/tri
      bin: standard
Setting up cg style minimization ...
  Unit style    : metal
  Current step  : 0
Per MPI rank memory allocation (min/avg/max) = 4.115 | 4.115 | 4.115 Mbytes
Step Temp E_pair E_mol TotEng Press 
       0            0   -307.33443            0   -307.33443   -127624.36 
      32            0   -323.69616            0   -323.69616   -55533.772 
Loop time of 0.0233454 on 1 procs for 32 steps with 72 atoms

99.2% CPU use with 1 MPI tasks x 1 OpenMP threads

Minimization stats:
  Stopping criterion = energy tolerance
  Energy initial, next-to-last, final = 
        -307.334429649     -323.693936952     -323.696157284
  Force two-norm initial, final = 11.1485 0.17355
  Force max component initial, final = 3.11923 0.0739643
  Final line search alpha, max atom move = 0.593503 0.0438981
  Iterations, force evaluations = 32 48

MPI task timing breakdown:
Section |  min time  |  avg time  |  max time  |%varavg| %total
---------------------------------------------------------------
Pair    | 0.021392   | 0.021392   | 0.021392   |   0.0 | 91.63
Neigh   | 0.0010486  | 0.0010486  | 0.0010486  |   0.0 |  4.49
Comm    | 0.00048207 | 0.00048207 | 0.00048207 |   0.0 |  2.06
Output  | 0          | 0          | 0          |   0.0 |  0.00
Modify  | 3.5435e-05 | 3.5435e-05 | 3.5435e-05 |   0.0 |  0.15
Other   |            | 0.0003874  |            |       |  1.66

Nlocal:    72 ave 72 max 72 min
Histogram: 1 0 0 0 0 0 0 0 0 0
Nghost:    953 ave 953 max 953 min
Histogram: 1 0 0 0 0 0 0 0 0 0
Neighs:    4776 ave 4776 max 4776 min
Histogram: 1 0 0 0 0 0 0 0 0 0

Total # of neighbors = 4776
Ave neighs/atom = 66.3333
Neighbor list builds = 2
Dangerous builds = 0
System init for write_data ...
Total wall time: 0:00:00
