  52  52   0   0
  0.3564765E+02  0.1125646E-08  0.9578410E-09  0.1719249E-08  0.5000000E-15
  1.000000000000000E-004
  CAR 
 "Millerite NiS"                         
      9.01464465    -68.00692939  301     -0.39198081      1.00000000
    -68.007  0.0000E+00  0.0000E+00
    -67.750  0.0000E+00  0.0000E+00
    -67.493  0.0000E+00  0.0000E+00
    -67.237  0.0000E+00  0.0000E+00
    -66.980  0.0000E+00  0.0000E+00
    -66.723  0.0000E+00  0.0000E+00
    -66.466  0.0000E+00  0.0000E+00
    -66.210  0.0000E+00  0.0000E+00
    -65.953  0.0000E+00  0.0000E+00
    -65.696  0.0000E+00  0.0000E+00
    -65.440  0.4819E-09  0.1237E-09
    -65.183  0.2438E-04  0.6259E-05
    -64.926  0.5649E-01  0.1451E-01
    -64.669  0.7246E+01  0.1875E+01
    -64.413  0.7593E+02  0.2137E+02
    -64.156  0.1337E+03  0.5570E+02
    -63.899  0.1512E+03  0.9451E+02
    -63.642  0.1052E+03  0.1215E+03
    -63.386  0.7082E+02  0.1397E+03
    -63.129  0.4265E+02  0.1506E+03
    -62.872  0.1341E+02  0.1541E+03
    -62.615  0.6981E+01  0.1559E+03
    -62.359  0.4652E+00  0.1560E+03
    -62.102  0.1701E-02  0.1560E+03
    -61.845  0.2762E-06  0.1560E+03
    -61.588  0.1827E-11  0.1560E+03
    -61.332  0.0000E+00  0.1560E+03
    -61.075  0.0000E+00  0.1560E+03
    -60.818  0.0000E+00  0.1560E+03
    -60.562  0.0000E+00  0.1560E+03
    -60.305  0.0000E+00  0.1560E+03
    -60.048  0.0000E+00  0.1560E+03
    -59.791  0.0000E+00  0.1560E+03
    -59.535  0.0000E+00  0.1560E+03
    -59.278  0.0000E+00  0.1560E+03
    -59.021  0.0000E+00  0.1560E+03
    -58.764  0.0000E+00  0.1560E+03
    -58.508  0.0000E+00  0.1560E+03
    -58.251  0.0000E+00  0.1560E+03
    -57.994  0.0000E+00  0.1560E+03
    -57.737  0.0000E+00  0.1560E+03
    -57.481  0.0000E+00  0.1560E+03
    -57.224  0.0000E+00  0.1560E+03
    -56.967  0.0000E+00  0.1560E+03
    -56.710  0.0000E+00  0.1560E+03
    -56.454  0.0000E+00  0.1560E+03
    -56.197  0.0000E+00  0.1560E+03
    -55.940  0.0000E+00  0.1560E+03
    -55.683  0.0000E+00  0.1560E+03
    -55.427  0.0000E+00  0.1560E+03
    -55.170  0.0000E+00  0.1560E+03
    -54.913  0.0000E+00  0.1560E+03
    -54.657  0.0000E+00  0.1560E+03
    -54.400  0.0000E+00  0.1560E+03
    -54.143  0.0000E+00  0.1560E+03
    -53.886  0.0000E+00  0.1560E+03
    -53.630  0.0000E+00  0.1560E+03
    -53.373  0.0000E+00  0.1560E+03
    -53.116  0.0000E+00  0.1560E+03
    -52.859  0.0000E+00  0.1560E+03
    -52.603  0.0000E+00  0.1560E+03
    -52.346  0.0000E+00  0.1560E+03
    -52.089  0.0000E+00  0.1560E+03
    -51.832  0.0000E+00  0.1560E+03
    -51.576  0.0000E+00  0.1560E+03
    -51.319  0.0000E+00  0.1560E+03
    -51.062  0.0000E+00  0.1560E+03
    -50.805  0.0000E+00  0.1560E+03
    -50.549  0.0000E+00  0.1560E+03
    -50.292  0.0000E+00  0.1560E+03
    -50.035  0.0000E+00  0.1560E+03
    -49.778  0.0000E+00  0.1560E+03
    -49.522  0.0000E+00  0.1560E+03
    -49.265  0.0000E+00  0.1560E+03
    -49.008  0.0000E+00  0.1560E+03
    -48.752  0.0000E+00  0.1560E+03
    -48.495  0.0000E+00  0.1560E+03
    -48.238  0.0000E+00  0.1560E+03
    -47.981  0.0000E+00  0.1560E+03
    -47.725  0.0000E+00  0.1560E+03
    -47.468  0.0000E+00  0.1560E+03
    -47.211  0.0000E+00  0.1560E+03
    -46.954  0.0000E+00  0.1560E+03
    -46.698  0.0000E+00  0.1560E+03
    -46.441  0.0000E+00  0.1560E+03
    -46.184  0.0000E+00  0.1560E+03
    -45.927  0.0000E+00  0.1560E+03
    -45.671  0.0000E+00  0.1560E+03
    -45.414  0.0000E+00  0.1560E+03
    -45.157  0.0000E+00  0.1560E+03
    -44.900  0.0000E+00  0.1560E+03
    -44.644  0.0000E+00  0.1560E+03
    -44.387  0.0000E+00  0.1560E+03
    -44.130  0.0000E+00  0.1560E+03
    -43.874  0.0000E+00  0.1560E+03
    -43.617  0.0000E+00  0.1560E+03
    -43.360  0.0000E+00  0.1560E+03
    -43.103  0.0000E+00  0.1560E+03
    -42.847  0.0000E+00  0.1560E+03
    -42.590  0.0000E+00  0.1560E+03
    -42.333  0.0000E+00  0.1560E+03
    -42.076  0.0000E+00  0.1560E+03
    -41.820  0.0000E+00  0.1560E+03
    -41.563  0.0000E+00  0.1560E+03
    -41.306  0.0000E+00  0.1560E+03
    -41.049  0.0000E+00  0.1560E+03
    -40.793  0.0000E+00  0.1560E+03
    -40.536  0.0000E+00  0.1560E+03
    -40.279  0.0000E+00  0.1560E+03
    -40.022  0.0000E+00  0.1560E+03
    -39.766  0.0000E+00  0.1560E+03
    -39.509  0.0000E+00  0.1560E+03
    -39.252  0.0000E+00  0.1560E+03
    -38.995  0.0000E+00  0.1560E+03
    -38.739  0.0000E+00  0.1560E+03
    -38.482  0.0000E+00  0.1560E+03
    -38.225  0.0000E+00  0.1560E+03
    -37.969  0.0000E+00  0.1560E+03
    -37.712  0.0000E+00  0.1560E+03
    -37.455  0.0000E+00  0.1560E+03
    -37.198  0.0000E+00  0.1560E+03
    -36.942  0.0000E+00  0.1560E+03
    -36.685  0.0000E+00  0.1560E+03
    -36.428  0.0000E+00  0.1560E+03
    -36.171  0.0000E+00  0.1560E+03
    -35.915  0.0000E+00  0.1560E+03
    -35.658  0.0000E+00  0.1560E+03
    -35.401  0.0000E+00  0.1560E+03
    -35.144  0.0000E+00  0.1560E+03
    -34.888  0.0000E+00  0.1560E+03
    -34.631  0.0000E+00  0.1560E+03
    -34.374  0.0000E+00  0.1560E+03
    -34.117  0.0000E+00  0.1560E+03
    -33.861  0.0000E+00  0.1560E+03
    -33.604  0.0000E+00  0.1560E+03
    -33.347  0.0000E+00  0.1560E+03
    -33.090  0.0000E+00  0.1560E+03
    -32.834  0.0000E+00  0.1560E+03
    -32.577  0.0000E+00  0.1560E+03
    -32.320  0.0000E+00  0.1560E+03
    -32.064  0.0000E+00  0.1560E+03
    -31.807  0.0000E+00  0.1560E+03
    -31.550  0.0000E+00  0.1560E+03
    -31.293  0.0000E+00  0.1560E+03
    -31.037  0.0000E+00  0.1560E+03
    -30.780  0.0000E+00  0.1560E+03
    -30.523  0.0000E+00  0.1560E+03
    -30.266  0.0000E+00  0.1560E+03
    -30.010  0.0000E+00  0.1560E+03
    -29.753  0.0000E+00  0.1560E+03
    -29.496  0.0000E+00  0.1560E+03
    -29.239  0.0000E+00  0.1560E+03
    -28.983  0.0000E+00  0.1560E+03
    -28.726  0.0000E+00  0.1560E+03
    -28.469  0.0000E+00  0.1560E+03
    -28.212  0.0000E+00  0.1560E+03
    -27.956  0.0000E+00  0.1560E+03
    -27.699  0.0000E+00  0.1560E+03
    -27.442  0.0000E+00  0.1560E+03
    -27.185  0.0000E+00  0.1560E+03
    -26.929  0.0000E+00  0.1560E+03
    -26.672  0.0000E+00  0.1560E+03
    -26.415  0.0000E+00  0.1560E+03
    -26.159  0.0000E+00  0.1560E+03
    -25.902  0.0000E+00  0.1560E+03
    -25.645  0.0000E+00  0.1560E+03
    -25.388  0.0000E+00  0.1560E+03
    -25.132  0.0000E+00  0.1560E+03
    -24.875  0.0000E+00  0.1560E+03
    -24.618  0.0000E+00  0.1560E+03
    -24.361  0.0000E+00  0.1560E+03
    -24.105  0.0000E+00  0.1560E+03
    -23.848  0.0000E+00  0.1560E+03
    -23.591  0.0000E+00  0.1560E+03
    -23.334  0.0000E+00  0.1560E+03
    -23.078  0.0000E+00  0.1560E+03
    -22.821  0.0000E+00  0.1560E+03
    -22.564  0.0000E+00  0.1560E+03
    -22.307  0.0000E+00  0.1560E+03
    -22.051  0.0000E+00  0.1560E+03
    -21.794  0.0000E+00  0.1560E+03
    -21.537  0.0000E+00  0.1560E+03
    -21.281  0.0000E+00  0.1560E+03
    -21.024  0.0000E+00  0.1560E+03
    -20.767  0.0000E+00  0.1560E+03
    -20.510  0.0000E+00  0.1560E+03
    -20.254  0.0000E+00  0.1560E+03
    -19.997  0.0000E+00  0.1560E+03
    -19.740  0.0000E+00  0.1560E+03
    -19.483  0.0000E+00  0.1560E+03
    -19.227  0.0000E+00  0.1560E+03
    -18.970  0.0000E+00  0.1560E+03
    -18.713  0.0000E+00  0.1560E+03
    -18.456  0.0000E+00  0.1560E+03
    -18.200  0.0000E+00  0.1560E+03
    -17.943  0.0000E+00  0.1560E+03
    -17.686  0.0000E+00  0.1560E+03
    -17.429  0.0000E+00  0.1560E+03
    -17.173  0.0000E+00  0.1560E+03
    -16.916  0.0000E+00  0.1560E+03
    -16.659  0.0000E+00  0.1560E+03
    -16.402  0.2469E-12  0.1560E+03
    -16.146  0.5084E-07  0.1560E+03
    -15.889  0.4239E-03  0.1560E+03
    -15.632  0.1551E+00  0.1560E+03
    -15.376  0.3004E+01  0.1568E+03
    -15.119  0.4364E+01  0.1579E+03
    -14.862  0.5065E+01  0.1592E+03
    -14.605  0.1330E+02  0.1626E+03
    -14.349  0.1011E+02  0.1652E+03
    -14.092  0.1764E+02  0.1698E+03
    -13.835  0.2070E+02  0.1751E+03
    -13.578  0.2063E+02  0.1804E+03
    -13.322  0.1967E+02  0.1854E+03
    -13.065  0.1355E+02  0.1889E+03
    -12.808  0.2094E+02  0.1943E+03
    -12.551  0.2659E+02  0.2011E+03
    -12.295  0.1048E+02  0.2038E+03
    -12.038  0.2598E+01  0.2045E+03
    -11.781  0.9627E+01  0.2069E+03
    -11.524  0.4002E+01  0.2080E+03
    -11.268  0.1126E+00  0.2080E+03
    -11.011  0.1594E-03  0.2080E+03
    -10.754  0.9694E-08  0.2080E+03
    -10.497  0.2335E-13  0.2080E+03
    -10.241  0.0000E+00  0.2080E+03
     -9.984  0.0000E+00  0.2080E+03
     -9.727  0.0000E+00  0.2080E+03
     -9.471  0.0000E+00  0.2080E+03
     -9.214  0.0000E+00  0.2080E+03
     -8.957  0.0000E+00  0.2080E+03
     -8.700  0.0000E+00  0.2080E+03
     -8.444  0.0000E+00  0.2080E+03
     -8.187  0.4426E-11  0.2080E+03
     -7.930  0.4573E-06  0.2080E+03
     -7.673  0.1940E-02  0.2080E+03
     -7.417  0.3764E+00  0.2081E+03
     -7.160  0.4868E+01  0.2093E+03
     -6.903  0.1336E+02  0.2128E+03
     -6.646  0.2033E+02  0.2180E+03
     -6.390  0.2553E+02  0.2246E+03
     -6.133  0.2167E+02  0.2301E+03
     -5.876  0.3130E+02  0.2382E+03
     -5.619  0.3530E+02  0.2472E+03
     -5.363  0.3608E+02  0.2565E+03
     -5.106  0.3048E+02  0.2643E+03
     -4.849  0.2969E+02  0.2719E+03
     -4.593  0.4249E+02  0.2828E+03
     -4.336  0.4145E+02  0.2935E+03
     -4.079  0.4116E+02  0.3040E+03
     -3.822  0.5047E+02  0.3170E+03
     -3.566  0.3910E+02  0.3270E+03
     -3.309  0.4303E+02  0.3381E+03
     -3.052  0.5295E+02  0.3517E+03
     -2.795  0.5287E+02  0.3653E+03
     -2.539  0.5571E+02  0.3796E+03
     -2.282  0.7832E+02  0.3997E+03
     -2.025  0.9939E+02  0.4252E+03
     -1.768  0.1090E+03  0.4532E+03
     -1.512  0.1182E+03  0.4835E+03
     -1.255  0.1079E+03  0.5112E+03
     -0.998  0.9156E+02  0.5347E+03
     -0.741  0.6614E+02  0.5517E+03
     -0.485  0.6130E+02  0.5674E+03
     -0.228  0.4114E+02  0.5780E+03
      0.029  0.3685E+02  0.5875E+03
      0.286  0.4246E+02  0.5984E+03
      0.542  0.4067E+02  0.6088E+03
      0.799  0.3465E+02  0.6177E+03
      1.056  0.2190E+02  0.6233E+03
      1.312  0.7909E+01  0.6254E+03
      1.569  0.3526E+01  0.6263E+03
      1.826  0.8601E+01  0.6285E+03
      2.083  0.6131E+01  0.6301E+03
      2.339  0.7550E+01  0.6320E+03
      2.596  0.1302E+02  0.6353E+03
      2.853  0.9363E+01  0.6377E+03
      3.110  0.6697E+01  0.6395E+03
      3.366  0.7499E+01  0.6414E+03
      3.623  0.1414E+02  0.6450E+03
      3.880  0.7717E+01  0.6470E+03
      4.137  0.1596E+02  0.6511E+03
      4.393  0.1774E+02  0.6556E+03
      4.650  0.2261E+02  0.6614E+03
      4.907  0.2904E+02  0.6689E+03
      5.164  0.2829E+02  0.6762E+03
      5.420  0.3136E+02  0.6842E+03
      5.677  0.1345E+02  0.6877E+03
      5.934  0.1266E+01  0.6880E+03
      6.191  0.1241E-01  0.6880E+03
      6.447  0.6743E-05  0.6880E+03
      6.704  0.1592E-09  0.6880E+03
      6.961  0.0000E+00  0.6880E+03
      7.217  0.0000E+00  0.6880E+03
      7.474  0.0000E+00  0.6880E+03
      7.731  0.0000E+00  0.6880E+03
      7.988  0.0000E+00  0.6880E+03
      8.244  0.0000E+00  0.6880E+03
      8.501  0.0000E+00  0.6880E+03
      8.758  0.0000E+00  0.6880E+03
      9.015  0.0000E+00  0.6880E+03
