"Millerite NiS"                         
           1
    16.884694    0.000000    0.000000
     0.000000    9.578410    0.000000
     0.000000    0.000000   16.169087
   Ty   Ty
  36  36
Direct configuration=     1
   0.78004631  0.14529695  0.12058499
   0.79923399  0.14529409  0.28562381
   0.21533245  0.66798248  0.09655513
   0.29733029  0.64529695  0.21596896
   0.38964031  0.16313793  0.11791299
   0.46975828  0.14529695  0.24776362
   0.95247430  0.64529695  0.15237965
   0.95088405  0.64624869  0.30487731
   0.12490229  0.14529695  0.18417431
   0.08206356  0.12776219  0.31931910
   0.64218627  0.64529695  0.27955828
   0.91028470  0.00367979  0.11705891
   0.94400616  0.01089314  0.27202678
   0.42191109  0.41646374  0.05784079
   0.42486676  0.51319395  0.19076795
   0.45860513  0.48203740  0.33839889
   0.53066411  0.14586708  0.08880959
   0.59729475  0.01319395  0.22256260
   0.08001077  0.51319395  0.12717863
   0.10474252  0.36892068  0.24373709
   0.25243876  0.01319395  0.15897329
   0.29599993  0.96600880  0.29785165
   0.77522868  0.43006411  0.11607315
   0.76972274  0.51319395  0.25435726
   0.91116586  0.28792543  0.11788454
   0.94744951  0.27944344  0.27256024
   0.36146600  0.64754642  0.06134286
   0.42486676  0.77739995  0.19076795
   0.47050587  0.82883452  0.32922061
   0.63478626  0.34780719  0.08386879
   0.59729475  0.27739995  0.22256260
   0.08001077  0.77739995  0.12717863
   0.11387361  0.79448771  0.28665638
   0.25243876  0.27739995  0.15897329
   0.77743870  0.85551234  0.11760502
   0.76972274  0.77739995  0.25435726
   0.97174300  0.14327218  0.36768463
   0.99146121  0.14529695  0.18240970
   0.47572521  0.61622332  0.09222649
   0.50874518  0.64529695  0.27779368
   0.64660522  0.14529695  0.11882039
   0.67686229  0.14508502  0.28610470
   0.11280402  0.64592502  0.03237830
   0.16388920  0.64529695  0.21420436
   0.28088989  0.14635326  0.06250314
   0.33828237  0.13589950  0.23263876
   0.81903321  0.64529695  0.15061505
   0.83459643  0.64484491  0.33148860
   0.81886664  0.28975798  0.03364775
   0.82906105  0.31351195  0.21449973
   0.31177708  0.81351195  0.11911576
   0.35518204  0.78189176  0.30035789
   0.48420507  0.31351195  0.15091042
   0.51929881  0.30285006  0.32196031
   0.00148905  0.81351195  0.24629439
   0.96755155  0.82091163  0.07851036
   0.13962079  0.32711717  0.11606330
   0.19083149  0.24109658  0.28280495
   0.66803711  0.82788251  0.18798882
   0.69197944  0.79274413  0.35094880
   0.31177708  0.47708195  0.11911576
   0.34776232  0.48902223  0.29139202
   0.81703609  0.99703818  0.03487455
   0.82906105  0.97708195  0.21449973
   0.00148905  0.47708195  0.24629439
   0.96745045  0.47074651  0.07770179
   0.48420507  0.97708195  0.15091042
   0.52869674  0.01124193  0.32823036
   0.66520541  0.46914920  0.18352751
   0.69131662  0.49535058  0.34976352
   0.14119878  0.96528268  0.10899579
   0.17391704  0.97708195  0.27808905
