 vasp.6.1.0 28Jan20 (build Mar 31 2020 17:42:31) gamma-only                     
  
 executed on             LinuxIFC date 2020.04.13  04:49:23
 running on   48 total cores
 distrk:  each k-point on   48 cores,    1 groups
 distr:  one band on NCORE=   6 cores,    8 groups


--------------------------------------------------------------------------------------------------------


 INCAR:
 POTCAR:    PAW_PBE Ni_pv 06Sep2000               
 POTCAR:    PAW_PBE S 06Sep2000                   
 POTCAR:    PAW_PBE Ni_pv 06Sep2000               
   VRHFIN =Ni:                                                                                      
   LEXCH  = PE                                                                                      
   EATOM  =  3501.1230 eV,  257.3253 Ry                                                             
                                                                                                    
   TITEL  = PAW_PBE Ni_pv 06Sep2000                                                                 
   LULTRA =        F    use ultrasoft PP ?                                                          
   IUNSCR =        1    unscreen: 0-lin 1-nonlin 2-no                                               
   RPACOR =    1.500    partial core radius                                                         
   POMASS =   58.690; ZVAL   =   16.000    mass and valenz                                          
   RCORE  =    2.000    outmost cutoff radius                                                       
   RWIGS  =    2.000; RWIGS  =    1.058    wigner-seitz radius (au A)                               
   ENMAX  =  367.986; ENMIN  =  275.989 eV                                                          
   RCLOC  =    1.301    cutoff for local pot                                                        
   LCOR   =        T    correct aug charges                                                         
   LPAW   =        T    paw PP                                                                      
   EAUG   =  703.443                                                                                
   DEXC   =    0.000                                                                                
   RMAX   =    2.041    core radius for proj-oper                                                   
   RAUG   =    1.300    factor for augmentation sphere                                              
   RDEP   =    2.103    radius for radial grids                                                     
   RDEPT  =    1.618    core radius for aug-charge                                                  
                                                                                                    
   Atomic configuration                                                                             
    8 entries                                                                                       
     n  l   j            E        occ.                                                              
     1  0  0.50     -8206.4253   2.0000                                                             
     2  0  0.50      -976.1748   2.0000                                                             
     2  1  1.50      -839.0571   6.0000                                                             
     3  0  0.50      -105.9991   2.0000                                                             
     3  1  1.50       -66.4603   6.0000                                                             
     3  2  2.50        -4.6458   9.0000                                                             
     4  0  0.50        -4.4926   1.0000                                                             
     4  3  2.50        -1.3606   0.0000                                                             
   Description                                                                                      
     l       E           TYP  RCUT    TYP  RCUT                                                     
     1    -66.4602962     23  1.700                                                                 
     1     -1.3605826     23  1.700                                                                 
     2     -4.6457867     23  2.000                                                                 
     2     -6.0063693     23  2.000                                                                 
     0     -4.4925576     23  1.900                                                                 
     0     16.3626226     23  1.900                                                                 
  local pseudopotential read in
  partial core-charges read in
  partial kinetic energy density read in
  atomic valenz-charges read in
  non local Contribution for L=           1  read in
    real space projection operators read in
  non local Contribution for L=           1  read in
    real space projection operators read in
  non local Contribution for L=           2  read in
    real space projection operators read in
  non local Contribution for L=           2  read in
    real space projection operators read in
  non local Contribution for L=           0  read in
    real space projection operators read in
  non local Contribution for L=           0  read in
    real space projection operators read in
    PAW grid and wavefunctions read in
 
   number of l-projection  operators is LMAX  =           6
   number of lm-projection operators is LMMAX =          18
 
 POTCAR:    PAW_PBE S 06Sep2000                   
   VRHFIN =S : s2p4                                                                                 
   LEXCH  = PE                                                                                      
   EATOM  =   276.8230 eV,   20.3459 Ry                                                             
                                                                                                    
   TITEL  = PAW_PBE S 06Sep2000                                                                     
   LULTRA =        F    use ultrasoft PP ?                                                          
   IUNSCR =        1    unscreen: 0-lin 1-nonlin 2-no                                               
   RPACOR =    1.500    partial core radius                                                         
   POMASS =   32.066; ZVAL   =    6.000    mass and valenz                                          
   RCORE  =    1.900    outmost cutoff radius                                                       
   RWIGS  =    2.200; RWIGS  =    1.164    wigner-seitz radius (au A)                               
   ENMAX  =  258.689; ENMIN  =  194.016 eV                                                          
   ICORE  =        2    local potential                                                             
   LCOR   =        T    correct aug charges                                                         
   LPAW   =        T    paw PP                                                                      
   EAUG   =  335.092                                                                                
   DEXC   =    0.000                                                                                
   RMAX   =    1.942    core radius for proj-oper                                                   
   RAUG   =    1.300    factor for augmentation sphere                                              
   RDEP   =    1.954    radius for radial grids                                                     
   RDEPT  =    1.744    core radius for aug-charge                                                  
                                                                                                    
   Atomic configuration                                                                             
    6 entries                                                                                       
     n  l   j            E        occ.                                                              
     1  0  0.50     -2405.8406   2.0000                                                             
     2  0  0.50      -211.7007   2.0000                                                             
     2  1  1.50      -156.4958   6.0000                                                             
     3  0  0.50       -17.2562   2.0000                                                             
     3  1  0.50        -7.0085   4.0000                                                             
     3  2  1.50        -6.8029   0.0000                                                             
   Description                                                                                      
     l       E           TYP  RCUT    TYP  RCUT                                                     
     0    -17.2561641     23  1.900                                                                 
     0    -15.8743224     23  1.900                                                                 
     1     -7.0085400     23  1.900                                                                 
     1     -2.7779785     23  1.900                                                                 
     2     -6.8029130     23  1.900                                                                 
  local pseudopotential read in
  partial core-charges read in
  partial kinetic energy density read in
  atomic valenz-charges read in
  non local Contribution for L=           0  read in
    real space projection operators read in
  non local Contribution for L=           0  read in
    real space projection operators read in
  non local Contribution for L=           1  read in
    real space projection operators read in
  non local Contribution for L=           1  read in
    real space projection operators read in
    PAW grid and wavefunctions read in
 
   number of l-projection  operators is LMAX  =           4
   number of lm-projection operators is LMMAX =           8
 
 Optimization of the real space projectors (new method)

 maximal supplied QI-value         = 18.90
 optimisation between [QCUT,QGAM] = [ 10.77, 21.73] = [ 32.49,132.25] Ry 
 Optimized for a Real-space Cutoff    1.38 Angstroem

   l    n(q)    QCUT    max X(q) W(low)/X(q) W(high)/X(q)  e(spline) 
   1      8    10.771     2.836    0.40E-04    0.29E-04    0.12E-06
   1      8    10.771     4.023    0.10E-03    0.48E-04    0.29E-06
   2      8    10.771    73.368    0.42E-03    0.97E-04    0.44E-06
   2      8    10.771    69.010    0.42E-03    0.99E-04    0.45E-06
   0      9    10.771    54.797    0.10E-03    0.56E-04    0.74E-07
   0      9    10.771    24.266    0.89E-04    0.49E-04    0.67E-07
 Optimization of the real space projectors (new method)

 maximal supplied QI-value         = 19.84
 optimisation between [QCUT,QGAM] = [ 10.71, 21.63] = [ 32.15,130.99] Ry 
 Optimized for a Real-space Cutoff    1.19 Angstroem

   l    n(q)    QCUT    max X(q) W(low)/X(q) W(high)/X(q)  e(spline) 
   0      8    10.715   187.594    0.41E-03    0.53E-04    0.66E-07
   0      8    10.715   164.243    0.41E-03    0.53E-04    0.65E-07
   1      7    10.715    67.533    0.19E-03    0.59E-03    0.68E-07
   1      7    10.715    50.729    0.19E-03    0.58E-03    0.67E-07
  PAW_PBE Ni_pv 06Sep2000               :
 energy of atom  1       EATOM=-3501.1230
 kinetic energy error for atom=    0.0925 (will be added to EATOM!!)
  PAW_PBE S 06Sep2000                   :
 energy of atom  2       EATOM= -276.8230
 kinetic energy error for atom=    0.0033 (will be added to EATOM!!)
 
 
 POSCAR: Structure 6 made from 02-1-7.xsd file
  positions in direct lattice
  No initial velocities read in
 exchange correlation table for  LEXCH =        8
   RHO(1)=    0.500       N(1)  =     2000
   RHO(2)=  100.500       N(2)  =     4000
 


--------------------------------------------------------------------------------------------------------


 ion  position               nearest neighbor table
   1  0.580  0.074  0.354-  44 2.25  66 2.26  51 2.26  63 2.36  52 2.36  26 2.53  14 2.53
   2  0.763  0.165  0.233-  45 2.25  52 2.26  63 2.26  53 2.36  64 2.36  15 2.53  27 2.53
   3  0.945  0.256  0.111-  42 2.25  53 2.26  64 2.26  50 2.36  28 2.53
   4  0.398  0.983  0.475-  65 2.26  51 2.36  66 2.36  13 2.53  25 2.53
   5  0.035  0.802  0.273-  46 2.25  57 2.26  70 2.26  54 2.36  67 2.36  19 2.53  29 2.53
   6  0.217  0.893  0.152-  47 2.25  67 2.26  54 2.26  68 2.36  55 2.36  30 2.53  16 2.53
   7  0.399  0.984  0.031-  48 2.25  68 2.26  55 2.26  56 2.36  31 2.53
   8  0.671  0.620  0.516-  58 2.36  69 2.36  17 2.53  32 2.53
   9  0.853  0.711  0.394-  49 2.25  69 2.26  58 2.26  57 2.36  70 2.36  33 2.53  18 2.53
  10  0.308  0.438  0.313-  39 2.25  59 2.26  71 2.26  60 2.36  72 2.36  20 2.53  35 2.53
  11  0.490  0.529  0.192-  40 2.25  60 2.26  72 2.26  61 2.36  73 2.36  36 2.53  21 2.53
  12  0.672  0.620  0.071-  41 2.25  73 2.26  61 2.26  62 2.36  22 2.53  37 2.53
  13  0.230  0.031  0.411-  57 2.25  65 2.26  38 2.26  66 2.36  39 2.36   4 2.53  25 2.53
  14  0.412  0.122  0.290-  54 2.25  39 2.26  66 2.26  63 2.36  40 2.36  26 2.53   1 2.53
  15  0.595  0.214  0.169-  55 2.25  63 2.26  40 2.26  64 2.36  41 2.36   2 2.53  27 2.53
  16  0.049  0.941  0.088-  62 2.25  42 2.26  67 2.26  43 2.36  68 2.36  30 2.53   6 2.53
  17  0.503  0.668  0.451-  59 2.25  44 2.36  69 2.36   8 2.53  32 2.53
  18  0.685  0.759  0.330-  60 2.25  44 2.26  69 2.26  70 2.36  45 2.36  33 2.53   9 2.53
  19  0.867  0.850  0.209-  61 2.25  70 2.26  45 2.26  42 2.36  67 2.36   5 2.53  29 2.53
  20  0.140  0.486  0.249-  53 2.25  46 2.26  71 2.26  72 2.36  47 2.36  10 2.53  35 2.53
  21  0.322  0.577  0.128-  50 2.25  47 2.26  72 2.26  48 2.36  73 2.36  36 2.53  11 2.53
  22  0.504  0.668  0.007-  48 2.26  73 2.26  12 2.53  37 2.53
  23  0.776  0.304  0.492-  51 2.25  74 2.36  49 2.36
  24  0.958  0.395  0.371-  52 2.25  74 2.26  49 2.26  46 2.36  71 2.36  34 2.53
  25  0.398  0.248  0.475-  38 2.26  39 2.36  51 2.36   4 2.53  13 2.53
  26  0.580  0.339  0.354-  69 2.25  39 2.26  51 2.26  52 2.36  40 2.36  14 2.53   1 2.53
  27  0.763  0.430  0.233-  70 2.25  52 2.26  40 2.26  53 2.36  41 2.36   2 2.53  15 2.53
  28  0.945  0.521  0.111-  67 2.25  53 2.26  41 2.26  50 2.36   3 2.53
  29  0.035  0.066  0.273-  71 2.25  45 2.26  57 2.26  42 2.36  54 2.36   5 2.53  19 2.53
  30  0.217  0.157  0.152-  72 2.25  42 2.26  54 2.26  55 2.36  43 2.36  16 2.53   6 2.53
  31  0.399  0.248  0.031-  73 2.25  43 2.26  55 2.26  56 2.36   7 2.53
  32  0.671  0.884  0.516-  58 2.36  44 2.36   8 2.53  17 2.53
  33  0.853  0.975  0.394-  74 2.25  44 2.26  58 2.26  45 2.36  57 2.36  18 2.53   9 2.53
  34  0.126  0.611  0.435-  65 2.25  49 2.26  59 2.36  46 2.36  24 2.53
  35  0.308  0.702  0.313-  66 2.25  59 2.26  46 2.26  60 2.36  47 2.36  10 2.53  20 2.53
  36  0.490  0.793  0.192-  63 2.25  60 2.26  47 2.26  61 2.36  48 2.36  21 2.53  11 2.53
  37  0.672  0.884  0.071-  64 2.25  48 2.26  61 2.26  62 2.36  12 2.53  22 2.53
  38  0.184  0.177  0.484-  25 2.26  13 2.26
  39  0.367  0.268  0.363-  10 2.25  26 2.26  14 2.26  13 2.36  25 2.36
  40  0.549  0.359  0.242-  11 2.25  27 2.26  15 2.26  14 2.36  26 2.36
  41  0.731  0.450  0.121-  12 2.25  28 2.26  15 2.36  27 2.36
  42  0.003  0.086  0.161-   3 2.25  30 2.26  16 2.26  19 2.36  29 2.36
  43  0.185  0.177  0.040-  31 2.26  16 2.36  30 2.36
  44  0.639  0.904  0.403-   1 2.25  33 2.26  18 2.26  17 2.36  32 2.36
  45  0.821  0.995  0.282-   2 2.25  29 2.26  19 2.26  18 2.36  33 2.36
  46  0.094  0.631  0.323-   5 2.25  20 2.26  35 2.26  24 2.36  34 2.36
  47  0.276  0.722  0.201-   6 2.25  21 2.26  36 2.26  20 2.36  35 2.36
  48  0.458  0.814  0.080-   7 2.25  37 2.26  22 2.26  21 2.36  36 2.36
  49  0.912  0.540  0.444-   9 2.25  24 2.26  34 2.26  23 2.36
  50  0.127  0.480  0.081-  21 2.25   3 2.36  28 2.36
  51  0.580  0.206  0.445-  23 2.25   1 2.26  26 2.26   4 2.36  25 2.36
  52  0.763  0.298  0.323-  24 2.25  27 2.26   2 2.26  26 2.36   1 2.36
  53  0.945  0.389  0.202-  20 2.25   3 2.26  28 2.26  27 2.36   2 2.36
  54  0.217  0.025  0.243-  14 2.25   6 2.26  30 2.26   5 2.36  29 2.36
  55  0.399  0.116  0.121-  15 2.25  31 2.26   7 2.26  30 2.36   6 2.36
  56  0.582  0.207  0.000-   7 2.36  31 2.36
  57  0.035  0.934  0.364-  13 2.25   5 2.26  29 2.26   9 2.36  33 2.36
  58  0.853  0.843  0.485-  33 2.26   9 2.26  32 2.36   8 2.36
  59  0.308  0.570  0.404-  17 2.25  10 2.26  35 2.26  34 2.36
  60  0.490  0.661  0.283-  18 2.25  36 2.26  11 2.26  10 2.36  35 2.36
  61  0.672  0.752  0.162-  19 2.25  12 2.26  37 2.26  36 2.36  11 2.36
  62  0.854  0.843  0.040-  16 2.25  12 2.36  37 2.36
  63  0.549  0.022  0.242-  36 2.25  15 2.26   2 2.26  14 2.36   1 2.36
  64  0.731  0.113  0.121-  37 2.25   3 2.26  15 2.36   2 2.36
  65  0.184  0.840  0.484-  34 2.25   4 2.26  13 2.26
  66  0.367  0.931  0.363-  35 2.25   1 2.26  14 2.26  13 2.36   4 2.36
  67  0.003  0.750  0.161-  28 2.25   6 2.26  16 2.26  19 2.36   5 2.36
  68  0.185  0.841  0.040-   7 2.26  16 2.36   6 2.36
  69  0.639  0.568  0.403-  26 2.25   9 2.26  18 2.26  17 2.36   8 2.36
  70  0.821  0.659  0.282-  27 2.25   5 2.26  19 2.26  18 2.36   9 2.36
  71  0.094  0.295  0.323-  29 2.25  20 2.26  10 2.26  24 2.36
  72  0.276  0.386  0.201-  30 2.25  21 2.26  11 2.26  20 2.36  10 2.36
  73  0.458  0.477  0.080-  31 2.25  12 2.26  22 2.26  11 2.36  21 2.36
  74  0.912  0.204  0.444-  33 2.25  24 2.26  23 2.36
 
  Warning from LATTYP: Monoclinic adjustment (A1->A3, A2->A1, A3->A2)!
  LATTYP: Found a base centered orthorhombic cell.
 ALAT       =     9.5784100000
 B/A-ratio  =     2.1722506661
 C/A-ratio  =     2.1551480229
  
  Lattice vectors:
  
 A1 = (  10.4033537511,  -4.7892050000,   0.0000000000)
 A2 = ( -10.4033537511,  -4.7892050000,   0.0000000000)
 A3 = (   0.0000000000,   0.0000000000, -20.6428913744)


Analysis of symmetry for initial positions (statically):
=====================================================================
 Subroutine PRICEL returns:
 Original cell was already a primitive cell.
 

 Routine SETGRP: Setting up the symmetry group for a 
 base centered orthorhombic supercell.


 Subroutine GETGRP returns: Found  1 space group operations
 (whereof  1 operations were pure point group operations)
 out of a pool of  8 trial point group operations.


The static configuration has the point symmetry C_1 .


Analysis of symmetry for dynamics (positions and initial velocities):
=====================================================================
 Subroutine PRICEL returns:
 Original cell was already a primitive cell.
 

 Routine SETGRP: Setting up the symmetry group for a 
 base centered orthorhombic supercell.


 Subroutine GETGRP returns: Found  1 space group operations
 (whereof  1 operations were pure point group operations)
 out of a pool of  8 trial point group operations.


The dynamic configuration has the point symmetry C_1 .


 Subroutine INISYM returns: Found  1 space group operations
 (whereof  1 operations are pure point group operations),
 and found     1 'primitive' translations


----------------------------------------------------------------------------------------

                                     Primitive cell                                     

  volume of cell :    2057.0143

  direct lattice vectors                    reciprocal lattice vectors
    10.403353751 -4.789205000  0.000000000     0.096122849  0.000000000  0.000000000
     0.000000000  9.578410000  0.000000000     0.048061424  0.104401461  0.000000000
     0.000000000  0.000000000 20.642891374     0.000000000  0.000000000  0.048442826

  length of vectors
    11.452783670  9.578410000 20.642891374     0.096122849  0.114932874  0.048442826

  position of ions in fractional coordinates (direct lattice)
     0.580446796  0.074375138  0.353894474
     0.762560812  0.165432146  0.232636526
     0.944674827  0.256489154  0.111378578
     0.398332781  0.983318131  0.475152422
     0.035189473  0.801746477  0.273055842
     0.217303488  0.892803484  0.151797894
     0.399417503  0.983860492  0.030539946
     0.670961443  0.619632462  0.515571738
     0.853075458  0.710689469  0.394313790
     0.307818135  0.438060808  0.313475158
     0.489932150  0.529117815  0.192217210
     0.672046165  0.620174823  0.070959262
     0.230358012  0.031433746  0.411078267
     0.412472027  0.122490754  0.289820319
     0.594586043  0.213547761  0.168562371
     0.049328719  0.940919100  0.087723739
     0.502986674  0.667748077  0.451497583
     0.685100689  0.758805085  0.330239635
     0.867214704  0.849862092  0.208981687
     0.139843366  0.486176423  0.249401003
     0.321957381  0.577233431  0.128143055
     0.504071396  0.668290438  0.006885107
     0.775615336  0.304062408  0.491916899
     0.957729351  0.395119416  0.370658951
     0.398332781  0.247524131  0.475152422
     0.580446796  0.338581138  0.353894474
     0.762560812  0.429638146  0.232636526
     0.944674827  0.520695154  0.111378578
     0.035189473  0.065952477  0.273055842
     0.217303488  0.157009484  0.151797894
     0.399417503  0.248066492  0.030539946
     0.670961443  0.883838462  0.515571738
     0.853075458  0.974895469  0.394313790
     0.125704120  0.611209800  0.434733106
     0.307818135  0.702266808  0.313475158
     0.489932150  0.793323815  0.192217210
     0.672046165  0.884380823  0.070959262
     0.184411117  0.176675299  0.484280801
     0.366525132  0.267732306  0.363022853
     0.548639147  0.358789314  0.241764905
     0.730753162  0.449846321  0.120506957
     0.003381824  0.086160652  0.160926273
     0.185495839  0.177217660  0.039668325
     0.639153794  0.904046637  0.403442169
     0.821267809  0.995103645  0.282184221
     0.093896470  0.631417975  0.322603537
     0.276010485  0.722474983  0.201345589
     0.458124501  0.813531990  0.080087641
     0.911782455  0.540360968  0.443861485
     0.126759941  0.479634711  0.080838632
     0.580417896  0.206463688  0.444612476
     0.762531911  0.297520696  0.323354528
     0.944645926  0.388577703  0.202096580
     0.217274588  0.024892034  0.242515896
     0.399388603  0.115949042  0.121257948
     0.581502618  0.207006049  0.000000000
     0.035160573  0.933835026  0.363773844
     0.853046557  0.842778019  0.485031792
     0.307789234  0.570149357  0.404193160
     0.489903249  0.661206365  0.282935212
     0.672017264  0.752263372  0.161677264
     0.854131279  0.843320380  0.040419316
     0.548639147  0.022359314  0.241764905
     0.730753162  0.113416321  0.120506957
     0.184411117  0.840245299  0.484280801
     0.366525132  0.931302306  0.363022853
     0.003381824  0.749730652  0.160926273
     0.185495839  0.840787660  0.039668325
     0.639153794  0.567616637  0.403442169
     0.821267809  0.658673645  0.282184221
     0.093896470  0.294987975  0.322603537
     0.276010485  0.386044983  0.201345589
     0.458124501  0.477101990  0.080087641
     0.911782455  0.203930968  0.443861485

  ion indices of the primitive-cell ions
   primitive index   ion index
                 1           1
                 2           2
                 3           3
                 4           4
                 5           5
                 6           6
                 7           7
                 8           8
                 9           9
                10          10
                11          11
                12          12
                13          13
                14          14
                15          15
                16          16
                17          17
                18          18
                19          19
                20          20
                21          21
                22          22
                23          23
                24          24
                25          25
                26          26
                27          27
                28          28
                29          29
                30          30
                31          31
                32          32
                33          33
                34          34
                35          35
                36          36
                37          37
                38          38
                39          39
                40          40
                41          41
                42          42
                43          43
                44          44
                45          45
                46          46
                47          47
                48          48
                49          49
                50          50
                51          51
                52          52
                53          53
                54          54
                55          55
                56          56
                57          57
                58          58
                59          59
                60          60
                61          61
                62          62
                63          63
                64          64
                65          65
                66          66
                67          67
                68          68
                69          69
                70          70
                71          71
                72          72
                73          73
                74          74

----------------------------------------------------------------------------------------

 
 
 KPOINTS: gamma-point-only calculation. no periodi

Automatic generation of k-mesh.
Space group operators:
 irot       det(A)        alpha          n_x          n_y          n_z        tau_x        tau_y        tau_z
    1     1.000000     0.000000     1.000000     0.000000     0.000000     0.000000     0.000000     0.000000
 
 Subroutine IBZKPT returns following result:
 ===========================================
 
 Found      1 irreducible k-points:
 
 Following reciprocal coordinates:
            Coordinates               Weight
  0.000000  0.000000  0.000000      1.000000
 
 Following cartesian coordinates:
            Coordinates               Weight
  0.000000  0.000000  0.000000      1.000000
 


--------------------------------------------------------------------------------------------------------




 Dimension of arrays:
   k-points           NKPTS =      1   k-points in BZ     NKDIM =      1   number of bands    NBANDS=    488
   number of dos      NEDOS =    301   number of ions     NIONS =     74
   non local maximal  LDIM  =      6   non local SUM 2l+1 LMDIM =     18
   total plane-waves  NPLWV = 324000
   max r-space proj   IRMAX =   1787   max aug-charges    IRDMAX=   5161
   dimension x,y,z NGX =    60 NGY =   50 NGZ =  108
   dimension x,y,z NGXF=   120 NGYF=  100 NGZF=  216
   support grid    NGXF=   120 NGYF=  100 NGZF=  216
   ions per type =              37  37
   NGX,Y,Z   is equivalent  to a cutoff of   8.71,  8.68,  8.70 a.u.
   NGXF,Y,Z  is equivalent  to a cutoff of  17.42, 17.36, 17.40 a.u.

 SYSTEM =  "Millerite NiS"                         
 POSCAR =  Structure 6 made from 02-1-7.xsd file   

 Startparameter for this run:
   NWRITE =      2    write-flag & timer
   PREC   = normal    normal or accurate (medium, high low for compatibility)
   ISTART =      0    job   : 0-new  1-cont  2-samecut
   ICHARG =      2    charge: 1-file 2-atom 10-const
   ISPIN  =      1    spin polarized calculation?
   LNONCOLLINEAR =      F non collinear calculations
   LSORBIT =      F    spin-orbit coupling
   INIWAV =      1    electr: 0-lowe 1-rand  2-diag
   LASPH  =      F    aspherical Exc in radial PAW
   METAGGA=      F    non-selfconsistent MetaGGA calc.

 Electronic Relaxation 1
   ENCUT  =  450.0 eV  33.07 Ry    5.75 a.u.  19.81 16.57 35.71*2*pi/ulx,y,z
   ENINI  =  450.0     initial cutoff
   ENAUG  =  703.4 eV  augmentation charge cutoff
   NELM   =    100;   NELMIN=  2; NELMDL= -5     # of ELM steps 
   EDIFF  = 0.1E-03   stopping-criterion for ELM
   LREAL  =      T    real-space projection
   NLSPLINE    = F    spline interpolate recip. space projectors
   LCOMPAT=      F    compatible to vasp.4.4
   GGA_COMPAT  = T    GGA compatible to vasp.4.4-vasp.4.6
   LMAXPAW     = -100 max onsite density
   LMAXMIX     =    2 max onsite mixed and CHGCAR
   VOSKOWN=      0    Vosko Wilk Nusair interpolation
   ROPT   =   -0.00050  -0.00050
 Ionic relaxation
   EDIFFG = 0.1E-02   stopping-criterion for IOM
   NSW    =      0    number of steps for IOM
   NBLOCK =      1;   KBLOCK =      1    inner block; outer block 
   IBRION =     -1    ionic relax: 0-MD 1-quasi-New 2-CG
   NFREE  =      0    steps in history (QN), initial steepest desc. (CG)
   ISIF   =      2    stress and relaxation
   IWAVPR =     10    prediction:  0-non 1-charg 2-wave 3-comb
   ISYM   =      2    0-nonsym 1-usesym 2-fastsym
   LCORR  =      T    Harris-Foulkes like correction to forces

   POTIM  = 0.5000    time-step for ionic-motion
   TEIN   =    0.0    initial temperature
   TEBEG  =    0.0;   TEEND  =   0.0 temperature during run
   SMASS  =  -3.00    Nose mass-parameter (am)
   estimated Nose-frequenzy (Omega)   =  0.10E-29 period in steps = 0.13E+47 mass=  -0.300E-26a.u.
   SCALEE = 1.0000    scale energy and forces
   NPACO  =    256;   APACO  = 16.0  distance and # of slots for P.C.
   PSTRESS=    0.0 pullay stress

  Mass of Ions in am
   POMASS =  58.69 32.07
  Ionic Valenz
   ZVAL   =  16.00  6.00
  Atomic Wigner-Seitz radii
   RWIGS  =  -1.00 -1.00
  virtual crystal weights 
   VCA    =   1.00  1.00
   NELECT =     814.0000    total number of electrons
   NUPDOWN=      -1.0000    fix difference up-down

 DOS related values:
   EMIN   =  10.00;   EMAX   =-10.00  energy-range for DOS
   EFERMI =   0.00
   ISMEAR =     0;   SIGMA  =   0.20  broadening in eV -4-tet -1-fermi 0-gaus

 Electronic relaxation 2 (details)
   IALGO  =     38    algorithm
   LDIAG  =      T    sub-space diagonalisation (order eigenvalues)
   LSUBROT=      F    optimize rotation matrix (better conditioning)
   TURBO    =      0    0=normal 1=particle mesh
   IRESTART =      0    0=no restart 2=restart with 2 vectors
   NREBOOT  =      0    no. of reboots
   NMIN     =      0    reboot dimension
   EREF     =   0.00    reference energy to select bands
   IMIX   =      4    mixing-type and parameters
     AMIX     =   0.40;   BMIX     =  1.00
     AMIX_MAG =   1.60;   BMIX_MAG =  1.00
     AMIN     =   0.10
     WC   =   100.;   INIMIX=   1;  MIXPRE=   1;  MAXMIX= -45

 Intra band minimization:
   WEIMIN = 0.0000     energy-eigenvalue tresh-hold
   EBREAK =  0.51E-07  absolut break condition
   DEPER  =   0.30     relativ break condition  

   TIME   =   0.40     timestep for ELM

  volume/ion in A,a.u.               =      27.80       187.59
  Fermi-wavevector in a.u.,A,eV,Ry     =   1.201906  2.271273 19.654680  1.444578
  Thomas-Fermi vector in A             =   2.337702
 
 Write flags
   LWAVE        =      F    write WAVECAR
   LDOWNSAMPLE  =      F    k-point downsampling of WAVECAR
   LCHARG       =      F    write CHGCAR
   LVTOT        =      F    write LOCPOT, total local potential
   LVHAR        =      F    write LOCPOT, Hartree potential only
   LELF         =      F    write electronic localiz. function (ELF)
   LORBIT       =      0    0 simple, 1 ext, 2 COOP (PROOUT), +10 PAW based schemes


 Dipole corrections
   LMONO  =      F    monopole corrections only (constant potential shift)
   LDIPOL =      F    correct potential (dipole corrections)
   IDIPOL =      0    1-x, 2-y, 3-z, 4-all directions 
   EPSILON=  1.0000000 bulk dielectric constant

 Exchange correlation treatment:
   GGA     =    --    GGA type
   LEXCH   =     8    internal setting for exchange type
   VOSKOWN=      0    Vosko Wilk Nusair interpolation
   LHFCALC =     F    Hartree Fock is set to
   LHFONE  =     F    Hartree Fock one center treatment
   AEXX    =    0.0000 exact exchange contribution

 Linear response parameters
   LEPSILON=     F    determine dielectric tensor
   LRPA    =     F    only Hartree local field effects (RPA)
   LNABLA  =     F    use nabla operator in PAW spheres
   LVEL    =     F    velocity operator in full k-point grid
   LINTERFAST=   F  fast interpolation
   KINTER  =     0    interpolate to denser k-point grid
   CSHIFT  =0.1000    complex shift for real part using Kramers Kronig
   OMEGAMAX=  -1.0    maximum frequency
   DEG_THRESHOLD= 0.2000000E-02 threshold for treating states as degnerate
   RTIME   =   -0.100 relaxation time in fs
  (WPLASMAI=    0.000 imaginary part of plasma frequency in eV, 0.658/RTIME)
   DFIELD  = 0.0000000 0.0000000 0.0000000 field for delta impulse in time
 
 Orbital magnetization related:
   ORBITALMAG=     F  switch on orbital magnetization
   LCHIMAG   =     F  perturbation theory with respect to B field
   DQ        =  0.001000  dq finite difference perturbation B field
   LLRAUG    =     F  two centre corrections for induced B field



--------------------------------------------------------------------------------------------------------


 Static calculation
 charge density and potential will be updated during run
 non-spin polarized calculation
 Variant of blocked Davidson
 Davidson routine will perform the subspace rotation
 perform sub-space diagonalisation
    after iterative eigenvector-optimisation
 modified Broyden-mixing scheme, WC =      100.0
 initial mixing is a Kerker type mixing with AMIX =  0.4000 and BMIX =      1.0000
 Hartree-type preconditioning will be used
 using additional bands           81
 real space projection scheme for non local part
 use partial core corrections
 calculate Harris-corrections to forces 
   (improved forces if not selfconsistent)
 use gradient corrections 
 use of overlap-Matrix (Vanderbilt PP)
 Gauss-broadening in eV      SIGMA  =   0.20


--------------------------------------------------------------------------------------------------------


  energy-cutoff  :      450.00
  volume of cell :     2057.01
      direct lattice vectors                 reciprocal lattice vectors
    10.403353751 -4.789205000  0.000000000     0.096122849  0.000000000  0.000000000
     0.000000000  9.578410000  0.000000000     0.048061424  0.104401461  0.000000000
     0.000000000  0.000000000 20.642891374     0.000000000  0.000000000  0.048442826

  length of vectors
    11.452783670  9.578410000 20.642891374     0.096122849  0.114932874  0.048442826


 
 k-points in units of 2pi/SCALE and weight: gamma-point-only calculation. no periodi
   0.00000000  0.00000000  0.00000000       1.000
 
 k-points in reciprocal lattice and weights: gamma-point-only calculation. no periodi
   0.00000000  0.00000000  0.00000000       1.000
 
 position of ions in fractional coordinates (direct lattice) 
   0.58044680  0.07437514  0.35389447
   0.76256081  0.16543215  0.23263653
   0.94467483  0.25648915  0.11137858
   0.39833278  0.98331813  0.47515242
   0.03518947  0.80174648  0.27305584
   0.21730349  0.89280348  0.15179789
   0.39941750  0.98386049  0.03053995
   0.67096144  0.61963246  0.51557174
   0.85307546  0.71068947  0.39431379
   0.30781813  0.43806081  0.31347516
   0.48993215  0.52911781  0.19221721
   0.67204616  0.62017482  0.07095926
   0.23035801  0.03143375  0.41107827
   0.41247203  0.12249075  0.28982032
   0.59458604  0.21354776  0.16856237
   0.04932872  0.94091910  0.08772374
   0.50298667  0.66774808  0.45149758
   0.68510069  0.75880508  0.33023963
   0.86721470  0.84986209  0.20898169
   0.13984337  0.48617642  0.24940100
   0.32195738  0.57723343  0.12814306
   0.50407140  0.66829044  0.00688511
   0.77561534  0.30406241  0.49191690
   0.95772935  0.39511942  0.37065895
   0.39833278  0.24752413  0.47515242
   0.58044680  0.33858114  0.35389447
   0.76256081  0.42963815  0.23263653
   0.94467483  0.52069515  0.11137858
   0.03518947  0.06595248  0.27305584
   0.21730349  0.15700948  0.15179789
   0.39941750  0.24806649  0.03053995
   0.67096144  0.88383846  0.51557174
   0.85307546  0.97489547  0.39431379
   0.12570412  0.61120980  0.43473311
   0.30781813  0.70226681  0.31347516
   0.48993215  0.79332382  0.19221721
   0.67204616  0.88438082  0.07095926
   0.18441112  0.17667530  0.48428080
   0.36652513  0.26773231  0.36302285
   0.54863915  0.35878931  0.24176490
   0.73075316  0.44984632  0.12050696
   0.00338182  0.08616065  0.16092627
   0.18549584  0.17721766  0.03966833
   0.63915379  0.90404664  0.40344217
   0.82126781  0.99510365  0.28218422
   0.09389647  0.63141797  0.32260354
   0.27601049  0.72247498  0.20134559
   0.45812450  0.81353199  0.08008764
   0.91178246  0.54036097  0.44386148
   0.12675994  0.47963471  0.08083863
   0.58041790  0.20646369  0.44461248
   0.76253191  0.29752070  0.32335453
   0.94464593  0.38857770  0.20209658
   0.21727459  0.02489203  0.24251590
   0.39938860  0.11594904  0.12125795
   0.58150262  0.20700605  0.00000000
   0.03516057  0.93383503  0.36377384
   0.85304656  0.84277802  0.48503179
   0.30778923  0.57014936  0.40419316
   0.48990325  0.66120636  0.28293521
   0.67201726  0.75226337  0.16167726
   0.85413128  0.84332038  0.04041932
   0.54863915  0.02235931  0.24176490
   0.73075316  0.11341632  0.12050696
   0.18441112  0.84024530  0.48428080
   0.36652513  0.93130231  0.36302285
   0.00338182  0.74973065  0.16092627
   0.18549584  0.84078766  0.03966833
   0.63915379  0.56761664  0.40344217
   0.82126781  0.65867365  0.28218422
   0.09389647  0.29498797  0.32260354
   0.27601049  0.38604498  0.20134559
   0.45812450  0.47710199  0.08008764
   0.91178246  0.20393097  0.44386148
 
 position of ions in cartesian coordinates  (Angst):
   6.03859335 -2.06748313  7.30540518
   7.93318988 -2.06748313  4.80229054
   9.82778641 -2.06748313  2.29917589
   4.14399683  7.51092687  9.80851983
   0.36608854  7.51092687  5.63666209
   2.26068506  7.51092687  3.13354744
   4.15528158  7.51092687  0.63043279
   6.98024924  2.72172187 10.64289138
   8.87484577  2.72172187  8.13977673
   3.20234095  2.72172187  6.47103364
   5.09693747  2.72172187  3.96791899
   6.99153399  2.72172187  1.46480434
   2.39649589 -0.80214644  8.48584401
   4.29109241 -0.80214643  5.98272936
   6.18568894 -0.80214644  3.47961471
   0.51318411  8.77626357  1.81087162
   5.23274830  3.98705856  9.32021556
   7.12734482  3.98705857  6.81710091
   9.02194134  3.98705856  4.31398626
   1.45484001  3.98705856  5.14835781
   3.34943653  3.98705857  2.64524316
   5.24403305  3.98705856  0.14212852
   8.06900072 -0.80214644 10.15458711
   9.96359724 -0.80214643  7.65147246
   4.14399683  0.46319027  9.80851983
   6.03859335  0.46319026  7.30540518
   7.93318988  0.46319026  4.80229054
   9.82778641  0.46319027  2.29917589
   0.36608854  0.46319027  5.63666209
   2.26068506  0.46319026  3.13354744
   4.15528158  0.46319027  0.63043279
   6.98024924  5.25239527 10.64289138
   8.87484577  5.25239526  8.13977673
   1.30774443  5.25239526  8.97414828
   3.20234095  5.25239527  6.47103364
   5.09693747  5.25239526  3.96791899
   6.99153399  5.25239527  1.46480434
   1.91849409  0.80908581  9.99695597
   3.81309061  0.80908580  7.49384132
   5.70768713  0.80908581  4.99072667
   7.60228365  0.80908580  2.48761202
   0.03518231  0.80908580  3.32198357
   1.92977883  0.80908581  0.81886892
   6.64934302  5.59829080  8.32821287
   8.54393954  5.59829081  5.82509822
   0.97683819  5.59829080  6.65946977
   2.87143471  5.59829081  4.15635512
   4.76603125  5.59829080  1.65324047
   9.48559542  0.80908581  9.16258442
   1.31872851  3.98705857  1.66874310
   6.03829270 -0.80214644  9.17808705
   7.93288922 -0.80214643  6.67497240
   9.82748574 -0.80214644  4.17185775
   2.26038440 -0.80214644  5.00622930
   4.15498092 -0.80214643  2.50311465
   6.04957744 -0.80214644  0.00000000
   0.36578788  8.77626356  7.50934395
   8.87454510  3.98705857 10.01245860
   3.20204028  3.98705856  8.34371550
   5.09663680  3.98705857  5.84060085
   6.99123332  3.98705856  3.33748620
   8.88582985  3.98705857  0.83437155
   5.70768713 -2.41337867  4.99072667
   7.60228365 -2.41337867  2.48761202
   1.91849409  7.16503133  9.99695597
   3.81309061  7.16503133  7.49384132
   0.03518231  7.16503133  3.32198357
   1.92977883  7.16503133  0.81886892
   6.64934302  2.37582633  8.32821287
   8.54393954  2.37582633  5.82509822
   0.97683819  2.37582633  6.65946977
   2.87143471  2.37582633  4.15635512
   4.76603125  2.37582632  1.65324047
   9.48559542 -2.41337867  9.16258442
 


--------------------------------------------------------------------------------------------------------


 use parallel FFT for orbitals z direction half grid
 k-point   1 :   0.0000 0.0000 0.0000  plane waves:   22299

 maximum and minimum number of plane-waves per node :      3721     3709

 maximum number of plane-waves:     22299
 maximum index in each direction: 
   IXMAX=   19   IYMAX=   16   IZMAX=   35
   IXMIN=  -19   IYMIN=  -16   IZMIN=    0


 real space projection operators:
  total allocation   :      11263.39 KBytes
  max/ min on nodes  :       1882.28       1868.80


 parallel 3D FFT for wavefunctions:
    minimum data exchange during FFTs selected (reduces bandwidth)
 parallel 3D FFT for charge:
    minimum data exchange during FFTs selected (reduces bandwidth)


 total amount of memory used by VASP MPI-rank0    45236. kBytes
=======================================================================

   base      :      30000. kBytes
   nonlr-proj:       2309. kBytes
   fftplans  :       3298. kBytes
   grid      :       5820. kBytes
   one-center:        101. kBytes
   wavefun   :       3708. kBytes
 
     INWAV:  cpu time    0.0000: real time    0.0000
 Broyden mixing: mesh for mixing (old mesh)
   NGX = 39   NGY = 33   NGZ = 71
  (NGX  =120   NGY  =100   NGZ  =216)
  gives a total of  91377 points

 initial charge density was supplied:
 charge density of overlapping atoms calculated
 number of electron     814.0000000 magnetization 
 keeping initial charge density in first step


--------------------------------------------------------------------------------------------------------


 Maximum index for non-local projection operator          297
 Maximum index for augmentation-charges          322 (set IRDMAX)


--------------------------------------------------------------------------------------------------------


 First call to EWALD:  gamma=   0.139
 Maximum number of real-space cells 3x 4x 2
 Maximum number of reciprocal cells 3x 2x 4

    FEWALD:  cpu time    0.0030: real time    0.0030


--------------------------------------- Iteration      1(   1)  ---------------------------------------


    POTLOK:  cpu time    0.0498: real time    0.0527
    SETDIJ:  cpu time    0.0059: real time    0.0083
     EDDAV:  cpu time    2.2972: real time    2.3045
       DOS:  cpu time    0.0008: real time    0.0008
    --------------------------------------------
      LOOP:  cpu time    2.3537: real time    2.3663

 eigenvalue-minimisations  :  1184
 total energy-change (2. order) : 0.9929508E+04  (-0.5237943E+05)
 number of electron     814.0000000 magnetization 
 augmentation part      814.0000000 magnetization 

 Free energy of the ion-electron system (eV)
  ---------------------------------------------------
  alpha Z        PSCENC =      1910.25942632
  Ewald energy   TEWEN  =    171388.81050532
  -Hartree energ DENC   =   -297243.63603687
  -exchange      EXHF   =         0.00000000
  -V(xc)+E(xc)   XCENC  =      3752.21137270
  PAW double counting   =    115860.90926010  -120909.33166199
  entropy T*S    EENTRO =        -0.30317036
  eigenvalues    EBANDS =     -4609.86651756
  atomic energy  EATOM  =    139780.45519414
  Solvation  Ediel_sol  =         0.00000000
  ---------------------------------------------------
  free energy    TOTEN  =      9929.50837180 eV

  energy without entropy =     9929.81154216  energy(sigma->0) =     9929.65995698


--------------------------------------------------------------------------------------------------------




--------------------------------------- Iteration      1(   2)  ---------------------------------------


     EDDAV:  cpu time    2.0222: real time    2.0281
       DOS:  cpu time    0.0054: real time    0.0054
    --------------------------------------------
      LOOP:  cpu time    2.0277: real time    2.0335

 eigenvalue-minimisations  :  1024
 total energy-change (2. order) :-0.9304199E+04  (-0.8994104E+04)
 number of electron     814.0000000 magnetization 
 augmentation part      814.0000000 magnetization 

 Free energy of the ion-electron system (eV)
  ---------------------------------------------------
  alpha Z        PSCENC =      1910.25942632
  Ewald energy   TEWEN  =    171388.81050532
  -Hartree energ DENC   =   -297243.63603687
  -exchange      EXHF   =         0.00000000
  -V(xc)+E(xc)   XCENC  =      3752.21137270
  PAW double counting   =    115860.90926010  -120909.33166199
  entropy T*S    EENTRO =        -0.81965360
  eigenvalues    EBANDS =    -13913.54860835
  atomic energy  EATOM  =    139780.45519414
  Solvation  Ediel_sol  =         0.00000000
  ---------------------------------------------------
  free energy    TOTEN  =       625.30979776 eV

  energy without entropy =      626.12945136  energy(sigma->0) =      625.71962456


--------------------------------------------------------------------------------------------------------




--------------------------------------- Iteration      1(   3)  ---------------------------------------


     EDDAV:  cpu time    2.1763: real time    2.1816
       DOS:  cpu time    0.0053: real time    0.0053
    --------------------------------------------
      LOOP:  cpu time    2.1816: real time    2.1869

 eigenvalue-minimisations  :  1120
 total energy-change (2. order) :-0.9744508E+03  (-0.9167363E+03)
 number of electron     814.0000000 magnetization 
 augmentation part      814.0000000 magnetization 

 Free energy of the ion-electron system (eV)
  ---------------------------------------------------
  alpha Z        PSCENC =      1910.25942632
  Ewald energy   TEWEN  =    171388.81050532
  -Hartree energ DENC   =   -297243.63603687
  -exchange      EXHF   =         0.00000000
  -V(xc)+E(xc)   XCENC  =      3752.21137270
  PAW double counting   =    115860.90926010  -120909.33166199
  entropy T*S    EENTRO =        -1.39526749
  eigenvalues    EBANDS =    -14887.42375446
  atomic energy  EATOM  =    139780.45519414
  Solvation  Ediel_sol  =         0.00000000
  ---------------------------------------------------
  free energy    TOTEN  =      -349.14096223 eV

  energy without entropy =     -347.74569474  energy(sigma->0) =     -348.44332848


--------------------------------------------------------------------------------------------------------




--------------------------------------- Iteration      1(   4)  ---------------------------------------


     EDDAV:  cpu time    2.2391: real time    2.2465
       DOS:  cpu time    0.0055: real time    0.0055
    --------------------------------------------
      LOOP:  cpu time    2.2446: real time    2.2520

 eigenvalue-minimisations  :  1152
 total energy-change (2. order) :-0.6473632E+02  (-0.6378871E+02)
 number of electron     814.0000000 magnetization 
 augmentation part      814.0000000 magnetization 

 Free energy of the ion-electron system (eV)
  ---------------------------------------------------
  alpha Z        PSCENC =      1910.25942632
  Ewald energy   TEWEN  =    171388.81050532
  -Hartree energ DENC   =   -297243.63603687
  -exchange      EXHF   =         0.00000000
  -V(xc)+E(xc)   XCENC  =      3752.21137270
  PAW double counting   =    115860.90926010  -120909.33166199
  entropy T*S    EENTRO =        -1.49412203
  eigenvalues    EBANDS =    -14952.06121990
  atomic energy  EATOM  =    139780.45519414
  Solvation  Ediel_sol  =         0.00000000
  ---------------------------------------------------
  free energy    TOTEN  =      -413.87728221 eV

  energy without entropy =     -412.38316019  energy(sigma->0) =     -413.13022120


--------------------------------------------------------------------------------------------------------




--------------------------------------- Iteration      1(   5)  ---------------------------------------


     EDDAV:  cpu time    2.3727: real time    2.3796
       DOS:  cpu time    0.0053: real time    0.0053
    CHARGE:  cpu time    0.0409: real time    0.0412
    MIXING:  cpu time    0.0029: real time    0.0031
    --------------------------------------------
      LOOP:  cpu time    2.4218: real time    2.4292

 eigenvalue-minimisations  :  1256
 total energy-change (2. order) :-0.2334752E+01  (-0.2330868E+01)
 number of electron     814.0000117 magnetization 
 augmentation part      294.0123568 magnetization 

 Broyden mixing:
  rms(total) = 0.83726E+01    rms(broyden)= 0.83556E+01
  rms(prec ) = 0.87993E+01
  weight for this iteration     100.00

 Free energy of the ion-electron system (eV)
  ---------------------------------------------------
  alpha Z        PSCENC =      1910.25942632
  Ewald energy   TEWEN  =    171388.81050532
  -Hartree energ DENC   =   -297243.63603687
  -exchange      EXHF   =         0.00000000
  -V(xc)+E(xc)   XCENC  =      3752.21137270
  PAW double counting   =    115860.90926010  -120909.33166199
  entropy T*S    EENTRO =        -1.48409558
  eigenvalues    EBANDS =    -14954.40599863
  atomic energy  EATOM  =    139780.45519414
  Solvation  Ediel_sol  =         0.00000000
  ---------------------------------------------------
  free energy    TOTEN  =      -416.21203450 eV

  energy without entropy =     -414.72793891  energy(sigma->0) =     -415.46998670


--------------------------------------------------------------------------------------------------------




--------------------------------------- Iteration      1(   6)  ---------------------------------------


    POTLOK:  cpu time    0.0486: real time    0.0488
    SETDIJ:  cpu time    0.0047: real time    0.0064
     EDDAV:  cpu time    2.2089: real time    2.2142
       DOS:  cpu time    0.0017: real time    0.0017
    CHARGE:  cpu time    0.0391: real time    0.0392
    MIXING:  cpu time    0.0025: real time    0.0027
    --------------------------------------------
      LOOP:  cpu time    2.3056: real time    2.3129

 eigenvalue-minimisations  :  1168
 total energy-change (2. order) :-0.9033476E+02  (-0.1037150E+03)
 number of electron     814.0000124 magnetization 
 augmentation part      363.1127592 magnetization 

 Broyden mixing:
  rms(total) = 0.16229E+02    rms(broyden)= 0.16225E+02
  rms(prec ) = 0.16890E+02
  weight for this iteration     100.00

 eigenvalues of (default mixing * dielectric matrix)
  average eigenvalue GAMMA=   0.2236
  0.2236

 Free energy of the ion-electron system (eV)
  ---------------------------------------------------
  alpha Z        PSCENC =      1910.25942632
  Ewald energy   TEWEN  =    171388.81050532
  -Hartree energ DENC   =   -294386.80556449
  -exchange      EXHF   =         0.00000000
  -V(xc)+E(xc)   XCENC  =      3672.77814851
  PAW double counting   =    117649.24025114  -122449.52429605
  entropy T*S    EENTRO =        -0.96199584
  eigenvalues    EBANDS =    -18070.79846338
  atomic energy  EATOM  =    139780.45519414
  Solvation  Ediel_sol  =         0.00000000
  ---------------------------------------------------
  free energy    TOTEN  =      -506.54679432 eV

  energy without entropy =     -505.58479848  energy(sigma->0) =     -506.06579640


--------------------------------------------------------------------------------------------------------




--------------------------------------- Iteration      1(   7)  ---------------------------------------


    POTLOK:  cpu time    0.0476: real time    0.0477
    SETDIJ:  cpu time    0.0050: real time    0.0050
     EDDAV:  cpu time    2.1961: real time    2.2027
       DOS:  cpu time    0.0019: real time    0.0019
    CHARGE:  cpu time    0.0402: real time    0.0403
    MIXING:  cpu time    0.0023: real time    0.0023
    --------------------------------------------
      LOOP:  cpu time    2.2931: real time    2.2999

 eigenvalue-minimisations  :  1136
 total energy-change (2. order) : 0.1214865E+03  (-0.1850798E+02)
 number of electron     814.0000129 magnetization 
 augmentation part      341.9645034 magnetization 

 Broyden mixing:
  rms(total) = 0.63814E+01    rms(broyden)= 0.63800E+01
  rms(prec ) = 0.66773E+01
  weight for this iteration     100.00

 eigenvalues of (default mixing * dielectric matrix)
  average eigenvalue GAMMA=   0.5123
  0.5123  0.5123

 Free energy of the ion-electron system (eV)
  ---------------------------------------------------
  alpha Z        PSCENC =      1910.25942632
  Ewald energy   TEWEN  =    171388.81050532
  -Hartree energ DENC   =   -295669.14947782
  -exchange      EXHF   =         0.00000000
  -V(xc)+E(xc)   XCENC  =      3702.68735025
  PAW double counting   =    121860.26951177  -126809.23789695
  entropy T*S    EENTRO =        -0.91145894
  eigenvalues    EBANDS =    -16548.24342505
  atomic energy  EATOM  =    139780.45519414
  Solvation  Ediel_sol  =         0.00000000
  ---------------------------------------------------
  free energy    TOTEN  =      -385.06027096 eV

  energy without entropy =     -384.14881202  energy(sigma->0) =     -384.60454149


--------------------------------------------------------------------------------------------------------




--------------------------------------- Iteration      1(   8)  ---------------------------------------


    POTLOK:  cpu time    0.0497: real time    0.0507
    SETDIJ:  cpu time    0.0045: real time    0.0062
     EDDAV:  cpu time    2.5025: real time    2.5085
       DOS:  cpu time    0.0019: real time    0.0019
    CHARGE:  cpu time    0.0392: real time    0.0393
    MIXING:  cpu time    0.0022: real time    0.0022
    --------------------------------------------
      LOOP:  cpu time    2.6000: real time    2.6089

 eigenvalue-minimisations  :  1360
 total energy-change (2. order) :-0.3962044E+02  (-0.1743692E+02)
 number of electron     814.0000116 magnetization 
 augmentation part      311.5576630 magnetization 

 Broyden mixing:
  rms(total) = 0.14684E+02    rms(broyden)= 0.14682E+02
  rms(prec ) = 0.17509E+02
  weight for this iteration     100.00

 eigenvalues of (default mixing * dielectric matrix)
  average eigenvalue GAMMA=   0.4127
  0.6753  0.4585  0.1043

 Free energy of the ion-electron system (eV)
  ---------------------------------------------------
  alpha Z        PSCENC =      1910.25942632
  Ewald energy   TEWEN  =    171388.81050532
  -Hartree energ DENC   =   -296231.99193681
  -exchange      EXHF   =         0.00000000
  -V(xc)+E(xc)   XCENC  =      3727.01025391
  PAW double counting   =    127571.20854715  -132638.19684056
  entropy T*S    EENTRO =        -1.30501802
  eigenvalues    EBANDS =    -15930.93083851
  atomic energy  EATOM  =    139780.45519414
  Solvation  Ediel_sol  =         0.00000000
  ---------------------------------------------------
  free energy    TOTEN  =      -424.68070706 eV

  energy without entropy =     -423.37568904  energy(sigma->0) =     -424.02819805


--------------------------------------------------------------------------------------------------------




--------------------------------------- Iteration      1(   9)  ---------------------------------------


    POTLOK:  cpu time    0.0480: real time    0.0481
    SETDIJ:  cpu time    0.0049: real time    0.0049
     EDDAV:  cpu time    2.3385: real time    2.3441
       DOS:  cpu time    0.0018: real time    0.0018
    CHARGE:  cpu time    0.0396: real time    0.0397
    MIXING:  cpu time    0.0023: real time    0.0023
    --------------------------------------------
      LOOP:  cpu time    2.4351: real time    2.4410

 eigenvalue-minimisations  :  1256
 total energy-change (2. order) : 0.3822918E+02  (-0.1401908E+02)
 number of electron     814.0000106 magnetization 
 augmentation part      315.6475919 magnetization 

 Broyden mixing:
  rms(total) = 0.67795E+01    rms(broyden)= 0.67709E+01
  rms(prec ) = 0.81342E+01
  weight for this iteration     100.00

 eigenvalues of (default mixing * dielectric matrix)
  average eigenvalue GAMMA=   0.4084
  0.9279  0.3565  0.2708  0.0786

 Free energy of the ion-electron system (eV)
  ---------------------------------------------------
  alpha Z        PSCENC =      1910.25942632
  Ewald energy   TEWEN  =    171388.81050532
  -Hartree energ DENC   =   -296365.01103917
  -exchange      EXHF   =         0.00000000
  -V(xc)+E(xc)   XCENC  =      3725.82359854
  PAW double counting   =    128756.48464876  -133830.20196701
  entropy T*S    EENTRO =        -1.38657846
  eigenvalues    EBANDS =    -15751.68531137
  atomic energy  EATOM  =    139780.45519414
  Solvation  Ediel_sol  =         0.00000000
  ---------------------------------------------------
  free energy    TOTEN  =      -386.45152294 eV

  energy without entropy =     -385.06494448  energy(sigma->0) =     -385.75823371


--------------------------------------------------------------------------------------------------------




--------------------------------------- Iteration      1(  10)  ---------------------------------------


    POTLOK:  cpu time    0.0474: real time    0.0475
    SETDIJ:  cpu time    0.0050: real time    0.0050
     EDDAV:  cpu time    2.5303: real time    2.5365
       DOS:  cpu time    0.0019: real time    0.0019
    CHARGE:  cpu time    0.0393: real time    0.0394
    MIXING:  cpu time    0.0025: real time    0.0025
    --------------------------------------------
      LOOP:  cpu time    2.6265: real time    2.6328

 eigenvalue-minimisations  :  1376
 total energy-change (2. order) :-0.4547170E+01  (-0.7619459E+01)
 number of electron     814.0000128 magnetization 
 augmentation part      314.8317950 magnetization 

 Broyden mixing:
  rms(total) = 0.67104E+01    rms(broyden)= 0.67043E+01
  rms(prec ) = 0.77434E+01
  weight for this iteration     100.00

 eigenvalues of (default mixing * dielectric matrix)
  average eigenvalue GAMMA=   0.5009
  1.5379  0.3899  0.3899  0.0933  0.0933

 Free energy of the ion-electron system (eV)
  ---------------------------------------------------
  alpha Z        PSCENC =      1910.25942632
  Ewald energy   TEWEN  =    171388.81050532
  -Hartree energ DENC   =   -296461.56272966
  -exchange      EXHF   =         0.00000000
  -V(xc)+E(xc)   XCENC  =      3724.59535811
  PAW double counting   =    130248.48121020  -135333.67392159
  entropy T*S    EENTRO =        -1.20087015
  eigenvalues    EBANDS =    -15647.16286568
  atomic energy  EATOM  =    139780.45519414
  Solvation  Ediel_sol  =         0.00000000
  ---------------------------------------------------
  free energy    TOTEN  =      -390.99869298 eV

  energy without entropy =     -389.79782283  energy(sigma->0) =     -390.39825791


--------------------------------------------------------------------------------------------------------




--------------------------------------- Iteration      1(  11)  ---------------------------------------


    POTLOK:  cpu time    0.0467: real time    0.0468
    SETDIJ:  cpu time    0.0050: real time    0.0050
     EDDAV:  cpu time    2.5563: real time    2.5624
       DOS:  cpu time    0.0006: real time    0.0006
    CHARGE:  cpu time    0.0454: real time    0.0455
    MIXING:  cpu time    0.0022: real time    0.0022
    --------------------------------------------
      LOOP:  cpu time    2.6562: real time    2.6625

 eigenvalue-minimisations  :  1392
 total energy-change (2. order) : 0.5229108E+00  (-0.5125161E+01)
 number of electron     814.0000128 magnetization 
 augmentation part      317.3400478 magnetization 

 Broyden mixing:
  rms(total) = 0.63097E+01    rms(broyden)= 0.63052E+01
  rms(prec ) = 0.76669E+01
  weight for this iteration     100.00

 eigenvalues of (default mixing * dielectric matrix)
  average eigenvalue GAMMA=   0.4990
  1.8552  0.4021  0.4021  0.1284  0.1284  0.0777

 Free energy of the ion-electron system (eV)
  ---------------------------------------------------
  alpha Z        PSCENC =      1910.25942632
  Ewald energy   TEWEN  =    171388.81050532
  -Hartree energ DENC   =   -296384.89350974
  -exchange      EXHF   =         0.00000000
  -V(xc)+E(xc)   XCENC  =      3721.93405089
  PAW double counting   =    133174.83402716  -138279.87718851
  entropy T*S    EENTRO =        -1.14100702
  eigenvalues    EBANDS =    -15700.85728071
  atomic energy  EATOM  =    139780.45519414
  Solvation  Ediel_sol  =         0.00000000
  ---------------------------------------------------
  free energy    TOTEN  =      -390.47578215 eV

  energy without entropy =     -389.33477512  energy(sigma->0) =     -389.90527863


--------------------------------------------------------------------------------------------------------




--------------------------------------- Iteration      1(  12)  ---------------------------------------


    POTLOK:  cpu time    0.0475: real time    0.0476
    SETDIJ:  cpu time    0.0050: real time    0.0050
     EDDAV:  cpu time    2.5035: real time    2.5107
       DOS:  cpu time    0.0006: real time    0.0006
    CHARGE:  cpu time    0.0459: real time    0.0460
    MIXING:  cpu time    0.0028: real time    0.0028
    --------------------------------------------
      LOOP:  cpu time    2.6053: real time    2.6127

 eigenvalue-minimisations  :  1344
 total energy-change (2. order) : 0.1394801E+02  (-0.3077754E+01)
 number of electron     814.0000124 magnetization 
 augmentation part      320.7689144 magnetization 

 Broyden mixing:
  rms(total) = 0.40933E+01    rms(broyden)= 0.40890E+01
  rms(prec ) = 0.46392E+01
  weight for this iteration     100.00

 eigenvalues of (default mixing * dielectric matrix)
  average eigenvalue GAMMA=   0.4706
  1.9416  0.4015  0.4015  0.1856  0.1856  0.0953  0.0828

 Free energy of the ion-electron system (eV)
  ---------------------------------------------------
  alpha Z        PSCENC =      1910.25942632
  Ewald energy   TEWEN  =    171388.81050532
  -Hartree energ DENC   =   -296351.27594432
  -exchange      EXHF   =         0.00000000
  -V(xc)+E(xc)   XCENC  =      3720.48901698
  PAW double counting   =    134831.48487554  -139948.21023333
  entropy T*S    EENTRO =        -1.01634484
  eigenvalues    EBANDS =    -15707.52426347
  atomic energy  EATOM  =    139780.45519414
  Solvation  Ediel_sol  =         0.00000000
  ---------------------------------------------------
  free energy    TOTEN  =      -376.52776767 eV

  energy without entropy =     -375.51142283  energy(sigma->0) =     -376.01959525


--------------------------------------------------------------------------------------------------------




--------------------------------------- Iteration      1(  13)  ---------------------------------------


    POTLOK:  cpu time    0.0506: real time    0.0537
    SETDIJ:  cpu time    0.0046: real time    0.0062
     EDDAV:  cpu time    2.4800: real time    2.4873
       DOS:  cpu time    0.0007: real time    0.0007
    CHARGE:  cpu time    0.0451: real time    0.0452
    MIXING:  cpu time    0.0029: real time    0.0029
    --------------------------------------------
      LOOP:  cpu time    2.5838: real time    2.5960

 eigenvalue-minimisations  :  1344
 total energy-change (2. order) : 0.6766027E+01  (-0.1731650E+01)
 number of electron     814.0000125 magnetization 
 augmentation part      321.9232131 magnetization 

 Broyden mixing:
  rms(total) = 0.27916E+01    rms(broyden)= 0.27886E+01
  rms(prec ) = 0.32615E+01
  weight for this iteration     100.00

 eigenvalues of (default mixing * dielectric matrix)
  average eigenvalue GAMMA=   0.4887
  2.0126  0.5259  0.4001  0.4001  0.2601  0.1156  0.1156  0.0794

 Free energy of the ion-electron system (eV)
  ---------------------------------------------------
  alpha Z        PSCENC =      1910.25942632
  Ewald energy   TEWEN  =    171388.81050532
  -Hartree energ DENC   =   -296343.10338977
  -exchange      EXHF   =         0.00000000
  -V(xc)+E(xc)   XCENC  =      3720.59735759
  PAW double counting   =    135301.51339249  -140423.23677593
  entropy T*S    EENTRO =        -1.03841917
  eigenvalues    EBANDS =    -15704.01903122
  atomic energy  EATOM  =    139780.45519414
  Solvation  Ediel_sol  =         0.00000000
  ---------------------------------------------------
  free energy    TOTEN  =      -369.76174023 eV

  energy without entropy =     -368.72332106  energy(sigma->0) =     -369.24253064


--------------------------------------------------------------------------------------------------------




--------------------------------------- Iteration      1(  14)  ---------------------------------------


    POTLOK:  cpu time    0.0481: real time    0.0482
    SETDIJ:  cpu time    0.0049: real time    0.0050
     EDDAV:  cpu time    2.4194: real time    2.4252
       DOS:  cpu time    0.0006: real time    0.0006
    CHARGE:  cpu time    0.0453: real time    0.0454
    MIXING:  cpu time    0.0025: real time    0.0025
    --------------------------------------------
      LOOP:  cpu time    2.5208: real time    2.5268

 eigenvalue-minimisations  :  1304
 total energy-change (2. order) : 0.1705232E+01  (-0.9133178E+00)
 number of electron     814.0000113 magnetization 
 augmentation part      320.9454223 magnetization 

 Broyden mixing:
  rms(total) = 0.28888E+01    rms(broyden)= 0.28858E+01
  rms(prec ) = 0.33063E+01
  weight for this iteration     100.00

 eigenvalues of (default mixing * dielectric matrix)
  average eigenvalue GAMMA=   0.4641
  2.0729  0.4778  0.4149  0.4149  0.2424  0.2424  0.1160  0.1160  0.0798

 Free energy of the ion-electron system (eV)
  ---------------------------------------------------
  alpha Z        PSCENC =      1910.25942632
  Ewald energy   TEWEN  =    171388.81050532
  -Hartree energ DENC   =   -296377.31185000
  -exchange      EXHF   =         0.00000000
  -V(xc)+E(xc)   XCENC  =      3721.54873283
  PAW double counting   =    135540.79064833  -140666.37924475
  entropy T*S    EENTRO =        -1.14520529
  eigenvalues    EBANDS =    -15665.08471525
  atomic energy  EATOM  =    139780.45519414
  Solvation  Ediel_sol  =         0.00000000
  ---------------------------------------------------
  free energy    TOTEN  =      -368.05650834 eV

  energy without entropy =     -366.91130305  energy(sigma->0) =     -367.48390570


--------------------------------------------------------------------------------------------------------




--------------------------------------- Iteration      1(  15)  ---------------------------------------


    POTLOK:  cpu time    0.0475: real time    0.0476
    SETDIJ:  cpu time    0.0051: real time    0.0051
     EDDAV:  cpu time    2.3890: real time    2.3948
       DOS:  cpu time    0.0006: real time    0.0006
    CHARGE:  cpu time    0.0454: real time    0.0455
    MIXING:  cpu time    0.0026: real time    0.0026
    --------------------------------------------
      LOOP:  cpu time    2.4902: real time    2.4962

 eigenvalue-minimisations  :  1256
 total energy-change (2. order) : 0.1068611E+01  (-0.6906370E+00)
 number of electron     814.0000123 magnetization 
 augmentation part      321.6127563 magnetization 

 Broyden mixing:
  rms(total) = 0.20690E+01    rms(broyden)= 0.20658E+01
  rms(prec ) = 0.24103E+01
  weight for this iteration     100.00

 eigenvalues of (default mixing * dielectric matrix)
  average eigenvalue GAMMA=   0.4621
  2.0208  0.5848  0.5848  0.3767  0.3767  0.2308  0.0796  0.1430  0.1118  0.1118

 Free energy of the ion-electron system (eV)
  ---------------------------------------------------
  alpha Z        PSCENC =      1910.25942632
  Ewald energy   TEWEN  =    171388.81050532
  -Hartree energ DENC   =   -296357.98034510
  -exchange      EXHF   =         0.00000000
  -V(xc)+E(xc)   XCENC  =      3721.30313016
  PAW double counting   =    135675.68012857  -140801.76219296
  entropy T*S    EENTRO =        -1.06456973
  eigenvalues    EBANDS =    -15682.68917437
  atomic energy  EATOM  =    139780.45519414
  Solvation  Ediel_sol  =         0.00000000
  ---------------------------------------------------
  free energy    TOTEN  =      -366.98789765 eV

  energy without entropy =     -365.92332792  energy(sigma->0) =     -366.45561279


--------------------------------------------------------------------------------------------------------




--------------------------------------- Iteration      1(  16)  ---------------------------------------


    POTLOK:  cpu time    0.0476: real time    0.0477
    SETDIJ:  cpu time    0.0050: real time    0.0050
     EDDAV:  cpu time    2.4554: real time    2.4613
       DOS:  cpu time    0.0006: real time    0.0006
    CHARGE:  cpu time    0.0397: real time    0.0398
    MIXING:  cpu time    0.0027: real time    0.0027
    --------------------------------------------
      LOOP:  cpu time    2.5511: real time    2.5572

 eigenvalue-minimisations  :  1320
 total energy-change (2. order) : 0.1192311E+01  (-0.1842001E+00)
 number of electron     814.0000127 magnetization 
 augmentation part      321.5941106 magnetization 

 Broyden mixing:
  rms(total) = 0.15567E+01    rms(broyden)= 0.15561E+01
  rms(prec ) = 0.18298E+01
  weight for this iteration     100.00

 eigenvalues of (default mixing * dielectric matrix)
  average eigenvalue GAMMA=   0.4550
  1.9821  0.7109  0.7109  0.3834  0.3834  0.1875  0.1875  0.0797  0.1470  0.1162
  0.1162

 Free energy of the ion-electron system (eV)
  ---------------------------------------------------
  alpha Z        PSCENC =      1910.25942632
  Ewald energy   TEWEN  =    171388.81050532
  -Hartree energ DENC   =   -296359.08804755
  -exchange      EXHF   =         0.00000000
  -V(xc)+E(xc)   XCENC  =      3721.54484228
  PAW double counting   =    135454.00669028  -140578.74492976
  entropy T*S    EENTRO =        -1.09368726
  eigenvalues    EBANDS =    -15681.94558034
  atomic energy  EATOM  =    139780.45519414
  Solvation  Ediel_sol  =         0.00000000
  ---------------------------------------------------
  free energy    TOTEN  =      -365.79558656 eV

  energy without entropy =     -364.70189930  energy(sigma->0) =     -365.24874293


--------------------------------------------------------------------------------------------------------




--------------------------------------- Iteration      1(  17)  ---------------------------------------


    POTLOK:  cpu time    0.0476: real time    0.0477
    SETDIJ:  cpu time    0.0050: real time    0.0050
     EDDAV:  cpu time    2.4579: real time    2.4638
       DOS:  cpu time    0.0006: real time    0.0006
    CHARGE:  cpu time    0.0420: real time    0.0421
    MIXING:  cpu time    0.0027: real time    0.0028
    --------------------------------------------
      LOOP:  cpu time    2.5557: real time    2.5618

 eigenvalue-minimisations  :  1320
 total energy-change (2. order) : 0.7078132E+00  (-0.7490830E-01)
 number of electron     814.0000121 magnetization 
 augmentation part      321.2825146 magnetization 

 Broyden mixing:
  rms(total) = 0.12906E+01    rms(broyden)= 0.12901E+01
  rms(prec ) = 0.15048E+01
  weight for this iteration     100.00

 eigenvalues of (default mixing * dielectric matrix)
  average eigenvalue GAMMA=   0.4503
  1.9787  0.7876  0.7876  0.3832  0.3832  0.2429  0.2429  0.0797  0.1568  0.1385
  0.1114  0.1114

 Free energy of the ion-electron system (eV)
  ---------------------------------------------------
  alpha Z        PSCENC =      1910.25942632
  Ewald energy   TEWEN  =    171388.81050532
  -Hartree energ DENC   =   -296367.62934241
  -exchange      EXHF   =         0.00000000
  -V(xc)+E(xc)   XCENC  =      3721.79622784
  PAW double counting   =    135265.79606782  -140389.25625492
  entropy T*S    EENTRO =        -1.13886161
  eigenvalues    EBANDS =    -15674.18073590
  atomic energy  EATOM  =    139780.45519414
  Solvation  Ediel_sol  =         0.00000000
  ---------------------------------------------------
  free energy    TOTEN  =      -365.08777340 eV

  energy without entropy =     -363.94891179  energy(sigma->0) =     -364.51834259


--------------------------------------------------------------------------------------------------------




--------------------------------------- Iteration      1(  18)  ---------------------------------------


    POTLOK:  cpu time    0.0481: real time    0.0483
    SETDIJ:  cpu time    0.0049: real time    0.0050
     EDDAV:  cpu time    2.4398: real time    2.4455
       DOS:  cpu time    0.0006: real time    0.0006
    CHARGE:  cpu time    0.0403: real time    0.0404
    MIXING:  cpu time    0.0028: real time    0.0028
    --------------------------------------------
      LOOP:  cpu time    2.5365: real time    2.5425

 eigenvalue-minimisations  :  1304
 total energy-change (2. order) : 0.2217729E+00  (-0.5916101E-01)
 number of electron     814.0000128 magnetization 
 augmentation part      321.3036024 magnetization 

 Broyden mixing:
  rms(total) = 0.12307E+01    rms(broyden)= 0.12304E+01
  rms(prec ) = 0.14608E+01
  weight for this iteration     100.00

 eigenvalues of (default mixing * dielectric matrix)
  average eigenvalue GAMMA=   0.4576
  1.9703  0.9144  0.9144  0.3844  0.3844  0.3360  0.3035  0.1830  0.1465  0.0797
  0.1132  0.1132  0.1065

 Free energy of the ion-electron system (eV)
  ---------------------------------------------------
  alpha Z        PSCENC =      1910.25942632
  Ewald energy   TEWEN  =    171388.81050532
  -Hartree energ DENC   =   -296376.88309141
  -exchange      EXHF   =         0.00000000
  -V(xc)+E(xc)   XCENC  =      3721.83135207
  PAW double counting   =    135159.46972291  -140281.63625149
  entropy T*S    EENTRO =        -1.10791659
  eigenvalues    EBANDS =    -15666.06494179
  atomic energy  EATOM  =    139780.45519414
  Solvation  Ediel_sol  =         0.00000000
  ---------------------------------------------------
  free energy    TOTEN  =      -364.86600052 eV

  energy without entropy =     -363.75808393  energy(sigma->0) =     -364.31204223


--------------------------------------------------------------------------------------------------------




--------------------------------------- Iteration      1(  19)  ---------------------------------------


    POTLOK:  cpu time    0.0473: real time    0.0474
    SETDIJ:  cpu time    0.0049: real time    0.0049
     EDDAV:  cpu time    2.4534: real time    2.4592
       DOS:  cpu time    0.0006: real time    0.0006
    CHARGE:  cpu time    0.0402: real time    0.0403
    MIXING:  cpu time    0.0029: real time    0.0029
    --------------------------------------------
      LOOP:  cpu time    2.5492: real time    2.5553

 eigenvalue-minimisations  :  1312
 total energy-change (2. order) : 0.2640606E+00  (-0.1820106E-01)
 number of electron     814.0000126 magnetization 
 augmentation part      321.0651672 magnetization 

 Broyden mixing:
  rms(total) = 0.10404E+01    rms(broyden)= 0.10402E+01
  rms(prec ) = 0.12261E+01
  weight for this iteration     100.00

 eigenvalues of (default mixing * dielectric matrix)
  average eigenvalue GAMMA=   0.4780
  1.9687  1.0996  1.0996  0.4155  0.4155  0.3556  0.3556  0.2201  0.1862  0.0797
  0.1492  0.1128  0.1128  0.1208

 Free energy of the ion-electron system (eV)
  ---------------------------------------------------
  alpha Z        PSCENC =      1910.25942632
  Ewald energy   TEWEN  =    171388.81050532
  -Hartree energ DENC   =   -296387.07517897
  -exchange      EXHF   =         0.00000000
  -V(xc)+E(xc)   XCENC  =      3721.98079414
  PAW double counting   =    135007.98627380  -140128.43338865
  entropy T*S    EENTRO =        -1.14736844
  eigenvalues    EBANDS =    -15657.43819762
  atomic energy  EATOM  =    139780.45519414
  Solvation  Ediel_sol  =         0.00000000
  ---------------------------------------------------
  free energy    TOTEN  =      -364.60193995 eV

  energy without entropy =     -363.45457151  energy(sigma->0) =     -364.02825573


--------------------------------------------------------------------------------------------------------




--------------------------------------- Iteration      1(  20)  ---------------------------------------


    POTLOK:  cpu time    0.0487: real time    0.0488
    SETDIJ:  cpu time    0.0049: real time    0.0049
     EDDAV:  cpu time    2.4787: real time    2.4845
       DOS:  cpu time    0.0006: real time    0.0006
    CHARGE:  cpu time    0.0403: real time    0.0404
    MIXING:  cpu time    0.0030: real time    0.0030
    --------------------------------------------
      LOOP:  cpu time    2.5762: real time    2.5822

 eigenvalue-minimisations  :  1336
 total energy-change (2. order) : 0.1377031E+00  (-0.2058253E-01)
 number of electron     814.0000127 magnetization 
 augmentation part      321.0212159 magnetization 

 Broyden mixing:
  rms(total) = 0.95995E+00    rms(broyden)= 0.95975E+00
  rms(prec ) = 0.11343E+01
  weight for this iteration     100.00

 eigenvalues of (default mixing * dielectric matrix)
  average eigenvalue GAMMA=   0.5507
  1.9970  1.5708  1.5708  0.6084  0.6084  0.3822  0.3822  0.2226  0.2043  0.0797
  0.1528  0.1419  0.1138  0.1138  0.1114

 Free energy of the ion-electron system (eV)
  ---------------------------------------------------
  alpha Z        PSCENC =      1910.25942632
  Ewald energy   TEWEN  =    171388.81050532
  -Hartree energ DENC   =   -296394.12319138
  -exchange      EXHF   =         0.00000000
  -V(xc)+E(xc)   XCENC  =      3722.01749606
  PAW double counting   =    134859.78587687  -139978.17670883
  entropy T*S    EENTRO =        -1.15025336
  eigenvalues    EBANDS =    -15652.34258198
  atomic energy  EATOM  =    139780.45519414
  Solvation  Ediel_sol  =         0.00000000
  ---------------------------------------------------
  free energy    TOTEN  =      -364.46423685 eV

  energy without entropy =     -363.31398349  energy(sigma->0) =     -363.88911017


--------------------------------------------------------------------------------------------------------




--------------------------------------- Iteration      1(  21)  ---------------------------------------


    POTLOK:  cpu time    0.0486: real time    0.0487
    SETDIJ:  cpu time    0.0049: real time    0.0049
     EDDAV:  cpu time    2.7280: real time    2.7366
       DOS:  cpu time    0.0007: real time    0.0007
    CHARGE:  cpu time    0.0458: real time    0.0459
    MIXING:  cpu time    0.0035: real time    0.0035
    --------------------------------------------
      LOOP:  cpu time    2.8314: real time    2.8402

 eigenvalue-minimisations  :  1472
 total energy-change (2. order) : 0.3709772E+00  (-0.2878634E-01)
 number of electron     814.0000128 magnetization 
 augmentation part      321.1116135 magnetization 

 Broyden mixing:
  rms(total) = 0.57366E+00    rms(broyden)= 0.57291E+00
  rms(prec ) = 0.65114E+00
  weight for this iteration     100.00

 eigenvalues of (default mixing * dielectric matrix)
  average eigenvalue GAMMA=   0.5479
  1.9956  1.6772  1.6772  0.6475  0.6475  0.3828  0.3828  0.2273  0.2273  0.1867
  0.0797  0.1519  0.1410  0.1139  0.1139  0.1133

 Free energy of the ion-electron system (eV)
  ---------------------------------------------------
  alpha Z        PSCENC =      1910.25942632
  Ewald energy   TEWEN  =    171388.81050532
  -Hartree energ DENC   =   -296405.11103488
  -exchange      EXHF   =         0.00000000
  -V(xc)+E(xc)   XCENC  =      3721.95277686
  PAW double counting   =    134472.15123255  -139584.68357626
  entropy T*S    EENTRO =        -1.18973800
  eigenvalues    EBANDS =    -15646.73804570
  atomic energy  EATOM  =    139780.45519414
  Solvation  Ediel_sol  =         0.00000000
[...]
  Alpha Z  1910.25943  1910.25943  1910.25943
  Ewald  219724.86829222218.89683************   303.22288   471.25710 -1001.07688
  Hartree257601.78014260319.77150************   262.48834   345.26288  -700.94524
  E(xc)   -5164.07831 -5166.07476 -5169.82902    -0.05327     0.32453    -1.14743
  Local  ************************478673.32176  -567.88018  -810.72103  1661.24373
  n-local  -695.59066  -712.44485  -716.48595    -0.22671     1.21180    -3.92140
  augment  5936.22007  5965.29091  5965.73049     1.00700    -2.53938    16.97377
  Kinetic 11239.65929 11289.88139 11305.69001     3.30622    -5.48916    43.17912
  Fock        0.00000     0.00000     0.00000     0.00000     0.00000     0.00000
  -------------------------------------------------------------------------------------
  Total     -42.24338   -25.62505   -24.13872     1.86429    -0.69326    14.30567
  in kB     -32.90273   -19.95897   -18.80128     1.45207    -0.53997    11.14247
  external pressure =      -23.89 kB  Pullay stress =        0.00 kB


 VOLUME and BASIS-vectors are now :
 -----------------------------------------------------------------------------
  energy-cutoff  :      450.00
  volume of cell :     2057.01
      direct lattice vectors                 reciprocal lattice vectors
    10.403353751 -4.789205000  0.000000000     0.096122849  0.000000000  0.000000000
     0.000000000  9.578410000  0.000000000     0.048061424  0.104401461  0.000000000
     0.000000000  0.000000000 20.642891374     0.000000000  0.000000000  0.048442826

  length of vectors
    11.452783670  9.578410000 20.642891374     0.096122849  0.114932874  0.048442826


 FORCES acting on ions
    electron-ion (+dipol)            ewald-force                    non-local-force                 convergence-correction
 -----------------------------------------------------------------------------------------------
   -.255E+03 0.444E+03 -.212E+04   0.255E+03 -.445E+03 0.212E+04   0.228E+00 0.111E+01 -.842E+00   0.835E-02 -.602E-01 0.680E-01
   -.350E+03 0.388E+03 0.680E+03   0.350E+03 -.389E+03 -.681E+03   0.146E+00 0.116E+01 0.285E+00   -.732E-01 -.760E-01 0.158E+00
   -.710E+02 0.128E+03 0.384E+04   0.712E+02 -.126E+03 -.384E+04   0.237E+00 -.130E+01 -.298E+01   -.474E-03 -.647E-01 -.500E-01
   0.193E+02 0.515E+03 -.463E+04   -.266E+02 -.511E+03 0.463E+04   0.684E+01 -.326E+01 0.233E+01   0.117E-01 -.130E+00 0.152E-01
   -.241E+03 0.469E+03 -.381E+03   0.240E+03 -.470E+03 0.382E+03   0.618E+00 0.688E+00 -.953E+00   0.185E-01 -.318E-02 0.151E+00
   -.106E+03 0.499E+03 0.240E+04   0.105E+03 -.500E+03 -.240E+04   0.569E+00 0.150E+01 0.136E+01   0.101E+00 -.589E-02 -.683E-01
   -.251E+02 0.312E+03 0.459E+04   0.262E+02 -.309E+03 -.459E+04   -.853E+00 -.240E+01 -.135E+01   -.225E-01 -.422E-01 -.138E+00
   -.703E+02 0.582E+03 -.482E+04   0.702E+02 -.572E+03 0.481E+04   0.672E+00 -.101E+02 0.802E+01   0.576E-01 0.118E+00 0.106E+00
   -.443E+03 0.472E+03 -.305E+04   0.443E+03 -.473E+03 0.305E+04   -.255E+00 0.132E+01 -.180E+01   -.396E-01 0.848E-01 0.127E+00
   0.326E+02 0.435E+03 -.153E+04   -.343E+02 -.435E+03 0.154E+04   0.147E+01 0.794E+00 -.207E+01   0.237E-01 0.626E-01 0.575E-01
   -.208E+03 0.466E+03 0.141E+04   0.208E+03 -.466E+03 -.141E+04   0.150E+00 0.727E+00 -.139E+01   0.207E-01 0.259E-01 0.216E-01
   -.570E+03 0.610E+03 0.409E+04   0.573E+03 -.609E+03 -.409E+04   -.157E+01 -.135E+01 -.850E+00   -.109E+00 0.101E+00 -.136E+00
   0.638E+03 -.164E+03 -.312E+04   -.641E+03 0.165E+03 0.312E+04   0.323E+01 -.670E+00 -.376E+01   -.132E+00 -.200E-01 0.745E-02
   0.445E+03 -.277E+02 -.285E+03   -.446E+03 0.277E+02 0.285E+03   0.168E+01 0.994E-02 -.114E+00   0.263E-01 -.619E-01 0.102E+00
   0.135E+03 -.804E+00 0.261E+04   -.134E+03 0.837E+00 -.262E+04   0.234E+00 0.143E-01 0.162E+01   -.134E+00 -.361E-01 -.132E-01
   0.459E+03 -.347E+01 0.430E+04   -.460E+03 0.351E+01 -.430E+04   0.923E+00 0.274E-02 0.325E+01   0.692E-01 -.266E-01 -.117E+00
   0.843E+03 0.428E+02 -.385E+04   -.843E+03 -.424E+02 0.385E+04   0.220E+00 -.414E+00 0.137E+01   0.128E+00 0.506E-01 0.985E-01
   0.353E+03 -.876E+01 -.113E+04   -.354E+03 0.870E+01 0.113E+04   0.123E+01 0.168E-01 0.278E+00   0.412E-02 0.196E-01 0.166E+00
   0.327E+03 -.123E+02 0.160E+04   -.328E+03 0.123E+02 -.160E+04   0.110E+01 -.216E-01 0.288E+00   -.535E-01 -.596E-02 0.792E-01
   0.465E+03 0.521E+02 0.558E+03   -.467E+03 -.530E+02 -.557E+03   0.205E+01 0.702E+00 -.726E+00   0.667E-01 0.430E-01 0.123E+00
   0.674E+03 0.527E+01 0.339E+04   -.677E+03 -.532E+01 -.339E+04   0.321E+01 0.416E-02 0.106E+01   0.111E+00 0.424E-01 -.487E-01
   0.333E+03 0.403E+00 0.507E+04   -.329E+03 -.424E+00 -.506E+04   -.461E+01 -.398E-01 -.141E+02   0.274E-01 0.568E-01 -.140E+00
   -.279E+03 0.473E+02 -.460E+04   0.279E+03 -.488E+02 0.459E+04   0.109E+00 0.140E+01 0.872E+01   0.632E-02 -.353E-01 0.934E-01
   -.530E+02 0.262E+03 -.244E+04   0.523E+02 -.264E+03 0.245E+04   0.117E+01 0.156E+01 -.229E+01   -.444E-01 -.278E-01 0.622E-01
   0.131E+03 -.634E+03 -.460E+04   -.139E+03 0.631E+03 0.460E+04   0.779E+01 0.317E+01 0.183E+01   -.538E-01 0.426E-01 0.254E-01
   -.213E+03 -.456E+03 -.212E+04   0.212E+03 0.457E+03 0.212E+04   -.296E-01 -.126E+01 -.831E+00   0.414E-01 -.173E-01 0.499E-01
   -.333E+03 -.375E+03 0.694E+03   0.333E+03 0.376E+03 -.694E+03   0.112E+00 -.116E+01 0.296E+00   -.414E-01 0.534E-01 0.146E+00
   -.687E+02 -.123E+03 0.385E+04   0.688E+02 0.121E+03 -.384E+04   0.251E+00 0.138E+01 -.308E+01   0.282E-01 0.895E-01 -.558E-01
   -.263E+03 -.550E+03 -.460E+03   0.263E+03 0.552E+03 0.461E+03   0.160E+00 -.186E+01 -.129E+01   -.988E-03 -.244E-01 0.159E+00
   -.103E+03 -.511E+03 0.238E+04   0.103E+03 0.513E+03 -.239E+04   0.544E+00 -.154E+01 0.132E+01   0.840E-01 -.445E-01 -.478E-01
   -.242E+02 -.313E+03 0.459E+04   0.254E+02 0.310E+03 -.458E+04   -.871E+00 0.240E+01 -.136E+01   -.230E-01 -.775E-01 -.130E+00
   -.113E+03 -.595E+03 -.481E+04   0.113E+03 0.584E+03 0.480E+04   0.555E+00 0.101E+02 0.797E+01   0.341E-01 -.755E-01 0.922E-01
   -.556E+03 -.591E+03 -.308E+04   0.556E+03 0.593E+03 0.308E+04   -.554E+00 -.221E+01 -.209E+01   -.536E-01 -.637E-01 0.145E+00
   -.134E+03 0.200E+03 -.415E+04   0.135E+03 -.195E+03 0.415E+04   -.115E+01 -.456E+01 -.529E+00   0.153E-02 0.378E-01 0.540E-01
   -.815E+02 -.336E+03 -.139E+04   0.811E+02 0.337E+03 0.139E+04   0.423E+00 -.532E+00 -.193E+01   0.542E-01 0.297E-01 0.473E-01
   -.218E+03 -.458E+03 0.142E+04   0.218E+03 0.459E+03 -.142E+04   0.134E+00 -.680E+00 -.133E+01   0.713E-02 0.207E-01 0.191E-01
   -.572E+03 -.611E+03 0.409E+04   0.574E+03 0.609E+03 -.409E+04   -.158E+01 0.132E+01 -.832E+00   -.142E+00 -.373E-01 -.145E+00
   0.277E+03 -.256E+03 -.173E+04   -.279E+03 0.258E+03 0.173E+04   0.370E+01 -.188E+01 -.204E+01   -.711E-01 0.150E-02 0.370E-01
   0.188E+03 -.201E+03 -.863E+03   -.190E+03 0.203E+03 0.863E+03   0.154E+01 -.175E+01 0.939E+00   -.964E-03 -.810E-02 -.111E-01
   0.791E+02 -.138E+03 0.203E+03   -.806E+02 0.140E+03 -.204E+03   0.142E+01 -.214E+01 0.820E+00   -.194E-01 0.140E-01 0.389E-01
   -.445E+02 0.305E+02 0.136E+04   0.442E+02 -.311E+02 -.136E+04   0.918E+00 0.378E+00 0.244E+01   -.387E-01 0.356E-01 -.330E-01
   0.103E+03 -.196E+03 0.919E+03   -.104E+03 0.198E+03 -.921E+03   0.139E+01 -.240E+01 0.918E+00   0.993E-02 -.263E-01 0.247E-02
   0.209E+03 -.231E+03 0.184E+04   -.211E+03 0.235E+03 -.184E+04   0.223E+01 -.420E+01 0.358E+01   0.416E-01 -.228E-01 -.707E-01
   0.898E+02 -.154E+03 -.112E+04   -.908E+02 0.156E+03 0.112E+04   0.596E+00 -.228E+01 0.167E+01   0.107E-01 -.431E-02 0.362E-01
   0.461E+02 -.169E+03 -.147E+03   -.477E+02 0.171E+03 0.147E+03   0.155E+01 -.225E+01 0.370E+00   -.242E-01 -.910E-02 0.733E-01
   0.906E+02 -.799E+02 -.546E+03   -.923E+02 0.818E+02 0.546E+03   0.160E+01 -.238E+01 0.448E+00   0.222E-01 0.784E-02 0.854E-02
   0.138E+03 -.126E+03 0.537E+03   -.139E+03 0.128E+03 -.538E+03   0.149E+01 -.199E+01 0.122E+01   0.229E-01 0.112E-01 0.394E-01
   0.112E+03 -.155E+03 0.144E+04   -.113E+03 0.157E+03 -.144E+04   0.165E+01 -.229E+01 -.582E+00   0.165E-01 0.347E-01 -.820E-01
   -.483E+02 -.288E+02 -.159E+04   0.483E+02 0.296E+02 0.159E+04   0.157E+00 -.178E+01 -.784E+00   -.318E-01 0.417E-01 0.254E-01
   0.385E+02 0.126E+01 0.168E+04   -.387E+02 -.128E+01 -.168E+04   -.142E+01 -.274E-02 0.434E+01   0.438E-01 0.142E-01 -.593E-01
   -.120E+03 -.340E+01 -.158E+04   0.122E+03 0.341E+01 0.158E+04   -.181E+01 -.547E-02 0.507E+00   0.504E-01 -.358E-01 -.268E-01
   -.170E+03 0.105E+02 -.641E+03   0.172E+03 -.105E+02 0.644E+03   -.191E+01 -.117E-01 -.241E+01   -.321E-01 -.158E-01 0.668E-01
   -.104E+03 0.645E+01 0.463E+03   0.106E+03 -.643E+01 -.461E+03   -.154E+01 0.407E-01 -.227E+01   0.263E-01 0.612E-02 0.630E-01
   -.844E+02 -.121E+02 0.207E+02   0.858E+02 0.121E+02 -.192E+02   -.121E+01 -.326E-01 -.185E+01   0.166E-01 -.154E-01 0.316E-01
   -.108E+03 -.127E+01 0.103E+04   0.109E+03 0.131E+01 -.103E+04   -.123E+01 -.654E-02 -.345E+01   -.930E-02 -.310E-01 -.802E-01
   -.362E+03 -.328E-01 0.173E+04   0.365E+03 0.532E-01 -.174E+04   -.536E+01 -.142E-02 0.138E+01   -.671E-01 -.259E-01 -.642E-01
   -.143E+03 -.496E+02 -.105E+04   0.144E+03 0.496E+02 0.105E+04   -.116E+01 -.816E-01 -.768E+00   -.191E-01 -.395E-02 0.601E-01
   -.396E+03 -.236E+02 -.183E+04   0.402E+03 0.237E+02 0.183E+04   -.705E+01 -.364E-01 -.242E+01   -.339E-01 0.448E-02 0.257E-01
   0.116E+03 0.122E+03 -.143E+04   -.116E+03 -.123E+03 0.143E+04   0.102E+01 0.185E+01 -.127E+01   0.353E-01 0.131E-01 0.108E-01
   -.768E+02 0.691E+01 -.319E+03   0.782E+02 -.682E+01 0.321E+03   -.146E+01 -.150E+00 -.198E+01   0.195E-02 0.234E-01 0.366E-01
   -.151E+03 -.513E+00 0.717E+03   0.152E+03 0.441E+00 -.715E+03   -.149E+01 0.656E-01 -.254E+01   -.338E-01 0.127E-01 -.268E-01
   -.152E+03 -.424E+00 0.181E+04   0.152E+03 0.431E+00 -.181E+04   -.171E+01 -.173E-01 0.417E+01   -.331E-01 0.539E-02 -.608E-01
   0.718E+02 0.135E+03 0.206E+03   -.734E+02 -.137E+03 -.207E+03   0.164E+01 0.215E+01 0.744E+00   -.217E-01 -.238E-01 0.544E-01
   -.460E+02 -.299E+02 0.136E+04   0.457E+02 0.306E+02 -.136E+04   0.912E+00 -.345E+00 0.240E+01   -.623E-01 -.509E-01 -.363E-01
   0.215E+03 0.579E+02 -.183E+04   -.217E+03 -.573E+02 0.183E+04   0.355E+01 -.106E+01 -.411E+01   -.285E-01 0.232E-01 0.411E-01
   0.138E+03 0.158E+03 -.835E+03   -.140E+03 -.160E+03 0.834E+03   0.167E+01 0.226E+01 0.663E+00   0.212E-01 -.199E-01 -.742E-02
   0.104E+03 0.192E+03 0.926E+03   -.106E+03 -.195E+03 -.928E+03   0.139E+01 0.239E+01 0.981E+00   0.198E-01 0.145E-01 0.176E-02
   0.209E+03 0.230E+03 0.184E+04   -.211E+03 -.234E+03 -.184E+04   0.223E+01 0.418E+01 0.356E+01   0.747E-01 0.129E-01 -.692E-01
   0.113E+03 0.152E+03 -.112E+04   -.114E+03 -.154E+03 0.112E+04   0.618E+00 0.209E+01 0.158E+01   0.311E-01 0.319E-01 0.384E-01
   0.612E+02 0.159E+03 -.134E+03   -.628E+02 -.161E+03 0.134E+03   0.150E+01 0.226E+01 0.334E+00   -.693E-02 0.179E-01 0.745E-01
   0.663E+02 0.102E+03 -.719E+03   -.671E+02 -.105E+03 0.721E+03   0.800E+00 0.247E+01 -.279E+01   -.321E-02 0.425E-03 0.365E-01
   0.142E+03 0.132E+03 0.523E+03   -.144E+03 -.134E+03 -.525E+03   0.165E+01 0.187E+01 0.129E+01   0.190E-01 0.881E-03 0.238E-01
   0.113E+03 0.156E+03 0.144E+04   -.114E+03 -.158E+03 -.144E+04   0.165E+01 0.232E+01 -.507E+00   0.175E-01 0.458E-02 -.649E-01
   -.246E+03 0.501E+02 -.157E+04   0.248E+03 -.506E+02 0.157E+04   -.330E+01 0.141E+01 -.156E+01   -.154E-01 -.427E-01 0.294E-01
 -----------------------------------------------------------------------------------------------
   -.309E+02 0.530E+01 0.244E+01   -.483E-12 -.237E-11 -.637E-11   0.308E+02 -.528E+01 -.353E+01   -.637E-01 -.605E-01 0.125E+01
 
 
 POSITION                                       TOTAL-FORCE (eV/Angst)
 -----------------------------------------------------------------------------------
      6.03859     -2.06748      7.30541        -0.215097      0.032754     -0.032711
      7.93319     -2.06748      4.80229         0.018122     -0.081931     -0.063203
      9.82779     -2.06748      2.29918         0.399683      0.739157      0.860579
      4.14400      7.51093      9.80852        -0.375038      0.081658     -1.009360
      0.36609      7.51093      5.63666        -0.006041      0.022182      0.130011
      2.26069      7.51093      3.13355        -0.001930      0.029457     -0.253293
      4.15528      7.51093      0.63043         0.306710      0.765622      0.706166
      6.98025      2.72172     10.64289         0.677883      0.788408     -1.771004
      8.87485      2.72172      8.13978        -0.135931      0.026584      0.272494
      3.20234      2.72172      6.47103        -0.295392      0.048741      0.302434
      5.09694      2.72172      3.96792         0.030492      0.149279     -0.009494
      6.99153      2.72172      1.46480         0.634144      0.258069      0.900283
      2.39650     -0.80215      8.48584        -0.447019      0.079689      0.464611
      4.29109     -0.80215      5.98273         0.182979     -0.015164      0.054760
      6.18569     -0.80215      3.47961         0.379919      0.011502     -0.219655
      0.51318      8.77626      1.81087         0.347662      0.016743     -0.666845
      5.23275      3.98706      9.32022         0.341164      0.040154     -0.847712
      7.12734      3.98706      6.81710        -0.100063     -0.022196      0.135721
      9.02194      3.98706      4.31399         0.163881      0.010196      0.184316
      1.45484      3.98706      5.14836         0.053050     -0.149068      0.123445
      3.34944      3.98706      2.64524        -0.147440     -0.005211     -0.373827
      5.24403      3.98706      0.14213        -0.290907     -0.002909      1.672383
      8.06900     -0.80215     10.15459         0.305433     -0.177314     -1.760935
      9.96360     -0.80215      7.65147         0.384815     -0.318589      0.481118
      4.14400      0.46319      9.80852        -0.620998      0.131794     -0.939241
      6.03859      0.46319      7.30541        -0.261538     -0.014429     -0.019589
      7.93319      0.46319      4.80229         0.040521      0.071245     -0.100061
      9.82779      0.46319      2.29918         0.397621     -0.738038      0.840330
      0.36609      0.46319      5.63666        -0.031855      0.128726      0.068582
      2.26069      0.46319      3.13355        -0.001688     -0.024843     -0.249567
      4.15528      0.46319      0.63043         0.293997     -0.777022      0.712832
      6.98025      5.25240     10.64289         0.725841     -0.734797     -1.790674
      8.87485      5.25240      8.13978        -0.128997      0.215318      0.401593
      1.30774      5.25240      8.97415        -0.027348      0.619076     -0.566318
      3.20234      5.25240      6.47103         0.064214     -0.042311      0.221274
      5.09694      5.25240      3.96792         0.073244     -0.136956     -0.006789
      6.99153      5.25240      1.46480         0.622666     -0.260192      0.918105
      1.91849      0.80909      9.99696         1.448661     -0.500864     -0.128538
      3.81309      0.80909      7.49384        -0.087694     -0.181051      0.150730
      5.70769      0.80909      4.99073        -0.071458     -0.138431     -0.159870
      7.60228      0.80909      2.48761         0.557918     -0.233621     -0.421826
      0.03518      0.80909      3.32198        -0.095337     -0.213074     -0.389679
      1.92978      0.80909      0.81887         0.188143     -0.253556      0.683733
      6.64934      5.59829      8.32821        -0.428688     -0.188443      0.930108
      8.54394      5.59829      5.82510        -0.026026     -0.070762     -0.068099
      0.97684      5.59829      6.65947        -0.043758     -0.455703      0.033179
      2.87143      5.59829      4.15636        -0.053629     -0.078277      0.001333
      4.76603      5.59829      1.65324         0.368219     -0.314419     -1.334310
      9.48560      0.80909      9.16258         0.170330     -0.979427      0.500797
      1.31873      3.98706      1.66874        -1.563740     -0.005780     -0.465711
      6.03829     -0.80215      9.17809         0.084398     -0.029127      1.915406
      7.93289     -0.80215      6.67497        -0.048147     -0.023187     -0.109094
      9.82749     -0.80215      4.17186        -0.299606      0.063709     -0.451170
      2.26038     -0.80215      5.00623         0.192922      0.012706     -0.249983
      4.15498     -0.80215      2.50311        -0.126113      0.000591     -0.469575
      6.04958     -0.80215      0.00000        -2.228033     -0.006265      0.407101
      0.36579      8.77626      7.50934         0.080144     -0.003030      0.154255
      8.87455      3.98706     10.01246        -1.205969     -0.003507      1.197922
      3.20204      3.98706      8.34372         0.335069      0.462215      1.056754
      5.09664      3.98706      5.84060        -0.078817     -0.034260     -0.058973
      6.99123      3.98706      3.33749        -0.078534      0.007469     -0.317065
      8.88583      3.98706      0.83437        -1.543822     -0.003905     -0.372432
      5.70769     -2.41338      4.99073        -0.003436      0.147047     -0.181965
      7.60228     -2.41338      2.48761         0.559664      0.222993     -0.451376
      1.91849      7.16503      9.99696         1.049121     -0.436572      0.067685
      3.81309      7.16503      7.49384         0.020591      0.279828      0.026829
      0.03518      7.16503      3.32198        -0.072904      0.179041     -0.375859
      1.92978      7.16503      0.81887         0.182985      0.239650      0.662998
      6.64934      2.37583      8.32821        -0.394596      0.110137      0.884189
      8.54394      2.37583      5.82510        -0.057237      0.086275     -0.077118
      0.97684      2.37583      6.65947        -0.012933      0.317660     -0.518884
      2.87143      2.37583      4.15636         0.054721      0.037024      0.024283
      4.76603      2.37583      1.65324         0.359048      0.337394     -1.334561
      9.48560     -2.41338      9.16258        -0.488215      0.884138      0.468029
 -----------------------------------------------------------------------------------
    total drift:                               -0.123597     -0.044433      0.151692


--------------------------------------------------------------------------------------------------------



  FREE ENERGIE OF THE ION-ELECTRON SYSTEM (eV)
  ---------------------------------------------------
  free  energy   TOTEN  =      -363.95072820 eV

  energy  without entropy=     -362.73348543  energy(sigma->0) =     -363.34210682
 


--------------------------------------------------------------------------------------------------------


    POTLOK:  cpu time    0.0532: real time    0.0557


--------------------------------------------------------------------------------------------------------


     LOOP+:  cpu time   84.6412: real time   84.9280
    4ORBIT:  cpu time    0.0000: real time    0.0000

 total amount of memory used by VASP MPI-rank0    45236. kBytes
=======================================================================

   base      :      30000. kBytes
   nonlr-proj:       2309. kBytes
   fftplans  :       3298. kBytes
   grid      :       5820. kBytes
   one-center:        101. kBytes
   wavefun   :       3708. kBytes
 
  
  
 General timing and accounting informations for this job:
 ========================================================
  
                  Total CPU time used (sec):       86.772
                            User time (sec):       86.154
                          System time (sec):        0.619
                         Elapsed time (sec):       87.525
  
                   Maximum memory used (kb):      226468.
                   Average memory used (kb):           0.
  
                          Minor page faults:        73666
                          Major page faults:            0
                 Voluntary context switches:          906
