
96 atoms
2 atom types
   0.0000000000    6.2785600000 xlo xhi
   0.0000000000   11.0601955134 ylo yhi
   0.0000000000   27.8914833038 zlo zhi
   2.0928533957    0.0000000000    0.0000000000 xy xz yz

Atoms # atomic

     1      1    1.6436996031    0.1820352343    0.0000000000
     2      1    1.6436996031    0.1820352343    9.5784099959
     3      1    0.5972729353    2.9470840242    4.7892050119
     4      1    0.5972729353    2.9470840242   14.3676150078
     5      1    1.6436996031    0.1820352343    7.0477366155
     6      1    1.6436996031    0.1820352343   16.6261466114
     7      1    0.5972729353    2.9470840242    2.2585316036
     8      1    0.5972729353    2.9470840242   11.8369415995
     9      1    1.6436996029    2.3736626798    8.3130733057
    10      1    1.6436996029    2.3736626798   17.8914833016
    11      1    3.7365529372    5.1387114808    3.5238682938
    12      1    3.7365529372    5.1387114808   13.1022783176
    13      1    4.7829796031    0.1820352343    0.0000000000
    14      1    4.7829796031    0.1820352343    9.5784099959
    15      1    3.7365529353    2.9470840242    4.7892050119
    16      1    3.7365529353    2.9470840242   14.3676150078
    17      1    4.7829796031    0.1820352343    7.0477366155
    18      1    4.7829796031    0.1820352343   16.6261466114
    19      1    3.7365529353    2.9470840242    2.2585316036
    20      1    3.7365529353    2.9470840242   11.8369415995
    21      1    4.7829796029    2.3736626798    8.3130733057
    22      1    4.7829796029    2.3736626798   17.8914833016
    23      1    6.8758329372    5.1387114808    3.5238682938
    24      1    6.8758329372    5.1387114808   13.1022783176
    25      1    2.6901263010    5.7121329910    0.0000000000
    26      1    2.6901263010    5.7121329910    9.5784099959
    27      1    1.6436996332    8.4771817809    4.7892050119
    28      1    1.6436996332    8.4771817809   14.3676150078
    29      1    2.6901263010    5.7121329910    7.0477366155
    30      1    2.6901263010    5.7121329910   16.6261466114
    31      1    1.6436996332    8.4771817809    2.2585316036
    32      1    1.6436996332    8.4771817809   11.8369415995
    33      1    2.6901263008    7.9037604365    8.3130733057
    34      1    2.6901263008    7.9037604365   17.8914833016
    35      1    4.7829796351   10.6688092375    3.5238682938
    36      1    4.7829796351   10.6688092375   13.1022783176
    37      1    5.8294063010    5.7121329910    0.0000000000
    38      1    5.8294063010    5.7121329910    9.5784099959
    39      1    4.7829796332    8.4771817809    4.7892050119
    40      1    4.7829796332    8.4771817809   14.3676150078
    41      1    5.8294063010    5.7121329910    7.0477366155
    42      1    5.8294063010    5.7121329910   16.6261466114
    43      1    4.7829796332    8.4771817809    2.2585316036
    44      1    4.7829796332    8.4771817809   11.8369415995
    45      1    5.8294063008    7.9037604365    8.3130733057
    46      1    5.8294063008    7.9037604365   17.8914833016
    47      1    7.9222596351   10.6688092375    3.5238682938
    48      1    7.9222596351   10.6688092375   13.1022783176
    49      2    3.2896094581    1.8428230771    6.7018410547
    50      2    3.2896094581    1.8428230771   16.2802510785
    51      2    2.2431827924    4.6078718781    1.9126360707
    52      2    2.2431827924    4.6078718781   11.4910460666
    53      2    3.2896094581    1.8428230771    0.3458955329
    54      2    3.2896094581    1.8428230771    9.9243055288
    55      2    2.2431827924    4.6078718781    5.1351005448
    56      2    2.2431827924    4.6078718781   14.7135105407
    57      2    1.1967561256    4.5821845740    8.3130733057
    58      2    1.1967561256    4.5821845740   17.8914833016
    59      2    2.2431827913    1.8171357730    3.5238682938
    60      2    2.2431827913    1.8171357730   13.1022783176
    61      2    6.4288894581    1.8428230771    6.7018410547
    62      2    6.4288894581    1.8428230771   16.2802510785
    63      2    5.3824627924    4.6078718781    1.9126360707
    64      2    5.3824627924    4.6078718781   11.4910460666
    65      2    6.4288894581    1.8428230771    0.3458955329
    66      2    6.4288894581    1.8428230771    9.9243055288
    67      2    5.3824627924    4.6078718781    5.1351005448
    68      2    5.3824627924    4.6078718781   14.7135105407
    69      2    4.3360361256    4.5821845740    8.3130733057
    70      2    4.3360361256    4.5821845740   17.8914833016
    71      2    5.3824627913    1.8171357730    3.5238682938
    72      2    5.3824627913    1.8171357730   13.1022783176
    73      2    4.3360361560    7.3729208338    6.7018410547
    74      2    4.3360361560    7.3729208338   16.2802510785
    75      2    3.2896094903   10.1379696347    1.9126360707
    76      2    3.2896094903   10.1379696347   11.4910460666
    77      2    4.3360361560    7.3729208338    0.3458955329
    78      2    4.3360361560    7.3729208338    9.9243055288
    79      2    3.2896094903   10.1379696347    5.1351005448
    80      2    3.2896094903   10.1379696347   14.7135105407
    81      2    2.2431828235   10.1122823307    8.3130733057
    82      2    2.2431828235   10.1122823307   17.8914833016
    83      2    3.2896094892    7.3472335297    3.5238682938
    84      2    3.2896094892    7.3472335297   13.1022783176
    85      2    7.4753161560    7.3729208338    6.7018410547
    86      2    7.4753161560    7.3729208338   16.2802510785
    87      2    6.4288894903   10.1379696347    1.9126360707
    88      2    6.4288894903   10.1379696347   11.4910460666
    89      2    7.4753161560    7.3729208338    0.3458955329
    90      2    7.4753161560    7.3729208338    9.9243055288
    91      2    6.4288894903   10.1379696347    5.1351005448
    92      2    6.4288894903   10.1379696347   14.7135105407
    93      2    5.3824628235   10.1122823307    8.3130733057
    94      2    5.3824628235   10.1122823307   17.8914833016
    95      2    6.4288894892    7.3472335297    3.5238682938
    96      2    6.4288894892    7.3472335297   13.1022783176
