       N       E                     dE             d eps       ncg     rms          rms(c)
DAV:   1     0.861358655861E+04    0.86136E+04   -0.49939E+05  1168   0.152E+03
DAV:   2     0.477464355912E+03   -0.81361E+04   -0.78437E+04  1024   0.483E+02
DAV:   3    -0.344904186708E+03   -0.82237E+03   -0.77486E+03  1120   0.156E+02
DAV:   4    -0.394696798805E+03   -0.49793E+02   -0.49195E+02  1128   0.354E+01
DAV:   5    -0.396391276681E+03   -0.16945E+01   -0.16921E+01  1248   0.690E+00    0.820E+01
DAV:   6    -0.515928070005E+03   -0.11954E+03   -0.10628E+03  1152   0.128E+02    0.178E+02
DAV:   7    -0.376177740624E+03    0.13975E+03   -0.19614E+02  1104   0.626E+01    0.770E+01
DAV:   8    -0.420642148810E+03   -0.44464E+02   -0.18329E+02  1344   0.897E+01    0.132E+02
DAV:   9    -0.365348260293E+03    0.55294E+02   -0.12028E+02  1248   0.476E+01    0.635E+01
DAV:  10    -0.354057508989E+03    0.11291E+02   -0.52824E+01  1328   0.453E+01    0.693E+01
DAV:  11    -0.361964011092E+03   -0.79065E+01   -0.62485E+01  1312   0.299E+01    0.639E+01
DAV:  12    -0.360189676206E+03    0.17743E+01   -0.41466E+01  1296   0.342E+01    0.699E+01
DAV:  13    -0.352753910629E+03    0.74358E+01   -0.32532E+01  1336   0.201E+01    0.365E+01
DAV:  14    -0.348642521980E+03    0.41114E+01   -0.11380E+01  1248   0.241E+01    0.331E+01
DAV:  15    -0.346633916435E+03    0.20086E+01   -0.80898E+00  1280   0.191E+01    0.278E+01
DAV:  16    -0.344994831825E+03    0.16391E+01   -0.42236E+00  1304   0.106E+01    0.202E+01
DAV:  17    -0.343710781734E+03    0.12841E+01   -0.18536E+00  1272   0.866E+00    0.153E+01
DAV:  18    -0.343062447302E+03    0.64833E+00   -0.15915E+00  1304   0.779E+00    0.127E+01
DAV:  19    -0.342744117082E+03    0.31833E+00   -0.10556E+00  1320   0.580E+00    0.117E+01
DAV:  20    -0.342436473717E+03    0.30764E+00   -0.85967E-01  1280   0.479E+00    0.839E+00
DAV:  21    -0.342351702271E+03    0.84771E-01   -0.30115E-01  1304   0.324E+00    0.709E+00
DAV:  22    -0.342281592606E+03    0.70110E-01   -0.36377E-01  1336   0.363E+00    0.595E+00
DAV:  23    -0.342245971221E+03    0.35621E-01   -0.33072E-01  1248   0.326E+00    0.554E+00
DAV:  24    -0.342232351500E+03    0.13620E-01   -0.25790E-01  1288   0.342E+00    0.485E+00
DAV:  25    -0.342222171447E+03    0.10180E-01   -0.21607E-01  1240   0.270E+00    0.501E+00
DAV:  26    -0.342174596998E+03    0.47574E-01   -0.10877E-01  1256   0.204E+00    0.320E+00
DAV:  27    -0.342188867955E+03   -0.14271E-01   -0.75402E-02  1304   0.180E+00    0.355E+00
DAV:  28    -0.342157434487E+03    0.31433E-01   -0.48475E-02  1304   0.143E+00    0.225E+00
DAV:  29    -0.342154991848E+03    0.24426E-02   -0.22469E-02  1296   0.105E+00    0.201E+00
DAV:  30    -0.342146500233E+03    0.84916E-02   -0.24327E-02  1280   0.791E-01    0.149E+00
DAV:  31    -0.342142852346E+03    0.36479E-02   -0.12009E-02  1296   0.614E-01    0.107E+00
DAV:  32    -0.342141499032E+03    0.13533E-02   -0.65049E-03  1296   0.478E-01    0.899E-01
DAV:  33    -0.342140922555E+03    0.57648E-03   -0.49626E-03  1288   0.499E-01    0.748E-01
DAV:  34    -0.342139918092E+03    0.10045E-02   -0.35766E-03  1296   0.367E-01    0.467E-01
DAV:  35    -0.342139712953E+03    0.20514E-03   -0.18345E-03  1176   0.304E-01    0.341E-01
DAV:  36    -0.342139989605E+03   -0.27665E-03   -0.10095E-03  1024   0.213E-01    0.277E-01
DAV:  37    -0.342140061189E+03   -0.71584E-04   -0.60273E-04   848   0.185E-01
   1 F= -.34214006E+03 E0= -.34147242E+03  d E =-.133529E+01
