  72  72   0   0
  0.3633021E+02  0.1688469E-08  0.9578410E-09  0.1617386E-08  0.5000000E-15
  1.000000000000000E-004
  CAR 
 "Millerite NiS"                         
      9.18611482    -68.00777230  301     -0.36323998      1.00000000
    -68.008  0.0000E+00  0.0000E+00
    -67.750  0.0000E+00  0.0000E+00
    -67.493  0.0000E+00  0.0000E+00
    -67.236  0.0000E+00  0.0000E+00
    -66.979  0.0000E+00  0.0000E+00
    -66.721  0.0000E+00  0.0000E+00
    -66.464  0.0000E+00  0.0000E+00
    -66.207  0.0000E+00  0.0000E+00
    -65.949  0.0000E+00  0.0000E+00
    -65.692  0.0000E+00  0.0000E+00
    -65.435  0.4395E-09  0.1131E-09
    -65.177  0.2573E-04  0.6621E-05
    -64.920  0.6965E-01  0.1793E-01
    -64.663  0.1035E+02  0.2682E+01
    -64.405  0.1172E+03  0.3284E+02
    -64.148  0.1935E+03  0.8264E+02
    -63.891  0.1713E+03  0.1267E+03
    -63.633  0.1409E+03  0.1630E+03
    -63.376  0.9698E+02  0.1879E+03
    -63.119  0.7564E+02  0.2074E+03
    -62.862  0.3168E+02  0.2155E+03
    -62.604  0.1751E+01  0.2160E+03
    -62.347  0.6839E-02  0.2160E+03
    -62.090  0.1348E-05  0.2160E+03
    -61.832  0.1153E-10  0.2160E+03
    -61.575  0.0000E+00  0.2160E+03
    -61.318  0.0000E+00  0.2160E+03
    -61.060  0.0000E+00  0.2160E+03
    -60.803  0.0000E+00  0.2160E+03
    -60.546  0.0000E+00  0.2160E+03
    -60.288  0.0000E+00  0.2160E+03
    -60.031  0.0000E+00  0.2160E+03
    -59.774  0.0000E+00  0.2160E+03
    -59.516  0.0000E+00  0.2160E+03
    -59.259  0.0000E+00  0.2160E+03
    -59.002  0.0000E+00  0.2160E+03
    -58.745  0.0000E+00  0.2160E+03
    -58.487  0.0000E+00  0.2160E+03
    -58.230  0.0000E+00  0.2160E+03
    -57.973  0.0000E+00  0.2160E+03
    -57.715  0.0000E+00  0.2160E+03
    -57.458  0.0000E+00  0.2160E+03
    -57.201  0.0000E+00  0.2160E+03
    -56.943  0.0000E+00  0.2160E+03
    -56.686  0.0000E+00  0.2160E+03
    -56.429  0.0000E+00  0.2160E+03
    -56.171  0.0000E+00  0.2160E+03
    -55.914  0.0000E+00  0.2160E+03
    -55.657  0.0000E+00  0.2160E+03
    -55.399  0.0000E+00  0.2160E+03
    -55.142  0.0000E+00  0.2160E+03
    -54.885  0.0000E+00  0.2160E+03
    -54.627  0.0000E+00  0.2160E+03
    -54.370  0.0000E+00  0.2160E+03
    -54.113  0.0000E+00  0.2160E+03
    -53.856  0.0000E+00  0.2160E+03
    -53.598  0.0000E+00  0.2160E+03
    -53.341  0.0000E+00  0.2160E+03
    -53.084  0.0000E+00  0.2160E+03
    -52.826  0.0000E+00  0.2160E+03
    -52.569  0.0000E+00  0.2160E+03
    -52.312  0.0000E+00  0.2160E+03
    -52.054  0.0000E+00  0.2160E+03
    -51.797  0.0000E+00  0.2160E+03
    -51.540  0.0000E+00  0.2160E+03
    -51.282  0.0000E+00  0.2160E+03
    -51.025  0.0000E+00  0.2160E+03
    -50.768  0.0000E+00  0.2160E+03
    -50.510  0.0000E+00  0.2160E+03
    -50.253  0.0000E+00  0.2160E+03
    -49.996  0.0000E+00  0.2160E+03
    -49.739  0.0000E+00  0.2160E+03
    -49.481  0.0000E+00  0.2160E+03
    -49.224  0.0000E+00  0.2160E+03
    -48.967  0.0000E+00  0.2160E+03
    -48.709  0.0000E+00  0.2160E+03
    -48.452  0.0000E+00  0.2160E+03
    -48.195  0.0000E+00  0.2160E+03
    -47.937  0.0000E+00  0.2160E+03
    -47.680  0.0000E+00  0.2160E+03
    -47.423  0.0000E+00  0.2160E+03
    -47.165  0.0000E+00  0.2160E+03
    -46.908  0.0000E+00  0.2160E+03
    -46.651  0.0000E+00  0.2160E+03
    -46.393  0.0000E+00  0.2160E+03
    -46.136  0.0000E+00  0.2160E+03
    -45.879  0.0000E+00  0.2160E+03
    -45.622  0.0000E+00  0.2160E+03
    -45.364  0.0000E+00  0.2160E+03
    -45.107  0.0000E+00  0.2160E+03
    -44.850  0.0000E+00  0.2160E+03
    -44.592  0.0000E+00  0.2160E+03
    -44.335  0.0000E+00  0.2160E+03
    -44.078  0.0000E+00  0.2160E+03
    -43.820  0.0000E+00  0.2160E+03
    -43.563  0.0000E+00  0.2160E+03
    -43.306  0.0000E+00  0.2160E+03
    -43.048  0.0000E+00  0.2160E+03
    -42.791  0.0000E+00  0.2160E+03
    -42.534  0.0000E+00  0.2160E+03
    -42.276  0.0000E+00  0.2160E+03
    -42.019  0.0000E+00  0.2160E+03
    -41.762  0.0000E+00  0.2160E+03
    -41.505  0.0000E+00  0.2160E+03
    -41.247  0.0000E+00  0.2160E+03
    -40.990  0.0000E+00  0.2160E+03
    -40.733  0.0000E+00  0.2160E+03
    -40.475  0.0000E+00  0.2160E+03
    -40.218  0.0000E+00  0.2160E+03
    -39.961  0.0000E+00  0.2160E+03
    -39.703  0.0000E+00  0.2160E+03
    -39.446  0.0000E+00  0.2160E+03
    -39.189  0.0000E+00  0.2160E+03
    -38.931  0.0000E+00  0.2160E+03
    -38.674  0.0000E+00  0.2160E+03
    -38.417  0.0000E+00  0.2160E+03
    -38.159  0.0000E+00  0.2160E+03
    -37.902  0.0000E+00  0.2160E+03
    -37.645  0.0000E+00  0.2160E+03
    -37.388  0.0000E+00  0.2160E+03
    -37.130  0.0000E+00  0.2160E+03
    -36.873  0.0000E+00  0.2160E+03
    -36.616  0.0000E+00  0.2160E+03
    -36.358  0.0000E+00  0.2160E+03
    -36.101  0.0000E+00  0.2160E+03
    -35.844  0.0000E+00  0.2160E+03
    -35.586  0.0000E+00  0.2160E+03
    -35.329  0.0000E+00  0.2160E+03
    -35.072  0.0000E+00  0.2160E+03
    -34.814  0.0000E+00  0.2160E+03
    -34.557  0.0000E+00  0.2160E+03
    -34.300  0.0000E+00  0.2160E+03
    -34.042  0.0000E+00  0.2160E+03
    -33.785  0.0000E+00  0.2160E+03
    -33.528  0.0000E+00  0.2160E+03
    -33.271  0.0000E+00  0.2160E+03
    -33.013  0.0000E+00  0.2160E+03
    -32.756  0.0000E+00  0.2160E+03
    -32.499  0.0000E+00  0.2160E+03
    -32.241  0.0000E+00  0.2160E+03
    -31.984  0.0000E+00  0.2160E+03
    -31.727  0.0000E+00  0.2160E+03
    -31.469  0.0000E+00  0.2160E+03
    -31.212  0.0000E+00  0.2160E+03
    -30.955  0.0000E+00  0.2160E+03
    -30.697  0.0000E+00  0.2160E+03
    -30.440  0.0000E+00  0.2160E+03
    -30.183  0.0000E+00  0.2160E+03
    -29.925  0.0000E+00  0.2160E+03
    -29.668  0.0000E+00  0.2160E+03
    -29.411  0.0000E+00  0.2160E+03
    -29.154  0.0000E+00  0.2160E+03
    -28.896  0.0000E+00  0.2160E+03
    -28.639  0.0000E+00  0.2160E+03
    -28.382  0.0000E+00  0.2160E+03
    -28.124  0.0000E+00  0.2160E+03
    -27.867  0.0000E+00  0.2160E+03
    -27.610  0.0000E+00  0.2160E+03
    -27.352  0.0000E+00  0.2160E+03
    -27.095  0.0000E+00  0.2160E+03
    -26.838  0.0000E+00  0.2160E+03
    -26.580  0.0000E+00  0.2160E+03
    -26.323  0.0000E+00  0.2160E+03
    -26.066  0.0000E+00  0.2160E+03
    -25.808  0.0000E+00  0.2160E+03
    -25.551  0.0000E+00  0.2160E+03
    -25.294  0.0000E+00  0.2160E+03
    -25.037  0.0000E+00  0.2160E+03
    -24.779  0.0000E+00  0.2160E+03
    -24.522  0.0000E+00  0.2160E+03
    -24.265  0.0000E+00  0.2160E+03
    -24.007  0.0000E+00  0.2160E+03
    -23.750  0.0000E+00  0.2160E+03
    -23.493  0.0000E+00  0.2160E+03
    -23.235  0.0000E+00  0.2160E+03
    -22.978  0.0000E+00  0.2160E+03
    -22.721  0.0000E+00  0.2160E+03
    -22.463  0.0000E+00  0.2160E+03
    -22.206  0.0000E+00  0.2160E+03
    -21.949  0.0000E+00  0.2160E+03
    -21.691  0.0000E+00  0.2160E+03
    -21.434  0.0000E+00  0.2160E+03
    -21.177  0.0000E+00  0.2160E+03
    -20.920  0.0000E+00  0.2160E+03
    -20.662  0.0000E+00  0.2160E+03
    -20.405  0.0000E+00  0.2160E+03
    -20.148  0.0000E+00  0.2160E+03
    -19.890  0.0000E+00  0.2160E+03
    -19.633  0.0000E+00  0.2160E+03
    -19.376  0.0000E+00  0.2160E+03
    -19.118  0.0000E+00  0.2160E+03
    -18.861  0.0000E+00  0.2160E+03
    -18.604  0.0000E+00  0.2160E+03
    -18.346  0.0000E+00  0.2160E+03
    -18.089  0.0000E+00  0.2160E+03
    -17.832  0.0000E+00  0.2160E+03
    -17.574  0.0000E+00  0.2160E+03
    -17.317  0.0000E+00  0.2160E+03
    -17.060  0.0000E+00  0.2160E+03
    -16.802  0.0000E+00  0.2160E+03
    -16.545  0.0000E+00  0.2160E+03
    -16.288  0.8949E-11  0.2160E+03
    -16.031  0.7942E-06  0.2160E+03
    -15.773  0.2860E-02  0.2160E+03
    -15.516  0.4647E+00  0.2161E+03
    -15.259  0.4800E+01  0.2174E+03
    -15.001  0.1014E+02  0.2200E+03
    -14.744  0.9177E+01  0.2223E+03
    -14.487  0.1286E+02  0.2256E+03
    -14.229  0.2303E+02  0.2316E+03
    -13.972  0.3009E+02  0.2393E+03
    -13.715  0.3125E+02  0.2473E+03
    -13.457  0.2501E+02  0.2538E+03
    -13.200  0.1989E+02  0.2589E+03
    -12.943  0.2374E+02  0.2650E+03
    -12.685  0.2931E+02  0.2726E+03
    -12.428  0.1912E+02  0.2775E+03
    -12.171  0.1073E+02  0.2802E+03
    -11.914  0.1613E+02  0.2844E+03
    -11.656  0.1130E+02  0.2873E+03
    -11.399  0.2684E+01  0.2880E+03
    -11.142  0.6880E-01  0.2880E+03
    -10.884  0.1006E-03  0.2880E+03
    -10.627  0.6434E-08  0.2880E+03
    -10.370  0.1640E-13  0.2880E+03
    -10.112  0.0000E+00  0.2880E+03
     -9.855  0.0000E+00  0.2880E+03
     -9.598  0.0000E+00  0.2880E+03
     -9.340  0.0000E+00  0.2880E+03
     -9.083  0.0000E+00  0.2880E+03
     -8.826  0.0000E+00  0.2880E+03
     -8.568  0.0000E+00  0.2880E+03
     -8.311  0.0000E+00  0.2880E+03
     -8.054  0.4401E-11  0.2880E+03
     -7.797  0.5426E-06  0.2880E+03
     -7.539  0.2911E-02  0.2880E+03
     -7.282  0.7753E+00  0.2882E+03
     -7.025  0.1328E+02  0.2916E+03
     -6.767  0.2336E+02  0.2976E+03
     -6.510  0.2626E+02  0.3044E+03
     -6.253  0.3786E+02  0.3141E+03
     -5.995  0.4271E+02  0.3251E+03
     -5.738  0.4289E+02  0.3362E+03
     -5.481  0.5413E+02  0.3501E+03
     -5.223  0.4852E+02  0.3626E+03
     -4.966  0.3628E+02  0.3719E+03
     -4.709  0.4529E+02  0.3836E+03
     -4.451  0.5951E+02  0.3989E+03
     -4.194  0.5041E+02  0.4118E+03
     -3.937  0.6469E+02  0.4285E+03
     -3.680  0.6530E+02  0.4453E+03
     -3.422  0.5557E+02  0.4596E+03
     -3.165  0.6527E+02  0.4764E+03
     -2.908  0.6668E+02  0.4935E+03
     -2.650  0.7320E+02  0.5124E+03
     -2.393  0.9522E+02  0.5369E+03
     -2.136  0.1251E+03  0.5691E+03
     -1.878  0.1572E+03  0.6095E+03
     -1.621  0.1591E+03  0.6504E+03
     -1.364  0.1571E+03  0.6909E+03
     -1.106  0.1323E+03  0.7249E+03
     -0.849  0.1088E+03  0.7529E+03
     -0.592  0.8771E+02  0.7755E+03
     -0.334  0.7151E+02  0.7939E+03
     -0.077  0.6000E+02  0.8093E+03
      0.180  0.5874E+02  0.8244E+03
      0.437  0.5568E+02  0.8387E+03
      0.695  0.5140E+02  0.8520E+03
      0.952  0.4870E+02  0.8645E+03
      1.209  0.2454E+02  0.8708E+03
      1.467  0.4869E+01  0.8721E+03
      1.724  0.5313E+01  0.8734E+03
      1.981  0.8271E+01  0.8756E+03
      2.239  0.6787E+01  0.8773E+03
      2.496  0.1461E+02  0.8811E+03
      2.753  0.1476E+02  0.8849E+03
      3.011  0.7700E+01  0.8868E+03
      3.268  0.9685E+01  0.8893E+03
      3.525  0.1406E+02  0.8929E+03
      3.783  0.1806E+02  0.8976E+03
      4.040  0.1878E+02  0.9024E+03
      4.297  0.2617E+02  0.9092E+03
      4.554  0.2825E+02  0.9164E+03
      4.812  0.2951E+02  0.9240E+03
      5.069  0.3369E+02  0.9327E+03
      5.326  0.4117E+02  0.9433E+03
      5.584  0.4286E+02  0.9543E+03
      5.841  0.2039E+02  0.9596E+03
      6.098  0.1689E+01  0.9600E+03
      6.356  0.1371E-01  0.9600E+03
      6.613  0.6672E-05  0.9600E+03
      6.870  0.1462E-09  0.9600E+03
      7.128  0.0000E+00  0.9600E+03
      7.385  0.0000E+00  0.9600E+03
      7.642  0.0000E+00  0.9600E+03
      7.900  0.0000E+00  0.9600E+03
      8.157  0.0000E+00  0.9600E+03
      8.414  0.0000E+00  0.9600E+03
      8.671  0.0000E+00  0.9600E+03
      8.929  0.0000E+00  0.9600E+03
      9.186  0.0000E+00  0.9600E+03
