  74  74   0   0
  0.3639907E+02  0.1688469E-08  0.9578410E-09  0.1665465E-08  0.5000000E-15
  1.000000000000000E-004
  CAR 
 "Millerite NiS"                         
      9.20832544    -68.61873131  301     -0.20376033      1.00000000
    -68.619  0.0000E+00  0.0000E+00
    -68.359  0.0000E+00  0.0000E+00
    -68.100  0.0000E+00  0.0000E+00
    -67.840  0.0000E+00  0.0000E+00
    -67.581  0.0000E+00  0.0000E+00
    -67.322  0.0000E+00  0.0000E+00
    -67.062  0.0000E+00  0.0000E+00
    -66.803  0.0000E+00  0.0000E+00
    -66.543  0.0000E+00  0.0000E+00
    -66.284  0.0000E+00  0.0000E+00
    -66.024  0.1932E-09  0.5011E-10
    -65.765  0.1230E-04  0.3191E-05
    -65.506  0.3335E-01  0.8654E-02
    -65.246  0.4704E+01  0.1229E+01
    -64.987  0.5555E+02  0.1564E+02
    -64.727  0.1300E+03  0.4937E+02
    -64.468  0.2000E+03  0.1013E+03
    -64.209  0.2184E+03  0.1579E+03
    -63.949  0.1253E+03  0.1904E+03
    -63.690  0.6690E+02  0.2078E+03
    -63.430  0.3871E+02  0.2178E+03
    -63.171  0.1320E+02  0.2212E+03
    -62.911  0.2814E+01  0.2220E+03
    -62.652  0.9563E-01  0.2220E+03
    -62.393  0.1730E-03  0.2220E+03
    -62.133  0.1277E-07  0.2220E+03
    -61.874  0.3595E-13  0.2220E+03
    -61.614  0.0000E+00  0.2220E+03
    -61.355  0.0000E+00  0.2220E+03
    -61.095  0.0000E+00  0.2220E+03
    -60.836  0.0000E+00  0.2220E+03
    -60.577  0.0000E+00  0.2220E+03
    -60.317  0.0000E+00  0.2220E+03
    -60.058  0.0000E+00  0.2220E+03
    -59.798  0.0000E+00  0.2220E+03
    -59.539  0.0000E+00  0.2220E+03
    -59.279  0.0000E+00  0.2220E+03
    -59.020  0.0000E+00  0.2220E+03
    -58.761  0.0000E+00  0.2220E+03
    -58.501  0.0000E+00  0.2220E+03
    -58.242  0.0000E+00  0.2220E+03
    -57.982  0.0000E+00  0.2220E+03
    -57.723  0.0000E+00  0.2220E+03
    -57.464  0.0000E+00  0.2220E+03
    -57.204  0.0000E+00  0.2220E+03
    -56.945  0.0000E+00  0.2220E+03
    -56.685  0.0000E+00  0.2220E+03
    -56.426  0.0000E+00  0.2220E+03
    -56.166  0.0000E+00  0.2220E+03
    -55.907  0.0000E+00  0.2220E+03
    -55.648  0.0000E+00  0.2220E+03
    -55.388  0.0000E+00  0.2220E+03
    -55.129  0.0000E+00  0.2220E+03
    -54.869  0.0000E+00  0.2220E+03
    -54.610  0.0000E+00  0.2220E+03
    -54.350  0.0000E+00  0.2220E+03
    -54.091  0.0000E+00  0.2220E+03
    -53.832  0.0000E+00  0.2220E+03
    -53.572  0.0000E+00  0.2220E+03
    -53.313  0.0000E+00  0.2220E+03
    -53.053  0.0000E+00  0.2220E+03
    -52.794  0.0000E+00  0.2220E+03
    -52.534  0.0000E+00  0.2220E+03
    -52.275  0.0000E+00  0.2220E+03
    -52.016  0.0000E+00  0.2220E+03
    -51.756  0.0000E+00  0.2220E+03
    -51.497  0.0000E+00  0.2220E+03
    -51.237  0.0000E+00  0.2220E+03
    -50.978  0.0000E+00  0.2220E+03
    -50.719  0.0000E+00  0.2220E+03
    -50.459  0.0000E+00  0.2220E+03
    -50.200  0.0000E+00  0.2220E+03
    -49.940  0.0000E+00  0.2220E+03
    -49.681  0.0000E+00  0.2220E+03
    -49.421  0.0000E+00  0.2220E+03
    -49.162  0.0000E+00  0.2220E+03
    -48.903  0.0000E+00  0.2220E+03
    -48.643  0.0000E+00  0.2220E+03
    -48.384  0.0000E+00  0.2220E+03
    -48.124  0.0000E+00  0.2220E+03
    -47.865  0.0000E+00  0.2220E+03
    -47.605  0.0000E+00  0.2220E+03
    -47.346  0.0000E+00  0.2220E+03
    -47.087  0.0000E+00  0.2220E+03
    -46.827  0.0000E+00  0.2220E+03
    -46.568  0.0000E+00  0.2220E+03
    -46.308  0.0000E+00  0.2220E+03
    -46.049  0.0000E+00  0.2220E+03
    -45.789  0.0000E+00  0.2220E+03
    -45.530  0.0000E+00  0.2220E+03
    -45.271  0.0000E+00  0.2220E+03
    -45.011  0.0000E+00  0.2220E+03
    -44.752  0.0000E+00  0.2220E+03
    -44.492  0.0000E+00  0.2220E+03
    -44.233  0.0000E+00  0.2220E+03
    -43.973  0.0000E+00  0.2220E+03
    -43.714  0.0000E+00  0.2220E+03
    -43.455  0.0000E+00  0.2220E+03
    -43.195  0.0000E+00  0.2220E+03
    -42.936  0.0000E+00  0.2220E+03
    -42.676  0.0000E+00  0.2220E+03
    -42.417  0.0000E+00  0.2220E+03
    -42.158  0.0000E+00  0.2220E+03
    -41.898  0.0000E+00  0.2220E+03
    -41.639  0.0000E+00  0.2220E+03
    -41.379  0.0000E+00  0.2220E+03
    -41.120  0.0000E+00  0.2220E+03
    -40.860  0.0000E+00  0.2220E+03
    -40.601  0.0000E+00  0.2220E+03
    -40.342  0.0000E+00  0.2220E+03
    -40.082  0.0000E+00  0.2220E+03
    -39.823  0.0000E+00  0.2220E+03
    -39.563  0.0000E+00  0.2220E+03
    -39.304  0.0000E+00  0.2220E+03
    -39.044  0.0000E+00  0.2220E+03
    -38.785  0.0000E+00  0.2220E+03
    -38.526  0.0000E+00  0.2220E+03
    -38.266  0.0000E+00  0.2220E+03
    -38.007  0.0000E+00  0.2220E+03
    -37.747  0.0000E+00  0.2220E+03
    -37.488  0.0000E+00  0.2220E+03
    -37.228  0.0000E+00  0.2220E+03
    -36.969  0.0000E+00  0.2220E+03
    -36.710  0.0000E+00  0.2220E+03
    -36.450  0.0000E+00  0.2220E+03
    -36.191  0.0000E+00  0.2220E+03
    -35.931  0.0000E+00  0.2220E+03
    -35.672  0.0000E+00  0.2220E+03
    -35.413  0.0000E+00  0.2220E+03
    -35.153  0.0000E+00  0.2220E+03
    -34.894  0.0000E+00  0.2220E+03
    -34.634  0.0000E+00  0.2220E+03
    -34.375  0.0000E+00  0.2220E+03
    -34.115  0.0000E+00  0.2220E+03
    -33.856  0.0000E+00  0.2220E+03
    -33.597  0.0000E+00  0.2220E+03
    -33.337  0.0000E+00  0.2220E+03
    -33.078  0.0000E+00  0.2220E+03
    -32.818  0.0000E+00  0.2220E+03
    -32.559  0.0000E+00  0.2220E+03
    -32.299  0.0000E+00  0.2220E+03
    -32.040  0.0000E+00  0.2220E+03
    -31.781  0.0000E+00  0.2220E+03
    -31.521  0.0000E+00  0.2220E+03
    -31.262  0.0000E+00  0.2220E+03
    -31.002  0.0000E+00  0.2220E+03
    -30.743  0.0000E+00  0.2220E+03
    -30.483  0.0000E+00  0.2220E+03
    -30.224  0.0000E+00  0.2220E+03
    -29.965  0.0000E+00  0.2220E+03
    -29.705  0.0000E+00  0.2220E+03
    -29.446  0.0000E+00  0.2220E+03
    -29.186  0.0000E+00  0.2220E+03
    -28.927  0.0000E+00  0.2220E+03
    -28.668  0.0000E+00  0.2220E+03
    -28.408  0.0000E+00  0.2220E+03
    -28.149  0.0000E+00  0.2220E+03
    -27.889  0.0000E+00  0.2220E+03
    -27.630  0.0000E+00  0.2220E+03
    -27.370  0.0000E+00  0.2220E+03
    -27.111  0.0000E+00  0.2220E+03
    -26.852  0.0000E+00  0.2220E+03
    -26.592  0.0000E+00  0.2220E+03
    -26.333  0.0000E+00  0.2220E+03
    -26.073  0.0000E+00  0.2220E+03
    -25.814  0.0000E+00  0.2220E+03
    -25.554  0.0000E+00  0.2220E+03
    -25.295  0.0000E+00  0.2220E+03
    -25.036  0.0000E+00  0.2220E+03
    -24.776  0.0000E+00  0.2220E+03
    -24.517  0.0000E+00  0.2220E+03
    -24.257  0.0000E+00  0.2220E+03
    -23.998  0.0000E+00  0.2220E+03
    -23.738  0.0000E+00  0.2220E+03
    -23.479  0.0000E+00  0.2220E+03
    -23.220  0.0000E+00  0.2220E+03
    -22.960  0.0000E+00  0.2220E+03
    -22.701  0.0000E+00  0.2220E+03
    -22.441  0.0000E+00  0.2220E+03
    -22.182  0.0000E+00  0.2220E+03
    -21.922  0.0000E+00  0.2220E+03
    -21.663  0.0000E+00  0.2220E+03
    -21.404  0.0000E+00  0.2220E+03
    -21.144  0.0000E+00  0.2220E+03
    -20.885  0.0000E+00  0.2220E+03
    -20.625  0.0000E+00  0.2220E+03
    -20.366  0.0000E+00  0.2220E+03
    -20.107  0.0000E+00  0.2220E+03
    -19.847  0.0000E+00  0.2220E+03
    -19.588  0.0000E+00  0.2220E+03
    -19.328  0.0000E+00  0.2220E+03
    -19.069  0.0000E+00  0.2220E+03
    -18.809  0.0000E+00  0.2220E+03
    -18.550  0.0000E+00  0.2220E+03
    -18.291  0.0000E+00  0.2220E+03
    -18.031  0.0000E+00  0.2220E+03
    -17.772  0.7532E-13  0.2220E+03
    -17.512  0.2283E-07  0.2220E+03
    -17.253  0.2609E-03  0.2220E+03
    -16.993  0.1228E+00  0.2220E+03
    -16.734  0.3103E+01  0.2228E+03
    -16.475  0.8418E+01  0.2250E+03
    -16.215  0.7644E+01  0.2270E+03
    -15.956  0.1040E+02  0.2297E+03
    -15.696  0.1508E+02  0.2336E+03
    -15.437  0.1264E+02  0.2369E+03
    -15.177  0.1845E+02  0.2417E+03
    -14.918  0.2543E+02  0.2483E+03
    -14.659  0.2598E+02  0.2550E+03
    -14.399  0.2626E+02  0.2618E+03
    -14.140  0.2614E+02  0.2686E+03
    -13.880  0.2558E+02  0.2752E+03
    -13.621  0.2246E+02  0.2811E+03
    -13.362  0.1957E+02  0.2861E+03
    -13.102  0.1322E+02  0.2896E+03
    -12.843  0.1849E+02  0.2944E+03
    -12.583  0.6088E+01  0.2960E+03
    -12.324  0.1678E+00  0.2960E+03
    -12.064  0.2468E-03  0.2960E+03
    -11.805  0.1531E-07  0.2960E+03
    -11.546  0.3595E-13  0.2960E+03
    -11.286  0.0000E+00  0.2960E+03
    -11.027  0.0000E+00  0.2960E+03
    -10.767  0.0000E+00  0.2960E+03
    -10.508  0.0000E+00  0.2960E+03
    -10.248  0.0000E+00  0.2960E+03
     -9.989  0.0000E+00  0.2960E+03
     -9.730  0.4280E-15  0.2960E+03
     -9.470  0.2809E-09  0.2960E+03
     -9.211  0.1106E-04  0.2960E+03
     -8.951  0.1728E-01  0.2960E+03
     -8.692  0.1299E+01  0.2963E+03
     -8.432  0.8400E+01  0.2985E+03
     -8.173  0.1539E+02  0.3025E+03
     -7.914  0.2523E+02  0.3091E+03
     -7.654  0.3182E+02  0.3173E+03
     -7.395  0.3183E+02  0.3256E+03
     -7.135  0.3920E+02  0.3357E+03
     -6.876  0.3798E+02  0.3456E+03
     -6.617  0.3765E+02  0.3554E+03
     -6.357  0.4369E+02  0.3667E+03
     -6.098  0.5282E+02  0.3804E+03
     -5.838  0.5169E+02  0.3938E+03
     -5.579  0.5660E+02  0.4085E+03
     -5.319  0.6370E+02  0.4250E+03
     -5.060  0.6681E+02  0.4423E+03
     -4.801  0.5289E+02  0.4561E+03
     -4.541  0.4916E+02  0.4688E+03
     -4.282  0.5093E+02  0.4820E+03
     -4.022  0.4971E+02  0.4949E+03
     -3.763  0.5538E+02  0.5093E+03
     -3.503  0.5773E+02  0.5243E+03
     -3.244  0.6659E+02  0.5415E+03
     -2.985  0.7608E+02  0.5613E+03
     -2.725  0.9139E+02  0.5850E+03
     -2.466  0.1093E+03  0.6134E+03
     -2.206  0.1321E+03  0.6476E+03
     -1.947  0.1190E+03  0.6785E+03
     -1.687  0.1076E+03  0.7064E+03
     -1.428  0.9942E+02  0.7322E+03
     -1.169  0.8817E+02  0.7551E+03
     -0.909  0.7527E+02  0.7746E+03
     -0.650  0.5540E+02  0.7890E+03
     -0.390  0.5410E+02  0.8030E+03
     -0.131  0.6013E+02  0.8186E+03
      0.129  0.5789E+02  0.8336E+03
      0.388  0.3953E+02  0.8439E+03
      0.647  0.3670E+02  0.8534E+03
      0.907  0.3771E+02  0.8632E+03
      1.166  0.4168E+02  0.8740E+03
      1.426  0.3190E+02  0.8823E+03
      1.685  0.1800E+02  0.8870E+03
      1.944  0.8363E+01  0.8891E+03
      2.204  0.3225E+01  0.8900E+03
      2.463  0.1305E+01  0.8903E+03
      2.723  0.6483E+01  0.8920E+03
      2.982  0.1326E+02  0.8954E+03
      3.242  0.1328E+02  0.8989E+03
      3.501  0.9094E+01  0.9012E+03
      3.760  0.1562E+02  0.9053E+03
      4.020  0.2172E+02  0.9109E+03
      4.279  0.2606E+02  0.9177E+03
      4.539  0.3029E+02  0.9255E+03
      4.798  0.3413E+02  0.9344E+03
      5.058  0.4242E+02  0.9454E+03
      5.317  0.4642E+02  0.9574E+03
      5.576  0.4649E+02  0.9695E+03
      5.836  0.2311E+02  0.9755E+03
      6.095  0.1957E+01  0.9760E+03
      6.355  0.1434E-01  0.9760E+03
      6.614  0.5860E-05  0.9760E+03
      6.874  0.1042E-09  0.9760E+03
      7.133  0.0000E+00  0.9760E+03
      7.392  0.0000E+00  0.9760E+03
      7.652  0.0000E+00  0.9760E+03
      7.911  0.0000E+00  0.9760E+03
      8.171  0.0000E+00  0.9760E+03
      8.430  0.0000E+00  0.9760E+03
      8.689  0.0000E+00  0.9760E+03
      8.949  0.0000E+00  0.9760E+03
      9.208  0.0000E+00  0.9760E+03
