  52  52   0   0
  0.3564765E+02  0.1125646E-08  0.9578410E-09  0.1719249E-08  0.5000000E-15
  1.000000000000000E-004
  CAR 
 "Millerite NiS"                         
      9.30078417    -68.38671047  301     -0.14908592      1.00000000
    -68.387  0.0000E+00  0.0000E+00
    -68.128  0.0000E+00  0.0000E+00
    -67.869  0.0000E+00  0.0000E+00
    -67.610  0.0000E+00  0.0000E+00
    -67.351  0.0000E+00  0.0000E+00
    -67.092  0.0000E+00  0.0000E+00
    -66.833  0.0000E+00  0.0000E+00
    -66.574  0.0000E+00  0.0000E+00
    -66.315  0.0000E+00  0.0000E+00
    -66.056  0.0000E+00  0.0000E+00
    -65.797  0.1161E-09  0.3007E-10
    -65.538  0.6674E-05  0.1728E-05
    -65.279  0.1875E-01  0.4858E-02
    -65.020  0.3459E+01  0.9005E+00
    -64.761  0.6074E+02  0.1663E+02
    -64.502  0.1736E+03  0.6159E+02
    -64.243  0.1833E+03  0.1091E+03
    -63.984  0.9680E+02  0.1341E+03
    -63.725  0.4779E+02  0.1465E+03
    -63.467  0.2394E+02  0.1527E+03
    -63.208  0.1031E+02  0.1554E+03
    -62.949  0.2325E+01  0.1560E+03
    -62.690  0.6183E-01  0.1560E+03
    -62.431  0.8541E-04  0.1560E+03
    -62.172  0.4829E-08  0.1560E+03
    -61.913  0.1029E-13  0.1560E+03
    -61.654  0.0000E+00  0.1560E+03
    -61.395  0.0000E+00  0.1560E+03
    -61.136  0.0000E+00  0.1560E+03
    -60.877  0.0000E+00  0.1560E+03
    -60.618  0.0000E+00  0.1560E+03
    -60.359  0.0000E+00  0.1560E+03
    -60.100  0.0000E+00  0.1560E+03
    -59.841  0.0000E+00  0.1560E+03
    -59.582  0.0000E+00  0.1560E+03
    -59.323  0.0000E+00  0.1560E+03
    -59.064  0.0000E+00  0.1560E+03
    -58.805  0.0000E+00  0.1560E+03
    -58.546  0.0000E+00  0.1560E+03
    -58.287  0.0000E+00  0.1560E+03
    -58.028  0.0000E+00  0.1560E+03
    -57.769  0.0000E+00  0.1560E+03
    -57.510  0.0000E+00  0.1560E+03
    -57.252  0.0000E+00  0.1560E+03
    -56.993  0.0000E+00  0.1560E+03
    -56.734  0.0000E+00  0.1560E+03
    -56.475  0.0000E+00  0.1560E+03
    -56.216  0.0000E+00  0.1560E+03
    -55.957  0.0000E+00  0.1560E+03
    -55.698  0.0000E+00  0.1560E+03
    -55.439  0.0000E+00  0.1560E+03
    -55.180  0.0000E+00  0.1560E+03
    -54.921  0.0000E+00  0.1560E+03
    -54.662  0.0000E+00  0.1560E+03
    -54.403  0.0000E+00  0.1560E+03
    -54.144  0.0000E+00  0.1560E+03
    -53.885  0.0000E+00  0.1560E+03
    -53.626  0.0000E+00  0.1560E+03
    -53.367  0.0000E+00  0.1560E+03
    -53.108  0.0000E+00  0.1560E+03
    -52.849  0.0000E+00  0.1560E+03
    -52.590  0.0000E+00  0.1560E+03
    -52.331  0.0000E+00  0.1560E+03
    -52.072  0.0000E+00  0.1560E+03
    -51.813  0.0000E+00  0.1560E+03
    -51.554  0.0000E+00  0.1560E+03
    -51.295  0.0000E+00  0.1560E+03
    -51.037  0.0000E+00  0.1560E+03
    -50.778  0.0000E+00  0.1560E+03
    -50.519  0.0000E+00  0.1560E+03
    -50.260  0.0000E+00  0.1560E+03
    -50.001  0.0000E+00  0.1560E+03
    -49.742  0.0000E+00  0.1560E+03
    -49.483  0.0000E+00  0.1560E+03
    -49.224  0.0000E+00  0.1560E+03
    -48.965  0.0000E+00  0.1560E+03
    -48.706  0.0000E+00  0.1560E+03
    -48.447  0.0000E+00  0.1560E+03
    -48.188  0.0000E+00  0.1560E+03
    -47.929  0.0000E+00  0.1560E+03
    -47.670  0.0000E+00  0.1560E+03
    -47.411  0.0000E+00  0.1560E+03
    -47.152  0.0000E+00  0.1560E+03
    -46.893  0.0000E+00  0.1560E+03
    -46.634  0.0000E+00  0.1560E+03
    -46.375  0.0000E+00  0.1560E+03
    -46.116  0.0000E+00  0.1560E+03
    -45.857  0.0000E+00  0.1560E+03
    -45.598  0.0000E+00  0.1560E+03
    -45.339  0.0000E+00  0.1560E+03
    -45.080  0.0000E+00  0.1560E+03
    -44.822  0.0000E+00  0.1560E+03
    -44.563  0.0000E+00  0.1560E+03
    -44.304  0.0000E+00  0.1560E+03
    -44.045  0.0000E+00  0.1560E+03
    -43.786  0.0000E+00  0.1560E+03
    -43.527  0.0000E+00  0.1560E+03
    -43.268  0.0000E+00  0.1560E+03
    -43.009  0.0000E+00  0.1560E+03
    -42.750  0.0000E+00  0.1560E+03
    -42.491  0.0000E+00  0.1560E+03
    -42.232  0.0000E+00  0.1560E+03
    -41.973  0.0000E+00  0.1560E+03
    -41.714  0.0000E+00  0.1560E+03
    -41.455  0.0000E+00  0.1560E+03
    -41.196  0.0000E+00  0.1560E+03
    -40.937  0.0000E+00  0.1560E+03
    -40.678  0.0000E+00  0.1560E+03
    -40.419  0.0000E+00  0.1560E+03
    -40.160  0.0000E+00  0.1560E+03
    -39.901  0.0000E+00  0.1560E+03
    -39.642  0.0000E+00  0.1560E+03
    -39.383  0.0000E+00  0.1560E+03
    -39.124  0.0000E+00  0.1560E+03
    -38.865  0.0000E+00  0.1560E+03
    -38.607  0.0000E+00  0.1560E+03
    -38.348  0.0000E+00  0.1560E+03
    -38.089  0.0000E+00  0.1560E+03
    -37.830  0.0000E+00  0.1560E+03
    -37.571  0.0000E+00  0.1560E+03
    -37.312  0.0000E+00  0.1560E+03
    -37.053  0.0000E+00  0.1560E+03
    -36.794  0.0000E+00  0.1560E+03
    -36.535  0.0000E+00  0.1560E+03
    -36.276  0.0000E+00  0.1560E+03
    -36.017  0.0000E+00  0.1560E+03
    -35.758  0.0000E+00  0.1560E+03
    -35.499  0.0000E+00  0.1560E+03
    -35.240  0.0000E+00  0.1560E+03
    -34.981  0.0000E+00  0.1560E+03
    -34.722  0.0000E+00  0.1560E+03
    -34.463  0.0000E+00  0.1560E+03
    -34.204  0.0000E+00  0.1560E+03
    -33.945  0.0000E+00  0.1560E+03
    -33.686  0.0000E+00  0.1560E+03
    -33.427  0.0000E+00  0.1560E+03
    -33.168  0.0000E+00  0.1560E+03
    -32.909  0.0000E+00  0.1560E+03
    -32.650  0.0000E+00  0.1560E+03
    -32.392  0.0000E+00  0.1560E+03
    -32.133  0.0000E+00  0.1560E+03
    -31.874  0.0000E+00  0.1560E+03
    -31.615  0.0000E+00  0.1560E+03
    -31.356  0.0000E+00  0.1560E+03
    -31.097  0.0000E+00  0.1560E+03
    -30.838  0.0000E+00  0.1560E+03
    -30.579  0.0000E+00  0.1560E+03
    -30.320  0.0000E+00  0.1560E+03
    -30.061  0.0000E+00  0.1560E+03
    -29.802  0.0000E+00  0.1560E+03
    -29.543  0.0000E+00  0.1560E+03
    -29.284  0.0000E+00  0.1560E+03
    -29.025  0.0000E+00  0.1560E+03
    -28.766  0.0000E+00  0.1560E+03
    -28.507  0.0000E+00  0.1560E+03
    -28.248  0.0000E+00  0.1560E+03
    -27.989  0.0000E+00  0.1560E+03
    -27.730  0.0000E+00  0.1560E+03
    -27.471  0.0000E+00  0.1560E+03
    -27.212  0.0000E+00  0.1560E+03
    -26.953  0.0000E+00  0.1560E+03
    -26.694  0.0000E+00  0.1560E+03
    -26.435  0.0000E+00  0.1560E+03
    -26.177  0.0000E+00  0.1560E+03
    -25.918  0.0000E+00  0.1560E+03
    -25.659  0.0000E+00  0.1560E+03
    -25.400  0.0000E+00  0.1560E+03
    -25.141  0.0000E+00  0.1560E+03
    -24.882  0.0000E+00  0.1560E+03
    -24.623  0.0000E+00  0.1560E+03
    -24.364  0.0000E+00  0.1560E+03
    -24.105  0.0000E+00  0.1560E+03
    -23.846  0.0000E+00  0.1560E+03
    -23.587  0.0000E+00  0.1560E+03
    -23.328  0.0000E+00  0.1560E+03
    -23.069  0.0000E+00  0.1560E+03
    -22.810  0.0000E+00  0.1560E+03
    -22.551  0.0000E+00  0.1560E+03
    -22.292  0.0000E+00  0.1560E+03
    -22.033  0.0000E+00  0.1560E+03
    -21.774  0.0000E+00  0.1560E+03
    -21.515  0.0000E+00  0.1560E+03
    -21.256  0.0000E+00  0.1560E+03
    -20.997  0.0000E+00  0.1560E+03
    -20.738  0.0000E+00  0.1560E+03
    -20.479  0.0000E+00  0.1560E+03
    -20.220  0.0000E+00  0.1560E+03
    -19.962  0.0000E+00  0.1560E+03
    -19.703  0.0000E+00  0.1560E+03
    -19.444  0.0000E+00  0.1560E+03
    -19.185  0.0000E+00  0.1560E+03
    -18.926  0.0000E+00  0.1560E+03
    -18.667  0.0000E+00  0.1560E+03
    -18.408  0.0000E+00  0.1560E+03
    -18.149  0.0000E+00  0.1560E+03
    -17.890  0.4287E-15  0.1560E+03
    -17.631  0.3612E-09  0.1560E+03
    -17.372  0.1307E-04  0.1560E+03
    -17.113  0.1883E-01  0.1560E+03
    -16.854  0.1240E+01  0.1563E+03
    -16.595  0.5374E+01  0.1577E+03
    -16.336  0.6507E+01  0.1594E+03
    -16.077  0.8870E+01  0.1617E+03
    -15.818  0.7768E+01  0.1637E+03
    -15.559  0.6981E+01  0.1655E+03
    -15.300  0.9875E+01  0.1681E+03
    -15.041  0.1861E+02  0.1729E+03
    -14.782  0.2225E+02  0.1787E+03
    -14.523  0.1893E+02  0.1836E+03
    -14.264  0.1807E+02  0.1882E+03
    -14.005  0.1193E+02  0.1913E+03
    -13.747  0.1384E+02  0.1949E+03
    -13.488  0.1904E+02  0.1998E+03
    -13.229  0.1354E+02  0.2033E+03
    -12.970  0.5950E+01  0.2049E+03
    -12.711  0.9159E+01  0.2073E+03
    -12.452  0.2797E+01  0.2080E+03
    -12.193  0.7480E-01  0.2080E+03
    -11.934  0.1095E-03  0.2080E+03
    -11.675  0.6752E-08  0.2080E+03
    -11.416  0.1543E-13  0.2080E+03
    -11.157  0.0000E+00  0.2080E+03
    -10.898  0.0000E+00  0.2080E+03
    -10.639  0.0000E+00  0.2080E+03
    -10.380  0.0000E+00  0.2080E+03
    -10.121  0.0000E+00  0.2080E+03
     -9.862  0.0000E+00  0.2080E+03
     -9.603  0.0000E+00  0.2080E+03
     -9.344  0.2221E-09  0.2080E+03
     -9.085  0.9207E-05  0.2080E+03
     -8.826  0.1548E-01  0.2080E+03
     -8.567  0.1296E+01  0.2083E+03
     -8.308  0.9028E+01  0.2107E+03
     -8.049  0.1483E+02  0.2145E+03
     -7.790  0.2049E+02  0.2198E+03
     -7.532  0.2209E+02  0.2255E+03
     -7.273  0.2200E+02  0.2312E+03
     -7.014  0.2424E+02  0.2375E+03
     -6.755  0.2880E+02  0.2450E+03
     -6.496  0.3412E+02  0.2538E+03
     -6.237  0.3160E+02  0.2620E+03
     -5.978  0.2621E+02  0.2688E+03
     -5.719  0.3777E+02  0.2786E+03
     -5.460  0.4808E+02  0.2910E+03
     -5.201  0.4553E+02  0.3028E+03
     -4.942  0.4467E+02  0.3144E+03
     -4.683  0.4545E+02  0.3261E+03
     -4.424  0.3874E+02  0.3362E+03
     -4.165  0.3251E+02  0.3446E+03
     -3.906  0.3068E+02  0.3525E+03
     -3.647  0.3228E+02  0.3609E+03
     -3.388  0.3999E+02  0.3712E+03
     -3.129  0.5230E+02  0.3848E+03
     -2.870  0.6027E+02  0.4004E+03
     -2.611  0.6499E+02  0.4172E+03
     -2.352  0.8177E+02  0.4384E+03
     -2.093  0.9318E+02  0.4625E+03
     -1.834  0.8695E+02  0.4850E+03
     -1.575  0.7680E+02  0.5049E+03
     -1.317  0.6559E+02  0.5219E+03
     -1.058  0.5423E+02  0.5360E+03
     -0.799  0.4430E+02  0.5474E+03
     -0.540  0.3803E+02  0.5573E+03
     -0.281  0.3593E+02  0.5666E+03
     -0.022  0.4018E+02  0.5770E+03
      0.237  0.3637E+02  0.5864E+03
      0.496  0.3159E+02  0.5946E+03
      0.755  0.2479E+02  0.6010E+03
      1.014  0.2814E+02  0.6083E+03
      1.273  0.2442E+02  0.6146E+03
      1.532  0.1863E+02  0.6194E+03
      1.791  0.1318E+02  0.6229E+03
      2.050  0.6947E+01  0.6247E+03
      2.309  0.4625E+01  0.6259E+03
      2.568  0.5831E+00  0.6260E+03
      2.827  0.1626E+01  0.6264E+03
      3.086  0.8535E+01  0.6286E+03
      3.345  0.8269E+01  0.6308E+03
      3.604  0.9004E+01  0.6331E+03
      3.863  0.1266E+02  0.6364E+03
      4.122  0.1571E+02  0.6405E+03
      4.381  0.2089E+02  0.6459E+03
      4.640  0.2384E+02  0.6520E+03
      4.898  0.2739E+02  0.6591E+03
      5.157  0.3054E+02  0.6670E+03
      5.416  0.3377E+02  0.6758E+03
      5.675  0.3142E+02  0.6839E+03
      5.934  0.1440E+02  0.6877E+03
      6.193  0.1325E+01  0.6880E+03
      6.452  0.1160E-01  0.6880E+03
      6.711  0.5473E-05  0.6880E+03
      6.970  0.1075E-09  0.6880E+03
      7.229  0.0000E+00  0.6880E+03
      7.488  0.0000E+00  0.6880E+03
      7.747  0.0000E+00  0.6880E+03
      8.006  0.0000E+00  0.6880E+03
      8.265  0.0000E+00  0.6880E+03
      8.524  0.0000E+00  0.6880E+03
      8.783  0.0000E+00  0.6880E+03
      9.042  0.0000E+00  0.6880E+03
      9.301  0.0000E+00  0.6880E+03
