LAMMPS (5 Jun 2019)
OMP_NUM_THREADS environment is not set. Defaulting to 1 thread. (../comm.cpp:88)
  using 1 OpenMP thread(s) per MPI task
Reading data file ...
  triclinic box = (0 0 0) to (11.2565 9.57841 17.1925) with tilt (0 0 0)
  1 by 1 by 1 MPI processor grid
  reading atoms ...
  52 atoms
  read_data CPU = 0.00073579 secs
19 atoms in group bulk
WARNING: Using 'neigh_modify every 1 delay 0 check yes' setting during minimization (../min.cpp:168)
Neighbor list info ...
  update every 1 steps, delay 0 steps, check yes
  max neighbors/atom: 2000, page size: 100000
  master list distance cutoff = 8.5
  ghost atom cutoff = 8.5
  binsize = 4.25, bins = 3 3 5
  1 neighbor lists, perpetual/occasional/extra = 1 0 0
  (1) pair eam/alloy, perpetual
      attributes: half, newton on
      pair build: half/bin/newton/tri
      stencil: half/bin/3d/newton/tri
      bin: standard
Setting up cg style minimization ...
  Unit style    : metal
  Current step  : 0
Per MPI rank memory allocation (min/avg/max) = 4.101 | 4.101 | 4.101 Mbytes
Step Temp E_pair E_mol TotEng Press 
       0            0   -212.00866            0   -212.00866   -105052.62 
      63            0    -236.7081            0    -236.7081   -7127.3573 
Loop time of 0.023737 on 1 procs for 63 steps with 52 atoms

99.8% CPU use with 1 MPI tasks x 1 OpenMP threads

Minimization stats:
  Stopping criterion = energy tolerance
  Energy initial, next-to-last, final = 
         -212.00865918     -236.705869479     -236.708099341
  Force two-norm initial, final = 12.8207 0.231553
  Force max component initial, final = 3.00659 0.100739
  Final line search alpha, max atom move = 0.63924 0.0643964
  Iterations, force evaluations = 63 91

MPI task timing breakdown:
Section |  min time  |  avg time  |  max time  |%varavg| %total
---------------------------------------------------------------
Pair    | 0.021254   | 0.021254   | 0.021254   |   0.0 | 89.54
Neigh   | 0.0012328  | 0.0012328  | 0.0012328  |   0.0 |  5.19
Comm    | 0.00065444 | 0.00065444 | 0.00065444 |   0.0 |  2.76
Output  | 0          | 0          | 0          |   0.0 |  0.00
Modify  | 3.9e-05    | 3.9e-05    | 3.9e-05    |   0.0 |  0.16
Other   |            | 0.0005567  |            |       |  2.35

Nlocal:    52 ave 52 max 52 min
Histogram: 1 0 0 0 0 0 0 0 0 0
Nghost:    700 ave 700 max 700 min
Histogram: 1 0 0 0 0 0 0 0 0 0
Neighs:    2586 ave 2586 max 2586 min
Histogram: 1 0 0 0 0 0 0 0 0 0

Total # of neighbors = 2586
Ave neighs/atom = 49.7308
Neighbor list builds = 4
Dangerous builds = 0
System init for write_data ...
Total wall time: 0:00:00
