LAMMPS data file via write_data, version 5 Jun 2019, timestep = 63

52 atoms
2 atom types

0.0000000000000000e+00 1.1256463038200000e+01 xlo xhi
0.0000000000000000e+00 9.5784099999999999e+00 ylo yhi
0.0000000000000000e+00 1.7192492404700001e+01 zlo zhi
0.0000000000000000e+00 0.0000000000000000e+00 0.0000000000000000e+00 xy xz yz

Masses

1 58.71
2 32.06

Atoms # atomic

1 1 4.9453580762999998e+00 4.4433094293000002e+00 2.7995183711000000e+00 0 0 0
2 1 5.5946644706080182e+00 4.2032088114938544e+00 5.7113535472804688e+00 0 0 0
3 1 2.3651983649090180e+00 1.2353890914020631e+00 1.7298477647249233e+00 0 1 0
4 1 2.2782114016016419e+00 9.3391573982151872e+00 4.0381367680662121e+00 0 0 0
5 1 4.9453580762999998e+00 1.9126360368999999e+00 2.7995183711000000e+00 0 0 0
6 1 5.2893213861451223e+00 1.6368181172359888e+00 5.3659207561292437e+00 0 0 0
7 1 2.6824816922150867e+00 8.0102539022322699e+00 1.7778356597877265e+00 0 0 0
8 1 2.3298772951178170e+00 6.5496666143770694e+00 4.0048027753707345e+00 0 0 0
9 1 1.4192882066966996e+00 3.2032573455066586e+00 2.7656408960881178e+00 0 0 0
10 1 2.0542103667000000e+00 3.1779727330999998e+00 5.4765844701999997e+00 0 0 0
11 1 5.2998337930627093e+00 7.4269469051002384e+00 1.5758939408919805e+00 0 0 0
12 1 4.3014486658569933e+00 7.9581335908016930e+00 3.8264608211247499e+00 0 0 0
13 1 6.2226221811746010e+00 8.2355790645425984e+00 5.1984576506733582e+00 0 0 0
14 1 1.0328928638417990e+01 4.5114000649559891e+00 3.1125710599155547e+00 0 0 0
15 1 1.0973561216224134e+01 4.6905204719641835e+00 5.4874075306053856e+00 0 0 0
16 1 7.4723462993099350e+00 9.1677945958152272e+00 1.5967620936167299e+00 0 0 0
17 1 8.0185276368968630e+00 9.3438419887220530e+00 4.0776491752867576e+00 0 0 0
18 1 1.0573589595400000e+01 1.9126360368999999e+00 2.7995183711000000e+00 0 0 0
19 1 1.1225404065450361e+01 2.1513056655830129e+00 5.7375149292700529e+00 0 0 0
20 1 7.2934405512335836e+00 6.0351235272633410e+00 2.1448039726261654e+00 0 0 0
21 1 8.0513086039000008e+00 6.7018410369000003e+00 4.3417901406999988e+00 0 0 0
22 1 7.0987725071999987e+00 3.1779727330999998e+00 2.3920409138999998e+00 0 0 0
23 1 7.6824418858000003e+00 3.1779727330999998e+00 5.4765844701999997e+00 0 0 0
24 1 2.9513406692666111e-01 9.5193746675818733e+00 1.8676688935969274e+00 1 0 0
25 1 1.0150192338707532e+01 7.9555448079204885e+00 3.6459271568684257e+00 0 0 0
26 1 7.3788208871002858e-01 7.7597153242743389e+00 5.2636064966171858e+00 1 0 0
27 2 5.4204810777281387e-01 2.0393359678083622e+00 1.1767976378598966e+00 0 0 0
28 2 1.2549722353999999e+00 1.5667404949999999e+00 4.1079488450000001e+00 0 0 0
29 2 1.6942381802012489e+00 1.5447394247125488e+00 6.6651574307040358e+00 0 0 0
30 2 3.7772532155999996e+00 6.3559454950000003e+00 2.5656770582999990e+00 0 0 0
31 2 1.2549722353999999e+00 4.7892049713000002e+00 4.1079488450000001e+00 0 0 0
32 2 6.8207791731775458e-01 3.6925962788169846e+00 6.9549215501720179e+00 0 0 0
33 2 3.7772532155999996e+00 9.5784099712999993e+00 2.5656770582999990e+00 0 -1 0
34 2 3.4192716046638800e+00 3.0926115870697304e+00 1.9625781670175908e+00 0 0 0
35 2 4.1411267131000002e+00 3.1779727330999998e+00 4.6268153430999996e+00 0 0 0
36 2 1.7590080073757102e+00 9.2667348085169845e+00 4.4352451588895220e-01 0 0 0
37 2 1.0351763544000001e+00 7.9671777330999998e+00 3.0845435562999990e+00 0 0 0
38 2 2.8345850385545841e+00 7.9239530345996201e+00 5.4719883625183963e+00 0 0 0
39 2 6.4699833876575763e+00 1.4208760657993371e+00 1.4432399580924373e+00 0 0 0
40 2 6.8832037545000002e+00 1.5667404949999999e+00 4.1079488450000001e+00 0 0 0
41 2 6.2469036612032909e+00 2.6009449864063892e+00 6.8504811258032250e+00 0 0 0
42 2 9.4054847346999999e+00 6.3559454950000003e+00 2.5656770582999990e+00 0 0 0
43 2 1.0238104140686389e+01 6.6271563067619645e+00 5.2642936442699577e+00 0 0 0
44 2 6.1877870993561048e+00 4.5853800237169260e+00 1.1888682172292839e+00 0 0 0
45 2 6.8832037545000002e+00 4.7892049713000002e+00 4.1079488450000001e+00 0 0 0
46 2 7.3283117816203562e+00 4.8338776056626349e+00 6.6252889064437097e+00 0 0 0
47 2 9.4054847346999999e+00 9.5784099712999993e+00 2.5656770582999990e+00 0 -1 0
48 2 9.1530266400300135e+00 3.2445392652603142e+00 1.9683835959410361e+00 0 0 0
49 2 9.7693582322000001e+00 3.1779727330999998e+00 4.6268153430999996e+00 0 0 0
50 2 7.0757951465477369e+00 7.4215353100733044e+00 5.5778226777110074e-01 0 0 0
51 2 6.6634078734999997e+00 7.9671777330999998e+00 3.0845435562999990e+00 0 0 0
52 2 8.1157240577131109e+00 8.2076551509691988e+00 5.7939737849211292e+00 0 0 0

Velocities

1 0.0000000000000000e+00 0.0000000000000000e+00 0.0000000000000000e+00
2 0.0000000000000000e+00 0.0000000000000000e+00 0.0000000000000000e+00
3 0.0000000000000000e+00 0.0000000000000000e+00 0.0000000000000000e+00
4 0.0000000000000000e+00 0.0000000000000000e+00 0.0000000000000000e+00
5 0.0000000000000000e+00 0.0000000000000000e+00 0.0000000000000000e+00
6 0.0000000000000000e+00 0.0000000000000000e+00 0.0000000000000000e+00
7 0.0000000000000000e+00 0.0000000000000000e+00 0.0000000000000000e+00
8 0.0000000000000000e+00 0.0000000000000000e+00 0.0000000000000000e+00
9 0.0000000000000000e+00 0.0000000000000000e+00 0.0000000000000000e+00
10 0.0000000000000000e+00 0.0000000000000000e+00 0.0000000000000000e+00
11 0.0000000000000000e+00 0.0000000000000000e+00 0.0000000000000000e+00
12 0.0000000000000000e+00 0.0000000000000000e+00 0.0000000000000000e+00
13 0.0000000000000000e+00 0.0000000000000000e+00 0.0000000000000000e+00
14 0.0000000000000000e+00 0.0000000000000000e+00 0.0000000000000000e+00
15 0.0000000000000000e+00 0.0000000000000000e+00 0.0000000000000000e+00
16 0.0000000000000000e+00 0.0000000000000000e+00 0.0000000000000000e+00
17 0.0000000000000000e+00 0.0000000000000000e+00 0.0000000000000000e+00
18 0.0000000000000000e+00 0.0000000000000000e+00 0.0000000000000000e+00
19 0.0000000000000000e+00 0.0000000000000000e+00 0.0000000000000000e+00
20 0.0000000000000000e+00 0.0000000000000000e+00 0.0000000000000000e+00
21 0.0000000000000000e+00 0.0000000000000000e+00 0.0000000000000000e+00
22 0.0000000000000000e+00 0.0000000000000000e+00 0.0000000000000000e+00
23 0.0000000000000000e+00 0.0000000000000000e+00 0.0000000000000000e+00
24 0.0000000000000000e+00 0.0000000000000000e+00 0.0000000000000000e+00
25 0.0000000000000000e+00 0.0000000000000000e+00 0.0000000000000000e+00
26 0.0000000000000000e+00 0.0000000000000000e+00 0.0000000000000000e+00
27 0.0000000000000000e+00 0.0000000000000000e+00 0.0000000000000000e+00
28 0.0000000000000000e+00 0.0000000000000000e+00 0.0000000000000000e+00
29 0.0000000000000000e+00 0.0000000000000000e+00 0.0000000000000000e+00
30 0.0000000000000000e+00 0.0000000000000000e+00 0.0000000000000000e+00
31 0.0000000000000000e+00 0.0000000000000000e+00 0.0000000000000000e+00
32 0.0000000000000000e+00 0.0000000000000000e+00 0.0000000000000000e+00
33 0.0000000000000000e+00 0.0000000000000000e+00 0.0000000000000000e+00
34 0.0000000000000000e+00 0.0000000000000000e+00 0.0000000000000000e+00
35 0.0000000000000000e+00 0.0000000000000000e+00 0.0000000000000000e+00
36 0.0000000000000000e+00 0.0000000000000000e+00 0.0000000000000000e+00
37 0.0000000000000000e+00 0.0000000000000000e+00 0.0000000000000000e+00
38 0.0000000000000000e+00 0.0000000000000000e+00 0.0000000000000000e+00
39 0.0000000000000000e+00 0.0000000000000000e+00 0.0000000000000000e+00
40 0.0000000000000000e+00 0.0000000000000000e+00 0.0000000000000000e+00
41 0.0000000000000000e+00 0.0000000000000000e+00 0.0000000000000000e+00
42 0.0000000000000000e+00 0.0000000000000000e+00 0.0000000000000000e+00
43 0.0000000000000000e+00 0.0000000000000000e+00 0.0000000000000000e+00
44 0.0000000000000000e+00 0.0000000000000000e+00 0.0000000000000000e+00
45 0.0000000000000000e+00 0.0000000000000000e+00 0.0000000000000000e+00
46 0.0000000000000000e+00 0.0000000000000000e+00 0.0000000000000000e+00
47 0.0000000000000000e+00 0.0000000000000000e+00 0.0000000000000000e+00
48 0.0000000000000000e+00 0.0000000000000000e+00 0.0000000000000000e+00
49 0.0000000000000000e+00 0.0000000000000000e+00 0.0000000000000000e+00
50 0.0000000000000000e+00 0.0000000000000000e+00 0.0000000000000000e+00
51 0.0000000000000000e+00 0.0000000000000000e+00 0.0000000000000000e+00
52 0.0000000000000000e+00 0.0000000000000000e+00 0.0000000000000000e+00
