"Millerite NiS"                         
           1
    11.256463    0.000000    0.000000
     0.000000    9.578410    0.000000
     0.000000    0.000000   17.192492
   Ty   Ty
  26  26
Direct configuration=     1
   0.43933499  0.46388800  0.16283377
   0.49701798  0.43882114  0.33220044
   0.21011914  0.12897643  0.10061646
   0.20239141  0.97502168  0.23487791
   0.43933499  0.19968200  0.16283377
   0.46989195  0.17088620  0.31210837
   0.23830591  0.83628221  0.10340767
   0.20698129  0.68379476  0.23293905
   0.12608652  0.33442475  0.16086329
   0.18249164  0.33178500  0.31854512
   0.47082585  0.77538411  0.09166175
   0.38213146  0.83084078  0.22256580
   0.55280439  0.85980649  0.30236789
   0.91759984  0.47099676  0.18104246
   0.97486761  0.48969719  0.31917464
   0.66382720  0.95713115  0.09287554
   0.71234877  0.97551076  0.23717615
   0.93933499  0.19968200  0.16283377
   0.99724079  0.22459945  0.33372212
   0.64793359  0.63007571  0.12475236
   0.71526096  0.69968200  0.25253989
   0.63063970  0.33178500  0.13913288
   0.68249164  0.33178500  0.31854512
   0.02621908  0.99383663  0.10863282
   0.90172129  0.83057050  0.21206507
   0.06555186  0.81012562  0.30615727
   0.04815439  0.21290965  0.06844834
   0.11148904  0.16357000  0.23893853
   0.15051248  0.16127305  0.38767837
   0.33556306  0.66357000  0.14923241
   0.11148904  0.50000000  0.23893853
   0.06059434  0.38551245  0.40453248
   0.33556306  1.00000000  0.14923241
   0.30376075  0.32287317  0.11415321
   0.36788880  0.33178500  0.26911836
   0.15626649  0.96746065  0.02579757
   0.09196284  0.83178500  0.17941224
   0.25181845  0.82727228  0.31827778
   0.57477943  0.14834154  0.08394594
   0.61148904  0.16357000  0.23893853
   0.55496150  0.27154246  0.39845771
   0.83556306  0.66357000  0.14923241
   0.90953118  0.69188480  0.30619724
   0.54970972  0.47872037  0.06915043
   0.61148904  0.50000000  0.23893853
   0.65103148  0.50466389  0.38535942
   0.83556306  1.00000000  0.14923241
   0.81313523  0.33873464  0.11449088
   0.86788880  0.33178500  0.26911836
   0.62859844  0.77481913  0.03244336
   0.59196284  0.83178500  0.17941224
   0.72098349  0.85689119  0.33700604
