"Millerite NiS"                         
           1
    16.884694    0.000000    0.000000
     0.000000    9.578410    0.000000
     0.000000    0.000000   16.145331
   Ni   S 
    36    36
Direct configuration=     1
   0.78004631  0.14529695  0.12736576
   0.81461426  0.14529695  0.31841440
   0.26276233  0.64529695  0.03184144
   0.29733028  0.64529695  0.22289008
   0.43519032  0.14529695  0.06368288
   0.46975828  0.14529695  0.25473152
   0.95247430  0.64529695  0.15920720
   0.98704226  0.64529695  0.35025584
   0.09033433  0.14529695  0.00000000
   0.12490229  0.14529695  0.19104864
   0.60761831  0.64529695  0.09552432
   0.64218627  0.64529695  0.28657296
   0.90758278  0.01319395  0.10212766
   0.94215073  0.01319395  0.29317630
   0.39029880  0.51319395  0.00660334
   0.42486675  0.51319395  0.19765198
   0.56272679  0.01319395  0.03844478
   0.59729475  0.01319395  0.22949342
   0.08001077  0.51319395  0.13396910
   0.11457873  0.51319395  0.32501774
   0.25243876  0.01319395  0.16581054
   0.28700672  0.01319395  0.35685918
   0.73515478  0.51319395  0.07028622
   0.76972274  0.51319395  0.26133486
   0.90758278  0.27739995  0.10212766
   0.94215073  0.27739995  0.29317630
   0.39029880  0.77739995  0.00660334
   0.42486675  0.77739995  0.19765198
   0.56272679  0.27739995  0.03844478
   0.59729475  0.27739995  0.22949342
   0.08001077  0.77739995  0.13396910
   0.11457873  0.77739995  0.32501774
   0.25243876  0.27739995  0.16581054
   0.28700672  0.27739995  0.35685918
   0.73515478  0.77739995  0.07028622
   0.76972274  0.77739995  0.26133486
   0.02602916  0.14529695  0.38033008
   0.99146121  0.14529695  0.18928144
   0.47417723  0.64529695  0.09375712
   0.50874518  0.64529695  0.28480576
   0.64660522  0.14529695  0.12559856
   0.68117318  0.14529695  0.31664720
   0.12932124  0.64529695  0.03007424
   0.16388920  0.64529695  0.22112288
   0.30174923  0.14529695  0.06191568
   0.33631719  0.14529695  0.25296432
   0.81903321  0.64529695  0.15744000
   0.85360117  0.64529695  0.34848864
   0.79449310  0.31351196  0.03037005
   0.82906105  0.31351196  0.22141869
   0.31177708  0.81351196  0.12589437
   0.34634503  0.81351196  0.31694301
   0.48420507  0.31351196  0.15773581
   0.51877303  0.31351196  0.34878445
   0.00148905  0.81351196  0.25326013
   0.96692109  0.81351196  0.06221149
   0.13934908  0.31351196  0.09405293
   0.17391704  0.31351196  0.28510157
   0.65663306  0.81351196  0.18957725
   0.69120102  0.81351196  0.38062589
   0.31177708  0.47708196  0.12589437
   0.34634503  0.47708196  0.31694301
   0.79449310  0.97708196  0.03037005
   0.82906105  0.97708196  0.22141869
   0.00148905  0.47708196  0.25326013
   0.96692109  0.47708196  0.06221149
   0.48420507  0.97708196  0.15773581
   0.51877303  0.97708196  0.34878445
   0.65663306  0.47708196  0.18957725
   0.69120102  0.47708196  0.38062589
   0.13934908  0.97708196  0.09405293
   0.17391704  0.97708196  0.28510157
