
96 atoms
2 atom types
   0.0000000000   11.2564630382 xlo xhi
   0.0000000000   10.0628203371 ylo yhi
   0.0000000000   20.7564538638 zlo zhi
   5.0445621212    0.0000000000    0.0000000000 xy xz yz

Atoms # atomic

     1      1    5.3522814214    4.8178807537    4.5206445215
     2      1    5.9359508104    3.8723795032    7.4567024782
     3      1    6.5196201831    2.9268782427   10.3927604556
     4      1    2.2463310587    0.7319719865    1.5845865648
     5      1    0.8913888408    0.5180279231    9.6170363135
     6      1    4.7686120403    3.3545316845    0.8088624434
     7      1    5.3522814243    2.4090304240    3.7449204001
     8      1    5.9359508020    1.4635291735    6.6809783568
     9      1    1.8774643405    3.7383591488    3.7449204001
    10      1    2.4611337132    2.7928578883    6.6809783568
    11      1    3.0448031022    1.8473566378    9.6170363135
    12      1    6.9220263017    4.6838603992    0.8088624434
    13      1   10.9805129405    4.8178807537    4.5206445215
    14      1   11.5641823295    3.8723795032    7.4567024782
    15      1   12.1478517023    2.9268782427   10.3927604556
    16      1    7.8745625778    0.7319719865    1.5845865648
    17      1    6.5196203599    0.5180279231    9.6170363135
    18      1   10.3968435594    3.3545316845    0.8088624434
    19      1   10.9805129434    2.4090304240    3.7449204001
    20      1   11.5641823212    1.4635291735    6.6809783568
    21      1    7.5056958596    3.7383591488    3.7449204001
    22      1    8.0893652323    2.7928578883    6.6809783568
    23      1    8.6730346213    1.8473566378    9.6170363135
    24      1   12.5502578208    4.6838603992    0.8088624434
    25      1    7.8745624820    9.8492909222    4.5206445215
    26      1    8.4582318710    8.9037896717    7.4567024782
    27      1    9.0419012437    7.9582884112   10.3927604556
    28      1    4.7686121193    5.7633821550    1.5845865648
    29      1    3.4136699014    5.5494380916    9.6170363135
    30      1    7.2908931009    8.3859418530    0.8088624434
    31      1    7.8745624849    7.4404405925    3.7449204001
    32      1    8.4582318626    6.4949393421    6.6809783568
    33      1    4.3997454011    8.7697693173    3.7449204001
    34      1    4.9834147738    7.8242680568    6.6809783568
    35      1    5.5670841628    6.8787668063    9.6170363135
    36      1    9.4443073623    9.7152705678    0.8088624434
    37      1   13.5027940011    9.8492909222    4.5206445215
    38      1   14.0864633901    8.9037896717    7.4567024782
    39      1   14.6701327629    7.9582884112   10.3927604556
    40      1   10.3968436384    5.7633821550    1.5845865648
    41      1    9.0419014205    5.5494380916    9.6170363135
    42      1   12.9191246200    8.3859418530    0.8088624434
    43      1   13.5027940040    7.4404405925    3.7449204001
    44      1   14.0864633817    6.4949393421    6.6809783568
    45      1   10.0279769202    8.7697693173    3.7449204001
    46      1   10.6116462929    7.8242680568    6.6809783568
    47      1   11.1953156819    6.8787668063    9.6170363135
    48      1   15.0725388814    9.7152705678    0.8088624434
    49      2    1.6618955796    1.6787142645    4.8843379437
    50      2    2.2455649686    0.7332130140    7.8203959004
    51      2    6.7064575572    2.6242155250    1.9482799870
    52      2    5.3515153263    4.8191217711   10.7564538571
    53      2    2.2455649582    3.8005525709    8.8081738908
    54      2    7.2901269307    4.7460538213    5.8721159134
    55      2    3.6005071840    1.6056463147    0.0000000000
    56      2    4.1841765730    0.6601450643    2.9360579567
    57      2    3.3807113032    4.9443390596    0.0000000000
    58      2    3.9643806923    3.9988378092    2.9360579567
    59      2    4.5480500650    3.0533365486    5.8721159134
    60      2    5.1317194540    2.1078352982    8.8081738908
    61      2    7.2901270987    1.6787142645    4.8843379437
    62      2    7.8737964878    0.7332130140    7.8203959004
    63      2   12.3346890763    2.6242155250    1.9482799870
    64      2   10.9797468454    4.8191217711   10.7564538571
    65      2    7.8737964773    3.8005525709    8.8081738908
    66      2   12.9183584498    4.7460538213    5.8721159134
    67      2    9.2287387031    1.6056463147    0.0000000000
    68      2    9.8124080922    0.6601450643    2.9360579567
    69      2    9.0089428224    4.9443390596    0.0000000000
    70      2    9.5926122114    3.9988378092    2.9360579567
    71      2   10.1762815841    3.0533365486    5.8721159134
    72      2   10.7599509731    2.1078352982    8.8081738908
    73      2    4.1841766402    6.7101244330    4.8843379437
    74      2    4.7678460292    5.7646231826    7.8203959004
    75      2    9.2287386177    7.6556256935    1.9482799870
    76      2    7.8737963869    9.8505319396   10.7564538571
    77      2    4.7678460188    8.8319627394    8.8081738908
    78      2    9.8124079913    9.7774639899    5.8721159134
    79      2    6.1227882446    6.6370564832    0.0000000000
    80      2    6.7064576336    5.6915552328    2.9360579567
    81      2    5.9029923638    9.9757492281    0.0000000000
    82      2    6.4866617529    9.0302479777    2.9360579567
    83      2    7.0703311256    8.0847467172    5.8721159134
    84      2    7.6540005146    7.1392454667    8.8081738908
    85      2    9.8124081593    6.7101244330    4.8843379437
    86      2   10.3960775483    5.7646231826    7.8203959004
    87      2   14.8569701369    7.6556256935    1.9482799870
    88      2   13.5020279060    9.8505319396   10.7564538571
    89      2   10.3960775379    8.8319627394    8.8081738908
    90      2   15.4406395104    9.7774639899    5.8721159134
    91      2   11.7510197637    6.6370564832    0.0000000000
    92      2   12.3346891527    5.6915552328    2.9360579567
    93      2   11.5312238829    9.9757492281    0.0000000000
    94      2   12.1148932720    9.0302479777    2.9360579567
    95      2   12.6985626447    8.0847467172    5.8721159134
    96      2   13.2822320337    7.1392454667    8.8081738908
