 vasp.5.4.4.18Apr17-6-g9f103f2a35 (build Aug 13 2019 17:33:20) gamma-only       
  
 executed on             LinuxIFC date 2020.05.12  00:02:30
 running on   12 total cores
 distrk:  each k-point on   12 cores,    1 groups
 distr:  one band on NCORES_PER_BAND=   6 cores,    2 groups


--------------------------------------------------------------------------------------------------------


 INCAR:
 POTCAR:    PAW_PBE Ni_pv 06Sep2000               
 POTCAR:    PAW_PBE S 06Sep2000                   
 POTCAR:    PAW_PBE Ni_pv 06Sep2000               
   VRHFIN =Ni:                                                                  
   LEXCH  = PE                                                                  
   EATOM  =  3501.1230 eV,  257.3253 Ry                                         
                                                                                
   TITEL  = PAW_PBE Ni_pv 06Sep2000                                             
   LULTRA =        F    use ultrasoft PP ?                                      
   IUNSCR =        1    unscreen: 0-lin 1-nonlin 2-no                           
   RPACOR =    1.500    partial core radius                                     
   POMASS =   58.690; ZVAL   =   16.000    mass and valenz                      
   RCORE  =    2.000    outmost cutoff radius                                   
   RWIGS  =    2.000; RWIGS  =    1.058    wigner-seitz radius (au A)           
   ENMAX  =  367.986; ENMIN  =  275.989 eV                                      
   RCLOC  =    1.301    cutoff for local pot                                    
   LCOR   =        T    correct aug charges                                     
   LPAW   =        T    paw PP                                                  
   EAUG   =  703.443                                                            
   DEXC   =    0.000                                                            
   RMAX   =    2.041    core radius for proj-oper                               
   RAUG   =    1.300    factor for augmentation sphere                          
   RDEP   =    2.103    radius for radial grids                                 
   RDEPT  =    1.618    core radius for aug-charge                              
                                                                                
   Atomic configuration                                                         
    8 entries                                                                   
     n  l   j            E        occ.                                          
     1  0  0.50     -8206.4253   2.0000                                         
     2  0  0.50      -976.1748   2.0000                                         
     2  1  1.50      -839.0571   6.0000                                         
     3  0  0.50      -105.9991   2.0000                                         
     3  1  1.50       -66.4603   6.0000                                         
     3  2  2.50        -4.6458   9.0000                                         
     4  0  0.50        -4.4926   1.0000                                         
     4  3  2.50        -1.3606   0.0000                                         
   Description                                                                  
     l       E           TYP  RCUT    TYP  RCUT                                 
     1    -66.4602962     23  1.700                                             
     1     -1.3605826     23  1.700                                             
     2     -4.6457867     23  2.000                                             
     2     -6.0063693     23  2.000                                             
     0     -4.4925576     23  1.900                                             
     0     16.3626226     23  1.900                                             
  local pseudopotential read in
  partial core-charges read in
  partial kinetic energy density read in
  atomic valenz-charges read in
  non local Contribution for L=           1  read in
    real space projection operators read in
  non local Contribution for L=           1  read in
    real space projection operators read in
  non local Contribution for L=           2  read in
    real space projection operators read in
  non local Contribution for L=           2  read in
    real space projection operators read in
  non local Contribution for L=           0  read in
    real space projection operators read in
  non local Contribution for L=           0  read in
    real space projection operators read in
    PAW grid and wavefunctions read in
 
   number of l-projection  operators is LMAX  =           6
   number of lm-projection operators is LMMAX =          18
 
 POTCAR:    PAW_PBE S 06Sep2000                   
   VRHFIN =S : s2p4                                                             
   LEXCH  = PE                                                                  
   EATOM  =   276.8230 eV,   20.3459 Ry                                         
                                                                                
   TITEL  = PAW_PBE S 06Sep2000                                                 
   LULTRA =        F    use ultrasoft PP ?                                      
   IUNSCR =        1    unscreen: 0-lin 1-nonlin 2-no                           
   RPACOR =    1.500    partial core radius                                     
   POMASS =   32.066; ZVAL   =    6.000    mass and valenz                      
   RCORE  =    1.900    outmost cutoff radius                                   
   RWIGS  =    2.200; RWIGS  =    1.164    wigner-seitz radius (au A)           
   ENMAX  =  258.689; ENMIN  =  194.016 eV                                      
   ICORE  =        2    local potential                                         
   LCOR   =        T    correct aug charges                                     
   LPAW   =        T    paw PP                                                  
   EAUG   =  335.092                                                            
   DEXC   =    0.000                                                            
   RMAX   =    1.942    core radius for proj-oper                               
   RAUG   =    1.300    factor for augmentation sphere                          
   RDEP   =    1.954    radius for radial grids                                 
   RDEPT  =    1.744    core radius for aug-charge                              
                                                                                
   Atomic configuration                                                         
    6 entries                                                                   
     n  l   j            E        occ.                                          
     1  0  0.50     -2405.8406   2.0000                                         
     2  0  0.50      -211.7007   2.0000                                         
     2  1  1.50      -156.4958   6.0000                                         
     3  0  0.50       -17.2562   2.0000                                         
     3  1  0.50        -7.0085   4.0000                                         
     3  2  1.50        -6.8029   0.0000                                         
   Description                                                                  
     l       E           TYP  RCUT    TYP  RCUT                                 
     0    -17.2561641     23  1.900                                             
     0    -15.8743224     23  1.900                                             
     1     -7.0085400     23  1.900                                             
     1     -2.7779785     23  1.900                                             
     2     -6.8029130     23  1.900                                             
  local pseudopotential read in
  partial core-charges read in
  partial kinetic energy density read in
  atomic valenz-charges read in
  non local Contribution for L=           0  read in
    real space projection operators read in
  non local Contribution for L=           0  read in
    real space projection operators read in
  non local Contribution for L=           1  read in
    real space projection operators read in
  non local Contribution for L=           1  read in
    real space projection operators read in
    PAW grid and wavefunctions read in
 
   number of l-projection  operators is LMAX  =           4
   number of lm-projection operators is LMMAX =           8
 
 Optimization of the real space projectors (new method)

 maximal supplied QI-value         = 18.90
 optimisation between [QCUT,QGAM] = [ 10.77, 21.73] = [ 32.49,132.25] Ry 
 Optimized for a Real-space Cutoff    1.38 Angstroem

   l    n(q)    QCUT    max X(q) W(low)/X(q) W(high)/X(q)  e(spline) 
   1      8    10.771     2.836    0.40E-04    0.29E-04    0.12E-06
   1      8    10.771     4.023    0.10E-03    0.48E-04    0.29E-06
   2      8    10.771    73.368    0.42E-03    0.97E-04    0.44E-06
   2      8    10.771    69.010    0.42E-03    0.99E-04    0.45E-06
   0      9    10.771    54.797    0.10E-03    0.56E-04    0.74E-07
   0      9    10.771    24.266    0.89E-04    0.49E-04    0.67E-07
 Optimization of the real space projectors (new method)

 maximal supplied QI-value         = 19.84
 optimisation between [QCUT,QGAM] = [ 10.71, 21.63] = [ 32.15,130.99] Ry 
 Optimized for a Real-space Cutoff    1.19 Angstroem

   l    n(q)    QCUT    max X(q) W(low)/X(q) W(high)/X(q)  e(spline) 
   0      8    10.715   187.594    0.41E-03    0.53E-04    0.66E-07
   0      8    10.715   164.243    0.41E-03    0.53E-04    0.65E-07
   1      7    10.715    67.533    0.19E-03    0.59E-03    0.68E-07
   1      7    10.715    50.729    0.19E-03    0.58E-03    0.67E-07
  PAW_PBE Ni_pv 06Sep2000               :
 energy of atom  1       EATOM=-3501.1230
 kinetic energy error for atom=    0.0925 (will be added to EATOM!!)
  PAW_PBE S 06Sep2000                   :
 energy of atom  2       EATOM= -276.8230
 kinetic energy error for atom=    0.0033 (will be added to EATOM!!)
 
 
 POSCAR: Type_037 Type_137                       
  positions in cartesian coordinates
  No initial velocities read in
 exchange correlation table for  LEXCH =        8
   RHO(1)=    0.500       N(1)  =     2000
   RHO(2)=  100.500       N(2)  =     4000
 


--------------------------------------------------------------------------------------------------------


 ion  position               nearest neighbor table
   1  0.780  0.145  0.123-  65 2.08  51 2.11  52 2.16  42 2.25   2 2.29  66 2.36  14 2.40  36 2.51

   2  0.732  0.096  0.249-  43 2.00  66 2.07   1 2.29  52 2.35  20 2.45  42 2.61
   3  0.214  0.622  0.099-  44 2.03  45 2.11  63 2.19  53 2.20   4 2.42  16 2.43
   4  0.297  0.645  0.216-  54 2.13  64 2.13  53 2.17  45 2.25  63 2.26   3 2.42  28 2.53  17 2.53

   5  0.388  0.133  0.130-  47 2.03  48 2.11  69 2.23   6 2.39  55 2.40  19 2.46
   6  0.470  0.145  0.247-  70 2.10  56 2.10  48 2.25  55 2.26  69 2.26   5 2.39  31 2.53  20 2.53

   7  0.952  0.645  0.154-  68 2.07  58 2.15  67 2.16  49 2.25  57 2.36   8 2.52  32 2.53  21 2.53

   8  0.972  0.629  0.304-  46 2.05  57 2.08  50 2.08  67 2.11  22 2.52   7 2.52
   9  0.064  0.156  0.058-  39 2.05  73 2.09  59 2.10  10 2.36
  10  0.125  0.145  0.185-  38 2.09  73 2.10  59 2.13   9 2.36  60 2.36  74 2.36  15 2.41  34 2.53
                            23 2.53
  11  0.134  0.145  0.337-  74 2.02  60 2.02  38 2.06
  12  0.570  0.638  0.161-  40 2.00  71 2.16  41 2.18  61 2.27  13 2.30
  13  0.642  0.645  0.278-  72 2.02  62 2.04  41 2.25  61 2.26  71 2.26  12 2.30  37 2.53  26 2.53

  14  0.888  0.988  0.100-  65 2.04  58 2.07  39 2.11  66 2.16   1 2.40  15 2.41  36 2.46
  15  0.014  0.990  0.168-  38 2.12  57 2.14  39 2.15  73 2.20  58 2.23  32 2.41  14 2.41  10 2.41

  16  0.354  0.658  0.071-  40 2.00  53 2.05  63 2.05   3 2.43
  17  0.425  0.513  0.192-  40 2.17  64 2.19  55 2.25  63 2.26  41 2.36  18 2.52   4 2.53  28 2.53

  18  0.450  0.497  0.341-  64 2.03  56 2.04  41 2.04  17 2.52
  19  0.529  0.145  0.093-  42 2.04  69 2.04  55 2.04   5 2.46  30 2.47
  20  0.597  0.013  0.222-  43 2.10  70 2.15  61 2.25  69 2.26  42 2.26   2 2.45  31 2.53   6 2.53

  21  0.080  0.513  0.130-  44 2.08  68 2.13  59 2.18  67 2.22  45 2.36   7 2.53  32 2.53  22 2.54

  22  0.099  0.498  0.281-  46 2.04  45 2.10  67 2.12  60 2.17   8 2.52  21 2.54
  23  0.252  0.013  0.161-  47 2.05  53 2.13  48 2.36  74 2.36  73 2.38  10 2.53  34 2.53
  24  0.286  0.999  0.318-  74 2.03  48 2.03  54 2.09
  25  0.761  0.431  0.119-  51 2.02  71 2.11  52 2.14  49 2.34  26 2.38  27 2.47
  26  0.770  0.513  0.253-  72 2.02  50 2.10  52 2.20  71 2.26  49 2.26  25 2.38  13 2.53  37 2.53

  27  0.901  0.369  0.140-  68 2.08  51 2.10  39 2.17  52 2.21  67 2.22  25 2.47
  28  0.425  0.777  0.192-  40 2.13  54 2.17  69 2.25  41 2.36  29 2.52   4 2.53  17 2.53  53 2.60

  29  0.450  0.795  0.340-  54 2.03  70 2.03  41 2.04  28 2.52
  30  0.616  0.353  0.090-  71 2.08  42 2.13  31 2.35  19 2.47  55 2.49
  31  0.597  0.277  0.222-  43 2.08  56 2.17  71 2.25  55 2.26  42 2.26  30 2.35  20 2.53   6 2.53

  32  0.080  0.777  0.130-  44 2.07  58 2.09  73 2.16  57 2.36  45 2.36  15 2.41   7 2.53  21 2.53

  33  0.110  0.780  0.296-  57 2.04  46 2.05  45 2.08  74 2.20
  34  0.252  0.277  0.161-  47 2.06  59 2.20  63 2.25  48 2.36  60 2.36  10 2.53  23 2.53
  35  0.286  0.291  0.318-  60 2.03  48 2.03  64 2.09
  36  0.757  0.886  0.126-  65 2.03  61 2.07  66 2.11  37 2.38  14 2.46   1 2.51  49 2.58
  37  0.770  0.777  0.253-  62 2.02  50 2.10  66 2.25  61 2.26  49 2.26  36 2.38  13 2.53  26 2.53

  38  0.034  0.121  0.269-  11 2.06  10 2.09  15 2.12  74 2.74
  39  0.957  0.169  0.115-   9 2.05  14 2.11  15 2.15  27 2.17
  40  0.469  0.648  0.097-  12 2.00  16 2.00  28 2.13  17 2.17
  41  0.509  0.645  0.276-  29 2.04  18 2.04  12 2.18  13 2.25  28 2.36  17 2.36
  42  0.647  0.145  0.122-  19 2.04  30 2.13   1 2.25  20 2.26  31 2.26   2 2.61
  43  0.637  0.146  0.314-   2 2.00  31 2.08  20 2.10  56 2.71  70 2.71
  44  0.112  0.646  0.036-   3 2.03  32 2.07  21 2.08
  45  0.164  0.645  0.214-  33 2.08  22 2.10   3 2.11   4 2.25  32 2.36  21 2.36
  46  0.072  0.629  0.374-  22 2.04   8 2.05  33 2.05
  47  0.284  0.145  0.069-   5 2.03  23 2.05  34 2.06
  48  0.336  0.145  0.245-  35 2.03  24 2.03   5 2.11   6 2.25  34 2.36  23 2.36
  49  0.819  0.645  0.153-   7 2.25  26 2.26  37 2.26  25 2.34  36 2.58  50 2.72
  50  0.850  0.645  0.313-   8 2.08  26 2.10  37 2.10  49 2.72
  51  0.825  0.303  0.047-  25 2.02  27 2.10   1 2.11
  52  0.800  0.301  0.215-  25 2.14   1 2.16  26 2.20  27 2.21   2 2.35
  53  0.286  0.807  0.126-  16 2.05  23 2.13   4 2.17   3 2.20  28 2.60
  54  0.341  0.811  0.289-  29 2.03  24 2.09   4 2.13  28 2.17
  55  0.484  0.314  0.153-  19 2.04  17 2.25   6 2.26  31 2.26   5 2.40  30 2.49  56 2.71
  56  0.509  0.318  0.314-  18 2.04   6 2.10  31 2.17  43 2.71  55 2.71
  57  0.001  0.814  0.246-  33 2.04   8 2.08  15 2.14  32 2.36   7 2.36  58 2.77
  58  0.969  0.829  0.082-  14 2.07  32 2.09   7 2.15  15 2.23  57 2.77
  59  0.137  0.314  0.103-   9 2.10  10 2.13  21 2.18  34 2.20
  60  0.174  0.314  0.276-  11 2.02  35 2.03  22 2.17  10 2.36  34 2.36
  61  0.657  0.814  0.184-  36 2.07  20 2.25  37 2.26  13 2.26  12 2.27  62 2.78
  62  0.694  0.797  0.346-  37 2.02  13 2.04  61 2.78
  63  0.312  0.477  0.122-  16 2.05   3 2.19  34 2.25   4 2.26  17 2.26
  64  0.341  0.481  0.290-  18 2.03  35 2.09   4 2.13  17 2.19
  65  0.789  0.003  0.029-  36 2.03  14 2.04   1 2.08
  66  0.829  0.977  0.215-   2 2.07  36 2.11  14 2.16  37 2.25   1 2.36
  67  0.989  0.464  0.222-   8 2.11  22 2.12   7 2.16  27 2.22  21 2.22  68 2.63
  68  0.971  0.495  0.067-   7 2.07  27 2.08  21 2.13  67 2.63
  69  0.484  0.977  0.153-  19 2.04   5 2.23  28 2.25   6 2.26  20 2.26  70 2.71
  70  0.510  0.973  0.313-  29 2.03   6 2.10  20 2.15  69 2.71  43 2.71
  71  0.657  0.477  0.184-  30 2.08  25 2.11  12 2.16  31 2.25  26 2.26  13 2.26
  72  0.697  0.505  0.350-  26 2.02  13 2.02
  73  0.126  0.982  0.101-   9 2.09  10 2.10  32 2.16  15 2.20  23 2.38
  74  0.174  0.977  0.276-  11 2.02  24 2.03  33 2.20  10 2.36  23 2.36  38 2.74
 
  LATTYP: Found a simple orthorhombic cell.
 ALAT       =     9.5784100000
 B/A-ratio  =     1.7387693453
 C/A-ratio  =     1.7627867312
  
  Lattice vectors:
  
 A1 = (   0.0000000000,   9.5784100000,   0.0000000000)
 A2 = (   0.0000000000,   0.0000000000, -16.6546456851)
 A3 = ( -16.8846940542,   0.0000000000,   0.0000000000)


Analysis of symmetry for initial positions (statically):
=====================================================================
 Subroutine PRICEL returns:
 Original cell was already a primitive cell.
 

 Routine SETGRP: Setting up the symmetry group for a 
 simple orthorhombic supercell.


 Subroutine GETGRP returns: Found  1 space group operations
 (whereof  1 operations were pure point group operations)
 out of a pool of  8 trial point group operations.


The static configuration has the point symmetry C_1 .


Analysis of symmetry for dynamics (positions and initial velocities):
=====================================================================
 Subroutine PRICEL returns:
 Original cell was already a primitive cell.
 

 Routine SETGRP: Setting up the symmetry group for a 
 simple orthorhombic supercell.


 Subroutine GETGRP returns: Found  1 space group operations
 (whereof  1 operations were pure point group operations)
 out of a pool of  8 trial point group operations.


The dynamic configuration has the point symmetry C_1 .


 Subroutine INISYM returns: Found  1 space group operations
 (whereof  1 operations are pure point group operations),
 and found     1 'primitive' translations

 
 
 KPOINTS: gamma-point-only calculation. no periodi

Automatic generation of k-mesh.
Space group operators:
 irot       det(A)        alpha          n_x          n_y          n_z        tau_x        tau_y        tau_z
    1     1.000000     0.000000     1.000000     0.000000     0.000000     0.000000     0.000000     0.000000
 
 Subroutine IBZKPT returns following result:
 ===========================================
 
 Found      1 irreducible k-points:
 
 Following reciprocal coordinates:
            Coordinates               Weight
  0.000000  0.000000  0.000000      1.000000
 
 Following cartesian coordinates:
            Coordinates               Weight
  0.000000  0.000000  0.000000      1.000000
 


--------------------------------------------------------------------------------------------------------




 Dimension of arrays:
   k-points           NKPTS =      1   k-points in BZ     NKDIM =      1   number of bands    NBANDS=    488
   number of dos      NEDOS =    301   number of ions     NIONS =     74
   non local maximal  LDIM  =      6   non local SUM 2l+1 LMDIM =     18
   total plane-waves  NPLWV = 405000
   max r-space proj   IRMAX =   1708   max aug-charges    IRDMAX=   4936
   dimension x,y,z NGX =    90 NGY =   50 NGZ =   90
   dimension x,y,z NGXF=   180 NGYF=  100 NGZF=  180
   support grid    NGXF=   180 NGYF=  100 NGZF=  180
   ions per type =              37  37
   NGX,Y,Z   is equivalent  to a cutoff of   8.86,  8.68,  8.98 a.u.
   NGXF,Y,Z  is equivalent  to a cutoff of  17.72, 17.36, 17.97 a.u.

 SYSTEM =  "Millerite NiS"                         
 POSCAR =  Type_037 Type_137                       

 Startparameter for this run:
   NWRITE =      2    write-flag & timer
   PREC   = normal    normal or accurate (medium, high low for compatibility)
   ISTART =      0    job   : 0-new  1-cont  2-samecut
   ICHARG =      2    charge: 1-file 2-atom 10-const
   ISPIN  =      1    spin polarized calculation?
   LNONCOLLINEAR =      F non collinear calculations
   LSORBIT =      F    spin-orbit coupling
   INIWAV =      1    electr: 0-lowe 1-rand  2-diag
   LASPH  =      F    aspherical Exc in radial PAW
   METAGGA=      F    non-selfconsistent MetaGGA calc.

 Electronic Relaxation 1
   ENCUT  =  450.0 eV  33.07 Ry    5.75 a.u.  29.20 16.57 28.81*2*pi/ulx,y,z
   ENINI  =  450.0     initial cutoff
   ENAUG  =  703.4 eV  augmentation charge cutoff
   NELM   =    100;   NELMIN=  2; NELMDL= -5     # of ELM steps 
   EDIFF  = 0.1E-03   stopping-criterion for ELM
   LREAL  =      T    real-space projection
   NLSPLINE    = F    spline interpolate recip. space projectors
   LCOMPAT=      F    compatible to vasp.4.4
   GGA_COMPAT  = T    GGA compatible to vasp.4.4-vasp.4.6
   LMAXPAW     = -100 max onsite density
   LMAXMIX     =    2 max onsite mixed and CHGCAR
   VOSKOWN=      0    Vosko Wilk Nusair interpolation
   ROPT   =   -0.00050  -0.00050
 Ionic relaxation
   EDIFFG = 0.1E-02   stopping-criterion for IOM
   NSW    =      0    number of steps for IOM
   NBLOCK =      1;   KBLOCK =      1    inner block; outer block 
   IBRION =     -1    ionic relax: 0-MD 1-quasi-New 2-CG
   NFREE  =      0    steps in history (QN), initial steepest desc. (CG)
   ISIF   =      2    stress and relaxation
   IWAVPR =     10    prediction:  0-non 1-charg 2-wave 3-comb
   ISYM   =      2    0-nonsym 1-usesym 2-fastsym
   LCORR  =      T    Harris-Foulkes like correction to forces

   POTIM  = 0.5000    time-step for ionic-motion
   TEIN   =    0.0    initial temperature
   TEBEG  =    0.0;   TEEND  =   0.0 temperature during run
   SMASS  =  -3.00    Nose mass-parameter (am)
   estimated Nose-frequenzy (Omega)   =  0.10E-29 period in steps =****** mass=  -0.652E-26a.u.
   SCALEE = 1.0000    scale energy and forces
   NPACO  =    256;   APACO  = 16.0  distance and # of slots for P.C.
   PSTRESS=    0.0 pullay stress

  Mass of Ions in am
   POMASS =  58.69 32.07
  Ionic Valenz
   ZVAL   =  16.00  6.00
  Atomic Wigner-Seitz radii
   RWIGS  =  -1.00 -1.00
  virtual crystal weights 
   VCA    =   1.00  1.00
   NELECT =     814.0000    total number of electrons
   NUPDOWN=      -1.0000    fix difference up-down

 DOS related values:
   EMIN   =  10.00;   EMAX   =-10.00  energy-range for DOS
   EFERMI =   0.00
   ISMEAR =     0;   SIGMA  =   0.20  broadening in eV -4-tet -1-fermi 0-gaus

 Electronic relaxation 2 (details)
   IALGO  =     38    algorithm
   LDIAG  =      T    sub-space diagonalisation (order eigenvalues)
   LSUBROT=      F    optimize rotation matrix (better conditioning)
   TURBO    =      0    0=normal 1=particle mesh
   IRESTART =      0    0=no restart 2=restart with 2 vectors
   NREBOOT  =      0    no. of reboots
   NMIN     =      0    reboot dimension
   EREF     =   0.00    reference energy to select bands
   IMIX   =      4    mixing-type and parameters
     AMIX     =   0.40;   BMIX     =  1.00
     AMIX_MAG =   1.60;   BMIX_MAG =  1.00
     AMIN     =   0.10
     WC   =   100.;   INIMIX=   1;  MIXPRE=   1;  MAXMIX= -45

 Intra band minimization:
   WEIMIN = 0.0000     energy-eigenvalue tresh-hold
   EBREAK =  0.51E-07  absolut break condition
   DEPER  =   0.30     relativ break condition  

   TIME   =   0.40     timestep for ELM

  volume/ion in A,a.u.               =      36.40       245.63
  Fermi-wavevector in a.u.,A,eV,Ry     =   1.098607  2.076066 16.421374  1.206937
  Thomas-Fermi vector in A             =   2.234987
 
 Write flags
   LWAVE        =      F    write WAVECAR
   LDOWNSAMPLE  =      F    k-point downsampling of WAVECAR
   LCHARG       =      F    write CHGCAR
   LVTOT        =      F    write LOCPOT, total local potential
   LVHAR        =      F    write LOCPOT, Hartree potential only
   LELF         =      F    write electronic localiz. function (ELF)
   LORBIT       =      0    0 simple, 1 ext, 2 COOP (PROOUT), +10 PAW based schemes


 Dipole corrections
   LMONO  =      F    monopole corrections only (constant potential shift)
   LDIPOL =      F    correct potential (dipole corrections)
   IDIPOL =      0    1-x, 2-y, 3-z, 4-all directions 
   EPSILON=  1.0000000 bulk dielectric constant

 Exchange correlation treatment:
   GGA     =    --    GGA type
   LEXCH   =     8    internal setting for exchange type
   VOSKOWN=      0    Vosko Wilk Nusair interpolation
   LHFCALC =     F    Hartree Fock is set to
   LHFONE  =     F    Hartree Fock one center treatment
   AEXX    =    0.0000 exact exchange contribution

 Linear response parameters
   LEPSILON=     F    determine dielectric tensor
   LRPA    =     F    only Hartree local field effects (RPA)
   LNABLA  =     F    use nabla operator in PAW spheres
   LVEL    =     F    velocity operator in full k-point grid
   LINTERFAST=   F  fast interpolation
   KINTER  =     0    interpolate to denser k-point grid
   CSHIFT  =0.1000    complex shift for real part using Kramers Kronig
   OMEGAMAX=  -1.0    maximum frequency
   DEG_THRESHOLD= 0.2000000E-02 threshold for treating states as degnerate
   RTIME   =   -0.100 relaxation time in fs
  (WPLASMAI=    0.000 imaginary part of plasma frequency in eV, 0.658/RTIME)
   DFIELD  = 0.0000000 0.0000000 0.0000000 field for delta impulse in time
 
 Orbital magnetization related:
   ORBITALMAG=     F  switch on orbital magnetization
   LCHIMAG   =     F  perturbation theory with respect to B field
   DQ        =  0.001000  dq finite difference perturbation B field
   LLRAUG    =     F  two centre corrections for induced B field



--------------------------------------------------------------------------------------------------------


 Static calculation
 charge density and potential will be updated during run
 non-spin polarized calculation
 Variant of blocked Davidson
 Davidson routine will perform the subspace rotation
 perform sub-space diagonalisation
    after iterative eigenvector-optimisation
 modified Broyden-mixing scheme, WC =      100.0
 initial mixing is a Kerker type mixing with AMIX =  0.4000 and BMIX =      1.0000
 Hartree-type preconditioning will be used
 using additional bands           81
 real space projection scheme for non local part
 use partial core corrections
 calculate Harris-corrections to forces 
   (improved forces if not selfconsistent)
 use gradient corrections 
 use of overlap-Matrix (Vanderbilt PP)
 Gauss-broadening in eV      SIGMA  =   0.20


--------------------------------------------------------------------------------------------------------


  energy-cutoff  :      450.00
  volume of cell :     2693.53
      direct lattice vectors                 reciprocal lattice vectors
    16.884694054  0.000000000  0.000000000     0.059225237  0.000000000  0.000000000
     0.000000000  9.578410000  0.000000000     0.000000000  0.104401461  0.000000000
     0.000000000  0.000000000 16.654645685     0.000000000  0.000000000  0.060043307

  length of vectors
    16.884694054  9.578410000 16.654645685     0.059225237  0.104401461  0.060043307


 
 k-points in units of 2pi/SCALE and weight: gamma-point-only calculation. no periodi
   0.00000000  0.00000000  0.00000000       1.000
 
 k-points in reciprocal lattice and weights: gamma-point-only calculation. no periodi
   0.00000000  0.00000000  0.00000000       1.000
 
 position of ions in fractional coordinates (direct lattice) 
   0.78004630  0.14529696  0.12347080
   0.73199717  0.09562885  0.24913911
   0.21396841  0.62227711  0.09892506
   0.29733028  0.64529696  0.21607389
   0.38824808  0.13266169  0.12992446
   0.46975828  0.14529696  0.24694159
   0.95247430  0.64529696  0.15433850
   0.97235440  0.62899688  0.30420061
   0.06399190  0.15573500  0.05760026
   0.12490229  0.14529696  0.18520619
   0.13431607  0.14512577  0.33738700
   0.56966236  0.63788043  0.16064791
   0.64218627  0.64529696  0.27780929
   0.88798485  0.98783186  0.09981118
   0.01388846  0.99010343  0.16763586
   0.35368117  0.65758598  0.07117175
   0.42486675  0.51319396  0.19160760
   0.44952594  0.49682857  0.34059547
   0.52932705  0.14492092  0.09345419
   0.59729475  0.01319396  0.22247530
   0.08001077  0.51319396  0.12987220
   0.09934087  0.49758933  0.28073731
   0.25243876  0.01319396  0.16073990
   0.28641021  0.99901125  0.31786498
   0.76069317  0.43111540  0.11868296
   0.76972274  0.51319396  0.25334300
   0.90112891  0.36856860  0.13979323
   0.42486675  0.77739996  0.19160760
   0.44998396  0.79451859  0.34036691
   0.61575615  0.35329974  0.08983964
   0.59729475  0.27739996  0.22247530
   0.08001077  0.77739996  0.12987220
   0.11036048  0.77982525  0.29559001
   0.25243876  0.27739996  0.16073990
   0.28616346  0.29129846  0.31786705
   0.75654121  0.88608131  0.12560690
   0.76972274  0.77739996  0.25334300
   0.03379237  0.12070595  0.26867199
   0.95719491  0.16937208  0.11539213
   0.46927820  0.64805514  0.09747251
   0.50874518  0.64529696  0.27609614
   0.64660522  0.14529696  0.12175764
   0.63671299  0.14637629  0.31408250
   0.11158763  0.64590753  0.03643557
   0.16388920  0.64529696  0.21436074
   0.07224128  0.62861010  0.37369322
   0.28434297  0.14484151  0.06908008
   0.33631719  0.14529696  0.24522844
   0.81903321  0.64529696  0.15262534
   0.84976245  0.64476716  0.31303674
   0.82509528  0.30277849  0.04749454
   0.80047941  0.30055182  0.21510621
   0.28617911  0.80727943  0.12591479
   0.34140856  0.81081569  0.28859809
   0.48420507  0.31351196  0.15291210
   0.50874165  0.31764048  0.31391497
   0.00148905  0.81351196  0.24551520
   0.96924004  0.82934850  0.08245451
   0.13684361  0.31406997  0.10324494
   0.17391704  0.31351196  0.27638290
   0.65663306  0.81351196  0.18377980
   0.69367997  0.79685782  0.34612100
   0.31177707  0.47708196  0.12204440
   0.34055601  0.48062264  0.28978068
   0.78924932  0.00277545  0.02930751
   0.82906105  0.97708196  0.21464750
   0.98921463  0.46405825  0.22234460
   0.97099024  0.49489987  0.06668331
   0.48420507  0.97708196  0.15291210
   0.50959639  0.97301631  0.31335059
   0.65663306  0.47708196  0.18377980
   0.69731035  0.50525166  0.34968881
   0.12581922  0.98210666  0.10063632
   0.17391704  0.97708196  0.27638290
 
 position of ions in cartesian coordinates  (Angst):
  13.17084321  1.39171383  2.05636238
  12.35954833  0.91597236  4.14932365
   3.61279106  5.96042528  1.64756189
   5.02033088  6.18091883  3.59863415
   6.55545012  1.27068804  2.16384578
   7.93172477  1.39171383  4.11272475
  16.08223712  6.18091883  2.57045297
  16.41790649  6.02479002  5.06635332
   1.08048358  1.49169365  0.95931192
   2.10893697  1.39171383  3.08454356
   2.26788578  1.39007415  5.61906093
   9.61857460  6.10988026  2.67553403
  10.84311868  6.18091883  4.62681534
  14.99335250  9.46185859  1.66231989
   0.23450235  9.48361660  2.79191581
   5.97179842  6.29862811  1.18534023
   7.17374514  4.91558213  3.19115669
   7.59010794  4.75882777  5.67249695
   8.93752530  1.38811198  1.55644641
  10.08513905  0.12637713  3.70524730
   1.35095732  4.91558213  2.16297551
   1.67734020  4.76611465  4.67558042
   4.26235123  0.12637713  2.67706610
   4.83594881  9.56893931  5.29392856
  12.84407150  4.12940007  1.97662262
  12.99653294  4.91558213  4.21933789
  15.21528595  3.53030117  2.32820672
   7.17374514  7.44625552  3.19115669
   7.59784152  7.61022481  5.66869037
  10.39685418  3.38404974  1.49624731
  10.08513905  2.65705052  3.70524730
   1.35095732  7.44625552  2.16297551
   1.86340290  7.46948598  4.92294681
   4.26235123  2.65705052  2.67706610
   4.83178242  2.79017606  5.29396308
  12.77396686  8.48725008  2.09193849
  12.99653294  7.44625552  4.21933789
   0.57057389  1.15617105  4.47463674
  16.16194321  1.62231525  1.92181503
   7.92361878  6.20733784  1.62337013
   8.59000675  6.18091883  4.59828332
  10.91773128  1.39171383  2.02783034
  10.75070407  1.40205214  5.23093278
   1.88412292  6.18676713  0.60682152
   2.76721895  6.18091883  3.57010212
   1.21977188  6.02108530  6.22372810
   4.80104398  1.38735133  1.15050419
   5.67861284  1.39171383  4.08419271
  13.82912519  6.18091883  2.54192094
  14.34797904  6.17584426  5.21351597
  13.93148138  2.90013647  0.79100480
  13.51584993  2.87880852  3.58251779
   4.83204680  7.73245337  2.09706625
   5.76457901  7.76632507  4.80649896
   8.17565442  3.00294606  2.54669685
   8.58994717  3.04249071  5.22814265
   0.02514209  7.79215106  4.08896862
  16.36532149  7.94383993  1.37325059
   2.31056256  3.00829097  1.71950794
   2.93653598  3.00294606  4.60305921
  11.08704832  7.79215106  3.06078744
  11.71257407  7.63263090  5.76452254
   5.26426051  4.56968659  2.03260624
   5.75018399  4.60360067  4.82619447
  13.32623333  0.02658444  0.48810623
  13.99844223  9.35889159  3.57487803
  16.70258641  4.44494019  3.70307057
  16.39487318  4.74035387  1.11058695
   8.17565442  9.35889159  2.54669685
   8.60437917  9.31994911  5.21874299
  11.08704832  4.56968659  3.06078744
  11.77387200  4.83950760  5.82394328
   2.12441901  9.40702029  1.67606233
   2.93653598  9.35889159  4.60305921
 


--------------------------------------------------------------------------------------------------------


 use parallel FFT for orbitals z direction half grid
 k-point  1 :   0.0000 0.0000 0.0000  plane waves:   29200

 maximum and minimum number of plane-waves per node :      4869     4864

 maximum number of plane-waves:     29200
 maximum index in each direction: 
   IXMAX=   29   IYMAX=   16   IZMAX=   28
   IXMIN=  -29   IYMIN=  -16   IZMIN=    0


 real space projection operators:
  total allocation   :      10757.23 KBytes
  max/ min on nodes  :       1800.44       1782.16


 parallel 3D FFT for wavefunctions:
    minimum data exchange during FFTs selected (reduces bandwidth)
 parallel 3D FFT for charge:
    minimum data exchange during FFTs selected (reduces bandwidth)


 total amount of memory used by VASP MPI-rank0    80247. kBytes
=======================================================================

   base      :      30000. kBytes
   nonlr-proj:       2207. kBytes
   fftplans  :      10634. kBytes
   grid      :      17961. kBytes
   one-center:        101. kBytes
   wavefun   :      19344. kBytes
 
     INWAV:  cpu time    0.0000: real time    0.0000
 Broyden mixing: mesh for mixing (old mesh)
   NGX = 59   NGY = 33   NGZ = 57
  (NGX  =180   NGY  =100   NGZ  =180)
  gives a total of 110979 points

 initial charge density was supplied:
 charge density of overlapping atoms calculated
 number of electron     814.0000000 magnetization 
 keeping initial charge density in first step


--------------------------------------------------------------------------------------------------------


 Maximum index for non-local projection operator          278
 Maximum index for augmentation-charges          448 (set IRDMAX)


--------------------------------------------------------------------------------------------------------


 First call to EWALD:  gamma=   0.127
 Maximum number of real-space cells 2x 4x 2
 Maximum number of reciprocal cells 3x 2x 3

    FEWALD:  cpu time    0.0107: real time    0.0107


--------------------------------------- Iteration      1(   1)  ---------------------------------------


    POTLOK:  cpu time    0.3556: real time    0.3556
    SETDIJ:  cpu time    0.0194: real time    0.0194
     EDDAV:  cpu time    9.4495: real time    9.4511
       DOS:  cpu time    0.0015: real time    0.0015
    --------------------------------------------
      LOOP:  cpu time    9.8260: real time    9.8276

 eigenvalue-minimisations  :  1200
 total energy-change (2. order) : 0.9152017E+04  (-0.5210757E+05)
 number of electron     814.0000000 magnetization 
 augmentation part      814.0000000 magnetization 

 Free energy of the ion-electron system (eV)
  ---------------------------------------------------
  alpha Z        PSCENC =      1458.83996183
  Ewald energy   TEWEN  =    171597.94348466
  -Hartree energ DENC   =   -295184.37736290
  -exchange      EXHF   =         0.00000000
  -V(xc)+E(xc)   XCENC  =      3787.08469180
  PAW double counting   =    115860.90926010  -120909.33166199
  entropy T*S    EENTRO =        -0.41257971
  eigenvalues    EBANDS =     -7239.09413079
  atomic energy  EATOM  =    139780.45519414
  Solvation  Ediel_sol  =         0.00000000
  ---------------------------------------------------
  free energy    TOTEN  =      9152.01685715 eV

  energy without entropy =     9152.42943685  energy(sigma->0) =     9152.22314700


--------------------------------------------------------------------------------------------------------




--------------------------------------- Iteration      1(   2)  ---------------------------------------


     EDDAV:  cpu time    8.5322: real time    8.5342
       DOS:  cpu time    0.0013: real time    0.0013
    --------------------------------------------
      LOOP:  cpu time    8.5334: real time    8.5354

 eigenvalue-minimisations  :  1040
 total energy-change (2. order) :-0.8653529E+04  (-0.8363538E+04)
 number of electron     814.0000000 magnetization 
 augmentation part      814.0000000 magnetization 

 Free energy of the ion-electron system (eV)
  ---------------------------------------------------
  alpha Z        PSCENC =      1458.83996183
  Ewald energy   TEWEN  =    171597.94348466
  -Hartree energ DENC   =   -295184.37736290
  -exchange      EXHF   =         0.00000000
  -V(xc)+E(xc)   XCENC  =      3787.08469180
  PAW double counting   =    115860.90926010  -120909.33166199
  entropy T*S    EENTRO =        -0.74433264
  eigenvalues    EBANDS =    -15892.29180348
  atomic energy  EATOM  =    139780.45519414
  Solvation  Ediel_sol  =         0.00000000
  ---------------------------------------------------
  free energy    TOTEN  =       498.48743152 eV

  energy without entropy =      499.23176416  energy(sigma->0) =      498.85959784


--------------------------------------------------------------------------------------------------------




--------------------------------------- Iteration      1(   3)  ---------------------------------------


     EDDAV:  cpu time    8.7627: real time    8.7643
       DOS:  cpu time    0.0012: real time    0.0012
    --------------------------------------------
      LOOP:  cpu time    8.7639: real time    8.7655

 eigenvalue-minimisations  :  1120
 total energy-change (2. order) :-0.8539470E+03  (-0.8204730E+03)
 number of electron     814.0000000 magnetization 
 augmentation part      814.0000000 magnetization 

 Free energy of the ion-electron system (eV)
  ---------------------------------------------------
  alpha Z        PSCENC =      1458.83996183
  Ewald energy   TEWEN  =    171597.94348466
  -Hartree energ DENC   =   -295184.37736290
  -exchange      EXHF   =         0.00000000
  -V(xc)+E(xc)   XCENC  =      3787.08469180
  PAW double counting   =    115860.90926010  -120909.33166199
  entropy T*S    EENTRO =        -1.25614825
  eigenvalues    EBANDS =    -16745.72700196
  atomic energy  EATOM  =    139780.45519414
  Solvation  Ediel_sol  =         0.00000000
  ---------------------------------------------------
  free energy    TOTEN  =      -355.45958257 eV

  energy without entropy =     -354.20343432  energy(sigma->0) =     -354.83150845


--------------------------------------------------------------------------------------------------------




--------------------------------------- Iteration      1(   4)  ---------------------------------------


     EDDAV:  cpu time    8.8088: real time    8.8105
       DOS:  cpu time    0.0014: real time    0.0014
    --------------------------------------------
      LOOP:  cpu time    8.8102: real time    8.8119

 eigenvalue-minimisations  :  1096
 total energy-change (2. order) :-0.4451290E+02  (-0.4403942E+02)
 number of electron     814.0000000 magnetization 
 augmentation part      814.0000000 magnetization 

 Free energy of the ion-electron system (eV)
  ---------------------------------------------------
  alpha Z        PSCENC =      1458.83996183
  Ewald energy   TEWEN  =    171597.94348466
  -Hartree energ DENC   =   -295184.37736290
  -exchange      EXHF   =         0.00000000
  -V(xc)+E(xc)   XCENC  =      3787.08469180
  PAW double counting   =    115860.90926010  -120909.33166199
  entropy T*S    EENTRO =        -1.27735786
  eigenvalues    EBANDS =    -16790.21868747
  atomic energy  EATOM  =    139780.45519414
  Solvation  Ediel_sol  =         0.00000000
  ---------------------------------------------------
  free energy    TOTEN  =      -399.97247769 eV

  energy without entropy =     -398.69511983  energy(sigma->0) =     -399.33379876


--------------------------------------------------------------------------------------------------------




--------------------------------------- Iteration      1(   5)  ---------------------------------------


     EDDAV:  cpu time    9.8550: real time    9.8573
       DOS:  cpu time    0.0014: real time    0.0014
    CHARGE:  cpu time    0.3136: real time    0.3136
    MIXING:  cpu time    0.0100: real time    0.0100
    --------------------------------------------
      LOOP:  cpu time   10.1801: real time   10.1825

 eigenvalue-minimisations  :  1264
 total energy-change (2. order) :-0.1924816E+01  (-0.1922150E+01)
 number of electron     813.9998687 magnetization 
 augmentation part      294.7518066 magnetization 

 Broyden mixing:
  rms(total) = 0.10180E+02    rms(broyden)= 0.10173E+02
  rms(prec ) = 0.10681E+02
  weight for this iteration     100.00

 Free energy of the ion-electron system (eV)
  ---------------------------------------------------
  alpha Z        PSCENC =      1458.83996183
  Ewald energy   TEWEN  =    171597.94348466
  -Hartree energ DENC   =   -295184.37736290
  -exchange      EXHF   =         0.00000000
  -V(xc)+E(xc)   XCENC  =      3787.08469180
  PAW double counting   =    115860.90926010  -120909.33166199
  entropy T*S    EENTRO =        -1.26514386
  eigenvalues    EBANDS =    -16792.15571698
  atomic energy  EATOM  =    139780.45519414
  Solvation  Ediel_sol  =         0.00000000
  ---------------------------------------------------
  free energy    TOTEN  =      -401.89729321 eV

  energy without entropy =     -400.63214934  energy(sigma->0) =     -401.26472128


--------------------------------------------------------------------------------------------------------




--------------------------------------- Iteration      1(   6)  ---------------------------------------


    POTLOK:  cpu time    0.3413: real time    0.3418
    SETDIJ:  cpu time    0.0194: real time    0.0194
     EDDAV:  cpu time    9.5853: real time    9.5879
       DOS:  cpu time    0.0015: real time    0.0014
    CHARGE:  cpu time    0.3002: real time    0.3002
    MIXING:  cpu time    0.0103: real time    0.0104
    --------------------------------------------
      LOOP:  cpu time   10.2580: real time   10.2610

 eigenvalue-minimisations  :  1224
 total energy-change (2. order) :-0.6472600E+02  (-0.9651676E+02)
 number of electron     813.9998403 magnetization 
 augmentation part      355.5806558 magnetization 

 Broyden mixing:
  rms(total) = 0.15847E+02    rms(broyden)= 0.15845E+02
  rms(prec ) = 0.16634E+02
  weight for this iteration     100.00

 eigenvalues of (default mixing * dielectric matrix)
  average eigenvalue GAMMA=   0.2471
  0.2471

 Free energy of the ion-electron system (eV)
  ---------------------------------------------------
  alpha Z        PSCENC =      1458.83996183
  Ewald energy   TEWEN  =    171597.94348466
  -Hartree energ DENC   =   -292544.13735759
  -exchange      EXHF   =         0.00000000
  -V(xc)+E(xc)   XCENC  =      3712.76256199
  PAW double counting   =    121604.91015474  -126420.29602811
  entropy T*S    EENTRO =        -0.77706913
  eigenvalues    EBANDS =    -19656.32419631
  atomic energy  EATOM  =    139780.45519414
  Solvation  Ediel_sol  =         0.00000000
  ---------------------------------------------------
  free energy    TOTEN  =      -466.62329379 eV

  energy without entropy =     -465.84622466  energy(sigma->0) =     -466.23475922


--------------------------------------------------------------------------------------------------------




--------------------------------------- Iteration      1(   7)  ---------------------------------------


    POTLOK:  cpu time    0.3463: real time    0.3464
    SETDIJ:  cpu time    0.0192: real time    0.0192
     EDDAV:  cpu time    8.6618: real time    8.6637
       DOS:  cpu time    0.0012: real time    0.0012
    CHARGE:  cpu time    0.3011: real time    0.3011
    MIXING:  cpu time    0.0106: real time    0.0106
    --------------------------------------------
      LOOP:  cpu time    9.3402: real time    9.3421

 eigenvalue-minimisations  :  1112
 total energy-change (2. order) : 0.9991656E+02  (-0.1977133E+02)
 number of electron     813.9998496 magnetization 
 augmentation part      338.8077868 magnetization 

 Broyden mixing:
  rms(total) = 0.67420E+01    rms(broyden)= 0.67409E+01
  rms(prec ) = 0.71218E+01
  weight for this iteration     100.00

 eigenvalues of (default mixing * dielectric matrix)
  average eigenvalue GAMMA=   0.5647
  0.6564  0.4731

 Free energy of the ion-electron system (eV)
  ---------------------------------------------------
  alpha Z        PSCENC =      1458.83996183
  Ewald energy   TEWEN  =    171597.94348466
  -Hartree energ DENC   =   -293648.16996818
  -exchange      EXHF   =         0.00000000
  -V(xc)+E(xc)   XCENC  =      3740.43764510
  PAW double counting   =    126537.18330253  -131502.16336177
  entropy T*S    EENTRO =        -0.97294260
  eigenvalues    EBANDS =    -18330.26005317
  atomic energy  EATOM  =    139780.45519414
  Solvation  Ediel_sol  =         0.00000000
  ---------------------------------------------------
  free energy    TOTEN  =      -366.70673745 eV

  energy without entropy =     -365.73379486  energy(sigma->0) =     -366.22026616


--------------------------------------------------------------------------------------------------------




--------------------------------------- Iteration      1(   8)  ---------------------------------------


    POTLOK:  cpu time    0.3545: real time    0.3545
    SETDIJ:  cpu time    0.0407: real time    0.0407
     EDDAV:  cpu time   10.1471: real time   10.1491
       DOS:  cpu time    0.0014: real time    0.0014
    CHARGE:  cpu time    0.2981: real time    0.2981
    MIXING:  cpu time    0.0112: real time    0.0112
    --------------------------------------------
      LOOP:  cpu time   10.8530: real time   10.8550

 eigenvalue-minimisations  :  1328
 total energy-change (2. order) :-0.6836228E+02  (-0.2352901E+02)
 number of electron     813.9998569 magnetization 
 augmentation part      310.7964447 magnetization 

 Broyden mixing:
  rms(total) = 0.13411E+02    rms(broyden)= 0.13408E+02
  rms(prec ) = 0.16875E+02
  weight for this iteration     100.00

 eigenvalues of (default mixing * dielectric matrix)
  average eigenvalue GAMMA=   0.5191
  0.9694  0.4144  0.1734

 Free energy of the ion-electron system (eV)
  ---------------------------------------------------
  alpha Z        PSCENC =      1458.83996183
  Ewald energy   TEWEN  =    171597.94348466
  -Hartree energ DENC   =   -294658.39487189
  -exchange      EXHF   =         0.00000000
  -V(xc)+E(xc)   XCENC  =      3765.84747199
  PAW double counting   =    135016.50165393  -140124.53606462
  entropy T*S    EENTRO =        -0.92078968
  eigenvalues    EBANDS =    -17270.80505906
  atomic energy  EATOM  =    139780.45519414
  Solvation  Ediel_sol  =         0.00000000
  ---------------------------------------------------
  free energy    TOTEN  =      -435.06901869 eV

  energy without entropy =     -434.14822901  energy(sigma->0) =     -434.60862385


--------------------------------------------------------------------------------------------------------




--------------------------------------- Iteration      1(   9)  ---------------------------------------


    POTLOK:  cpu time    0.3427: real time    0.3427
    SETDIJ:  cpu time    0.0232: real time    0.0233
     EDDAV:  cpu time    9.8831: real time    9.8850
       DOS:  cpu time    0.0015: real time    0.0014
    CHARGE:  cpu time    0.3069: real time    0.3069
    MIXING:  cpu time    0.0113: real time    0.0113
    --------------------------------------------
      LOOP:  cpu time   10.5686: real time   10.5705

 eigenvalue-minimisations  :  1264
 total energy-change (2. order) : 0.5559883E+02  (-0.1577059E+02)
 number of electron     813.9998669 magnetization 
 augmentation part      311.7966995 magnetization 

 Broyden mixing:
  rms(total) = 0.77638E+01    rms(broyden)= 0.77582E+01
  rms(prec ) = 0.91655E+01
  weight for this iteration     100.00

 eigenvalues of (default mixing * dielectric matrix)
  average eigenvalue GAMMA=   0.5502
  1.3627  0.3598  0.3598  0.1183

 Free energy of the ion-electron system (eV)
  ---------------------------------------------------
  alpha Z        PSCENC =      1458.83996183
  Ewald energy   TEWEN  =    171597.94348466
  -Hartree energ DENC   =   -294627.88926594
  -exchange      EXHF   =         0.00000000
  -V(xc)+E(xc)   XCENC  =      3765.06188714
  PAW double counting   =    138426.51158189  -143554.66766876
  entropy T*S    EENTRO =        -1.12188744
  eigenvalues    EBANDS =    -17224.60347683
  atomic energy  EATOM  =    139780.45519414
  Solvation  Ediel_sol  =         0.00000000
  ---------------------------------------------------
  free energy    TOTEN  =      -379.47018931 eV

  energy without entropy =     -378.34830187  energy(sigma->0) =     -378.90924559


--------------------------------------------------------------------------------------------------------




--------------------------------------- Iteration      1(  10)  ---------------------------------------


    POTLOK:  cpu time    0.3438: real time    0.3473
    SETDIJ:  cpu time    0.0192: real time    0.0192
     EDDAV:  cpu time   10.6570: real time   10.6594
       DOS:  cpu time    0.0013: real time    0.0013
    CHARGE:  cpu time    0.3028: real time    0.3028
    MIXING:  cpu time    0.0118: real time    0.0118
    --------------------------------------------
      LOOP:  cpu time   11.3360: real time   11.3418

 eigenvalue-minimisations  :  1408
 total energy-change (2. order) :-0.9860614E+00  (-0.1006748E+02)
 number of electron     813.9998560 magnetization 
 augmentation part      313.2221236 magnetization 

 Broyden mixing:
  rms(total) = 0.72208E+01    rms(broyden)= 0.72184E+01
  rms(prec ) = 0.83099E+01
  weight for this iteration     100.00

 eigenvalues of (default mixing * dielectric matrix)
  average eigenvalue GAMMA=   0.6179
  1.9756  0.4194  0.4194  0.1374  0.1374

 Free energy of the ion-electron system (eV)
  ---------------------------------------------------
  alpha Z        PSCENC =      1458.83996183
  Ewald energy   TEWEN  =    171597.94348466
  -Hartree energ DENC   =   -294516.70136072
  -exchange      EXHF   =         0.00000000
  -V(xc)+E(xc)   XCENC  =      3762.35325437
  PAW double counting   =    141773.17050152  -146916.02016922
  entropy T*S    EENTRO =        -1.24052445
  eigenvalues    EBANDS =    -17319.25659289
  atomic energy  EATOM  =    139780.45519414
  Solvation  Ediel_sol  =         0.00000000
  ---------------------------------------------------
  free energy    TOTEN  =      -380.45625075 eV

  energy without entropy =     -379.21572630  energy(sigma->0) =     -379.83598853


--------------------------------------------------------------------------------------------------------




--------------------------------------- Iteration      1(  11)  ---------------------------------------


    POTLOK:  cpu time    0.3688: real time    0.3688
    SETDIJ:  cpu time    0.0400: real time    0.0400
     EDDAV:  cpu time   10.1870: real time   10.1891
       DOS:  cpu time    0.0014: real time    0.0013
    CHARGE:  cpu time    0.3040: real time    0.3041
    MIXING:  cpu time    0.0124: real time    0.0124
    --------------------------------------------
      LOOP:  cpu time   10.9136: real time   10.9157

 eigenvalue-minimisations  :  1336
 total energy-change (2. order) : 0.3926681E+01  (-0.5920492E+01)
 number of electron     813.9998662 magnetization 
 augmentation part      316.7646113 magnetization 

 Broyden mixing:
  rms(total) = 0.59565E+01    rms(broyden)= 0.59539E+01
  rms(prec ) = 0.69075E+01
  weight for this iteration     100.00

 eigenvalues of (default mixing * dielectric matrix)
  average eigenvalue GAMMA=   0.5694
  2.0999  0.4225  0.4225  0.1743  0.1743  0.1230

 Free energy of the ion-electron system (eV)
  ---------------------------------------------------
  alpha Z        PSCENC =      1458.83996183
  Ewald energy   TEWEN  =    171597.94348466
  -Hartree energ DENC   =   -294390.89580496
  -exchange      EXHF   =         0.00000000
  -V(xc)+E(xc)   XCENC  =      3757.87841523
  PAW double counting   =    146760.98960438  -151924.43537541
  entropy T*S    EENTRO =        -0.98863270
  eigenvalues    EBANDS =    -17416.31641663
  atomic energy  EATOM  =    139780.45519414
  Solvation  Ediel_sol  =         0.00000000
  ---------------------------------------------------
  free energy    TOTEN  =      -376.52956945 eV

  energy without entropy =     -375.54093675  energy(sigma->0) =     -376.03525310


--------------------------------------------------------------------------------------------------------




--------------------------------------- Iteration      1(  12)  ---------------------------------------


    POTLOK:  cpu time    0.3807: real time    0.3808
    SETDIJ:  cpu time    0.0401: real time    0.0401
     EDDAV:  cpu time   10.3461: real time   10.3481
       DOS:  cpu time    0.0014: real time    0.0014
    CHARGE:  cpu time    0.3064: real time    0.3066
    MIXING:  cpu time    0.0132: real time    0.0132
    --------------------------------------------
      LOOP:  cpu time   11.0878: real time   11.0902

 eigenvalue-minimisations  :  1368
 total energy-change (2. order) : 0.1800135E+02  (-0.3189255E+01)
 number of electron     813.9998590 magnetization 
 augmentation part      320.3604745 magnetization 

 Broyden mixing:
  rms(total) = 0.30256E+01    rms(broyden)= 0.30223E+01
  rms(prec ) = 0.35674E+01
  weight for this iteration     100.00

 eigenvalues of (default mixing * dielectric matrix)
  average eigenvalue GAMMA=   0.5536
  2.0779  0.4465  0.4465  0.3899  0.2518  0.1314  0.1314

 Free energy of the ion-electron system (eV)
  ---------------------------------------------------
  alpha Z        PSCENC =      1458.83996183
  Ewald energy   TEWEN  =    171597.94348466
  -Hartree energ DENC   =   -294352.54653589
  -exchange      EXHF   =         0.00000000
  -V(xc)+E(xc)   XCENC  =      3757.35839544
  PAW double counting   =    147826.36604208  -152995.96187031
  entropy T*S    EENTRO =        -1.06714695
  eigenvalues    EBANDS =    -17429.91574678
  atomic energy  EATOM  =    139780.45519414
  Solvation  Ediel_sol  =         0.00000000
  ---------------------------------------------------
  free energy    TOTEN  =      -358.52822177 eV

  energy without entropy =     -357.46107482  energy(sigma->0) =     -357.99464829


--------------------------------------------------------------------------------------------------------




--------------------------------------- Iteration      1(  13)  ---------------------------------------


    POTLOK:  cpu time    0.4311: real time    0.4312
    SETDIJ:  cpu time    0.0367: real time    0.0367
     EDDAV:  cpu time   10.1905: real time   10.1923
       DOS:  cpu time    0.0013: real time    0.0013
    CHARGE:  cpu time    0.3111: real time    0.3112
    MIXING:  cpu time    0.0132: real time    0.0132
    --------------------------------------------
      LOOP:  cpu time   10.9840: real time   10.9859

 eigenvalue-minimisations  :  1368
 total energy-change (2. order) :-0.1383219E+01  (-0.3415239E+01)
 number of electron     813.9998592 magnetization 
 augmentation part      318.5304043 magnetization 

 Broyden mixing:
  rms(total) = 0.46059E+01    rms(broyden)= 0.46038E+01
  rms(prec ) = 0.55619E+01
  weight for this iteration     100.00

 eigenvalues of (default mixing * dielectric matrix)
  average eigenvalue GAMMA=   0.5338
  2.1848  0.4517  0.4517  0.3875  0.3875  0.1433  0.1433  0.1207

 Free energy of the ion-electron system (eV)
  ---------------------------------------------------
  alpha Z        PSCENC =      1458.83996183
  Ewald energy   TEWEN  =    171597.94348466
  -Hartree energ DENC   =   -294406.39340718
  -exchange      EXHF   =         0.00000000
  -V(xc)+E(xc)   XCENC  =      3758.03115313
  PAW double counting   =    147580.30703468  -152747.47356322
  entropy T*S    EENTRO =        -1.04205310
  eigenvalues    EBANDS =    -17380.57924564
  atomic energy  EATOM  =    139780.45519414
  Solvation  Ediel_sol  =         0.00000000
  ---------------------------------------------------
  free energy    TOTEN  =      -359.91144070 eV

  energy without entropy =     -358.86938760  energy(sigma->0) =     -359.39041415


--------------------------------------------------------------------------------------------------------




--------------------------------------- Iteration      1(  14)  ---------------------------------------


    POTLOK:  cpu time    0.4727: real time    0.4728
    SETDIJ:  cpu time    0.0201: real time    0.0201
     EDDAV:  cpu time   10.0955: real time   10.0970
       DOS:  cpu time    0.0015: real time    0.0014
    CHARGE:  cpu time    0.3080: real time    0.3080
    MIXING:  cpu time    0.0138: real time    0.0138
    --------------------------------------------
      LOOP:  cpu time   10.9116: real time   10.9131

 eigenvalue-minimisations  :  1352
 total energy-change (2. order) : 0.6376271E+01  (-0.2160373E+01)
 number of electron     813.9998574 magnetization 
 augmentation part      320.8415859 magnetization 

 Broyden mixing:
  rms(total) = 0.21555E+01    rms(broyden)= 0.21522E+01
  rms(prec ) = 0.24710E+01
  weight for this iteration     100.00

 eigenvalues of (default mixing * dielectric matrix)
  average eigenvalue GAMMA=   0.5022
  2.1787  0.4760  0.4760  0.4070  0.4070  0.1560  0.1560  0.1439  0.1192

 Free energy of the ion-electron system (eV)
  ---------------------------------------------------
  alpha Z        PSCENC =      1458.83996183
  Ewald energy   TEWEN  =    171597.94348466
  -Hartree energ DENC   =   -294383.72032430
  -exchange      EXHF   =         0.00000000
  -V(xc)+E(xc)   XCENC  =      3756.90815975
  PAW double counting   =    147996.10203670  -153159.70775125
  entropy T*S    EENTRO =        -1.15775886
  eigenvalues    EBANDS =    -17399.19817208
  atomic energy  EATOM  =    139780.45519414
  Solvation  Ediel_sol  =         0.00000000
  ---------------------------------------------------
  free energy    TOTEN  =      -353.53516939 eV

  energy without entropy =     -352.37741053  energy(sigma->0) =     -352.95628996


--------------------------------------------------------------------------------------------------------




--------------------------------------- Iteration      1(  15)  ---------------------------------------


    POTLOK:  cpu time    0.4771: real time    0.4772
    SETDIJ:  cpu time    0.0192: real time    0.0192
     EDDAV:  cpu time   10.0552: real time   10.0571
       DOS:  cpu time    0.0014: real time    0.0014
    CHARGE:  cpu time    0.3079: real time    0.3080
    MIXING:  cpu time    0.0144: real time    0.0144
    --------------------------------------------
      LOOP:  cpu time   10.8752: real time   10.8773

 eigenvalue-minimisations  :  1336
 total energy-change (2. order) : 0.1234999E+01  (-0.4495979E+00)
 number of electron     813.9998583 magnetization 
 augmentation part      321.1165336 magnetization 

 Broyden mixing:
  rms(total) = 0.14504E+01    rms(broyden)= 0.14496E+01
  rms(prec ) = 0.16533E+01
  weight for this iteration     100.00

 eigenvalues of (default mixing * dielectric matrix)
  average eigenvalue GAMMA=   0.4969
  2.1468  0.5957  0.5957  0.4241  0.4241  0.1902  0.1902  0.1411  0.1411  0.1199

 Free energy of the ion-electron system (eV)
  ---------------------------------------------------
  alpha Z        PSCENC =      1458.83996183
  Ewald energy   TEWEN  =    171597.94348466
  -Hartree energ DENC   =   -294386.90636011
  -exchange      EXHF   =         0.00000000
  -V(xc)+E(xc)   XCENC  =      3756.84039541
  PAW double counting   =    147859.66879333  -153021.35309895
  entropy T*S    EENTRO =        -1.15204196
  eigenvalues    EBANDS =    -17396.63649882
  atomic energy  EATOM  =    139780.45519414
  Solvation  Ediel_sol  =         0.00000000
  ---------------------------------------------------
  free energy    TOTEN  =      -352.30017047 eV

  energy without entropy =     -351.14812851  energy(sigma->0) =     -351.72414949


--------------------------------------------------------------------------------------------------------




--------------------------------------- Iteration      1(  16)  ---------------------------------------


    POTLOK:  cpu time    0.4622: real time    0.4622
    SETDIJ:  cpu time    0.0290: real time    0.0290
     EDDAV:  cpu time    9.5907: real time    9.5922
       DOS:  cpu time    0.0012: real time    0.0012
    CHARGE:  cpu time    0.2948: real time    0.2949
    MIXING:  cpu time    0.0149: real time    0.0150
    --------------------------------------------
      LOOP:  cpu time   10.3930: real time   10.3946

 eigenvalue-minimisations  :  1264
 total energy-change (2. order) : 0.4034621E+00  (-0.9276476E-01)
 number of electron     813.9998587 magnetization 
 augmentation part      320.8118787 magnetization 

 Broyden mixing:
  rms(total) = 0.12056E+01    rms(broyden)= 0.12055E+01
  rms(prec ) = 0.13736E+01
  weight for this iteration     100.00

 eigenvalues of (default mixing * dielectric matrix)
  average eigenvalue GAMMA=   0.4994
  2.1361  0.7061  0.7061  0.4225  0.4225  0.2685  0.2685  0.1468  0.1468  0.1495
  0.1204

 Free energy of the ion-electron system (eV)
  ---------------------------------------------------
  alpha Z        PSCENC =      1458.83996183
  Ewald energy   TEWEN  =    171597.94348466
  -Hartree energ DENC   =   -294408.33561297
  -exchange      EXHF   =         0.00000000
  -V(xc)+E(xc)   XCENC  =      3757.06994098
  PAW double counting   =    147504.59826622  -152663.32552122
  entropy T*S    EENTRO =        -1.16391927
  eigenvalues    EBANDS =    -17377.97850270
  atomic energy  EATOM  =    139780.45519414
  Solvation  Ediel_sol  =         0.00000000
  ---------------------------------------------------
  free energy    TOTEN  =      -351.89670833 eV

  energy without entropy =     -350.73278906  energy(sigma->0) =     -351.31474869


--------------------------------------------------------------------------------------------------------




--------------------------------------- Iteration      1(  17)  ---------------------------------------


    POTLOK:  cpu time    0.3457: real time    0.3457
    SETDIJ:  cpu time    0.0192: real time    0.0192
     EDDAV:  cpu time    9.7347: real time    9.7364
       DOS:  cpu time    0.0012: real time    0.0012
    CHARGE:  cpu time    0.2957: real time    0.2957
    MIXING:  cpu time    0.0156: real time    0.0156
    --------------------------------------------
      LOOP:  cpu time   10.4120: real time   10.4137

 eigenvalue-minimisations  :  1248
 total energy-change (2. order) : 0.1538845E+00  (-0.6058945E-01)
 number of electron     813.9998578 magnetization 
 augmentation part      320.7509514 magnetization 

 Broyden mixing:
  rms(total) = 0.11509E+01    rms(broyden)= 0.11507E+01
  rms(prec ) = 0.13071E+01
  weight for this iteration     100.00

 eigenvalues of (default mixing * dielectric matrix)
  average eigenvalue GAMMA=   0.5375
  2.1349  0.9836  0.9836  0.4418  0.4418  0.4091  0.3258  0.1202  0.1433  0.1433
  0.1613  0.1613

 Free energy of the ion-electron system (eV)
  ---------------------------------------------------
  alpha Z        PSCENC =      1458.83996183
  Ewald energy   TEWEN  =    171597.94348466
  -Hartree energ DENC   =   -294420.30852491
  -exchange      EXHF   =         0.00000000
  -V(xc)+E(xc)   XCENC  =      3757.14402213
  PAW double counting   =    147241.33991685  -152397.15782187
  entropy T*S    EENTRO =        -1.16741862
  eigenvalues    EBANDS =    -17368.83163810
  atomic energy  EATOM  =    139780.45519414
  Solvation  Ediel_sol  =         0.00000000
  ---------------------------------------------------
  free energy    TOTEN  =      -351.74282388 eV

  energy without entropy =     -350.57540525  energy(sigma->0) =     -351.15911457


--------------------------------------------------------------------------------------------------------




--------------------------------------- Iteration      1(  18)  ---------------------------------------


    POTLOK:  cpu time    0.3478: real time    0.3479
    SETDIJ:  cpu time    0.0192: real time    0.0192
     EDDAV:  cpu time   10.2453: real time   10.2469
       DOS:  cpu time    0.0012: real time    0.0012
    CHARGE:  cpu time    0.2977: real time    0.2977
    MIXING:  cpu time    0.0172: real time    0.0172
    --------------------------------------------
      LOOP:  cpu time   10.9285: real time   10.9301

 eigenvalue-minimisations  :  1336
 total energy-change (2. order) : 0.2463449E+00  (-0.5023551E-01)
 number of electron     813.9998585 magnetization 
 augmentation part      320.5349311 magnetization 

 Broyden mixing:
  rms(total) = 0.10025E+01    rms(broyden)= 0.10023E+01
  rms(prec ) = 0.11551E+01
  weight for this iteration     100.00

 eigenvalues of (default mixing * dielectric matrix)
  average eigenvalue GAMMA=   0.5661
  2.1601  1.2668  1.2668  0.5098  0.4517  0.4517  0.3235  0.1897  0.1897  0.1435
  0.1435  0.1204  0.1421

 Free energy of the ion-electron system (eV)
  ---------------------------------------------------
  alpha Z        PSCENC =      1458.83996183
  Ewald energy   TEWEN  =    171597.94348466
  -Hartree energ DENC   =   -294444.32362518
  -exchange      EXHF   =         0.00000000
  -V(xc)+E(xc)   XCENC  =      3757.23245077
  PAW double counting   =    146850.09437999  -152001.14322770
  entropy T*S    EENTRO =        -1.19140035
  eigenvalues    EBANDS =    -17349.40369713
  atomic energy  EATOM  =    139780.45519414
  Solvation  Ediel_sol  =         0.00000000
  ---------------------------------------------------
  free energy    TOTEN  =      -351.49647896 eV

  energy without entropy =     -350.30507861  energy(sigma->0) =     -350.90077879


--------------------------------------------------------------------------------------------------------




--------------------------------------- Iteration      1(  19)  ---------------------------------------


    POTLOK:  cpu time    0.3487: real time    0.3487
    SETDIJ:  cpu time    0.0193: real time    0.0193
     EDDAV:  cpu time    9.9777: real time    9.9794
       DOS:  cpu time    0.0012: real time    0.0012
    CHARGE:  cpu time    0.2963: real time    0.2963
    MIXING:  cpu time    0.0177: real time    0.0177
    --------------------------------------------
      LOOP:  cpu time   10.6609: real time   10.6626

 eigenvalue-minimisations  :  1296
 total energy-change (2. order) : 0.2774629E+00  (-0.6153523E-01)
 number of electron     813.9998574 magnetization 
 augmentation part      320.5456177 magnetization 

 Broyden mixing:
  rms(total) = 0.74196E+00    rms(broyden)= 0.74158E+00
  rms(prec ) = 0.85944E+00
  weight for this iteration     100.00

 eigenvalues of (default mixing * dielectric matrix)
  average eigenvalue GAMMA=   0.5778
  2.1280  1.4709  1.4709  0.4644  0.4644  0.4689  0.4689  0.2429  0.2109  0.1444
  0.1444  0.1547  0.1204  0.1356

 Free energy of the ion-electron system (eV)
  ---------------------------------------------------
  alpha Z        PSCENC =      1458.83996183
  Ewald energy   TEWEN  =    171597.94348466
  -Hartree energ DENC   =   -294466.80468408
  -exchange      EXHF   =         0.00000000
  -V(xc)+E(xc)   XCENC  =      3757.22725695
  PAW double counting   =    146441.47727756  -151586.79422416
  entropy T*S    EENTRO =        -1.18148178
  eigenvalues    EBANDS =    -17332.38180120
  atomic energy  EATOM  =    139780.45519414
  Solvation  Ediel_sol  =         0.00000000
  ---------------------------------------------------
  free energy    TOTEN  =      -351.21901606 eV

  energy without entropy =     -350.03753428  energy(sigma->0) =     -350.62827517


--------------------------------------------------------------------------------------------------------




--------------------------------------- Iteration      1(  20)  ---------------------------------------


    POTLOK:  cpu time    0.3492: real time    0.3493
    SETDIJ:  cpu time    0.0193: real time    0.0193
     EDDAV:  cpu time   10.1704: real time   10.1725
       DOS:  cpu time    0.0013: real time    0.0013
    CHARGE:  cpu time    0.3142: real time    0.3143
    MIXING:  cpu time    0.0177: real time    0.0177
    --------------------------------------------
      LOOP:  cpu time   10.8721: real time   10.8744

 eigenvalue-minimisations  :  1328
 total energy-change (2. order) : 0.1458206E+00  (-0.5186165E-01)
 number of electron     813.9998582 magnetization 
 augmentation part      320.5224277 magnetization 

 Broyden mixing:
  rms(total) = 0.56596E+00    rms(broyden)= 0.56557E+00
  rms(prec ) = 0.66274E+00
  weight for this iteration     100.00

 eigenvalues of (default mixing * dielectric matrix)
  average eigenvalue GAMMA=   0.5932
  1.9301  1.6524  1.6524  0.7196  0.7196  0.4381  0.4381  0.2719  0.2108  0.1777
  0.1438  0.1438  0.1489  0.1204  0.1304

 Free energy of the ion-electron system (eV)
  ---------------------------------------------------
  alpha Z        PSCENC =      1458.83996183
  Ewald energy   TEWEN  =    171597.94348466
  -Hartree energ DENC   =   -294488.30697376
  -exchange      EXHF   =         0.00000000
  -V(xc)+E(xc)   XCENC  =      3757.26350294
  PAW double counting   =    145981.74653080  -151121.51669588
  entropy T*S    EENTRO =        -1.18440853
  eigenvalues    EBANDS =    -17316.31379169
  atomic energy  EATOM  =    139780.45519414
  Solvation  Ediel_sol  =         0.00000000
  ---------------------------------------------------
  free energy    TOTEN  =      -351.07319549 eV

  energy without entropy =     -349.88878696  energy(sigma->0) =     -350.48099122


--------------------------------------------------------------------------------------------------------




--------------------------------------- Iteration      1(  21)  ---------------------------------------


    POTLOK:  cpu time    0.3592: real time    0.3592
    SETDIJ:  cpu time    0.0192: real time    0.0192
     EDDAV:  cpu time   10.1537: real time   10.1555
       DOS:  cpu time    0.0014: real time    0.0014
    CHARGE:  cpu time    0.3058: real time    0.3058
    MIXING:  cpu time    0.0210: real time    0.0210
    --------------------------------------------
      LOOP:  cpu time   10.8603: real time   10.8621

 eigenvalue-minimisations  :  1320
 total energy-change (2. order) : 0.9707864E-01  (-0.3853847E-01)
 number of electron     813.9998575 magnetization 
 augmentation part      320.5901609 magnetization 

 Broyden mixing:
  rms(total) = 0.38637E+00    rms(broyden)= 0.38591E+00
  rms(prec ) = 0.45308E+00
  weight for this iteration     100.00

 eigenvalues of (default mixing * dielectric matrix)
  average eigenvalue GAMMA=   0.5653
  1.7273  1.7273  1.6715  0.7593  0.7593  0.4360  0.4360  0.2726  0.2341  0.1853
  0.1435  0.1435  0.1521  0.1521  0.1208  0.1238

 Free energy of the ion-electron system (eV)
  ---------------------------------------------------
  alpha Z        PSCENC =      1458.83996183
  Ewald energy   TEWEN  =    171597.94348466
  -Hartree energ DENC   =   -294516.44024924
  -exchange      EXHF   =         0.00000000
  -V(xc)+E(xc)   XCENC  =      3757.28200390
  PAW double counting   =    145371.65852867  -150504.18970197
  entropy T*S    EENTRO =        -1.19342644
  eigenvalues    EBANDS =    -17295.33191240
  atomic energy  EATOM  =    139780.45519414
  Solvation  Ediel_sol  =         0.00000000
  ---------------------------------------------------
  free energy    TOTEN  =      -350.97611684 eV

  energy without entropy =     -349.78269041  energy(sigma->0) =     -350.37940363


--------------------------------------------------------------------------------------------------------




--------------------------------------- Iteration      1(  22)  ---------------------------------------


    POTLOK:  cpu time    0.3505: real time    0.3506
    SETDIJ:  cpu time    0.0193: real time    0.0193
     EDDAV:  cpu time    9.4141: real time    9.4159
       DOS:  cpu time    0.0013: real time    0.0013
    CHARGE:  cpu time    0.3051: real time    0.3051
    MIXING:  cpu time    0.0192: real time    0.0192
    --------------------------------------------
      LOOP:  cpu time   10.1095: real time   10.1113

 eigenvalue-minimisations  :  1200
 total energy-change (2. order) : 0.3461966E-01  (-0.2092393E-01)
 number of electron     813.9998576 magnetization 
 augmentation part      320.6199142 magnetization 

 Broyden mixing:
  rms(total) = 0.25187E+00    rms(broyden)= 0.25165E+00
  rms(prec ) = 0.27686E+00
  weight for this iteration     100.00

 eigenvalues of (default mixing * dielectric matrix)
  average eigenvalue GAMMA=   0.5683
  1.9972  1.9972  1.0397  0.8448  0.8448  0.5663  0.4424  0.4424  0.2758  0.2066
  0.1439  0.1439  0.1788  0.1616  0.1377  0.1204  0.1174

 Free energy of the ion-electron system (eV)
  ---------------------------------------------------
  alpha Z        PSCENC =      1458.83996183
  Ewald energy   TEWEN  =    171597.94348466
  -Hartree energ DENC   =   -294522.89748104
  -exchange      EXHF   =         0.00000000
  -V(xc)+E(xc)   XCENC  =      3757.27016766
  PAW double counting   =    145241.15151020  -150372.15807276
  entropy T*S    EENTRO =        -1.19711025
  eigenvalues    EBANDS =    -17290.34915164
  atomic energy  EATOM  =    139780.45519414
  Solvation  Ediel_sol  =         0.00000000
  ---------------------------------------------------
  free energy    TOTEN  =      -350.94149719 eV

  energy without entropy =     -349.74438694  energy(sigma->0) =     -350.34294206


--------------------------------------------------------------------------------------------------------




--------------------------------------- Iteration      1(  23)  ---------------------------------------


    POTLOK:  cpu time    0.3521: real time    0.3520
    SETDIJ:  cpu time    0.0192: real time    0.0192
     EDDAV:  cpu time    8.8280: real time    8.8296
       DOS:  cpu time    0.0015: real time    0.0015
    CHARGE:  cpu time    0.3096: real time    0.3096
    MIXING:  cpu time    0.0212: real time    0.0212
    --------------------------------------------
      LOOP:  cpu time    9.5315: real time    9.5331

 eigenvalue-minimisations  :  1104
 total energy-change (2. order) : 0.5145826E-02  (-0.5592522E-02)
 number of electron     813.9998575 magnetization 
 augmentation part      320.6261496 magnetization 

 Broyden mixing:
  rms(total) = 0.22960E+00    rms(broyden)= 0.22956E+00
  rms(prec ) = 0.24501E+00
  weight for this iteration     100.00

 eigenvalues of (default mixing * dielectric matrix)
  average eigenvalue GAMMA=   0.5886
  2.1575  2.1575  1.0339  1.0339  0.7727  0.7727  0.4464  0.4464  0.3136  0.2592
  0.2093  0.1439  0.1439  0.1734  0.1570  0.1342  0.1201  0.1198

 Free energy of the ion-electron system (eV)
  ---------------------------------------------------
  alpha Z        PSCENC =      1458.83996183
  Ewald energy   TEWEN  =    171597.94348466
  -Hartree energ DENC   =   -294529.98097161
  -exchange      EXHF   =         0.00000000
  -V(xc)+E(xc)   XCENC  =      3757.27635903
  PAW double counting   =    145150.45535658  -150280.69452788
  entropy T*S    EENTRO =        -1.19440216
  eigenvalues    EBANDS =    -17284.03680596
  atomic energy  EATOM  =    139780.45519414
  Solvation  Ediel_sol  =         0.00000000
  ---------------------------------------------------
  free energy    TOTEN  =      -350.93635136 eV

  energy without entropy =     -349.74194920  energy(sigma->0) =     -350.33915028


--------------------------------------------------------------------------------------------------------




--------------------------------------- Iteration      1(  24)  ---------------------------------------


    POTLOK:  cpu time    0.3514: real time    0.3515
    SETDIJ:  cpu time    0.0205: real time    0.0205
     EDDAV:  cpu time    9.1237: real time    9.1249
       DOS:  cpu time    0.0014: real time    0.0014
    CHARGE:  cpu time    0.3725: real time    0.3726
    MIXING:  cpu time    0.0209: real time    0.0210
    --------------------------------------------
      LOOP:  cpu time    9.8903: real time    9.8918

 eigenvalue-minimisations  :  1176
 total energy-change (2. order) : 0.2100895E-02  (-0.4193364E-02)
 number of electron     813.9998576 magnetization 
 augmentation part      320.6916888 magnetization 

 Broyden mixing:
  rms(total) = 0.20624E+00    rms(broyden)= 0.20617E+00
  rms(prec ) = 0.22351E+00
  weight for this iteration     100.00

 eigenvalues of (default mixing * dielectric matrix)
  average eigenvalue GAMMA=   0.6386
  2.3568  2.3568  1.3557  1.3557  0.7665  0.7665  0.6245  0.4420  0.4420  0.2740
  0.2047  0.1970  0.1438  0.1438  0.1708  0.1575  0.1355  0.1204  0.1187

 Free energy of the ion-electron system (eV)
  ---------------------------------------------------
  alpha Z        PSCENC =      1458.83996183
  Ewald energy   TEWEN  =    171597.94348466
  -Hartree energ DENC   =   -294535.77679552
  -exchange      EXHF   =         0.00000000
  -V(xc)+E(xc)   XCENC  =      3757.28493768
  PAW double counting   =    145111.65589476  -150241.82018486
  entropy T*S    EENTRO =        -1.19500790
  eigenvalues    EBANDS =    -17278.32173527
  atomic energy  EATOM  =    139780.45519414
  Solvation  Ediel_sol  =         0.00000000
  ---------------------------------------------------
  free energy    TOTEN  =      -350.93425046 eV

  energy without entropy =     -349.73924256  energy(sigma->0) =     -350.33674651


--------------------------------------------------------------------------------------------------------




--------------------------------------- Iteration      1(  25)  ---------------------------------------


    POTLOK:  cpu time    0.3531: real time    0.3531
    SETDIJ:  cpu time    0.0192: real time    0.0192
     EDDAV:  cpu time    9.9460: real time    9.9478
       DOS:  cpu time    0.0013: real time    0.0013
    CHARGE:  cpu time    0.4569: real time    0.4570
    MIXING:  cpu time    0.0220: real time    0.0220
    --------------------------------------------
      LOOP:  cpu time   10.7984: real time   10.8003

 eigenvalue-minimisations  :  1328
 total energy-change (2. order) : 0.5516510E-02  (-0.5831210E-02)
 number of electron     813.9998573 magnetization 
 augmentation part      320.8227807 magnetization 

 Broyden mixing:
  rms(total) = 0.17074E+00    rms(broyden)= 0.17061E+00
  rms(prec ) = 0.19352E+00
  weight for this iteration     100.00

 eigenvalues of (default mixing * dielectric matrix)
  average eigenvalue GAMMA=   0.6530
  2.4452  2.4452  1.5086  1.5086  0.8355  0.8355  0.6559  0.4419  0.4419  0.3029
  0.2553  0.2122  0.1439  0.1439  0.1846  0.1706  0.1549  0.1348  0.1204  0.1182

 Free energy of the ion-electron system (eV)
  ---------------------------------------------------
  alpha Z        PSCENC =      1458.83996183
  Ewald energy   TEWEN  =    171597.94348466
  -Hartree energ DENC   =   -294543.54770481
  -exchange      EXHF   =         0.00000000
  -V(xc)+E(xc)   XCENC  =      3757.30346389
  PAW double counting   =    145126.30050312  -150257.21862557
  entropy T*S    EENTRO =        -1.19404867
[...]
  Alpha Z  1458.83996  1458.83996  1458.83996
  Ewald  223582.62113221028.58941************   794.09781  -155.29167   207.66862
  Hartree257875.92473256339.01601************   618.29657  -209.27849   238.11392
  E(xc)   -5196.13106 -5197.17472 -5205.01758     0.25035     0.13699    -0.03479
  Local  ************************479665.71078 -1405.15427   374.53218  -441.82328
  n-local  -602.62054  -608.82686  -602.60458    -4.45914     3.44131    -8.14876
  augment  5938.69832  5953.08196  5959.45981    -1.03485    -6.05488     2.29070
  Kinetic 11405.61947 11406.56373 11506.98833    -8.62126    -6.32719     5.48338
  Fock        0.00000     0.00000     0.00000     0.00000     0.00000     0.00000
  -------------------------------------------------------------------------------------
  Total     142.84747   127.00260   142.43018    -6.62478     1.15824     3.54979
  in kB      84.96912    75.54421    84.72090    -3.94058     0.68895     2.11150
  external pressure =       81.74 kB  Pullay stress =        0.00 kB


 VOLUME and BASIS-vectors are now :
 -----------------------------------------------------------------------------
  energy-cutoff  :      450.00
  volume of cell :     2693.53
      direct lattice vectors                 reciprocal lattice vectors
    16.884694054  0.000000000  0.000000000     0.059225237  0.000000000  0.000000000
     0.000000000  9.578410000  0.000000000     0.000000000  0.104401461  0.000000000
     0.000000000  0.000000000 16.654645685     0.000000000  0.000000000  0.060043307

  length of vectors
    16.884694054  9.578410000 16.654645685     0.059225237  0.104401461  0.060043307


 FORCES acting on ions
    electron-ion (+dipol)            ewald-force                    non-local-force                 convergence-correction
 -----------------------------------------------------------------------------------------------
   -.419E+01 -.194E+03 0.186E+04   0.250E+01 0.196E+03 -.187E+04   0.126E+01 -.962E+00 0.392E+01   -.111E-01 -.142E-01 0.235E-01
   -.651E+03 -.915E+02 -.242E+04   0.653E+03 0.927E+02 0.242E+04   -.381E+00 -.770E+00 -.391E+01   0.150E-02 -.774E-02 -.417E-02
   -.924E+01 0.130E+03 0.297E+04   0.875E+01 -.131E+03 -.298E+04   0.122E+01 0.746E+00 0.812E+01   0.367E-02 -.272E-03 -.203E-02
   0.391E+03 0.240E+01 -.110E+04   -.393E+03 -.262E+01 0.111E+04   0.724E+00 0.419E-04 -.607E+01   0.435E-03 -.177E-02 -.682E-02
   -.539E+02 0.622E+02 0.250E+04   0.537E+02 -.631E+02 -.251E+04   0.890E+00 0.902E+00 0.857E+01   -.365E-02 0.528E-03 -.721E-03
   0.157E+03 0.327E+02 -.183E+04   -.161E+03 -.327E+02 0.184E+04   0.341E+01 0.828E-01 -.786E+01   0.532E-02 -.129E-02 -.395E-02
   0.835E+03 -.110E+03 0.116E+04   -.839E+03 0.113E+03 -.116E+04   0.357E+01 -.238E+01 0.277E+01   0.352E-02 0.422E-02 0.259E-02
   0.807E+03 0.911E+02 -.327E+04   -.813E+03 -.932E+02 0.327E+04   0.415E+01 0.158E+01 -.470E+01   -.126E-01 0.122E-02 -.616E-02
   0.162E+03 -.265E+03 0.388E+04   -.163E+03 0.269E+03 -.388E+04   0.483E+00 -.322E+01 -.715E+00   0.305E-02 -.172E-02 0.123E-01
   0.361E+03 -.298E+03 0.556E+02   -.361E+03 0.301E+03 -.552E+02   0.884E+00 -.295E+01 0.158E+01   0.281E-02 -.254E-02 0.622E-02
   0.766E+03 -.856E+02 -.391E+04   -.767E+03 0.854E+02 0.391E+04   0.102E+01 0.127E+00 0.669E-01   -.789E-02 0.959E-03 -.798E-02
   -.344E+03 -.263E+03 0.183E+04   0.347E+03 0.264E+03 -.183E+04   -.238E+01 -.857E+00 0.483E+01   0.297E-02 -.155E-02 0.794E-03
   0.501E+02 -.470E+02 -.240E+04   -.531E+02 0.473E+02 0.241E+04   0.200E+01 -.832E-02 -.731E+01   0.132E-01 0.696E-02 0.748E-02
   -.705E+02 0.175E+03 0.241E+04   0.713E+02 -.176E+03 -.242E+04   -.341E+00 0.821E+00 0.389E+01   -.817E-02 -.377E-02 0.122E-01
   0.662E+03 -.161E+03 0.414E+02   -.664E+03 0.161E+03 -.387E+02   0.138E+01 -.447E+00 -.271E+01   -.275E-02 -.480E-02 0.645E-02
   -.423E+03 -.131E+03 0.401E+04   0.423E+03 0.132E+03 -.402E+04   -.238E+00 -.669E+00 0.430E+01   -.925E-02 -.134E-02 -.370E-02
   -.293E+03 0.555E+03 0.519E+03   0.293E+03 -.558E+03 -.521E+03   0.154E+00 0.251E+01 0.890E+00   -.890E-02 -.191E-02 -.567E-03
   -.200E+03 0.219E+03 -.381E+04   0.198E+03 -.220E+03 0.381E+04   0.234E+01 0.117E+01 0.137E+01   0.174E-04 0.444E-02 -.644E-03
   0.147E+02 0.399E+03 0.361E+04   -.160E+02 -.400E+03 -.361E+04   0.107E+01 0.333E+00 0.623E+01   0.922E-02 0.498E-02 0.168E-02
   -.242E+03 0.693E+03 -.718E+03   0.244E+03 -.699E+03 0.718E+03   -.315E+01 0.541E+01 -.188E+01   0.234E-01 0.792E-02 0.176E-02
   0.111E+03 0.620E+03 0.190E+04   -.111E+03 -.626E+03 -.190E+04   -.427E+00 0.485E+01 0.270E+01   -.662E-03 0.713E-02 -.873E-03
   0.332E+02 0.620E+03 -.263E+04   -.291E+02 -.625E+03 0.263E+04   -.343E+01 0.336E+01 -.462E+01   -.260E-02 -.420E-02 -.850E-02
   -.120E+03 0.493E+03 0.134E+04   0.118E+03 -.495E+03 -.134E+04   0.702E+00 0.901E+00 0.349E+01   -.332E-02 0.138E-02 -.418E-02
   -.142E+03 0.278E+03 -.340E+04   0.141E+03 -.281E+03 0.340E+04   0.760E+00 0.235E+01 0.131E+01   -.958E-04 -.179E-02 -.913E-02
   0.824E+02 -.504E+03 0.246E+04   -.832E+02 0.505E+03 -.247E+04   0.232E+00 -.361E+00 0.736E+01   -.446E-02 -.607E-02 0.777E-02
   -.477E+03 0.440E+03 -.198E+04   0.480E+03 -.442E+03 0.199E+04   -.265E+01 0.226E+01 -.602E+01   0.406E-02 0.654E-02 0.717E-02
   -.170E+03 0.177E+03 0.994E+03   0.172E+03 -.178E+03 -.994E+03   -.160E+01 0.469E+00 0.139E+01   0.260E-02 -.138E-03 0.720E-02
   -.380E+03 -.628E+03 0.569E+03   0.380E+03 0.631E+03 -.570E+03   0.296E+00 -.290E+01 0.354E+00   -.852E-02 0.742E-03 0.184E-02
   -.219E+03 -.232E+03 -.378E+04   0.217E+03 0.233E+03 0.378E+04   0.268E+01 -.131E+01 0.123E+01   0.189E-02 -.256E-02 0.104E-02
   0.189E+02 -.523E+03 0.350E+04   -.171E+02 0.520E+03 -.350E+04   -.219E+01 0.257E+01 -.538E+00   -.180E-02 -.105E-01 -.846E-03
   -.399E+03 -.425E+03 -.123E+04   0.402E+03 0.430E+03 0.123E+04   -.354E+01 -.388E+01 -.333E+01   0.129E-01 -.102E-01 -.669E-02
   -.101E+03 -.234E+03 0.193E+04   0.103E+03 0.234E+03 -.193E+04   -.161E+01 -.229E+00 0.395E+01   -.332E-02 -.430E-02 -.824E-03
   -.748E+02 -.396E+03 -.302E+04   0.766E+02 0.400E+03 0.302E+04   -.389E+00 -.323E+01 -.502E+01   -.407E-02 0.205E-02 -.950E-02
   -.132E+03 -.509E+03 0.131E+04   0.130E+03 0.511E+03 -.132E+04   0.160E+01 -.157E+01 0.413E+01   -.134E-02 -.163E-02 -.278E-02
   -.110E+03 -.298E+03 -.340E+04   0.110E+03 0.301E+03 0.339E+04   0.100E+01 -.235E+01 0.823E+00   -.166E-02 0.251E-02 -.813E-02
   0.401E+03 0.625E+03 0.229E+04   -.403E+03 -.628E+03 -.230E+04   0.221E+01 0.133E+01 0.618E+01   0.331E-02 0.120E-01 0.193E-01
   -.496E+03 -.350E+03 -.187E+04   0.500E+03 0.352E+03 0.187E+04   -.250E+01 -.251E+01 -.494E+01   0.212E-02 0.117E-01 0.236E-02
   0.598E+03 -.131E+03 -.104E+04   -.603E+03 0.133E+03 0.104E+04   0.316E+01 -.133E+01 -.791E+00   0.715E-03 -.394E-03 -.223E-02
   0.142E+03 -.200E+03 0.614E+03   -.141E+03 0.201E+03 -.615E+03   -.870E+00 -.413E+00 -.179E+00   -.318E-02 -.239E-02 0.455E-02
   -.307E+03 -.505E+02 0.142E+04   0.309E+03 0.502E+02 -.142E+04   -.611E+00 0.149E+00 0.199E+01   -.659E-02 -.765E-03 -.232E-02
   -.251E+03 -.225E+02 -.809E+03   0.251E+03 0.224E+02 0.814E+03   0.124E+01 0.910E-01 -.412E+01   -.197E-02 0.926E-03 0.375E-02
   -.155E+03 0.214E+03 0.983E+03   0.156E+03 -.216E+03 -.987E+03   0.114E+00 0.154E+01 0.292E+01   0.280E-02 0.514E-03 0.440E-02
   -.167E+03 -.544E+02 -.159E+04   0.169E+03 0.554E+02 0.159E+04   -.178E+01 -.507E+00 -.220E+01   0.929E-02 -.379E-02 -.655E-02
   0.631E+02 -.156E+02 0.177E+04   -.633E+02 0.159E+02 -.178E+04   0.282E+00 -.241E+00 0.176E+01   0.270E-03 0.273E-05 0.399E-02
   -.134E+03 -.394E+01 -.343E+03   0.134E+03 0.416E+01 0.346E+03   0.683E+00 -.637E+00 -.247E+01   0.146E-02 -.137E-02 -.670E-02
   0.222E+02 0.434E+02 -.178E+04   -.217E+02 -.435E+02 0.179E+04   0.255E+00 -.569E-01 -.110E+01   -.312E-02 -.170E-02 0.124E-02
   -.307E+02 -.979E+01 0.166E+04   0.300E+02 0.974E+01 -.167E+04   0.992E+00 0.122E+00 0.176E+01   -.165E-02 -.499E-03 0.348E-02
   -.162E+03 -.114E+02 -.527E+03   0.163E+03 0.119E+02 0.532E+03   0.459E+00 -.361E+00 -.415E+01   -.651E-04 0.326E-03 -.598E-02
   0.139E+02 -.774E+02 0.660E+03   -.128E+02 0.785E+02 -.664E+03   -.141E+01 -.105E+01 0.327E+01   0.154E-02 0.499E-02 0.510E-02
   -.771E+02 -.158E+02 -.134E+04   0.784E+02 0.157E+02 0.134E+04   -.455E+00 -.178E-01 -.349E+01   -.213E-02 0.256E-02 -.291E-02
   -.450E+02 -.453E+02 0.161E+04   0.458E+02 0.455E+02 -.162E+04   -.918E+00 0.271E+00 0.327E+01   -.245E-03 -.411E-02 0.116E-02
   -.217E+03 0.109E+03 -.701E+03   0.219E+03 -.110E+03 0.706E+03   -.191E+01 0.611E+00 -.275E+01   -.371E-02 -.809E-02 0.385E-02
   0.492E+01 -.300E+03 0.871E+03   -.702E+01 0.302E+03 -.874E+03   0.195E+01 -.124E+01 0.128E+01   -.858E-03 -.128E-02 -.119E-02
   0.179E+03 -.186E+02 -.102E+04   -.180E+03 0.194E+02 0.102E+04   0.325E+00 -.509E+00 -.467E+00   0.209E-02 -.367E-02 -.278E-02
   0.132E+03 -.257E+03 0.636E+03   -.134E+03 0.261E+03 -.637E+03   0.141E+01 -.196E+01 0.177E+00   0.218E-02 -.125E-02 -.163E-02
   -.148E+03 0.256E+02 -.133E+04   0.148E+03 -.251E+02 0.133E+04   0.471E+00 -.498E+00 -.298E+01   0.109E-02 -.331E-03 -.127E-02
   0.377E+03 -.283E+03 -.759E+03   -.381E+03 0.285E+03 0.761E+03   0.267E+01 -.171E+01 -.270E+01   -.485E-02 0.533E-03 -.465E-02
   0.212E+03 0.835E+02 0.134E+04   -.213E+03 -.843E+02 -.135E+04   0.148E+00 0.344E+00 0.512E+01   0.709E-03 -.148E-02 0.449E-02
   -.275E+02 -.155E+03 0.108E+04   0.277E+02 0.157E+03 -.108E+04   -.177E+00 -.509E+00 0.213E+01   0.293E-02 0.299E-02 0.376E-02
   0.171E+03 -.219E+03 -.831E+03   -.172E+03 0.222E+03 0.832E+03   0.184E+00 -.742E+00 -.748E+00   -.250E-02 -.209E-02 -.384E-02
   0.112E+03 -.716E+01 0.366E+03   -.114E+03 0.928E+01 -.369E+03   0.449E+00 -.194E+01 0.211E+01   0.721E-02 0.627E-02 0.393E-02
   -.613E+02 -.249E+03 -.159E+04   0.606E+02 0.252E+03 0.159E+04   -.256E-02 -.207E+01 -.105E+01   0.385E-02 0.267E-02 -.408E-02
   -.471E+02 0.341E+03 0.942E+03   0.470E+02 -.345E+03 -.946E+03   -.556E+00 0.190E+01 0.273E+01   -.145E-02 0.218E-02 -.775E-03
   0.194E+03 0.168E+02 -.104E+04   -.196E+03 -.173E+02 0.104E+04   0.449E+00 0.270E+00 -.946E+00   0.965E-03 0.320E-02 -.354E-02
   0.177E+03 0.102E+03 0.175E+04   -.178E+03 -.102E+03 -.175E+04   0.862E-01 -.145E-01 0.134E+01   -.523E-03 0.553E-03 0.576E-02
   -.344E+03 -.486E+02 -.685E+03   0.348E+03 0.496E+02 0.691E+03   -.339E+01 -.140E+01 -.393E+01   -.847E-02 0.205E-02 0.215E-02
   0.250E+03 0.442E+03 -.503E+03   -.251E+03 -.446E+03 0.506E+03   0.592E+00 0.222E+01 -.225E+01   -.682E-03 0.203E-02 -.184E-02
   0.141E+03 0.623E+02 0.150E+04   -.142E+03 -.630E+02 -.151E+04   0.145E+01 0.364E+00 0.376E+01   0.290E-02 0.330E-02 0.330E-02
   -.486E+02 0.339E+03 0.700E+03   0.479E+02 -.343E+03 -.703E+03   -.789E+00 0.238E+01 0.272E+01   0.144E-02 0.212E-02 0.356E-03
   -.150E+03 -.122E+02 -.130E+04   0.150E+03 0.117E+02 0.130E+04   0.977E+00 0.615E+00 -.243E+01   0.217E-02 -.669E-03 -.108E-02
   -.286E+02 -.872E+02 0.132E+03   0.269E+02 0.853E+02 -.132E+03   0.347E+00 0.167E+01 -.197E+00   0.550E-03 -.459E-02 0.708E-03
   -.817E+02 0.263E+03 -.161E+04   0.809E+02 -.267E+03 0.162E+04   0.482E+00 0.242E+01 -.565E+00   0.231E-02 0.993E-03 -.183E-02
   -.199E+03 0.154E+03 0.119E+04   0.202E+03 -.155E+03 -.119E+04   -.113E+01 0.449E+00 0.397E+01   0.224E-02 -.324E-02 0.450E-02
   0.132E+03 0.208E+03 -.837E+03   -.132E+03 -.211E+03 0.837E+03   0.521E+00 0.116E+01 -.614E+00   -.270E-02 0.378E-02 -.541E-02
 -----------------------------------------------------------------------------------------------
   -.149E+02 -.618E+00 -.201E+02   -.171E-12 -.369E-12 -.512E-11   0.149E+02 0.538E+00 0.200E+02   0.392E-02 -.864E-02 0.334E-01
 
 
 POSITION                                       TOTAL-FORCE (eV/Angst)
 -----------------------------------------------------------------------------------
     13.17084      1.39171      2.05636        -0.443719      0.661189     -0.417723
     12.35955      0.91597      4.14932         0.844088      0.354293      0.392508
      3.61279      5.96043      1.64756         0.735620      0.099141     -0.398784
      5.02033      6.18092      3.59863        -0.753454     -0.226061      0.508237
      6.55545      1.27069      2.16385         0.656059      0.043264     -0.139356
      7.93172      1.39171      4.11272        -0.696762      0.036142     -0.867416
     16.08224      6.18092      2.57045        -0.481067      1.292975      0.732823
     16.41791      6.02479      5.06635        -1.384951     -0.557037      0.155200
      1.08048      1.49169      0.95931        -0.212197      0.338164     -1.336897
      2.10894      1.39171      3.08454         1.651549      0.492385      1.991948
      2.26789      1.39007      5.61906         0.152236     -0.047761      1.488971
      9.61857      6.10988      2.67553         0.861256      0.164239     -0.113219
     10.84312      6.18092      4.62682        -0.944700      0.309674     -1.027499
     14.99335      9.46186      1.66232         0.480349      0.054309      0.137614
      0.23450      9.48362      2.79192        -0.576620     -0.259785     -0.014378
      5.97180      6.29863      1.18534        -0.094940      0.627946     -1.274114
      7.17375      4.91558      3.19116         0.059172     -0.362603     -0.427684
      7.59011      4.75883      5.67250         0.450330      0.013508      0.943324
      8.93753      1.38811      1.55645        -0.186288     -0.138769     -1.723821
     10.08514      0.12638      3.70525        -0.433574     -1.051513     -0.972270
      1.35096      4.91558      2.16298         0.100064     -0.500645      0.623902
      1.67734      4.76611      4.67558         0.636332     -1.511876     -0.017794
      4.26235      0.12638      2.67707        -0.751575     -0.555431      0.854218
      4.83595      9.56894      5.29393         0.136839     -0.046494      0.644612
     12.84407      4.12940      1.97662        -0.572583      1.358606     -0.416479
     12.99653      4.91558      4.21934         0.662266      0.106926     -1.350588
     15.21529      3.53030      2.32821         0.381675     -0.569981      0.966326
      7.17375      7.44626      3.19116        -0.082768      0.539726     -0.662713
      7.59784      7.61022      5.66869         0.461298     -0.117649      0.854112
     10.39685      3.38405      1.49625        -0.373432      0.376688     -0.961875
     10.08514      2.65705      3.70525        -0.477578      0.524618      0.465408
      1.35096      7.44626      2.16298         0.875408     -0.333696      1.350081
      1.86340      7.46949      4.92295         1.392285      1.497024      0.317366
      4.26235      2.65705      2.67707         0.034319      0.646157      0.914414
      4.83178      2.79018      5.29396         0.242272      0.093858      0.698283
     12.77397      8.48725      2.09194         0.156384     -1.607885     -0.260241
     12.99653      7.44626      4.21934         1.362862     -0.069962     -1.813808
      0.57057      1.15617      4.47464        -2.765410      1.186516      1.940823
     16.16194      1.62232      1.92182        -0.028949      0.556976     -0.907980
      7.92362      6.20734      1.62337         1.275078     -0.140437     -3.115603
      8.59001      6.18092      4.59828         1.131083     -0.010193      0.662947
     10.91773      1.39171      2.02783         1.480101      0.026288     -1.120335
     10.75070      1.40205      5.23093         0.859747      0.502459      3.403017
      1.88412      6.18677      0.60682         0.073786      0.096948     -3.567577
      2.76722      6.18092      3.57010         0.905354     -0.417793      0.321884
      1.21977      6.02109      6.22373         0.734855     -0.122106      4.394654
      4.80104      1.38735      1.15050         0.380118      0.068541     -3.849178
      5.67861      1.39171      4.08419         1.430566      0.084532      0.445636
     13.82913      6.18092      2.54192        -0.338883      0.068345     -0.934396
     14.34798      6.17584      5.21352         0.830976     -0.115506      2.660395
     13.93148      2.90014      0.79100        -0.027565      0.523545     -3.686815
     13.51585      2.87881      3.58252         0.672607     -0.645516      2.721839
      4.83205      7.73245      2.09707        -0.149562      1.164525     -1.133809
      5.76458      7.76633      4.80650        -0.798332      0.376080      1.629517
      8.17565      3.00295      2.54670        -0.938319      1.474601     -1.053958
      8.58995      3.04249      5.22814         0.373806     -0.056692      2.349991
      0.02514      7.79215      4.08897        -1.523856      1.106307     -0.134044
     16.36532      7.94384      1.37325        -0.973420     -0.450310     -2.588517
      2.31056      3.00829      1.71951        -0.050038      0.959066     -1.874185
      2.93654      3.00295      4.60306        -0.618279      2.036014      0.045618
     11.08705      7.79215      3.06079        -1.850903      0.189777     -0.790403
     11.71257      7.63263      5.76452        -0.735427      1.360390      3.782352
      5.26426      4.56969      2.03261        -0.671101     -1.871812     -0.894636
      5.75018      4.60360      4.82619        -0.903266     -0.166967      1.723752
     13.32623      0.02658      0.48811        -0.736607     -0.725639     -3.401421
     13.99844      9.35889      3.57488         0.892008     -0.359995      1.770143
     16.70259      4.44494      3.70307        -0.368280     -1.779943      0.775856
     16.39487      4.74035      1.11059        -0.095759     -0.420612     -3.197667
      8.17565      9.35889      2.54670        -1.467731     -1.662844     -0.480109
      8.60438      9.31995      5.21874         0.388108      0.124741      2.581785
     11.08705      4.56969      3.06079        -1.320394     -0.274223     -0.292272
     11.77387      4.83951      5.82394        -0.356887     -1.239527      3.902130
      2.12442      9.40702      1.67606         1.289469     -0.905608     -2.040190
      2.93654      9.35889      4.60306         0.134854     -2.213610      0.108070
 -----------------------------------------------------------------------------------
    total drift:                               -0.000958     -0.088496     -0.043431


--------------------------------------------------------------------------------------------------------



  FREE ENERGIE OF THE ION-ELECTRON SYSTEM (eV)
  ---------------------------------------------------
  free  energy   TOTEN  =      -350.92128303 eV

  energy  without entropy=     -349.73206159  energy(sigma->0) =     -350.32667231
 


--------------------------------------------------------------------------------------------------------


    POTLOK:  cpu time    0.3727: real time    0.3727


--------------------------------------------------------------------------------------------------------


     LOOP+:  cpu time  425.5344: real time  425.6169
    4ORBIT:  cpu time    0.0000: real time    0.0000

 total amount of memory used by VASP MPI-rank0    80247. kBytes
=======================================================================

   base      :      30000. kBytes
   nonlr-proj:       2207. kBytes
   fftplans  :      10634. kBytes
   grid      :      17961. kBytes
   one-center:        101. kBytes
   wavefun   :      19344. kBytes
 
  
  
 General timing and accounting informations for this job:
 ========================================================
  
                  Total CPU time used (sec):      428.972
                            User time (sec):      428.610
                          System time (sec):        0.362
                         Elapsed time (sec):      429.294
  
                   Maximum memory used (kb):      223276.
                   Average memory used (kb):           0.
  
                          Minor page faults:       125820
                          Major page faults:            0
                 Voluntary context switches:          189
