<?xml version="1.0" encoding="ISO-8859-1"?>
<modeling>
 <generator>
  <i name="program" type="string">vasp </i>
  <i name="version" type="string">5.4.4.18Apr17-6-g9f103f2a35  </i>
  <i name="subversion" type="string">(build Aug 13 2019 17:33:20) gamma-only         parallel </i>
  <i name="platform" type="string">LinuxIFC </i>
  <i name="date" type="string">2020 05 12 </i>
  <i name="time" type="string">00:02:30 </i>
 </generator>
 <incar>
  <i type="string" name="SYSTEM">"Millerite NiS"</i>
  <i type="string" name="PREC">normal</i>
  <i type="int" name="NSIM">     4</i>
  <i type="int" name="NELM">   100</i>
  <i name="ENCUT">    450.00000000</i>
  <i type="string" name="LREAL">A</i>
  <i type="int" name="ISMEAR">     0</i>
  <i type="int" name="NWRITE">     2</i>
  <i type="logical" name="LWAVE"> F  </i>
  <i type="logical" name="LCHARG"> F  </i>
  <v type="int" name="KPOINT_BSE">    -1     0     0     0</v>
  <i type="int" name="NELM">   100</i>
 </incar>
 <structure name="primitive_cell" >
  <crystal>
   <varray name="basis" >
    <v>      16.88469405       0.00000000       0.00000000 </v>
    <v>       0.00000000       9.57841000       0.00000000 </v>
    <v>       0.00000000       0.00000000      16.65464569 </v>
   </varray>
   <i name="volume">   2693.53123734 </i>
   <varray name="rec_basis" >
    <v>       0.05922524       0.00000000       0.00000000 </v>
    <v>       0.00000000       0.10440146       0.00000000 </v>
    <v>       0.00000000       0.00000000       0.06004331 </v>
   </varray>
  </crystal>
  <varray name="positions" >
   <v>      -0.21995370       0.14529696       0.12347080 </v>
   <v>      -0.21075068       0.00277545       0.02930751 </v>
   <v>      -0.17490472       0.30277849       0.04749454 </v>
   <v>      -0.19952059       0.30055182       0.21510621 </v>
   <v>      -0.35339478       0.14529696       0.12175764 </v>
   <v>      -0.26800283       0.09562885       0.24913911 </v>
   <v>      -0.17093895      -0.02291804       0.21464750 </v>
   <v>      -0.11201515      -0.01216814       0.09981118 </v>
   <v>      -0.24345879      -0.11391869       0.12560690 </v>
   <v>      -0.23930683       0.43111540       0.11868296 </v>
   <v>      -0.09887109       0.36856860       0.13979323 </v>
   <v>      -0.04280509       0.16937208       0.11539213 </v>
   <v>      -0.38424385       0.35329974       0.08983964 </v>
   <v>      -0.40270525       0.01319396       0.22247530 </v>
   <v>      -0.40270525       0.27739996       0.22247530 </v>
   <v>      -0.34336694       0.47708196       0.18377980 </v>
   <v>      -0.34336694      -0.18648804       0.18377980 </v>
   <v>      -0.36328701       0.14637629       0.31408250 </v>
   <v>      -0.23027726      -0.48680604       0.25334300 </v>
   <v>      -0.23027726      -0.22260004       0.25334300 </v>
   <v>      -0.47067295       0.14492092       0.09345419 </v>
   <v>       0.01388846      -0.00989657       0.16763586 </v>
   <v>      -0.03075996      -0.17065150       0.08245451 </v>
   <v>      -0.02900976       0.49489987       0.06668331 </v>
   <v>      -0.18096679      -0.35470304       0.15262534 </v>
   <v>       0.06399190       0.15573500       0.05760026 </v>
   <v>       0.03379237       0.12070595       0.26867199 </v>
   <v>      -0.01078537       0.46405825       0.22234460 </v>
   <v>      -0.30632003      -0.20314218       0.34612100 </v>
   <v>       0.48420507       0.31351196       0.15291210 </v>
   <v>       0.48420507      -0.02291804       0.15291210 </v>
   <v>      -0.30268965      -0.49474834       0.34968881 </v>
   <v>       0.00148905      -0.18648804       0.24551520 </v>
   <v>      -0.04752570      -0.35470304       0.15433850 </v>
   <v>       0.46975828       0.14529696       0.24694159 </v>
   <v>      -0.49040361      -0.02698369       0.31335059 </v>
   <v>      -0.49125835       0.31764048       0.31391497 </v>
   <v>      -0.15023755      -0.35523284       0.31303674 </v>
   <v>      -0.35781373      -0.35470304       0.27780929 </v>
   <v>       0.12490229       0.14529696       0.18520619 </v>
   <v>      -0.43033764      -0.36211957       0.16064791 </v>
   <v>       0.12581922      -0.01789334       0.10063632 </v>
   <v>       0.08001077      -0.48680604       0.12987220 </v>
   <v>       0.08001077      -0.22260004       0.12987220 </v>
   <v>       0.13684361       0.31406997       0.10324494 </v>
   <v>      -0.02764560      -0.37100312       0.30420061 </v>
   <v>       0.38824808       0.13266169       0.12992446 </v>
   <v>       0.09934087       0.49758933       0.28073731 </v>
   <v>       0.13431607       0.14512577       0.33738700 </v>
   <v>       0.42486675      -0.48680604       0.19160760 </v>
   <v>       0.42486675      -0.22260004       0.19160760 </v>
   <v>      -0.49125482      -0.35470304       0.27609614 </v>
   <v>       0.46927820      -0.35194486       0.09747251 </v>
   <v>       0.11036048      -0.22017475       0.29559001 </v>
   <v>       0.17391704       0.31351196       0.27638290 </v>
   <v>       0.17391704      -0.02291804       0.27638290 </v>
   <v>       0.44998396      -0.20548141       0.34036691 </v>
   <v>       0.44952594       0.49682857       0.34059547 </v>
   <v>       0.11158763      -0.35409247       0.03643557 </v>
   <v>       0.33631719       0.14529696       0.24522844 </v>
   <v>       0.07224128      -0.37138990       0.37369322 </v>
   <v>       0.25243876       0.01319396       0.16073990 </v>
   <v>       0.25243876       0.27739996       0.16073990 </v>
   <v>       0.16388920      -0.35470304       0.21436074 </v>
   <v>       0.28434297       0.14484151       0.06908008 </v>
   <v>       0.31177707       0.47708196       0.12204440 </v>
   <v>       0.34140856      -0.18918431       0.28859809 </v>
   <v>       0.34055601       0.48062264       0.28978068 </v>
   <v>       0.35368117      -0.34241402       0.07117175 </v>
   <v>       0.21396841      -0.37772289       0.09892506 </v>
   <v>       0.28617911      -0.19272057       0.12591479 </v>
   <v>       0.28641021      -0.00098875       0.31786498 </v>
   <v>       0.28616346       0.29129846       0.31786705 </v>
   <v>       0.29733028      -0.35470304       0.21607389 </v>
  </varray>
 </structure>
 <varray name="primitive_index" >
  <v type="int" >        1 </v>
  <v type="int" >       65 </v>
  <v type="int" >       51 </v>
  <v type="int" >       52 </v>
  <v type="int" >       42 </v>
  <v type="int" >        2 </v>
  <v type="int" >       66 </v>
  <v type="int" >       14 </v>
  <v type="int" >       36 </v>
  <v type="int" >       25 </v>
  <v type="int" >       27 </v>
  <v type="int" >       39 </v>
  <v type="int" >       30 </v>
  <v type="int" >       20 </v>
  <v type="int" >       31 </v>
  <v type="int" >       71 </v>
  <v type="int" >       61 </v>
  <v type="int" >       43 </v>
  <v type="int" >       26 </v>
  <v type="int" >       37 </v>
  <v type="int" >       19 </v>
  <v type="int" >       15 </v>
  <v type="int" >       58 </v>
  <v type="int" >       68 </v>
  <v type="int" >       49 </v>
  <v type="int" >        9 </v>
  <v type="int" >       38 </v>
  <v type="int" >       67 </v>
  <v type="int" >       62 </v>
  <v type="int" >       55 </v>
  <v type="int" >       69 </v>
  <v type="int" >       72 </v>
  <v type="int" >       57 </v>
  <v type="int" >        7 </v>
  <v type="int" >        6 </v>
  <v type="int" >       70 </v>
  <v type="int" >       56 </v>
  <v type="int" >       50 </v>
  <v type="int" >       13 </v>
  <v type="int" >       10 </v>
  <v type="int" >       12 </v>
  <v type="int" >       73 </v>
  <v type="int" >       21 </v>
  <v type="int" >       32 </v>
  <v type="int" >       59 </v>
  <v type="int" >        8 </v>
  <v type="int" >        5 </v>
  <v type="int" >       22 </v>
  <v type="int" >       11 </v>
  <v type="int" >       17 </v>
  <v type="int" >       28 </v>
  <v type="int" >       41 </v>
  <v type="int" >       40 </v>
  <v type="int" >       33 </v>
  <v type="int" >       60 </v>
  <v type="int" >       74 </v>
  <v type="int" >       29 </v>
  <v type="int" >       18 </v>
  <v type="int" >       44 </v>
  <v type="int" >       48 </v>
  <v type="int" >       46 </v>
  <v type="int" >       23 </v>
  <v type="int" >       34 </v>
  <v type="int" >       45 </v>
  <v type="int" >       47 </v>
  <v type="int" >       63 </v>
  <v type="int" >       54 </v>
  <v type="int" >       64 </v>
  <v type="int" >       16 </v>
  <v type="int" >        3 </v>
  <v type="int" >       53 </v>
  <v type="int" >       24 </v>
  <v type="int" >       35 </v>
  <v type="int" >        4 </v>
 </varray>
 <kpoints>
  <generation param="Gamma">
   <v type="int" name="divisions">       1        1        1 </v>
   <v name="usershift">      0.00000000       0.00000000       0.00000000 </v>
   <v name="genvec1">      1.00000000       0.00000000       0.00000000 </v>
   <v name="genvec2">      0.00000000       1.00000000       0.00000000 </v>
   <v name="genvec3">      0.00000000       0.00000000       1.00000000 </v>
   <v name="shift">      0.00000000       0.00000000       0.00000000 </v>
  </generation>
  <varray name="kpointlist" >
   <v>       0.00000000       0.00000000       0.00000000 </v>
  </varray>
  <varray name="weights" >
   <v>       1.00000000 </v>
  </varray>
 </kpoints>
 <parameters>
  <separator name="general" >
   <i type="string" name="SYSTEM">"Millerite NiS"</i>
   <i type="logical" name="LCOMPAT"> F  </i>
  </separator>
  <separator name="electronic" >
   <i type="string" name="PREC">normal</i>
   <i name="ENMAX">    450.00000000</i>
   <i name="ENAUG">    703.44300000</i>
   <i name="EDIFF">      0.00010000</i>
   <i type="int" name="IALGO">    38</i>
   <i type="int" name="IWAVPR">    10</i>
   <i type="int" name="NBANDS">   488</i>
   <i name="NELECT">    814.00000000</i>
   <i type="int" name="TURBO">     0</i>
   <i type="int" name="IRESTART">     0</i>
   <i type="int" name="NREBOOT">     0</i>
   <i type="int" name="NMIN">     0</i>
   <i name="EREF">      0.00000000</i>
   <separator name="electronic smearing" >
    <i type="int" name="ISMEAR">     0</i>
    <i name="SIGMA">      0.20000000</i>
    <i name="KSPACING">      0.50000000</i>
    <i type="logical" name="KGAMMA"> T  </i>
   </separator>
   <separator name="electronic projectors" >
    <i type="logical" name="LREAL"> T  </i>
    <v name="ROPT">     -0.00050000     -0.00050000</v>
    <i type="int" name="LMAXPAW">  -100</i>
    <i type="int" name="LMAXMIX">     2</i>
    <i type="logical" name="NLSPLINE"> F  </i>
   </separator>
   <separator name="electronic startup" >
    <i type="int" name="ISTART">     0</i>
    <i type="int" name="ICHARG">     2</i>
    <i type="int" name="INIWAV">     1</i>
   </separator>
   <separator name="electronic spin" >
    <i type="int" name="ISPIN">     1</i>
    <i type="logical" name="LNONCOLLINEAR"> F  </i>
    <v name="MAGMOM">      1.00000000      1.00000000      1.00000000      1.00000000      1.00000000      1.00000000      1.00000000      1.00000000      1.00000000      1.00000000      1.00000000      1.00000000      1.00000000      1.00000000      1.00000000      1.00000000      1.00000000      1.00000000      1.00000000      1.00000000
      1.00000000      1.00000000      1.00000000      1.00000000      1.00000000      1.00000000      1.00000000      1.00000000      1.00000000      1.00000000      1.00000000      1.00000000      1.00000000      1.00000000      1.00000000      1.00000000      1.00000000      1.00000000      1.00000000      1.00000000
      1.00000000      1.00000000      1.00000000      1.00000000      1.00000000      1.00000000      1.00000000      1.00000000      1.00000000      1.00000000      1.00000000      1.00000000      1.00000000      1.00000000      1.00000000      1.00000000      1.00000000      1.00000000      1.00000000      1.00000000
      1.00000000      1.00000000      1.00000000      1.00000000      1.00000000      1.00000000      1.00000000      1.00000000      1.00000000      1.00000000      1.00000000      1.00000000      1.00000000      1.00000000</v>
    <i name="NUPDOWN">     -1.00000000</i>
    <i type="logical" name="LSORBIT"> F  </i>
    <v name="SAXIS">      0.00000000      0.00000000      1.00000000</v>
    <i type="logical" name="LSPIRAL"> F  </i>
    <v name="QSPIRAL">      0.00000000      0.00000000      0.00000000</v>
    <i type="logical" name="LZEROZ"> F  </i>
   </separator>
   <separator name="electronic exchange-correlation" >
    <i type="logical" name="LASPH"> F  </i>
    <i type="logical" name="LMETAGGA"> F  </i>
   </separator>
   <separator name="electronic convergence" >
    <i type="int" name="NELM">   100</i>
    <i type="int" name="NELMDL">    -5</i>
    <i type="int" name="NELMIN">     2</i>
    <i name="ENINI">    450.00000000</i>
    <separator name="electronic convergence detail" >
     <i type="logical" name="LDIAG"> T  </i>
     <i type="logical" name="LSUBROT"> F  </i>
     <i name="WEIMIN">      0.00000000</i>
     <i name="EBREAK">      0.00000005</i>
     <i name="DEPER">      0.30000000</i>
     <i type="int" name="NRMM">     4</i>
     <i name="TIME">      0.40000000</i>
    </separator>
   </separator>
   <separator name="electronic mixer" >
    <i name="AMIX">      0.40000000</i>
    <i name="BMIX">      1.00000000</i>
    <i name="AMIN">      0.10000000</i>
    <i name="AMIX_MAG">      1.60000000</i>
    <i name="BMIX_MAG">      1.00000000</i>
    <separator name="electronic mixer details" >
     <i type="int" name="IMIX">     4</i>
     <i type="logical" name="MIXFIRST"> F  </i>
     <i type="int" name="MAXMIX">   -45</i>
     <i name="WC">    100.00000000</i>
     <i type="int" name="INIMIX">     1</i>
     <i type="int" name="MIXPRE">     1</i>
     <i type="int" name="MREMOVE">     5</i>
    </separator>
   </separator>
   <separator name="electronic dipolcorrection" >
    <i type="logical" name="LDIPOL"> F  </i>
    <i type="logical" name="LMONO"> F  </i>
    <i type="int" name="IDIPOL">     0</i>
    <i name="EPSILON">      1.00000000</i>
    <v name="DIPOL">   -100.00000000   -100.00000000   -100.00000000</v>
    <i name="EFIELD">      0.00000000</i>
   </separator>
  </separator>
  <separator name="grids" >
   <i type="int" name="NGX">    90</i>
   <i type="int" name="NGY">    50</i>
   <i type="int" name="NGZ">    90</i>
   <i type="int" name="NGXF">   180</i>
   <i type="int" name="NGYF">   100</i>
   <i type="int" name="NGZF">   180</i>
   <i type="logical" name="ADDGRID"> F  </i>
  </separator>
  <separator name="ionic" >
   <i type="int" name="NSW">     0</i>
   <i type="int" name="IBRION">    -1</i>
   <i type="int" name="MDALGO">     0</i>
   <i type="int" name="ISIF">     2</i>
   <i name="PSTRESS">      0.00000000</i>
   <i name="EDIFFG">      0.00100000</i>
   <i type="int" name="NFREE">     0</i>
   <i name="POTIM">      0.50000000</i>
   <i name="SMASS">     -3.00000000</i>
   <i name="SCALEE">      1.00000000</i>
  </separator>
  <separator name="ionic md" >
   <i name="TEBEG">      0.00010000</i>
   <i name="TEEND">      0.00010000</i>
   <i type="int" name="NBLOCK">     1</i>
   <i type="int" name="KBLOCK">     1</i>
   <i type="int" name="NPACO">   256</i>
   <i name="APACO">     16.00000000</i>
  </separator>
  <separator name="symmetry" >
   <i type="int" name="ISYM">     2</i>
   <i name="SYMPREC">      0.00001000</i>
  </separator>
  <separator name="dos" >
   <i type="int" name="LORBIT">     0</i>
   <v name="RWIGS">     -1.00000000     -1.00000000</v>
   <i type="int" name="NEDOS">   301</i>
   <i name="EMIN">     10.00000000</i>
   <i name="EMAX">    -10.00000000</i>
   <i name="EFERMI">      0.00000000</i>
  </separator>
  <separator name="writing" >
   <i type="int" name="NWRITE">     2</i>
   <i type="logical" name="LWAVE"> F  </i>
   <i type="logical" name="LDOWNSAMPLE"> F  </i>
   <i type="logical" name="LCHARG"> F  </i>
   <i type="logical" name="LPARD"> F  </i>
   <i type="logical" name="LVTOT"> F  </i>
   <i type="logical" name="LVHAR"> F  </i>
   <i type="logical" name="LELF"> F  </i>
   <i type="logical" name="LOPTICS"> F  </i>
   <v name="STM">      0.00000000      0.00000000      0.00000000      0.00000000      0.00000000      0.00000000      0.00000000</v>
  </separator>
  <separator name="performance" >
   <i type="int" name="NPAR">     2</i>
   <i type="int" name="NSIM">     4</i>
   <i type="int" name="NBLK">    -1</i>
   <i type="logical" name="LPLANE"> T  </i>
   <i type="logical" name="LSCALAPACK"> T  </i>
   <i type="logical" name="LSCAAWARE"> F  </i>
   <i type="logical" name="LSCALU"> F  </i>
   <i type="logical" name="LASYNC"> F  </i>
   <i type="logical" name="LORBITALREAL"> F  </i>
  </separator>
  <separator name="miscellaneous" >
   <i type="int" name="IDIOT">     3</i>
   <i type="int" name="ISPECIAL">     0</i>
   <i type="logical" name="LMUSIC"> F  </i>
   <v name="POMASS">     58.69000000     32.06600000</v>
   <v name="DARWINR">      0.00000000      0.00000000</v>
   <v name="DARWINV">      1.00000000      1.00000000</v>
   <i type="logical" name="LCORR"> T  </i>
  </separator>
  <i type="logical" name="GGA_COMPAT"> T  </i>
  <i type="logical" name="LBERRY"> F  </i>
  <i type="int" name="ICORELEVEL">     0</i>
  <i type="logical" name="LDAU"> F  </i>
  <i type="int" name="I_CONSTRAINED_M">     0</i>
  <separator name="electronic exchange-correlation" >
   <i type="string" name="GGA">--</i>
   <i type="int" name="VOSKOWN">     0</i>
   <i type="logical" name="LHFCALC"> F  </i>
   <i type="string" name="PRECFOCK"></i>
   <i type="logical" name="LSYMGRAD"> F  </i>
   <i type="logical" name="LHFONE"> F  </i>
   <i type="logical" name="LRHFCALC"> F  </i>
   <i type="logical" name="LTHOMAS"> F  </i>
   <i type="logical" name="LMODELHF"> F  </i>
   <i name="ENCUT4O">     -1.00000000</i>
   <i type="int" name="EXXOEP">     0</i>
   <i type="int" name="FOURORBIT">     0</i>
   <i name="AEXX">      0.00000000</i>
   <i name="HFALPHA">      0.00000000</i>
   <i name="MCALPHA">      0.00000000</i>
   <i name="ALDAX">      1.00000000</i>
   <i name="AGGAX">      1.00000000</i>
   <i name="ALDAC">      1.00000000</i>
   <i name="AGGAC">      1.00000000</i>
   <i type="int" name="NKREDX">     1</i>
   <i type="int" name="NKREDY">     1</i>
   <i type="int" name="NKREDZ">     1</i>
   <i type="logical" name="SHIFTRED"> F  </i>
   <i type="logical" name="ODDONLY"> F  </i>
   <i type="logical" name="EVENONLY"> F  </i>
   <i type="int" name="LMAXFOCK">     0</i>
   <i type="int" name="NMAXFOCKAE">     0</i>
   <i type="logical" name="LFOCKAEDFT"> F  </i>
   <i name="HFSCREEN">      0.00000000</i>
   <i name="HFSCREENC">      0.00000000</i>
   <i type="int" name="NBANDSGWLOW">     0</i>
  </separator>
  <separator name="vdW DFT" >
   <i type="logical" name="LUSE_VDW"> F  </i>
   <i name="Zab_VDW">     -0.84910000</i>
   <i name="PARAM1">      0.12340000</i>
   <i name="PARAM2">      1.00000000</i>
   <i name="PARAM3">      0.00000000</i>
  </separator>
  <separator name="model GW" >
   <i type="int" name="MODEL_GW">     0</i>
   <i name="MODEL_EPS0">     21.83944246</i>
   <i name="MODEL_ALPHA">      1.00000000</i>
  </separator>
  <separator name="linear response parameters" >
   <i type="logical" name="LEPSILON"> F  </i>
   <i type="logical" name="LRPA"> F  </i>
   <i type="logical" name="LNABLA"> F  </i>
   <i type="logical" name="LVEL"> F  </i>
   <i type="int" name="KINTER">     0</i>
   <i name="CSHIFT">      0.10000000</i>
   <i name="OMEGAMAX">     -1.00000000</i>
   <i name="DEG_THRESHOLD">      0.00200000</i>
   <i name="RTIME">     -0.10000000</i>
   <i name="WPLASMAI">      0.00000000</i>
   <v name="DFIELD">      0.00000000      0.00000000      0.00000000</v>
   <v name="WPLASMA">      0.00000000      0.00000000      0.00000000      0.00000000      0.00000000      0.00000000      0.00000000      0.00000000      0.00000000</v>
  </separator>
  <separator name="orbital magnetization" >
   <i type="logical" name="NUCIND"> F  </i>
   <v name="MAGPOS">      0.00000000      0.00000000      0.00000000</v>
   <i type="logical" name="LNICSALL"> T  </i>
   <i type="logical" name="ORBITALMAG"> F  </i>
   <i type="logical" name="LMAGBLOCH"> F  </i>
   <i type="logical" name="LCHIMAG"> F  </i>
   <i type="logical" name="LGAUGE"> T  </i>
   <i type="int" name="MAGATOM">     0</i>
   <v name="MAGDIPOL">      0.00000000      0.00000000      0.00000000</v>
   <v name="AVECCONST">      0.00000000      0.00000000      0.00000000</v>
  </separator>
  <separator name="response functions" >
   <i type="logical" name="LADDER"> F  </i>
   <i type="logical" name="LRPAFORCE"> F  </i>
   <i type="logical" name="LFXC"> F  </i>
   <i type="logical" name="LHARTREE"> T  </i>
   <i type="int" name="IBSE">     0</i>
   <v type="int" name="KPOINT">    -1     0     0     0</v>
   <i type="logical" name="LTCTE"> F  </i>
   <i type="logical" name="LTETE"> F  </i>
   <i type="logical" name="LTRIPLET"> F  </i>
   <i type="logical" name="LFXCEPS"> F  </i>
   <i type="logical" name="LFXHEG"> F  </i>
   <i type="int" name="NATURALO">     2</i>
   <i type="logical" name="L2ORDER"> F  </i>
   <i type="logical" name="LMP2LT"> F  </i>
   <i type="logical" name="LUSEW"> F  </i>
   <i name="ENCUTGW">     -2.00000000</i>
   <i name="ENCUTGWSOFT">     -2.00000000</i>
   <i name="ENCUTLF">     -1.00000000</i>
   <i type="int" name="LMAXMP2">    -1</i>
   <i name="SCISSOR">      0.00000000</i>
   <i type="int" name="NOMEGA">     0</i>
   <i type="int" name="NOMEGAR">     0</i>
   <i type="int" name="NBANDSGW">    -1</i>
   <i type="int" name="NBANDSO">    -1</i>
   <i type="int" name="NBANDSV">    -1</i>
   <i type="int" name="NELM">   100</i>
   <i type="int" name="NELMHF">     1</i>
   <i type="int" name="DIM">     3</i>
   <i type="int" name="ANTIRES">     0</i>
   <i name="OMEGAMAX">    -30.00000000</i>
   <i name="OMEGAMIN">    -30.00000000</i>
   <i name="OMEGATL">   -200.00000000</i>
   <i type="int" name="OMEGAGRID">   140</i>
   <i name="CSHIFT">     -0.10000000</i>
   <i type="logical" name="SELFENERGY"> F  </i>
   <i type="logical" name="LSPECTRAL"> F  </i>
   <i type="logical" name="LSPECTRALGW"> F  </i>
   <i type="logical" name="LSINGLES"> F  </i>
   <i type="logical" name="LFERMIGW"> F  </i>
   <i type="logical" name="ODDONLYGW"> F  </i>
   <i type="logical" name="EVENONLYGW"> F  </i>
   <i type="int" name="NKREDLFX">     1</i>
   <i type="int" name="NKREDLFY">     1</i>
   <i type="int" name="NKREDLFZ">     1</i>
   <i type="int" name="MAXMEM">  2800</i>
   <i type="int" name="TELESCOPE">     0</i>
   <i type="int" name="TAUPAR">     1</i>
   <i type="int" name="OMEGAPAR">    -1</i>
   <i name="LAMBDA">      1.00000000</i>
  </separator>
  <separator name="External order field" >
   <i name="OFIELD_KAPPA">      0.00000000</i>
   <v name="OFIELD_K">      0.00000000      0.00000000      0.00000000</v>
   <i name="OFIELD_Q6_NEAR">      0.00000000</i>
   <i name="OFIELD_Q6_FAR">      0.00000000</i>
   <i name="OFIELD_A">      0.00000000</i>
  </separator>
 </parameters>
 <atominfo>
  <atoms>      74 </atoms>
  <types>       2 </types>
  <array name="atoms" >
   <dimension dim="1">ion</dimension>
   <field type="string">element</field>
   <field type="int">atomtype</field>
   <set>
    <rc><c>Ni</c><c>   1</c></rc>
    <rc><c>Ni</c><c>   1</c></rc>
    <rc><c>Ni</c><c>   1</c></rc>
    <rc><c>Ni</c><c>   1</c></rc>
    <rc><c>Ni</c><c>   1</c></rc>
    <rc><c>Ni</c><c>   1</c></rc>
    <rc><c>Ni</c><c>   1</c></rc>
    <rc><c>Ni</c><c>   1</c></rc>
    <rc><c>Ni</c><c>   1</c></rc>
    <rc><c>Ni</c><c>   1</c></rc>
    <rc><c>Ni</c><c>   1</c></rc>
    <rc><c>Ni</c><c>   1</c></rc>
    <rc><c>Ni</c><c>   1</c></rc>
    <rc><c>Ni</c><c>   1</c></rc>
    <rc><c>Ni</c><c>   1</c></rc>
    <rc><c>Ni</c><c>   1</c></rc>
    <rc><c>Ni</c><c>   1</c></rc>
    <rc><c>Ni</c><c>   1</c></rc>
    <rc><c>Ni</c><c>   1</c></rc>
    <rc><c>Ni</c><c>   1</c></rc>
    <rc><c>Ni</c><c>   1</c></rc>
    <rc><c>Ni</c><c>   1</c></rc>
    <rc><c>Ni</c><c>   1</c></rc>
    <rc><c>Ni</c><c>   1</c></rc>
    <rc><c>Ni</c><c>   1</c></rc>
    <rc><c>Ni</c><c>   1</c></rc>
    <rc><c>Ni</c><c>   1</c></rc>
    <rc><c>Ni</c><c>   1</c></rc>
    <rc><c>Ni</c><c>   1</c></rc>
    <rc><c>Ni</c><c>   1</c></rc>
    <rc><c>Ni</c><c>   1</c></rc>
    <rc><c>Ni</c><c>   1</c></rc>
    <rc><c>Ni</c><c>   1</c></rc>
    <rc><c>Ni</c><c>   1</c></rc>
    <rc><c>Ni</c><c>   1</c></rc>
    <rc><c>Ni</c><c>   1</c></rc>
    <rc><c>Ni</c><c>   1</c></rc>
    <rc><c>S </c><c>   2</c></rc>
    <rc><c>S </c><c>   2</c></rc>
    <rc><c>S </c><c>   2</c></rc>
    <rc><c>S </c><c>   2</c></rc>
    <rc><c>S </c><c>   2</c></rc>
    <rc><c>S </c><c>   2</c></rc>
    <rc><c>S </c><c>   2</c></rc>
    <rc><c>S </c><c>   2</c></rc>
    <rc><c>S </c><c>   2</c></rc>
    <rc><c>S </c><c>   2</c></rc>
    <rc><c>S </c><c>   2</c></rc>
    <rc><c>S </c><c>   2</c></rc>
    <rc><c>S </c><c>   2</c></rc>
    <rc><c>S </c><c>   2</c></rc>
    <rc><c>S </c><c>   2</c></rc>
    <rc><c>S </c><c>   2</c></rc>
    <rc><c>S </c><c>   2</c></rc>
    <rc><c>S </c><c>   2</c></rc>
    <rc><c>S </c><c>   2</c></rc>
    <rc><c>S </c><c>   2</c></rc>
    <rc><c>S </c><c>   2</c></rc>
    <rc><c>S </c><c>   2</c></rc>
    <rc><c>S </c><c>   2</c></rc>
    <rc><c>S </c><c>   2</c></rc>
    <rc><c>S </c><c>   2</c></rc>
    <rc><c>S </c><c>   2</c></rc>
    <rc><c>S </c><c>   2</c></rc>
    <rc><c>S </c><c>   2</c></rc>
    <rc><c>S </c><c>   2</c></rc>
    <rc><c>S </c><c>   2</c></rc>
    <rc><c>S </c><c>   2</c></rc>
    <rc><c>S </c><c>   2</c></rc>
    <rc><c>S </c><c>   2</c></rc>
    <rc><c>S </c><c>   2</c></rc>
    <rc><c>S </c><c>   2</c></rc>
    <rc><c>S </c><c>   2</c></rc>
    <rc><c>S </c><c>   2</c></rc>
   </set>
  </array>
  <array name="atomtypes" >
   <dimension dim="1">type</dimension>
   <field type="int">atomspertype</field>
   <field type="string">element</field>
   <field>mass</field>
   <field>valence</field>
   <field type="string">pseudopotential</field>
   <set>
    <rc><c>  37</c><c>Ni</c><c>     58.69000000</c><c>     16.00000000</c><c>  PAW_PBE Ni_pv 06Sep2000               </c></rc>
    <rc><c>  37</c><c>S </c><c>     32.06600000</c><c>      6.00000000</c><c>  PAW_PBE S 06Sep2000                   </c></rc>
   </set>
  </array>
 </atominfo>
 <structure name="initialpos" >
  <crystal>
   <varray name="basis" >
    <v>      16.88469405       0.00000000       0.00000000 </v>
    <v>       0.00000000       9.57841000       0.00000000 </v>
    <v>       0.00000000       0.00000000      16.65464569 </v>
   </varray>
   <i name="volume">   2693.53123734 </i>
   <varray name="rec_basis" >
    <v>       0.05922524       0.00000000       0.00000000 </v>
    <v>       0.00000000       0.10440146       0.00000000 </v>
    <v>       0.00000000       0.00000000       0.06004331 </v>
   </varray>
  </crystal>
  <varray name="positions" >
   <v>       0.78004630       0.14529696       0.12347080 </v>
   <v>       0.73199717       0.09562885       0.24913911 </v>
   <v>       0.21396841       0.62227711       0.09892506 </v>
   <v>       0.29733028       0.64529696       0.21607389 </v>
   <v>       0.38824808       0.13266169       0.12992446 </v>
   <v>       0.46975828       0.14529696       0.24694159 </v>
   <v>       0.95247430       0.64529696       0.15433850 </v>
   <v>       0.97235440       0.62899688       0.30420061 </v>
   <v>       0.06399190       0.15573500       0.05760026 </v>
   <v>       0.12490229       0.14529696       0.18520619 </v>
   <v>       0.13431607       0.14512577       0.33738700 </v>
   <v>       0.56966236       0.63788043       0.16064791 </v>
   <v>       0.64218627       0.64529696       0.27780929 </v>
   <v>       0.88798485       0.98783186       0.09981118 </v>
   <v>       0.01388846       0.99010343       0.16763586 </v>
   <v>       0.35368117       0.65758598       0.07117175 </v>
   <v>       0.42486675       0.51319396       0.19160760 </v>
   <v>       0.44952594       0.49682857       0.34059547 </v>
   <v>       0.52932705       0.14492092       0.09345419 </v>
   <v>       0.59729475       0.01319396       0.22247530 </v>
   <v>       0.08001077       0.51319396       0.12987220 </v>
   <v>       0.09934087       0.49758933       0.28073731 </v>
   <v>       0.25243876       0.01319396       0.16073990 </v>
   <v>       0.28641021       0.99901125       0.31786498 </v>
   <v>       0.76069317       0.43111540       0.11868296 </v>
   <v>       0.76972274       0.51319396       0.25334300 </v>
   <v>       0.90112891       0.36856860       0.13979323 </v>
   <v>       0.42486675       0.77739996       0.19160760 </v>
   <v>       0.44998396       0.79451859       0.34036691 </v>
   <v>       0.61575615       0.35329974       0.08983964 </v>
   <v>       0.59729475       0.27739996       0.22247530 </v>
   <v>       0.08001077       0.77739996       0.12987220 </v>
   <v>       0.11036048       0.77982525       0.29559001 </v>
   <v>       0.25243876       0.27739996       0.16073990 </v>
   <v>       0.28616346       0.29129846       0.31786705 </v>
   <v>       0.75654121       0.88608131       0.12560690 </v>
   <v>       0.76972274       0.77739996       0.25334300 </v>
   <v>       0.03379237       0.12070595       0.26867199 </v>
   <v>       0.95719491       0.16937208       0.11539213 </v>
   <v>       0.46927820       0.64805514       0.09747251 </v>
   <v>       0.50874518       0.64529696       0.27609614 </v>
   <v>       0.64660522       0.14529696       0.12175764 </v>
   <v>       0.63671299       0.14637629       0.31408250 </v>
   <v>       0.11158763       0.64590753       0.03643557 </v>
   <v>       0.16388920       0.64529696       0.21436074 </v>
   <v>       0.07224128       0.62861010       0.37369322 </v>
   <v>       0.28434297       0.14484151       0.06908008 </v>
   <v>       0.33631719       0.14529696       0.24522844 </v>
   <v>       0.81903321       0.64529696       0.15262534 </v>
   <v>       0.84976245       0.64476716       0.31303674 </v>
   <v>       0.82509528       0.30277849       0.04749454 </v>
   <v>       0.80047941       0.30055182       0.21510621 </v>
   <v>       0.28617911       0.80727943       0.12591479 </v>
   <v>       0.34140856       0.81081569       0.28859809 </v>
   <v>       0.48420507       0.31351196       0.15291210 </v>
   <v>       0.50874165       0.31764048       0.31391497 </v>
   <v>       0.00148905       0.81351196       0.24551520 </v>
   <v>       0.96924004       0.82934850       0.08245451 </v>
   <v>       0.13684361       0.31406997       0.10324494 </v>
   <v>       0.17391704       0.31351196       0.27638290 </v>
   <v>       0.65663306       0.81351196       0.18377980 </v>
   <v>       0.69367997       0.79685782       0.34612100 </v>
   <v>       0.31177707       0.47708196       0.12204440 </v>
   <v>       0.34055601       0.48062264       0.28978068 </v>
   <v>       0.78924932       0.00277545       0.02930751 </v>
   <v>       0.82906105       0.97708196       0.21464750 </v>
   <v>       0.98921463       0.46405825       0.22234460 </v>
   <v>       0.97099024       0.49489987       0.06668331 </v>
   <v>       0.48420507       0.97708196       0.15291210 </v>
   <v>       0.50959639       0.97301631       0.31335059 </v>
   <v>       0.65663306       0.47708196       0.18377980 </v>
   <v>       0.69731035       0.50525166       0.34968881 </v>
   <v>       0.12581922       0.98210666       0.10063632 </v>
   <v>       0.17391704       0.97708196       0.27638290 </v>
  </varray>
 </structure>
 <calculation>
  <scstep>
   <time name="dav">    9.45    9.45</time>
   <time name="total">    9.83    9.83</time>
   <energy>
    <i name="alphaZ">   1458.83996183 </i>
    <i name="ewald"> 171597.94348466 </i>
    <i name="hartreedc">-295184.37736290 </i>
    <i name="XCdc">   3787.08469180 </i>
    <i name="pawpsdc"> 115860.90926010 </i>
    <i name="pawaedc">-120909.33166199 </i>
    <i name="eentropy">     -0.41257971 </i>
    <i name="bandstr">  -7239.09413079 </i>
    <i name="atom"> 139780.45519414 </i>
    <i name="e_fr_energy">   9152.01685715 </i>
    <i name="e_wo_entrp">   9152.42943685 </i>
    <i name="e_0_energy">   9152.22314700 </i>
   </energy>
  </scstep>
  <scstep>
   <time name="dav">    8.53    8.53</time>
   <time name="total">    8.53    8.54</time>
   <energy>
    <i name="e_fr_energy">    498.48743152 </i>
    <i name="e_wo_entrp">    499.23176416 </i>
    <i name="e_0_energy">    498.85959784 </i>
   </energy>
  </scstep>
  <scstep>
   <time name="dav">    8.76    8.76</time>
   <time name="total">    8.76    8.77</time>
   <energy>
    <i name="e_fr_energy">   -355.45958257 </i>
    <i name="e_wo_entrp">   -354.20343432 </i>
    <i name="e_0_energy">   -354.83150845 </i>
   </energy>
  </scstep>
  <scstep>
   <time name="dav">    8.81    8.81</time>
   <time name="total">    8.81    8.81</time>
   <energy>
    <i name="e_fr_energy">   -399.97247769 </i>
    <i name="e_wo_entrp">   -398.69511983 </i>
    <i name="e_0_energy">   -399.33379876 </i>
   </energy>
  </scstep>
  <scstep>
   <time name="dav">    9.86    9.86</time>
   <time name="total">   10.18   10.18</time>
   <energy>
    <i name="e_fr_energy">   -401.89729321 </i>
    <i name="e_wo_entrp">   -400.63214934 </i>
    <i name="e_0_energy">   -401.26472128 </i>
   </energy>
  </scstep>
  <scstep>
   <time name="dav">    9.59    9.59</time>
   <time name="total">   10.26   10.26</time>
   <energy>
    <i name="e_fr_energy">   -466.62329379 </i>
    <i name="e_wo_entrp">   -465.84622466 </i>
    <i name="e_0_energy">   -466.23475922 </i>
   </energy>
  </scstep>
  <scstep>
   <time name="dav">    8.66    8.66</time>
   <time name="total">    9.34    9.34</time>
   <energy>
    <i name="e_fr_energy">   -366.70673745 </i>
    <i name="e_wo_entrp">   -365.73379486 </i>
    <i name="e_0_energy">   -366.22026616 </i>
   </energy>
  </scstep>
  <scstep>
   <time name="dav">   10.15   10.15</time>
   <time name="total">   10.85   10.86</time>
   <energy>
    <i name="e_fr_energy">   -435.06901869 </i>
    <i name="e_wo_entrp">   -434.14822901 </i>
    <i name="e_0_energy">   -434.60862385 </i>
   </energy>
  </scstep>
  <scstep>
   <time name="dav">    9.88    9.88</time>
   <time name="total">   10.57   10.57</time>
   <energy>
    <i name="e_fr_energy">   -379.47018931 </i>
    <i name="e_wo_entrp">   -378.34830187 </i>
    <i name="e_0_energy">   -378.90924559 </i>
   </energy>
  </scstep>
  <scstep>
   <time name="dav">   10.66   10.66</time>
   <time name="total">   11.34   11.34</time>
   <energy>
    <i name="e_fr_energy">   -380.45625075 </i>
    <i name="e_wo_entrp">   -379.21572630 </i>
    <i name="e_0_energy">   -379.83598853 </i>
   </energy>
  </scstep>
  <scstep>
   <time name="dav">   10.19   10.19</time>
   <time name="total">   10.91   10.92</time>
   <energy>
    <i name="e_fr_energy">   -376.52956945 </i>
    <i name="e_wo_entrp">   -375.54093675 </i>
    <i name="e_0_energy">   -376.03525310 </i>
   </energy>
  </scstep>
  <scstep>
   <time name="dav">   10.35   10.35</time>
   <time name="total">   11.09   11.09</time>
   <energy>
    <i name="e_fr_energy">   -358.52822177 </i>
    <i name="e_wo_entrp">   -357.46107482 </i>
    <i name="e_0_energy">   -357.99464829 </i>
   </energy>
  </scstep>
  <scstep>
   <time name="dav">   10.19   10.19</time>
   <time name="total">   10.98   10.99</time>
   <energy>
    <i name="e_fr_energy">   -359.91144070 </i>
    <i name="e_wo_entrp">   -358.86938760 </i>
    <i name="e_0_energy">   -359.39041415 </i>
   </energy>
  </scstep>
  <scstep>
   <time name="dav">   10.10   10.10</time>
   <time name="total">   10.91   10.91</time>
   <energy>
    <i name="e_fr_energy">   -353.53516939 </i>
    <i name="e_wo_entrp">   -352.37741053 </i>
    <i name="e_0_energy">   -352.95628996 </i>
   </energy>
  </scstep>
  <scstep>
   <time name="dav">   10.06   10.06</time>
   <time name="total">   10.88   10.88</time>
   <energy>
    <i name="e_fr_energy">   -352.30017047 </i>
    <i name="e_wo_entrp">   -351.14812851 </i>
    <i name="e_0_energy">   -351.72414949 </i>
   </energy>
  </scstep>
  <scstep>
   <time name="dav">    9.59    9.59</time>
   <time name="total">   10.39   10.39</time>
   <energy>
    <i name="e_fr_energy">   -351.89670833 </i>
    <i name="e_wo_entrp">   -350.73278906 </i>
    <i name="e_0_energy">   -351.31474869 </i>
   </energy>
  </scstep>
  <scstep>
   <time name="dav">    9.73    9.74</time>
   <time name="total">   10.41   10.41</time>
   <energy>
    <i name="e_fr_energy">   -351.74282388 </i>
    <i name="e_wo_entrp">   -350.57540525 </i>
    <i name="e_0_energy">   -351.15911457 </i>
   </energy>
  </scstep>
  <scstep>
   <time name="dav">   10.25   10.25</time>
   <time name="total">   10.93   10.93</time>
   <energy>
    <i name="e_fr_energy">   -351.49647896 </i>
    <i name="e_wo_entrp">   -350.30507861 </i>
    <i name="e_0_energy">   -350.90077879 </i>
   </energy>
  </scstep>
  <scstep>
   <time name="dav">    9.98    9.98</time>
   <time name="total">   10.66   10.66</time>
   <energy>
    <i name="e_fr_energy">   -351.21901606 </i>
    <i name="e_wo_entrp">   -350.03753428 </i>
    <i name="e_0_energy">   -350.62827517 </i>
   </energy>
  </scstep>
  <scstep>
   <time name="dav">   10.17   10.17</time>
   <time name="total">   10.87   10.87</time>
   <energy>
    <i name="e_fr_energy">   -351.07319549 </i>
    <i name="e_wo_entrp">   -349.88878696 </i>
    <i name="e_0_energy">   -350.48099122 </i>
   </energy>
  </scstep>
  <scstep>
   <time name="dav">   10.15   10.16</time>
   <time name="total">   10.86   10.86</time>
   <energy>
    <i name="e_fr_energy">   -350.97611684 </i>
    <i name="e_wo_entrp">   -349.78269041 </i>
    <i name="e_0_energy">   -350.37940363 </i>
   </energy>
  </scstep>
  <scstep>
   <time name="dav">    9.41    9.42</time>
   <time name="total">   10.11   10.11</time>
   <energy>
    <i name="e_fr_energy">   -350.94149719 </i>
    <i name="e_wo_entrp">   -349.74438694 </i>
    <i name="e_0_energy">   -350.34294206 </i>
   </energy>
  </scstep>
  <scstep>
   <time name="dav">    8.83    8.83</time>
   <time name="total">    9.53    9.53</time>
   <energy>
    <i name="e_fr_energy">   -350.93635136 </i>
    <i name="e_wo_entrp">   -349.74194920 </i>
    <i name="e_0_energy">   -350.33915028 </i>
   </energy>
  </scstep>
  <scstep>
   <time name="dav">    9.12    9.12</time>
   <time name="total">    9.89    9.89</time>
   <energy>
    <i name="e_fr_energy">   -350.93425046 </i>
    <i name="e_wo_entrp">   -349.73924256 </i>
    <i name="e_0_energy">   -350.33674651 </i>
   </energy>
  </scstep>
  <scstep>
   <time name="dav">    9.95    9.95</time>
   <time name="total">   10.80   10.80</time>
   <energy>
    <i name="e_fr_energy">   -350.92873395 </i>
    <i name="e_wo_entrp">   -349.73468529 </i>
    <i name="e_0_energy">   -350.33170962 </i>
   </energy>
  </scstep>
  <scstep>
   <time name="dav">    9.52    9.53</time>
   <time name="total">   10.42   10.42</time>
   <energy>
    <i name="e_fr_energy">   -350.93129923 </i>
    <i name="e_wo_entrp">   -349.74575702 </i>
    <i name="e_0_energy">   -350.33852812 </i>
   </energy>
  </scstep>
  <scstep>
   <time name="dav">   10.23   10.23</time>
   <time name="total">   11.19   11.19</time>
   <energy>
    <i name="e_fr_energy">   -350.91901375 </i>
    <i name="e_wo_entrp">   -349.72898599 </i>
    <i name="e_0_energy">   -350.32399987 </i>
   </energy>
  </scstep>
  <scstep>
   <time name="dav">    9.33    9.33</time>
   <time name="total">   10.04   10.04</time>
   <energy>
    <i name="e_fr_energy">   -350.91829106 </i>
    <i name="e_wo_entrp">   -349.72983843 </i>
    <i name="e_0_energy">   -350.32406474 </i>
   </energy>
  </scstep>
  <scstep>
   <time name="dav">    9.54    9.54</time>
   <time name="total">   10.36   10.36</time>
   <energy>
    <i name="e_fr_energy">   -350.91754037 </i>
    <i name="e_wo_entrp">   -349.72941443 </i>
    <i name="e_0_energy">   -350.32347740 </i>
   </energy>
  </scstep>
  <scstep>
   <time name="dav">    9.37    9.37</time>
   <time name="total">   10.07   10.07</time>
   <energy>
    <i name="e_fr_energy">   -350.91731976 </i>
    <i name="e_wo_entrp">   -349.72878656 </i>
    <i name="e_0_energy">   -350.32305316 </i>
   </energy>
  </scstep>
  <scstep>
   <time name="dav">   10.17   10.17</time>
   <time name="total">   10.87   10.88</time>
   <energy>
    <i name="e_fr_energy">   -350.91731145 </i>
    <i name="e_wo_entrp">   -349.72857467 </i>
    <i name="e_0_energy">   -350.32294306 </i>
   </energy>
  </scstep>
  <scstep>
   <time name="dav">    8.67    8.67</time>
   <time name="total">    9.37    9.37</time>
   <energy>
    <i name="e_fr_energy">   -350.91744569 </i>
    <i name="e_wo_entrp">   -349.72799300 </i>
    <i name="e_0_energy">   -350.32271934 </i>
   </energy>
  </scstep>
  <scstep>
   <time name="dav">    7.69    7.69</time>
   <time name="total">    8.40    8.40</time>
   <energy>
    <i name="e_fr_energy">   -350.91772501 </i>
    <i name="e_wo_entrp">   -349.72856730 </i>
    <i name="e_0_energy">   -350.32314615 </i>
   </energy>
  </scstep>
  <scstep>
   <time name="dav">    6.52    6.52</time>
   <time name="total">    7.30    7.30</time>
   <energy>
    <i name="e_fr_energy">   -350.91792135 </i>
    <i name="e_wo_entrp">   -349.72874856 </i>
    <i name="e_0_energy">   -350.32333495 </i>
   </energy>
  </scstep>
  <scstep>
   <time name="dav">    5.66    5.66</time>
   <time name="total">    6.37    6.38</time>
   <energy>
    <i name="e_fr_energy">   -350.91829186 </i>
    <i name="e_wo_entrp">   -349.72901961 </i>
    <i name="e_0_energy">   -350.32365574 </i>
   </energy>
  </scstep>
  <scstep>
   <time name="dav">    5.69    5.69</time>
   <time name="total">    6.41    6.41</time>
   <energy>
    <i name="e_fr_energy">   -350.91858718 </i>
    <i name="e_wo_entrp">   -349.72939536 </i>
    <i name="e_0_energy">   -350.32399127 </i>
   </energy>
  </scstep>
  <scstep>
   <time name="dav">    6.63    6.63</time>
   <time name="total">    7.35    7.35</time>
   <energy>
    <i name="e_fr_energy">   -350.91965364 </i>
    <i name="e_wo_entrp">   -349.73043685 </i>
    <i name="e_0_energy">   -350.32504525 </i>
   </energy>
  </scstep>
  <scstep>
   <time name="dav">    5.68    5.68</time>
   <time name="total">    6.52    6.52</time>
   <energy>
    <i name="e_fr_energy">   -350.91998559 </i>
    <i name="e_wo_entrp">   -349.73068232 </i>
    <i name="e_0_energy">   -350.32533396 </i>
   </energy>
  </scstep>
  <scstep>
   <time name="dav">    5.64    5.64</time>
   <time name="total">    6.37    6.37</time>
   <energy>
    <i name="e_fr_energy">   -350.92037560 </i>
    <i name="e_wo_entrp">   -349.73116533 </i>
    <i name="e_0_energy">   -350.32577046 </i>
   </energy>
  </scstep>
  <scstep>
   <time name="dav">    5.74    5.74</time>
   <time name="total">    6.48    6.48</time>
   <energy>
    <i name="e_fr_energy">   -350.92058656 </i>
    <i name="e_wo_entrp">   -349.73135521 </i>
    <i name="e_0_energy">   -350.32597088 </i>
   </energy>
  </scstep>
  <scstep>
   <time name="dav">    5.65    5.66</time>
   <time name="total">    6.40    6.40</time>
   <energy>
    <i name="e_fr_energy">   -350.92080753 </i>
    <i name="e_wo_entrp">   -349.73159312 </i>
    <i name="e_0_energy">   -350.32620033 </i>
   </energy>
  </scstep>
  <scstep>
   <time name="dav">    5.71    5.71</time>
   <time name="total">    6.45    6.45</time>
   <energy>
    <i name="e_fr_energy">   -350.92097954 </i>
    <i name="e_wo_entrp">   -349.73184334 </i>
    <i name="e_0_energy">   -350.32641144 </i>
   </energy>
  </scstep>
  <scstep>
   <time name="dav">    5.69    5.69</time>
   <time name="total">    6.71    6.71</time>
   <energy>
    <i name="e_fr_energy">   -350.92111163 </i>
    <i name="e_wo_entrp">   -349.73189349 </i>
    <i name="e_0_energy">   -350.32650256 </i>
   </energy>
  </scstep>
  <scstep>
   <time name="dav">    5.70    5.70</time>
   <time name="total">    6.47    6.47</time>
   <energy>
    <i name="e_fr_energy">   -350.92123671 </i>
    <i name="e_wo_entrp">   -349.73202508 </i>
    <i name="e_0_energy">   -350.32663089 </i>
   </energy>
  </scstep>
  <scstep>
   <time name="dav">    5.63    5.63</time>
   <time name="total">    6.00    6.00</time>
   <energy>
    <i name="alphaZ">   1458.83996183 </i>
    <i name="ewald"> 171597.94348466 </i>
    <i name="hartreedc">-294587.67572443 </i>
    <i name="XCdc">   3757.32982930 </i>
    <i name="pawpsdc"> 145252.22129730 </i>
    <i name="pawaedc">-150384.51727888 </i>
    <i name="eentropy">     -1.18922144 </i>
    <i name="bandstr"> -17224.32882552 </i>
    <i name="atom"> 139780.45519414 </i>
    <i name="e_fr_energy">   -350.92128303 </i>
    <i name="e_wo_entrp">   -349.73206159 </i>
    <i name="e_0_energy">   -350.32667231 </i>
   </energy>
  </scstep>
  <structure>
   <crystal>
    <varray name="basis" >
     <v>      16.88469405       0.00000000       0.00000000 </v>
     <v>       0.00000000       9.57841000       0.00000000 </v>
     <v>       0.00000000       0.00000000      16.65464569 </v>
    </varray>
    <i name="volume">   2693.53123734 </i>
    <varray name="rec_basis" >
     <v>       0.05922524       0.00000000       0.00000000 </v>
     <v>       0.00000000       0.10440146       0.00000000 </v>
     <v>       0.00000000       0.00000000       0.06004331 </v>
    </varray>
   </crystal>
   <varray name="positions" >
    <v>       0.78004630       0.14529696       0.12347080 </v>
    <v>       0.73199717       0.09562885       0.24913911 </v>
    <v>       0.21396841       0.62227711       0.09892506 </v>
    <v>       0.29733028       0.64529696       0.21607389 </v>
    <v>       0.38824808       0.13266169       0.12992446 </v>
    <v>       0.46975828       0.14529696       0.24694159 </v>
    <v>       0.95247430       0.64529696       0.15433850 </v>
    <v>       0.97235440       0.62899688       0.30420061 </v>
    <v>       0.06399190       0.15573500       0.05760026 </v>
    <v>       0.12490229       0.14529696       0.18520619 </v>
    <v>       0.13431607       0.14512577       0.33738700 </v>
    <v>       0.56966236       0.63788043       0.16064791 </v>
    <v>       0.64218627       0.64529696       0.27780929 </v>
    <v>       0.88798485       0.98783186       0.09981118 </v>
    <v>       0.01388846       0.99010343       0.16763586 </v>
    <v>       0.35368117       0.65758598       0.07117175 </v>
    <v>       0.42486675       0.51319396       0.19160760 </v>
    <v>       0.44952594       0.49682857       0.34059547 </v>
    <v>       0.52932705       0.14492092       0.09345419 </v>
    <v>       0.59729475       0.01319396       0.22247530 </v>
    <v>       0.08001077       0.51319396       0.12987220 </v>
    <v>       0.09934087       0.49758933       0.28073731 </v>
    <v>       0.25243876       0.01319396       0.16073990 </v>
    <v>       0.28641021       0.99901125       0.31786498 </v>
    <v>       0.76069317       0.43111540       0.11868296 </v>
    <v>       0.76972274       0.51319396       0.25334300 </v>
    <v>       0.90112891       0.36856860       0.13979323 </v>
    <v>       0.42486675       0.77739996       0.19160760 </v>
    <v>       0.44998396       0.79451859       0.34036691 </v>
    <v>       0.61575615       0.35329974       0.08983964 </v>
    <v>       0.59729475       0.27739996       0.22247530 </v>
    <v>       0.08001077       0.77739996       0.12987220 </v>
    <v>       0.11036048       0.77982525       0.29559001 </v>
    <v>       0.25243876       0.27739996       0.16073990 </v>
    <v>       0.28616346       0.29129846       0.31786705 </v>
    <v>       0.75654121       0.88608131       0.12560690 </v>
    <v>       0.76972274       0.77739996       0.25334300 </v>
    <v>       0.03379237       0.12070595       0.26867199 </v>
    <v>       0.95719491       0.16937208       0.11539213 </v>
    <v>       0.46927820       0.64805514       0.09747251 </v>
    <v>       0.50874518       0.64529696       0.27609614 </v>
    <v>       0.64660522       0.14529696       0.12175764 </v>
    <v>       0.63671299       0.14637629       0.31408250 </v>
    <v>       0.11158763       0.64590753       0.03643557 </v>
    <v>       0.16388920       0.64529696       0.21436074 </v>
    <v>       0.07224128       0.62861010       0.37369322 </v>
    <v>       0.28434297       0.14484151       0.06908008 </v>
    <v>       0.33631719       0.14529696       0.24522844 </v>
    <v>       0.81903321       0.64529696       0.15262534 </v>
    <v>       0.84976245       0.64476716       0.31303674 </v>
    <v>       0.82509528       0.30277849       0.04749454 </v>
    <v>       0.80047941       0.30055182       0.21510621 </v>
    <v>       0.28617911       0.80727943       0.12591479 </v>
    <v>       0.34140856       0.81081569       0.28859809 </v>
    <v>       0.48420507       0.31351196       0.15291210 </v>
    <v>       0.50874165       0.31764048       0.31391497 </v>
    <v>       0.00148905       0.81351196       0.24551520 </v>
    <v>       0.96924004       0.82934850       0.08245451 </v>
    <v>       0.13684361       0.31406997       0.10324494 </v>
    <v>       0.17391704       0.31351196       0.27638290 </v>
    <v>       0.65663306       0.81351196       0.18377980 </v>
    <v>       0.69367997       0.79685782       0.34612100 </v>
    <v>       0.31177707       0.47708196       0.12204440 </v>
    <v>       0.34055601       0.48062264       0.28978068 </v>
    <v>       0.78924932       0.00277545       0.02930751 </v>
    <v>       0.82906105       0.97708196       0.21464750 </v>
    <v>       0.98921463       0.46405825       0.22234460 </v>
    <v>       0.97099024       0.49489987       0.06668331 </v>
    <v>       0.48420507       0.97708196       0.15291210 </v>
    <v>       0.50959639       0.97301631       0.31335059 </v>
    <v>       0.65663306       0.47708196       0.18377980 </v>
    <v>       0.69731035       0.50525166       0.34968881 </v>
    <v>       0.12581922       0.98210666       0.10063632 </v>
    <v>       0.17391704       0.97708196       0.27638290 </v>
   </varray>
  </structure>
  <varray name="forces" >
   <v>      -0.44371885       0.66118931      -0.41772330 </v>
   <v>       0.84408783       0.35429315       0.39250824 </v>
   <v>       0.73561952       0.09914067      -0.39878425 </v>
   <v>      -0.75345414      -0.22606131       0.50823748 </v>
   <v>       0.65605889       0.04326439      -0.13935591 </v>
   <v>      -0.69676220       0.03614180      -0.86741609 </v>
   <v>      -0.48106726       1.29297499       0.73282331 </v>
   <v>      -1.38495133      -0.55703737       0.15519956 </v>
   <v>      -0.21219748       0.33816401      -1.33689733 </v>
   <v>       1.65154896       0.49238550       1.99194780 </v>
   <v>       0.15223605      -0.04776066       1.48897064 </v>
   <v>       0.86125607       0.16423864      -0.11321910 </v>
   <v>      -0.94470026       0.30967425      -1.02749878 </v>
   <v>       0.48034858       0.05430859       0.13761405 </v>
   <v>      -0.57662028      -0.25978455      -0.01437798 </v>
   <v>      -0.09494022       0.62794625      -1.27411424 </v>
   <v>       0.05917191      -0.36260255      -0.42768392 </v>
   <v>       0.45033006       0.01350800       0.94332372 </v>
   <v>      -0.18628762      -0.13876896      -1.72382139 </v>
   <v>      -0.43357419      -1.05151323      -0.97226953 </v>
   <v>       0.10006410      -0.50064510       0.62390223 </v>
   <v>       0.63633218      -1.51187601      -0.01779424 </v>
   <v>      -0.75157488      -0.55543133       0.85421835 </v>
   <v>       0.13683868      -0.04649402       0.64461154 </v>
   <v>      -0.57258308       1.35860604      -0.41647904 </v>
   <v>       0.66226555       0.10692559      -1.35058777 </v>
   <v>       0.38167542      -0.56998116       0.96632572 </v>
   <v>      -0.08276758       0.53972576      -0.66271255 </v>
   <v>       0.46129759      -0.11764905       0.85411198 </v>
   <v>      -0.37343239       0.37668837      -0.96187471 </v>
   <v>      -0.47757796       0.52461772       0.46540787 </v>
   <v>       0.87540842      -0.33369628       1.35008077 </v>
   <v>       1.39228462       1.49702367       0.31736558 </v>
   <v>       0.03431929       0.64615651       0.91441411 </v>
   <v>       0.24227205       0.09385823       0.69828270 </v>
   <v>       0.15638358      -1.60788476      -0.26024082 </v>
   <v>       1.36286227      -0.06996246      -1.81380817 </v>
   <v>      -2.76540993       1.18651586       1.94082313 </v>
   <v>      -0.02894922       0.55697644      -0.90797986 </v>
   <v>       1.27507817      -0.14043684      -3.11560305 </v>
   <v>       1.13108296      -0.01019313       0.66294721 </v>
   <v>       1.48010063       0.02628811      -1.12033500 </v>
   <v>       0.85974661       0.50245918       3.40301690 </v>
   <v>       0.07378556       0.09694767      -3.56757740 </v>
   <v>       0.90535406      -0.41779259       0.32188354 </v>
   <v>       0.73485510      -0.12210630       4.39465379 </v>
   <v>       0.38011771       0.06854088      -3.84917836 </v>
   <v>       1.43056585       0.08453172       0.44563589 </v>
   <v>      -0.33888258       0.06834482      -0.93439592 </v>
   <v>       0.83097558      -0.11550644       2.66039521 </v>
   <v>      -0.02756550       0.52354471      -3.68681470 </v>
   <v>       0.67260677      -0.64551644       2.72183886 </v>
   <v>      -0.14956182       1.16452492      -1.13380885 </v>
   <v>      -0.79833158       0.37607984       1.62951731 </v>
   <v>      -0.93831936       1.47460132      -1.05395838 </v>
   <v>       0.37380600      -0.05669183       2.34999063 </v>
   <v>      -1.52385585       1.10630674      -0.13404358 </v>
   <v>      -0.97342025      -0.45030966      -2.58851672 </v>
   <v>      -0.05003804       0.95906600      -1.87418540 </v>
   <v>      -0.61827875       2.03601365       0.04561772 </v>
   <v>      -1.85090257       0.18977696      -0.79040265 </v>
   <v>      -0.73542731       1.36038976       3.78235170 </v>
   <v>      -0.67110099      -1.87181197      -0.89463617 </v>
   <v>      -0.90326643      -0.16696678       1.72375175 </v>
   <v>      -0.73660660      -0.72563867      -3.40142075 </v>
   <v>       0.89200794      -0.35999529       1.77014321 </v>
   <v>      -0.36827958      -1.77994266       0.77585645 </v>
   <v>      -0.09575854      -0.42061166      -3.19766670 </v>
   <v>      -1.46773054      -1.66284364      -0.48010876 </v>
   <v>       0.38810844       0.12474067       2.58178518 </v>
   <v>      -1.32039443      -0.27422325      -0.29227223 </v>
   <v>      -0.35688651      -1.23952666       3.90213011 </v>
   <v>       1.28946893      -0.90560795      -2.04019031 </v>
   <v>       0.13485412      -2.21361015       0.10806969 </v>
  </varray>
  <varray name="stress" >
   <v>      84.96912223      -3.94057709       2.11149952 </v>
   <v>      -3.94057711      75.54420634       0.68895065 </v>
   <v>       2.11149945       0.68895046      84.72090417 </v>
  </varray>
  <energy>
   <i name="e_fr_energy">   -350.92128303 </i>
   <i name="e_wo_entrp">   -350.32667231 </i>
   <i name="e_0_energy">     -1.18922144 </i>
  </energy>
  <time name="totalsc">  425.53  425.62</time>
  <eigenvalues>
   <array>
    <dimension dim="1">band</dimension>
    <dimension dim="2">kpoint</dimension>
    <dimension dim="3">spin</dimension>
    <field>eigene</field>
    <field>occ</field>
    <set>
     <set comment="spin 1">
      <set comment="kpoint 1">
       <r>  -64.9980    1.0000 </r>
       <r>  -64.9449    1.0000 </r>
       <r>  -64.9209    1.0000 </r>
       <r>  -64.9079    1.0000 </r>
       <r>  -64.9040    1.0000 </r>
       <r>  -64.8800    1.0000 </r>
       <r>  -64.8320    1.0000 </r>
       <r>  -64.8215    1.0000 </r>
       <r>  -64.8082    1.0000 </r>
       <r>  -64.8021    1.0000 </r>
       <r>  -64.7934    1.0000 </r>
       <r>  -64.7903    1.0000 </r>
       <r>  -64.7866    1.0000 </r>
       <r>  -64.7806    1.0000 </r>
       <r>  -64.7753    1.0000 </r>
       <r>  -64.7669    1.0000 </r>
       <r>  -64.7442    1.0000 </r>
       <r>  -64.7419    1.0000 </r>
       <r>  -64.7310    1.0000 </r>
       <r>  -64.7308    1.0000 </r>
       <r>  -64.7024    1.0000 </r>
       <r>  -64.6889    1.0000 </r>
       <r>  -64.6867    1.0000 </r>
       <r>  -64.6845    1.0000 </r>
       <r>  -64.6817    1.0000 </r>
       <r>  -64.6692    1.0000 </r>
       <r>  -64.6498    1.0000 </r>
       <r>  -64.6455    1.0000 </r>
       <r>  -64.6437    1.0000 </r>
       <r>  -64.6316    1.0000 </r>
       <r>  -64.6197    1.0000 </r>
       <r>  -64.6062    1.0000 </r>
       <r>  -64.5982    1.0000 </r>
       <r>  -64.5963    1.0000 </r>
       <r>  -64.5767    1.0000 </r>
       <r>  -64.5715    1.0000 </r>
       <r>  -64.5633    1.0000 </r>
       <r>  -64.5522    1.0000 </r>
       <r>  -64.5521    1.0000 </r>
       <r>  -64.5420    1.0000 </r>
       <r>  -64.5255    1.0000 </r>
       <r>  -64.5223    1.0000 </r>
       <r>  -64.5064    1.0000 </r>
       <r>  -64.4912    1.0000 </r>
       <r>  -64.4766    1.0000 </r>
       <r>  -64.4742    1.0000 </r>
       <r>  -64.4651    1.0000 </r>
       <r>  -64.4647    1.0000 </r>
       <r>  -64.4600    1.0000 </r>
       <r>  -64.4557    1.0000 </r>
       <r>  -64.4440    1.0000 </r>
       <r>  -64.4403    1.0000 </r>
       <r>  -64.4349    1.0000 </r>
       <r>  -64.4297    1.0000 </r>
       <r>  -64.4148    1.0000 </r>
       <r>  -64.4119    1.0000 </r>
       <r>  -64.4041    1.0000 </r>
       <r>  -64.3969    1.0000 </r>
       <r>  -64.3923    1.0000 </r>
       <r>  -64.3757    1.0000 </r>
       <r>  -64.3732    1.0000 </r>
       <r>  -64.3525    1.0000 </r>
       <r>  -64.3520    1.0000 </r>
       <r>  -64.3437    1.0000 </r>
       <r>  -64.3393    1.0000 </r>
       <r>  -64.3392    1.0000 </r>
       <r>  -64.3335    1.0000 </r>
       <r>  -64.3257    1.0000 </r>
       <r>  -64.3188    1.0000 </r>
       <r>  -64.3071    1.0000 </r>
       <r>  -64.3068    1.0000 </r>
       <r>  -64.2973    1.0000 </r>
       <r>  -64.2793    1.0000 </r>
       <r>  -64.2661    1.0000 </r>
       <r>  -64.2659    1.0000 </r>
       <r>  -64.2641    1.0000 </r>
       <r>  -64.2604    1.0000 </r>
       <r>  -64.2578    1.0000 </r>
       <r>  -64.2567    1.0000 </r>
       <r>  -64.2492    1.0000 </r>
       <r>  -64.2384    1.0000 </r>
       <r>  -64.2327    1.0000 </r>
       <r>  -64.2084    1.0000 </r>
       <r>  -64.2044    1.0000 </r>
       <r>  -64.2012    1.0000 </r>
       <r>  -64.1996    1.0000 </r>
       <r>  -64.1958    1.0000 </r>
       <r>  -64.1940    1.0000 </r>
       <r>  -64.1531    1.0000 </r>
       <r>  -64.1330    1.0000 </r>
       <r>  -64.0926    1.0000 </r>
       <r>  -64.0844    1.0000 </r>
       <r>  -64.0140    1.0000 </r>
       <r>  -64.0010    1.0000 </r>
       <r>  -63.9970    1.0000 </r>
       <r>  -63.9865    1.0000 </r>
       <r>  -63.9532    1.0000 </r>
       <r>  -63.9417    1.0000 </r>
       <r>  -63.9203    1.0000 </r>
       <r>  -63.9150    1.0000 </r>
       <r>  -63.9016    1.0000 </r>
       <r>  -63.8643    1.0000 </r>
       <r>  -63.8639    1.0000 </r>
       <r>  -63.8292    1.0000 </r>
       <r>  -63.8147    1.0000 </r>
       <r>  -63.7888    1.0000 </r>
       <r>  -63.6364    1.0000 </r>
       <r>  -63.6199    1.0000 </r>
       <r>  -63.6168    1.0000 </r>
       <r>  -63.5755    1.0000 </r>
       <r>  -63.3925    1.0000 </r>
       <r>  -16.5435    1.0000 </r>
       <r>  -16.2899    1.0000 </r>
       <r>  -16.1225    1.0000 </r>
       <r>  -15.8017    1.0000 </r>
       <r>  -15.6453    1.0000 </r>
       <r>  -15.5044    1.0000 </r>
       <r>  -15.4594    1.0000 </r>
       <r>  -15.3803    1.0000 </r>
       <r>  -15.3010    1.0000 </r>
       <r>  -15.1804    1.0000 </r>
       <r>  -15.0892    1.0000 </r>
       <r>  -15.0286    1.0000 </r>
       <r>  -14.9056    1.0000 </r>
       <r>  -14.8212    1.0000 </r>
       <r>  -14.7788    1.0000 </r>
       <r>  -14.7337    1.0000 </r>
       <r>  -14.5838    1.0000 </r>
       <r>  -14.5497    1.0000 </r>
       <r>  -14.5275    1.0000 </r>
       <r>  -14.4499    1.0000 </r>
       <r>  -14.4029    1.0000 </r>
       <r>  -14.3361    1.0000 </r>
       <r>  -14.2521    1.0000 </r>
       <r>  -14.1116    1.0000 </r>
       <r>  -14.0113    1.0000 </r>
       <r>  -13.9422    1.0000 </r>
       <r>  -13.8814    1.0000 </r>
       <r>  -13.8305    1.0000 </r>
       <r>  -13.7045    1.0000 </r>
       <r>  -13.6581    1.0000 </r>
       <r>  -13.6427    1.0000 </r>
       <r>  -13.5400    1.0000 </r>
       <r>  -13.4281    1.0000 </r>
       <r>  -13.3672    1.0000 </r>
       <r>  -13.3258    1.0000 </r>
       <r>  -13.1088    1.0000 </r>
       <r>  -12.8059    1.0000 </r>
       <r>   -8.3215    1.0000 </r>
       <r>   -8.1918    1.0000 </r>
       <r>   -8.0800    1.0000 </r>
       <r>   -7.9385    1.0000 </r>
       <r>   -7.8744    1.0000 </r>
       <r>   -7.8154    1.0000 </r>
       <r>   -7.7995    1.0000 </r>
       <r>   -7.7339    1.0000 </r>
       <r>   -7.6661    1.0000 </r>
       <r>   -7.5888    1.0000 </r>
       <r>   -7.5480    1.0000 </r>
       <r>   -7.4769    1.0000 </r>
       <r>   -7.4350    1.0000 </r>
       <r>   -7.3635    1.0000 </r>
       <r>   -7.3396    1.0000 </r>
       <r>   -7.3096    1.0000 </r>
       <r>   -7.2621    1.0000 </r>
       <r>   -7.2034    1.0000 </r>
       <r>   -7.1844    1.0000 </r>
       <r>   -7.0997    1.0000 </r>
       <r>   -7.0681    1.0000 </r>
       <r>   -7.0362    1.0000 </r>
       <r>   -6.9533    1.0000 </r>
       <r>   -6.8915    1.0000 </r>
       <r>   -6.8453    1.0000 </r>
       <r>   -6.8006    1.0000 </r>
       <r>   -6.7599    1.0000 </r>
       <r>   -6.7220    1.0000 </r>
       <r>   -6.6791    1.0000 </r>
       <r>   -6.6460    1.0000 </r>
       <r>   -6.6380    1.0000 </r>
       <r>   -6.5933    1.0000 </r>
       <r>   -6.5395    1.0000 </r>
       <r>   -6.4937    1.0000 </r>
       <r>   -6.4214    1.0000 </r>
       <r>   -6.3606    1.0000 </r>
       <r>   -6.3324    1.0000 </r>
       <r>   -6.2974    1.0000 </r>
       <r>   -6.2470    1.0000 </r>
       <r>   -6.2086    1.0000 </r>
       <r>   -6.1842    1.0000 </r>
       <r>   -6.1441    1.0000 </r>
       <r>   -6.1134    1.0000 </r>
       <r>   -6.0437    1.0000 </r>
       <r>   -5.9965    1.0000 </r>
       <r>   -5.9585    1.0000 </r>
       <r>   -5.9287    1.0000 </r>
       <r>   -5.8815    1.0000 </r>
       <r>   -5.8234    1.0000 </r>
       <r>   -5.7736    1.0000 </r>
       <r>   -5.7548    1.0000 </r>
       <r>   -5.7049    1.0000 </r>
       <r>   -5.6572    1.0000 </r>
       <r>   -5.6292    1.0000 </r>
       <r>   -5.5885    1.0000 </r>
       <r>   -5.5617    1.0000 </r>
       <r>   -5.5131    1.0000 </r>
       <r>   -5.4911    1.0000 </r>
       <r>   -5.4489    1.0000 </r>
       <r>   -5.4331    1.0000 </r>
       <r>   -5.4133    1.0000 </r>
       <r>   -5.4023    1.0000 </r>
       <r>   -5.3462    1.0000 </r>
       <r>   -5.3260    1.0000 </r>
       <r>   -5.2774    1.0000 </r>
       <r>   -5.2337    1.0000 </r>
       <r>   -5.2257    1.0000 </r>
       <r>   -5.1770    1.0000 </r>
       <r>   -5.1701    1.0000 </r>
       <r>   -5.1436    1.0000 </r>
       <r>   -5.1072    1.0000 </r>
       <r>   -5.0760    1.0000 </r>
       <r>   -5.0482    1.0000 </r>
       <r>   -5.0253    1.0000 </r>
       <r>   -4.9912    1.0000 </r>
       <r>   -4.9384    1.0000 </r>
       <r>   -4.9105    1.0000 </r>
       <r>   -4.8674    1.0000 </r>
       <r>   -4.8545    1.0000 </r>
       <r>   -4.8109    1.0000 </r>
       <r>   -4.7788    1.0000 </r>
       <r>   -4.7696    1.0000 </r>
       <r>   -4.7506    1.0000 </r>
       <r>   -4.6930    1.0000 </r>
       <r>   -4.6816    1.0000 </r>
       <r>   -4.6433    1.0000 </r>
       <r>   -4.6120    1.0000 </r>
       <r>   -4.5831    1.0000 </r>
       <r>   -4.5236    1.0000 </r>
       <r>   -4.5213    1.0000 </r>
       <r>   -4.4903    1.0000 </r>
       <r>   -4.3947    1.0000 </r>
       <r>   -4.3851    1.0000 </r>
       <r>   -4.3556    1.0000 </r>
       <r>   -4.2991    1.0000 </r>
       <r>   -4.2822    1.0000 </r>
       <r>   -4.2200    1.0000 </r>
       <r>   -4.1839    1.0000 </r>
       <r>   -4.1473    1.0000 </r>
       <r>   -4.0550    1.0000 </r>
       <r>   -4.0301    1.0000 </r>
       <r>   -3.9636    1.0000 </r>
       <r>   -3.9351    1.0000 </r>
       <r>   -3.8818    1.0000 </r>
       <r>   -3.8431    1.0000 </r>
       <r>   -3.7845    1.0000 </r>
       <r>   -3.7323    1.0000 </r>
       <r>   -3.7260    1.0000 </r>
       <r>   -3.7030    1.0000 </r>
       <r>   -3.6233    1.0000 </r>
       <r>   -3.6090    1.0000 </r>
       <r>   -3.5821    1.0000 </r>
       <r>   -3.5694    1.0000 </r>
       <r>   -3.5163    1.0000 </r>
       <r>   -3.4564    1.0000 </r>
       <r>   -3.4318    1.0000 </r>
       <r>   -3.4245    1.0000 </r>
       <r>   -3.3952    1.0000 </r>
       <r>   -3.3306    1.0000 </r>
       <r>   -3.3225    1.0000 </r>
       <r>   -3.2856    1.0000 </r>
       <r>   -3.2521    1.0000 </r>
       <r>   -3.2192    1.0000 </r>
       <r>   -3.1746    1.0000 </r>
       <r>   -3.1672    1.0000 </r>
       <r>   -3.1458    1.0000 </r>
       <r>   -3.1139    1.0000 </r>
       <r>   -3.0873    1.0000 </r>
       <r>   -3.0707    1.0000 </r>
       <r>   -3.0269    1.0000 </r>
       <r>   -3.0093    1.0000 </r>
       <r>   -2.9975    1.0000 </r>
       <r>   -2.9645    1.0000 </r>
       <r>   -2.9570    1.0000 </r>
       <r>   -2.9546    1.0000 </r>
       <r>   -2.9269    1.0000 </r>
       <r>   -2.9180    1.0000 </r>
       <r>   -2.8757    1.0000 </r>
       <r>   -2.8392    1.0000 </r>
       <r>   -2.8141    1.0000 </r>
       <r>   -2.8082    1.0000 </r>
       <r>   -2.7566    1.0000 </r>
       <r>   -2.7443    1.0000 </r>
       <r>   -2.7163    1.0000 </r>
       <r>   -2.7022    1.0000 </r>
       <r>   -2.6973    1.0000 </r>
       <r>   -2.6857    1.0000 </r>
       <r>   -2.6747    1.0000 </r>
       <r>   -2.6443    1.0000 </r>
       <r>   -2.6184    1.0000 </r>
       <r>   -2.6001    1.0000 </r>
       <r>   -2.5888    1.0000 </r>
       <r>   -2.5789    1.0000 </r>
       <r>   -2.5582    1.0000 </r>
       <r>   -2.5542    1.0000 </r>
       <r>   -2.5317    1.0000 </r>
       <r>   -2.5145    1.0000 </r>
       <r>   -2.5029    1.0000 </r>
       <r>   -2.4839    1.0000 </r>
       <r>   -2.4540    1.0000 </r>
       <r>   -2.4316    1.0000 </r>
       <r>   -2.4191    1.0000 </r>
       <r>   -2.4118    1.0000 </r>
       <r>   -2.3895    1.0000 </r>
       <r>   -2.3698    1.0000 </r>
       <r>   -2.3641    1.0000 </r>
       <r>   -2.3500    1.0000 </r>
       <r>   -2.3257    1.0000 </r>
       <r>   -2.3113    1.0000 </r>
       <r>   -2.2996    1.0000 </r>
       <r>   -2.2753    1.0000 </r>
       <r>   -2.2631    1.0000 </r>
       <r>   -2.2430    1.0000 </r>
       <r>   -2.2385    1.0000 </r>
       <r>   -2.2132    1.0000 </r>
       <r>   -2.2032    1.0000 </r>
       <r>   -2.1956    1.0000 </r>
       <r>   -2.1798    1.0000 </r>
       <r>   -2.1645    1.0000 </r>
       <r>   -2.1498    1.0000 </r>
       <r>   -2.1348    1.0000 </r>
       <r>   -2.1271    1.0000 </r>
       <r>   -2.1090    1.0000 </r>
       <r>   -2.0862    1.0000 </r>
       <r>   -2.0780    1.0000 </r>
       <r>   -2.0571    1.0000 </r>
       <r>   -2.0430    1.0000 </r>
       <r>   -2.0269    1.0000 </r>
       <r>   -2.0125    1.0000 </r>
       <r>   -1.9956    1.0000 </r>
       <r>   -1.9937    1.0000 </r>
       <r>   -1.9818    1.0000 </r>
       <r>   -1.9555    1.0000 </r>
       <r>   -1.9327    1.0000 </r>
       <r>   -1.9270    1.0000 </r>
       <r>   -1.9136    1.0000 </r>
       <r>   -1.8997    1.0000 </r>
       <r>   -1.8913    1.0000 </r>
       <r>   -1.8430    1.0000 </r>
       <r>   -1.8294    1.0000 </r>
       <r>   -1.8116    1.0000 </r>
       <r>   -1.8004    1.0000 </r>
       <r>   -1.7703    1.0000 </r>
       <r>   -1.7517    1.0000 </r>
       <r>   -1.7369    1.0000 </r>
       <r>   -1.7345    1.0000 </r>
       <r>   -1.6685    1.0000 </r>
       <r>   -1.6510    1.0000 </r>
       <r>   -1.6309    1.0000 </r>
       <r>   -1.6127    1.0000 </r>
       <r>   -1.5960    1.0000 </r>
       <r>   -1.5745    1.0000 </r>
       <r>   -1.5362    1.0000 </r>
       <r>   -1.4953    1.0000 </r>
       <r>   -1.4869    1.0000 </r>
       <r>   -1.4776    1.0000 </r>
       <r>   -1.4498    1.0000 </r>
       <r>   -1.4288    1.0000 </r>
       <r>   -1.4046    1.0000 </r>
       <r>   -1.3885    1.0000 </r>
       <r>   -1.3739    1.0000 </r>
       <r>   -1.3533    1.0000 </r>
       <r>   -1.3367    1.0000 </r>
       <r>   -1.2661    1.0000 </r>
       <r>   -1.2531    1.0000 </r>
       <r>   -1.2475    1.0000 </r>
       <r>   -1.2174    1.0000 </r>
       <r>   -1.1999    1.0000 </r>
       <r>   -1.1899    1.0000 </r>
       <r>   -1.1628    1.0000 </r>
       <r>   -1.1525    1.0000 </r>
       <r>   -1.1308    1.0000 </r>
       <r>   -1.0725    1.0000 </r>
       <r>   -1.0419    1.0000 </r>
       <r>   -1.0095    1.0000 </r>
       <r>   -0.9764    1.0000 </r>
       <r>   -0.9637    1.0000 </r>
       <r>   -0.9315    1.0000 </r>
       <r>   -0.8828    1.0000 </r>
       <r>   -0.8445    1.0000 </r>
       <r>   -0.8124    1.0000 </r>
       <r>   -0.7796    1.0000 </r>
       <r>   -0.7652    1.0000 </r>
       <r>   -0.7476    1.0000 </r>
       <r>   -0.7259    1.0000 </r>
       <r>   -0.6759    0.9999 </r>
       <r>   -0.6165    0.9997 </r>
       <r>   -0.5810    0.9993 </r>
       <r>   -0.5350    0.9980 </r>
       <r>   -0.4842    0.9942 </r>
       <r>   -0.4114    0.9777 </r>
       <r>   -0.3852    0.9658 </r>
       <r>   -0.3573    0.9480 </r>
       <r>   -0.2978    0.8859 </r>
       <r>   -0.2619    0.8293 </r>
       <r>   -0.2371    0.7812 </r>
       <r>   -0.1939    0.6810 </r>
       <r>   -0.1618    0.5961 </r>
       <r>   -0.1528    0.5713 </r>
       <r>   -0.1370    0.5270 </r>
       <r>   -0.0772    0.3613 </r>
       <r>   -0.0591    0.3145 </r>
       <r>   -0.0177    0.2190 </r>
       <r>    0.0030    0.1784 </r>
       <r>    0.0863    0.0654 </r>
       <r>    0.1242    0.0376 </r>
       <r>    0.1371    0.0308 </r>
       <r>    0.1656    0.0191 </r>
       <r>    0.2004    0.0102 </r>
       <r>    0.2226    0.0067 </r>
       <r>    0.2804    0.0020 </r>
       <r>    0.3413    0.0005 </r>
       <r>    0.3783    0.0002 </r>
       <r>    0.4255    0.0000 </r>
       <r>    0.4651    0.0000 </r>
       <r>    0.5416    0.0000 </r>
       <r>    0.5891    0.0000 </r>
       <r>    0.6522    0.0000 </r>
       <r>    0.7414    0.0000 </r>
       <r>    0.7836    0.0000 </r>
       <r>    0.8289    0.0000 </r>
       <r>    0.8696    0.0000 </r>
       <r>    0.9148    0.0000 </r>
       <r>    0.9438    0.0000 </r>
       <r>    1.0067    0.0000 </r>
       <r>    1.0209    0.0000 </r>
       <r>    1.0417    0.0000 </r>
       <r>    1.1224    0.0000 </r>
       <r>    1.1750    0.0000 </r>
       <r>    1.2071    0.0000 </r>
       <r>    1.2327    0.0000 </r>
       <r>    1.3171    0.0000 </r>
       <r>    1.3600    0.0000 </r>
       <r>    1.4773    0.0000 </r>
       <r>    1.5262    0.0000 </r>
       <r>    1.6355    0.0000 </r>
       <r>    2.1478    0.0000 </r>
       <r>    2.3179    0.0000 </r>
       <r>    2.5458    0.0000 </r>
       <r>    2.9471    0.0000 </r>
       <r>    3.2954    0.0000 </r>
       <r>    3.3670    0.0000 </r>
       <r>    3.4246    0.0000 </r>
       <r>    3.7367    0.0000 </r>
       <r>    3.9233    0.0000 </r>
       <r>    4.0102    0.0000 </r>
       <r>    4.0784    0.0000 </r>
       <r>    4.1206    0.0000 </r>
       <r>    4.1443    0.0000 </r>
       <r>    4.2604    0.0000 </r>
       <r>    4.3248    0.0000 </r>
       <r>    4.3424    0.0000 </r>
       <r>    4.4760    0.0000 </r>
       <r>    4.5403    0.0000 </r>
       <r>    4.6185    0.0000 </r>
       <r>    4.6620    0.0000 </r>
       <r>    4.7456    0.0000 </r>
       <r>    4.7549    0.0000 </r>
       <r>    4.7828    0.0000 </r>
       <r>    4.8725    0.0000 </r>
       <r>    4.8874    0.0000 </r>
       <r>    4.9476    0.0000 </r>
       <r>    4.9846    0.0000 </r>
       <r>    5.0368    0.0000 </r>
       <r>    5.0781    0.0000 </r>
       <r>    5.1675    0.0000 </r>
       <r>    5.1851    0.0000 </r>
       <r>    5.2030    0.0000 </r>
       <r>    5.2703    0.0000 </r>
       <r>    5.2821    0.0000 </r>
       <r>    5.3445    0.0000 </r>
       <r>    5.4226    0.0000 </r>
       <r>    5.4325    0.0000 </r>
       <r>    5.4451    0.0000 </r>
       <r>    5.5312    0.0000 </r>
       <r>    5.5959    0.0000 </r>
       <r>    5.6205    0.0000 </r>
       <r>    5.6341    0.0000 </r>
       <r>    5.6846    0.0000 </r>
       <r>    5.7471    0.0000 </r>
      </set>
     </set>
    </set>
   </array>
  </eigenvalues>
  <separator name="orbital magnetization" >
   <v name="MAGDIPOLOUT">      0.00000000      0.00000000      0.00000000</v>
  </separator>
  <dos>
   <i name="efermi">     -0.12738332 </i>
   <total>
    <array>
     <dimension dim="1">gridpoints</dimension>
     <dimension dim="2">spin</dimension>
     <field>energy</field>
     <field>total</field>
     <field>integrated</field>
     <set>
      <set comment="spin 1">
       <r>   -68.5353     0.0000     0.0000 </r>
       <r>   -68.2759     0.0000     0.0000 </r>
       <r>   -68.0165     0.0000     0.0000 </r>
       <r>   -67.7571     0.0000     0.0000 </r>
       <r>   -67.4977     0.0000     0.0000 </r>
       <r>   -67.2383     0.0000     0.0000 </r>
       <r>   -66.9789     0.0000     0.0000 </r>
       <r>   -66.7195     0.0000     0.0000 </r>
       <r>   -66.4601     0.0000     0.0000 </r>
       <r>   -66.2007     0.0000     0.0000 </r>
       <r>   -65.9413     0.0000     0.0000 </r>
       <r>   -65.6819     0.0000     0.0000 </r>
       <r>   -65.4225     0.0176     0.0046 </r>
       <r>   -65.1631     2.8874     0.7536 </r>
       <r>   -64.9037    48.9109    13.4410 </r>
       <r>   -64.6443   166.6314    56.6650 </r>
       <r>   -64.3849   236.7151   118.0686 </r>
       <r>   -64.1255   211.1521   172.8412 </r>
       <r>   -63.8661   108.9892   201.1129 </r>
       <r>   -63.6067    55.5090   215.5119 </r>
       <r>   -63.3473    21.1124   220.9884 </r>
       <r>   -63.0879     3.7754   221.9677 </r>
       <r>   -62.8285     0.1242   221.9999 </r>
       <r>   -62.5691     0.0003   222.0000 </r>
       <r>   -62.3097     0.0000   222.0000 </r>
       <r>   -62.0503     0.0000   222.0000 </r>
       <r>   -61.7909     0.0000   222.0000 </r>
       <r>   -61.5315     0.0000   222.0000 </r>
       <r>   -61.2721     0.0000   222.0000 </r>
       <r>   -61.0127     0.0000   222.0000 </r>
       <r>   -60.7533     0.0000   222.0000 </r>
       <r>   -60.4939     0.0000   222.0000 </r>
       <r>   -60.2345     0.0000   222.0000 </r>
       <r>   -59.9751     0.0000   222.0000 </r>
       <r>   -59.7157     0.0000   222.0000 </r>
       <r>   -59.4563     0.0000   222.0000 </r>
       <r>   -59.1969     0.0000   222.0000 </r>
       <r>   -58.9375     0.0000   222.0000 </r>
       <r>   -58.6781     0.0000   222.0000 </r>
       <r>   -58.4187     0.0000   222.0000 </r>
       <r>   -58.1593     0.0000   222.0000 </r>
       <r>   -57.8999     0.0000   222.0000 </r>
       <r>   -57.6405     0.0000   222.0000 </r>
       <r>   -57.3811     0.0000   222.0000 </r>
       <r>   -57.1217     0.0000   222.0000 </r>
       <r>   -56.8623     0.0000   222.0000 </r>
       <r>   -56.6029     0.0000   222.0000 </r>
       <r>   -56.3435     0.0000   222.0000 </r>
       <r>   -56.0841     0.0000   222.0000 </r>
       <r>   -55.8247     0.0000   222.0000 </r>
       <r>   -55.5653     0.0000   222.0000 </r>
       <r>   -55.3059     0.0000   222.0000 </r>
       <r>   -55.0465     0.0000   222.0000 </r>
       <r>   -54.7871     0.0000   222.0000 </r>
       <r>   -54.5277     0.0000   222.0000 </r>
       <r>   -54.2683     0.0000   222.0000 </r>
       <r>   -54.0089     0.0000   222.0000 </r>
       <r>   -53.7495     0.0000   222.0000 </r>
       <r>   -53.4901     0.0000   222.0000 </r>
       <r>   -53.2307     0.0000   222.0000 </r>
       <r>   -52.9713     0.0000   222.0000 </r>
       <r>   -52.7119     0.0000   222.0000 </r>
       <r>   -52.4525     0.0000   222.0000 </r>
       <r>   -52.1931     0.0000   222.0000 </r>
       <r>   -51.9337     0.0000   222.0000 </r>
       <r>   -51.6743     0.0000   222.0000 </r>
       <r>   -51.4149     0.0000   222.0000 </r>
       <r>   -51.1556     0.0000   222.0000 </r>
       <r>   -50.8962     0.0000   222.0000 </r>
       <r>   -50.6368     0.0000   222.0000 </r>
       <r>   -50.3774     0.0000   222.0000 </r>
       <r>   -50.1180     0.0000   222.0000 </r>
       <r>   -49.8586     0.0000   222.0000 </r>
       <r>   -49.5992     0.0000   222.0000 </r>
       <r>   -49.3398     0.0000   222.0000 </r>
       <r>   -49.0804     0.0000   222.0000 </r>
       <r>   -48.8210     0.0000   222.0000 </r>
       <r>   -48.5616     0.0000   222.0000 </r>
       <r>   -48.3022     0.0000   222.0000 </r>
       <r>   -48.0428     0.0000   222.0000 </r>
       <r>   -47.7834     0.0000   222.0000 </r>
       <r>   -47.5240     0.0000   222.0000 </r>
       <r>   -47.2646     0.0000   222.0000 </r>
       <r>   -47.0052     0.0000   222.0000 </r>
       <r>   -46.7458     0.0000   222.0000 </r>
       <r>   -46.4864     0.0000   222.0000 </r>
       <r>   -46.2270     0.0000   222.0000 </r>
       <r>   -45.9676     0.0000   222.0000 </r>
       <r>   -45.7082     0.0000   222.0000 </r>
       <r>   -45.4488     0.0000   222.0000 </r>
       <r>   -45.1894     0.0000   222.0000 </r>
       <r>   -44.9300     0.0000   222.0000 </r>
       <r>   -44.6706     0.0000   222.0000 </r>
       <r>   -44.4112     0.0000   222.0000 </r>
       <r>   -44.1518     0.0000   222.0000 </r>
       <r>   -43.8924     0.0000   222.0000 </r>
       <r>   -43.6330     0.0000   222.0000 </r>
       <r>   -43.3736     0.0000   222.0000 </r>
       <r>   -43.1142     0.0000   222.0000 </r>
       <r>   -42.8548     0.0000   222.0000 </r>
       <r>   -42.5954     0.0000   222.0000 </r>
       <r>   -42.3360     0.0000   222.0000 </r>
       <r>   -42.0766     0.0000   222.0000 </r>
       <r>   -41.8172     0.0000   222.0000 </r>
       <r>   -41.5578     0.0000   222.0000 </r>
       <r>   -41.2984     0.0000   222.0000 </r>
       <r>   -41.0390     0.0000   222.0000 </r>
       <r>   -40.7796     0.0000   222.0000 </r>
       <r>   -40.5202     0.0000   222.0000 </r>
       <r>   -40.2608     0.0000   222.0000 </r>
       <r>   -40.0014     0.0000   222.0000 </r>
       <r>   -39.7420     0.0000   222.0000 </r>
       <r>   -39.4826     0.0000   222.0000 </r>
       <r>   -39.2232     0.0000   222.0000 </r>
       <r>   -38.9638     0.0000   222.0000 </r>
       <r>   -38.7044     0.0000   222.0000 </r>
       <r>   -38.4450     0.0000   222.0000 </r>
       <r>   -38.1856     0.0000   222.0000 </r>
       <r>   -37.9262     0.0000   222.0000 </r>
       <r>   -37.6668     0.0000   222.0000 </r>
       <r>   -37.4074     0.0000   222.0000 </r>
       <r>   -37.1480     0.0000   222.0000 </r>
       <r>   -36.8886     0.0000   222.0000 </r>
       <r>   -36.6292     0.0000   222.0000 </r>
       <r>   -36.3698     0.0000   222.0000 </r>
       <r>   -36.1104     0.0000   222.0000 </r>
       <r>   -35.8510     0.0000   222.0000 </r>
       <r>   -35.5916     0.0000   222.0000 </r>
       <r>   -35.3322     0.0000   222.0000 </r>
       <r>   -35.0728     0.0000   222.0000 </r>
       <r>   -34.8134     0.0000   222.0000 </r>
       <r>   -34.5540     0.0000   222.0000 </r>
       <r>   -34.2946     0.0000   222.0000 </r>
       <r>   -34.0352     0.0000   222.0000 </r>
       <r>   -33.7758     0.0000   222.0000 </r>
       <r>   -33.5164     0.0000   222.0000 </r>
       <r>   -33.2570     0.0000   222.0000 </r>
       <r>   -32.9976     0.0000   222.0000 </r>
       <r>   -32.7382     0.0000   222.0000 </r>
       <r>   -32.4788     0.0000   222.0000 </r>
       <r>   -32.2194     0.0000   222.0000 </r>
       <r>   -31.9600     0.0000   222.0000 </r>
       <r>   -31.7006     0.0000   222.0000 </r>
       <r>   -31.4412     0.0000   222.0000 </r>
       <r>   -31.1818     0.0000   222.0000 </r>
       <r>   -30.9224     0.0000   222.0000 </r>
       <r>   -30.6630     0.0000   222.0000 </r>
       <r>   -30.4036     0.0000   222.0000 </r>
       <r>   -30.1442     0.0000   222.0000 </r>
       <r>   -29.8848     0.0000   222.0000 </r>
       <r>   -29.6254     0.0000   222.0000 </r>
       <r>   -29.3660     0.0000   222.0000 </r>
       <r>   -29.1066     0.0000   222.0000 </r>
       <r>   -28.8472     0.0000   222.0000 </r>
       <r>   -28.5879     0.0000   222.0000 </r>
       <r>   -28.3285     0.0000   222.0000 </r>
       <r>   -28.0691     0.0000   222.0000 </r>
       <r>   -27.8097     0.0000   222.0000 </r>
       <r>   -27.5503     0.0000   222.0000 </r>
       <r>   -27.2909     0.0000   222.0000 </r>
       <r>   -27.0315     0.0000   222.0000 </r>
       <r>   -26.7721     0.0000   222.0000 </r>
       <r>   -26.5127     0.0000   222.0000 </r>
       <r>   -26.2533     0.0000   222.0000 </r>
       <r>   -25.9939     0.0000   222.0000 </r>
       <r>   -25.7345     0.0000   222.0000 </r>
       <r>   -25.4751     0.0000   222.0000 </r>
       <r>   -25.2157     0.0000   222.0000 </r>
       <r>   -24.9563     0.0000   222.0000 </r>
       <r>   -24.6969     0.0000   222.0000 </r>
       <r>   -24.4375     0.0000   222.0000 </r>
       <r>   -24.1781     0.0000   222.0000 </r>
       <r>   -23.9187     0.0000   222.0000 </r>
       <r>   -23.6593     0.0000   222.0000 </r>
       <r>   -23.3999     0.0000   222.0000 </r>
       <r>   -23.1405     0.0000   222.0000 </r>
       <r>   -22.8811     0.0000   222.0000 </r>
       <r>   -22.6217     0.0000   222.0000 </r>
       <r>   -22.3623     0.0000   222.0000 </r>
       <r>   -22.1029     0.0000   222.0000 </r>
       <r>   -21.8435     0.0000   222.0000 </r>
       <r>   -21.5841     0.0000   222.0000 </r>
       <r>   -21.3247     0.0000   222.0000 </r>
       <r>   -21.0653     0.0000   222.0000 </r>
       <r>   -20.8059     0.0000   222.0000 </r>
       <r>   -20.5465     0.0000   222.0000 </r>
       <r>   -20.2871     0.0000   222.0000 </r>
       <r>   -20.0277     0.0000   222.0000 </r>
       <r>   -19.7683     0.0000   222.0000 </r>
       <r>   -19.5089     0.0000   222.0000 </r>
       <r>   -19.2495     0.0000   222.0000 </r>
       <r>   -18.9901     0.0000   222.0000 </r>
       <r>   -18.7307     0.0000   222.0000 </r>
       <r>   -18.4713     0.0000   222.0000 </r>
       <r>   -18.2119     0.0000   222.0000 </r>
       <r>   -17.9525     0.0000   222.0000 </r>
       <r>   -17.6931     0.0000   222.0000 </r>
       <r>   -17.4337     0.0000   222.0000 </r>
       <r>   -17.1743     0.0000   222.0000 </r>
       <r>   -16.9149     0.0333   222.0086 </r>
       <r>   -16.6555     1.6563   222.4383 </r>
       <r>   -16.3961     6.8236   224.2083 </r>
       <r>   -16.1367     9.4348   226.6557 </r>
       <r>   -15.8773     7.5702   228.6194 </r>
       <r>   -15.6179    12.1239   231.7644 </r>
       <r>   -15.3585    21.2270   237.2706 </r>
       <r>   -15.0991    22.2256   243.0359 </r>
       <r>   -14.8397    23.9315   249.2437 </r>
       <r>   -14.5803    28.6605   256.6782 </r>
       <r>   -14.3209    30.7222   264.6475 </r>
       <r>   -14.0615    22.4434   270.4693 </r>
       <r>   -13.8021    26.0478   277.2261 </r>
       <r>   -13.5427    28.1707   284.5335 </r>
       <r>   -13.2833    23.0149   290.5036 </r>
       <r>   -13.0239    11.6378   293.5224 </r>
       <r>   -12.7645     6.5265   295.2154 </r>
       <r>   -12.5051     2.8959   295.9666 </r>
       <r>   -12.2457     0.1286   295.9999 </r>
       <r>   -11.9863     0.0003   296.0000 </r>
       <r>   -11.7269     0.0000   296.0000 </r>
       <r>   -11.4675     0.0000   296.0000 </r>
       <r>   -11.2081     0.0000   296.0000 </r>
       <r>   -10.9487     0.0000   296.0000 </r>
       <r>   -10.6893     0.0000   296.0000 </r>
       <r>   -10.4299     0.0000   296.0000 </r>
       <r>   -10.1705     0.0000   296.0000 </r>
       <r>    -9.9111     0.0000   296.0000 </r>
       <r>    -9.6517     0.0000   296.0000 </r>
       <r>    -9.3923     0.0000   296.0000 </r>
       <r>    -9.1329     0.0000   296.0000 </r>
       <r>    -8.8735     0.0004   296.0001 </r>
       <r>    -8.6141     0.1595   296.0415 </r>
       <r>    -8.3547     4.1556   297.1194 </r>
       <r>    -8.0953    14.1574   300.7918 </r>
       <r>    -7.8359    24.5903   307.1705 </r>
       <r>    -7.5765    33.9967   315.9892 </r>
       <r>    -7.3171    39.4871   326.2321 </r>
       <r>    -7.0577    42.1111   337.1557 </r>
       <r>    -6.7983    41.2807   347.8639 </r>
       <r>    -6.5389    47.9240   360.2953 </r>
       <r>    -6.2795    44.9468   371.9544 </r>
       <r>    -6.0202    47.7156   384.3318 </r>
       <r>    -5.7608    47.0380   396.5334 </r>
       <r>    -5.5014    55.7036   410.9829 </r>
       <r>    -5.2420    64.9441   427.8293 </r>
       <r>    -4.9826    65.3303   444.7759 </r>
       <r>    -4.7232    64.3152   461.4592 </r>
       <r>    -4.4638    59.1258   476.7963 </r>
       <r>    -4.2044    48.9578   489.4959 </r>
       <r>    -3.9450    42.4987   500.5200 </r>
       <r>    -3.6856    48.8185   513.1835 </r>
       <r>    -3.4262    58.3789   528.3269 </r>
       <r>    -3.1668    67.1286   545.7400 </r>
       <r>    -2.9074    84.4460   567.6452 </r>
       <r>    -2.6480    99.0017   593.3261 </r>
       <r>    -2.3886   118.0283   623.9425 </r>
       <r>    -2.1292   129.6301   657.5684 </r>
       <r>    -1.8698   124.4957   689.8625 </r>
       <r>    -1.6104    97.0053   715.0255 </r>
       <r>    -1.3510    88.0488   737.8653 </r>
       <r>    -1.0916    82.0712   759.1545 </r>
       <r>    -0.8322    66.5588   776.4198 </r>
       <r>    -0.5728    55.4905   790.8139 </r>
       <r>    -0.3134    48.1225   803.2968 </r>
       <r>    -0.0540    57.9190   818.3210 </r>
       <r>     0.2054    54.6848   832.5061 </r>
       <r>     0.4648    44.7580   844.1163 </r>
       <r>     0.7242    36.1028   853.4813 </r>
       <r>     0.9836    43.2333   864.6960 </r>
       <r>     1.2430    43.4151   875.9578 </r>
       <r>     1.5024    29.9491   883.7266 </r>
       <r>     1.7618    14.5012   887.4882 </r>
       <r>     2.0212     3.5140   888.3997 </r>
       <r>     2.2806     8.1154   890.5048 </r>
       <r>     2.5400     9.0377   892.8492 </r>
       <r>     2.7994     5.2963   894.2231 </r>
       <r>     3.0588     5.7064   895.7033 </r>
       <r>     3.3182    10.0275   898.3044 </r>
       <r>     3.5776    13.5374   901.8160 </r>
       <r>     3.8370    10.1378   904.4458 </r>
       <r>     4.0964    22.8368   910.3696 </r>
       <r>     4.3558    29.9796   918.1462 </r>
       <r>     4.6152    29.3687   925.7644 </r>
       <r>     4.8746    39.3779   935.9790 </r>
       <r>     5.1340    43.2483   947.1976 </r>
       <r>     5.3934    45.6756   959.0458 </r>
       <r>     5.6528    42.6989   970.1219 </r>
       <r>     5.9122    20.8343   975.5263 </r>
       <r>     6.1716     1.8126   975.9964 </r>
       <r>     6.4310     0.0137   976.0000 </r>
       <r>     6.6904     0.0000   976.0000 </r>
       <r>     6.9498     0.0000   976.0000 </r>
       <r>     7.2092     0.0000   976.0000 </r>
       <r>     7.4686     0.0000   976.0000 </r>
       <r>     7.7280     0.0000   976.0000 </r>
       <r>     7.9874     0.0000   976.0000 </r>
       <r>     8.2468     0.0000   976.0000 </r>
       <r>     8.5062     0.0000   976.0000 </r>
       <r>     8.7656     0.0000   976.0000 </r>
       <r>     9.0250     0.0000   976.0000 </r>
       <r>     9.2844     0.0000   976.0000 </r>
      </set>
     </set>
    </array>
   </total>
  </dos>
 </calculation>
 <structure name="finalpos" >
  <crystal>
   <varray name="basis" >
    <v>      16.88469405       0.00000000       0.00000000 </v>
    <v>       0.00000000       9.57841000       0.00000000 </v>
    <v>       0.00000000       0.00000000      16.65464569 </v>
   </varray>
   <i name="volume">   2693.53123734 </i>
   <varray name="rec_basis" >
    <v>       0.05922524       0.00000000       0.00000000 </v>
    <v>       0.00000000       0.10440146       0.00000000 </v>
    <v>       0.00000000       0.00000000       0.06004331 </v>
   </varray>
  </crystal>
  <varray name="positions" >
   <v>       0.78004630       0.14529696       0.12347080 </v>
   <v>       0.73199717       0.09562885       0.24913911 </v>
   <v>       0.21396841       0.62227711       0.09892506 </v>
   <v>       0.29733028       0.64529696       0.21607389 </v>
   <v>       0.38824808       0.13266169       0.12992446 </v>
   <v>       0.46975828       0.14529696       0.24694159 </v>
   <v>       0.95247430       0.64529696       0.15433850 </v>
   <v>       0.97235440       0.62899688       0.30420061 </v>
   <v>       0.06399190       0.15573500       0.05760026 </v>
   <v>       0.12490229       0.14529696       0.18520619 </v>
   <v>       0.13431607       0.14512577       0.33738700 </v>
   <v>       0.56966236       0.63788043       0.16064791 </v>
   <v>       0.64218627       0.64529696       0.27780929 </v>
   <v>       0.88798485       0.98783186       0.09981118 </v>
   <v>       0.01388846       0.99010343       0.16763586 </v>
   <v>       0.35368117       0.65758598       0.07117175 </v>
   <v>       0.42486675       0.51319396       0.19160760 </v>
   <v>       0.44952594       0.49682857       0.34059547 </v>
   <v>       0.52932705       0.14492092       0.09345419 </v>
   <v>       0.59729475       0.01319396       0.22247530 </v>
   <v>       0.08001077       0.51319396       0.12987220 </v>
   <v>       0.09934087       0.49758933       0.28073731 </v>
   <v>       0.25243876       0.01319396       0.16073990 </v>
   <v>       0.28641021       0.99901125       0.31786498 </v>
   <v>       0.76069317       0.43111540       0.11868296 </v>
   <v>       0.76972274       0.51319396       0.25334300 </v>
   <v>       0.90112891       0.36856860       0.13979323 </v>
   <v>       0.42486675       0.77739996       0.19160760 </v>
   <v>       0.44998396       0.79451859       0.34036691 </v>
   <v>       0.61575615       0.35329974       0.08983964 </v>
   <v>       0.59729475       0.27739996       0.22247530 </v>
   <v>       0.08001077       0.77739996       0.12987220 </v>
   <v>       0.11036048       0.77982525       0.29559001 </v>
   <v>       0.25243876       0.27739996       0.16073990 </v>
   <v>       0.28616346       0.29129846       0.31786705 </v>
   <v>       0.75654121       0.88608131       0.12560690 </v>
   <v>       0.76972274       0.77739996       0.25334300 </v>
   <v>       0.03379237       0.12070595       0.26867199 </v>
   <v>       0.95719491       0.16937208       0.11539213 </v>
   <v>       0.46927820       0.64805514       0.09747251 </v>
   <v>       0.50874518       0.64529696       0.27609614 </v>
   <v>       0.64660522       0.14529696       0.12175764 </v>
   <v>       0.63671299       0.14637629       0.31408250 </v>
   <v>       0.11158763       0.64590753       0.03643557 </v>
   <v>       0.16388920       0.64529696       0.21436074 </v>
   <v>       0.07224128       0.62861010       0.37369322 </v>
   <v>       0.28434297       0.14484151       0.06908008 </v>
   <v>       0.33631719       0.14529696       0.24522844 </v>
   <v>       0.81903321       0.64529696       0.15262534 </v>
   <v>       0.84976245       0.64476716       0.31303674 </v>
   <v>       0.82509528       0.30277849       0.04749454 </v>
   <v>       0.80047941       0.30055182       0.21510621 </v>
   <v>       0.28617911       0.80727943       0.12591479 </v>
   <v>       0.34140856       0.81081569       0.28859809 </v>
   <v>       0.48420507       0.31351196       0.15291210 </v>
   <v>       0.50874165       0.31764048       0.31391497 </v>
   <v>       0.00148905       0.81351196       0.24551520 </v>
   <v>       0.96924004       0.82934850       0.08245451 </v>
   <v>       0.13684361       0.31406997       0.10324494 </v>
   <v>       0.17391704       0.31351196       0.27638290 </v>
   <v>       0.65663306       0.81351196       0.18377980 </v>
   <v>       0.69367997       0.79685782       0.34612100 </v>
   <v>       0.31177707       0.47708196       0.12204440 </v>
   <v>       0.34055601       0.48062264       0.28978068 </v>
   <v>       0.78924932       0.00277545       0.02930751 </v>
   <v>       0.82906105       0.97708196       0.21464750 </v>
   <v>       0.98921463       0.46405825       0.22234460 </v>
   <v>       0.97099024       0.49489987       0.06668331 </v>
   <v>       0.48420507       0.97708196       0.15291210 </v>
   <v>       0.50959639       0.97301631       0.31335059 </v>
   <v>       0.65663306       0.47708196       0.18377980 </v>
   <v>       0.69731035       0.50525166       0.34968881 </v>
   <v>       0.12581922       0.98210666       0.10063632 </v>
   <v>       0.17391704       0.97708196       0.27638290 </v>
  </varray>
 </structure>
</modeling>
