<?xml version="1.0" encoding="ISO-8859-1"?>
<modeling>
 <generator>
  <i name="program" type="string">vasp </i>
  <i name="version" type="string">5.4.4.18Apr17-6-g9f103f2a35  </i>
  <i name="subversion" type="string">(build Aug 13 2019 17:33:20) gamma-only         parallel </i>
  <i name="platform" type="string">LinuxIFC </i>
  <i name="date" type="string">2020 05 12 </i>
  <i name="time" type="string">00:36:28 </i>
 </generator>
 <incar>
  <i type="string" name="SYSTEM">"Millerite NiS"</i>
  <i type="string" name="PREC">normal</i>
  <i type="int" name="NSIM">     4</i>
  <i type="int" name="NELM">   100</i>
  <i name="ENCUT">    450.00000000</i>
  <i type="string" name="LREAL">A</i>
  <i type="int" name="ISMEAR">     0</i>
  <i type="int" name="NWRITE">     2</i>
  <i type="logical" name="LWAVE"> F  </i>
  <i type="logical" name="LCHARG"> F  </i>
  <v type="int" name="KPOINT_BSE">    -1     0     0     0</v>
  <i type="int" name="NELM">   100</i>
 </incar>
 <structure name="primitive_cell" >
  <crystal>
   <varray name="basis" >
    <v>      16.88469405       0.00000000       0.00000000 </v>
    <v>       0.00000000       9.57841000       0.00000000 </v>
    <v>       0.00000000       0.00000000      16.65464569 </v>
   </varray>
   <i name="volume">   2693.53123734 </i>
   <varray name="rec_basis" >
    <v>       0.05922524       0.00000000       0.00000000 </v>
    <v>       0.00000000       0.10440146       0.00000000 </v>
    <v>       0.00000000       0.00000000       0.06004331 </v>
   </varray>
  </crystal>
  <varray name="positions" >
   <v>      -0.21995370       0.14529696       0.12347080 </v>
   <v>      -0.18448671      -0.00352138       0.04002285 </v>
   <v>      -0.18235224       0.29124212       0.03929179 </v>
   <v>      -0.35339478       0.14529696       0.12175764 </v>
   <v>      -0.17093895       0.31351196       0.21464750 </v>
   <v>      -0.17093895      -0.02291804       0.21464750 </v>
   <v>      -0.09044018       0.00486364       0.11878606 </v>
   <v>      -0.08995896       0.28658122       0.12028361 </v>
   <v>      -0.23371248       0.41985172       0.12078976 </v>
   <v>      -0.19787365       0.14549936       0.28530962 </v>
   <v>      -0.22179467      -0.14643517       0.12041485 </v>
   <v>      -0.32099455       0.14389516       0.28238585 </v>
   <v>      -0.37953875       0.35063253       0.08954748 </v>
   <v>      -0.00853880       0.14529696       0.18349304 </v>
   <v>      -0.40270525       0.01319396       0.22247530 </v>
   <v>      -0.40270525       0.27739996       0.22247530 </v>
   <v>      -0.06016486       0.00709046       0.26845542 </v>
   <v>      -0.05503555       0.27708958       0.27070005 </v>
   <v>      -0.34336694       0.47708196       0.18377980 </v>
   <v>      -0.34336694      -0.18648804       0.18377980 </v>
   <v>      -0.23027726      -0.48680604       0.25334300 </v>
   <v>      -0.23027726      -0.22260004       0.25334300 </v>
   <v>      -0.47140137       0.14668110       0.09267480 </v>
   <v>      -0.03273710      -0.17897521       0.08335229 </v>
   <v>      -0.03226115       0.46944296       0.08353527 </v>
   <v>      -0.18096679      -0.35470304       0.15262534 </v>
   <v>      -0.03903233       0.13883864       0.36320426 </v>
   <v>      -0.30535203      -0.20693111       0.34708218 </v>
   <v>       0.48420507       0.31351196       0.15291210 </v>
   <v>       0.48420507      -0.02291804       0.15291210 </v>
   <v>      -0.30292456      -0.49629151       0.34927491 </v>
   <v>       0.00148905       0.47708196       0.24551520 </v>
   <v>       0.00148905      -0.18648804       0.24551520 </v>
   <v>      -0.47359390       0.00395186       0.32356116 </v>
   <v>      -0.47630636       0.29081630       0.32232825 </v>
   <v>      -0.04752570      -0.35470304       0.15433850 </v>
   <v>       0.46975828       0.14529696       0.24694159 </v>
   <v>       0.06837882       0.09574446       0.31176421 </v>
   <v>      -0.14885994      -0.35462004       0.31263573 </v>
   <v>      -0.35781373      -0.35470304       0.27780929 </v>
   <v>       0.12490229       0.14529696       0.18520619 </v>
   <v>      -0.42913250      -0.35246342       0.16102028 </v>
   <v>       0.08001077      -0.48680604       0.12987220 </v>
   <v>       0.08001077      -0.22260004       0.12987220 </v>
   <v>       0.14057422      -0.03226074       0.10686513 </v>
   <v>       0.14168727       0.32472969       0.11036734 </v>
   <v>       0.44397299      -0.14658030       0.05654918 </v>
   <v>       0.12647297       0.28082077       0.28604335 </v>
   <v>      -0.02432550      -0.35497609       0.31776360 </v>
   <v>       0.17076386       0.14739488       0.04768619 </v>
   <v>       0.38292212       0.07845096       0.12180655 </v>
   <v>       0.46423231      -0.17438929       0.32935880 </v>
   <v>       0.42486675      -0.48680604       0.19160760 </v>
   <v>       0.42486675      -0.22260004       0.19160760 </v>
   <v>       0.47417723      -0.35470304       0.09088994 </v>
   <v>       0.46352572       0.47074578       0.33138293 </v>
   <v>      -0.49125482      -0.35470304       0.27609614 </v>
   <v>       0.11285865      -0.49809663       0.29146580 </v>
   <v>       0.11287443      -0.21509795       0.29355768 </v>
   <v>       0.17391704      -0.02291804       0.27638290 </v>
   <v>       0.10343641      -0.35456964       0.04007149 </v>
   <v>       0.33359143       0.15029207       0.23096428 </v>
   <v>       0.33191602      -0.14132485       0.11157439 </v>
   <v>       0.25243876       0.01319396       0.16073990 </v>
   <v>       0.25243876       0.27739996       0.16073990 </v>
   <v>       0.08090957      -0.35882739       0.37884001 </v>
   <v>       0.16388920      -0.35470304       0.21436074 </v>
   <v>       0.28848617       0.16076006       0.06094034 </v>
   <v>       0.35111261       0.49677750       0.29235953 </v>
   <v>       0.31153405       0.47272250       0.13667780 </v>
   <v>       0.34908837      -0.21213815       0.29677342 </v>
   <v>       0.35311930      -0.35030171       0.07972734 </v>
   <v>       0.29686601      -0.02159117       0.29576578 </v>
   <v>       0.29733028      -0.35470304       0.21607389 </v>
  </varray>
 </structure>
 <varray name="primitive_index" >
  <v type="int" >        1 </v>
  <v type="int" >       65 </v>
  <v type="int" >       51 </v>
  <v type="int" >       42 </v>
  <v type="int" >       52 </v>
  <v type="int" >       66 </v>
  <v type="int" >       13 </v>
  <v type="int" >       26 </v>
  <v type="int" >       24 </v>
  <v type="int" >        2 </v>
  <v type="int" >       36 </v>
  <v type="int" >       43 </v>
  <v type="int" >       31 </v>
  <v type="int" >       39 </v>
  <v type="int" >       19 </v>
  <v type="int" >       32 </v>
  <v type="int" >       14 </v>
  <v type="int" >       27 </v>
  <v type="int" >       71 </v>
  <v type="int" >       61 </v>
  <v type="int" >       25 </v>
  <v type="int" >       37 </v>
  <v type="int" >       18 </v>
  <v type="int" >       58 </v>
  <v type="int" >       68 </v>
  <v type="int" >       49 </v>
  <v type="int" >       38 </v>
  <v type="int" >       62 </v>
  <v type="int" >       55 </v>
  <v type="int" >       69 </v>
  <v type="int" >       72 </v>
  <v type="int" >       67 </v>
  <v type="int" >       57 </v>
  <v type="int" >       70 </v>
  <v type="int" >       56 </v>
  <v type="int" >        6 </v>
  <v type="int" >        5 </v>
  <v type="int" >       10 </v>
  <v type="int" >       50 </v>
  <v type="int" >       12 </v>
  <v type="int" >        9 </v>
  <v type="int" >       11 </v>
  <v type="int" >       20 </v>
  <v type="int" >       33 </v>
  <v type="int" >       73 </v>
  <v type="int" >       59 </v>
  <v type="int" >       28 </v>
  <v type="int" >       60 </v>
  <v type="int" >        7 </v>
  <v type="int" >        8 </v>
  <v type="int" >        4 </v>
  <v type="int" >       30 </v>
  <v type="int" >       16 </v>
  <v type="int" >       29 </v>
  <v type="int" >       40 </v>
  <v type="int" >       17 </v>
  <v type="int" >       41 </v>
  <v type="int" >       21 </v>
  <v type="int" >       34 </v>
  <v type="int" >       74 </v>
  <v type="int" >       44 </v>
  <v type="int" >       48 </v>
  <v type="int" >       53 </v>
  <v type="int" >       22 </v>
  <v type="int" >       35 </v>
  <v type="int" >       46 </v>
  <v type="int" >       45 </v>
  <v type="int" >       47 </v>
  <v type="int" >       64 </v>
  <v type="int" >       63 </v>
  <v type="int" >       54 </v>
  <v type="int" >       15 </v>
  <v type="int" >       23 </v>
  <v type="int" >        3 </v>
 </varray>
 <kpoints>
  <generation param="Gamma">
   <v type="int" name="divisions">       1        1        1 </v>
   <v name="usershift">      0.00000000       0.00000000       0.00000000 </v>
   <v name="genvec1">      1.00000000       0.00000000       0.00000000 </v>
   <v name="genvec2">      0.00000000       1.00000000       0.00000000 </v>
   <v name="genvec3">      0.00000000       0.00000000       1.00000000 </v>
   <v name="shift">      0.00000000       0.00000000       0.00000000 </v>
  </generation>
  <varray name="kpointlist" >
   <v>       0.00000000       0.00000000       0.00000000 </v>
  </varray>
  <varray name="weights" >
   <v>       1.00000000 </v>
  </varray>
 </kpoints>
 <parameters>
  <separator name="general" >
   <i type="string" name="SYSTEM">"Millerite NiS"</i>
   <i type="logical" name="LCOMPAT"> F  </i>
  </separator>
  <separator name="electronic" >
   <i type="string" name="PREC">normal</i>
   <i name="ENMAX">    450.00000000</i>
   <i name="ENAUG">    703.44300000</i>
   <i name="EDIFF">      0.00010000</i>
   <i type="int" name="IALGO">    38</i>
   <i type="int" name="IWAVPR">    10</i>
   <i type="int" name="NBANDS">   488</i>
   <i name="NELECT">    814.00000000</i>
   <i type="int" name="TURBO">     0</i>
   <i type="int" name="IRESTART">     0</i>
   <i type="int" name="NREBOOT">     0</i>
   <i type="int" name="NMIN">     0</i>
   <i name="EREF">      0.00000000</i>
   <separator name="electronic smearing" >
    <i type="int" name="ISMEAR">     0</i>
    <i name="SIGMA">      0.20000000</i>
    <i name="KSPACING">      0.50000000</i>
    <i type="logical" name="KGAMMA"> T  </i>
   </separator>
   <separator name="electronic projectors" >
    <i type="logical" name="LREAL"> T  </i>
    <v name="ROPT">     -0.00050000     -0.00050000</v>
    <i type="int" name="LMAXPAW">  -100</i>
    <i type="int" name="LMAXMIX">     2</i>
    <i type="logical" name="NLSPLINE"> F  </i>
   </separator>
   <separator name="electronic startup" >
    <i type="int" name="ISTART">     0</i>
    <i type="int" name="ICHARG">     2</i>
    <i type="int" name="INIWAV">     1</i>
   </separator>
   <separator name="electronic spin" >
    <i type="int" name="ISPIN">     1</i>
    <i type="logical" name="LNONCOLLINEAR"> F  </i>
    <v name="MAGMOM">      1.00000000      1.00000000      1.00000000      1.00000000      1.00000000      1.00000000      1.00000000      1.00000000      1.00000000      1.00000000      1.00000000      1.00000000      1.00000000      1.00000000      1.00000000      1.00000000      1.00000000      1.00000000      1.00000000      1.00000000
      1.00000000      1.00000000      1.00000000      1.00000000      1.00000000      1.00000000      1.00000000      1.00000000      1.00000000      1.00000000      1.00000000      1.00000000      1.00000000      1.00000000      1.00000000      1.00000000      1.00000000      1.00000000      1.00000000      1.00000000
      1.00000000      1.00000000      1.00000000      1.00000000      1.00000000      1.00000000      1.00000000      1.00000000      1.00000000      1.00000000      1.00000000      1.00000000      1.00000000      1.00000000      1.00000000      1.00000000      1.00000000      1.00000000      1.00000000      1.00000000
      1.00000000      1.00000000      1.00000000      1.00000000      1.00000000      1.00000000      1.00000000      1.00000000      1.00000000      1.00000000      1.00000000      1.00000000      1.00000000      1.00000000</v>
    <i name="NUPDOWN">     -1.00000000</i>
    <i type="logical" name="LSORBIT"> F  </i>
    <v name="SAXIS">      0.00000000      0.00000000      1.00000000</v>
    <i type="logical" name="LSPIRAL"> F  </i>
    <v name="QSPIRAL">      0.00000000      0.00000000      0.00000000</v>
    <i type="logical" name="LZEROZ"> F  </i>
   </separator>
   <separator name="electronic exchange-correlation" >
    <i type="logical" name="LASPH"> F  </i>
    <i type="logical" name="LMETAGGA"> F  </i>
   </separator>
   <separator name="electronic convergence" >
    <i type="int" name="NELM">   100</i>
    <i type="int" name="NELMDL">    -5</i>
    <i type="int" name="NELMIN">     2</i>
    <i name="ENINI">    450.00000000</i>
    <separator name="electronic convergence detail" >
     <i type="logical" name="LDIAG"> T  </i>
     <i type="logical" name="LSUBROT"> F  </i>
     <i name="WEIMIN">      0.00000000</i>
     <i name="EBREAK">      0.00000005</i>
     <i name="DEPER">      0.30000000</i>
     <i type="int" name="NRMM">     4</i>
     <i name="TIME">      0.40000000</i>
    </separator>
   </separator>
   <separator name="electronic mixer" >
    <i name="AMIX">      0.40000000</i>
    <i name="BMIX">      1.00000000</i>
    <i name="AMIN">      0.10000000</i>
    <i name="AMIX_MAG">      1.60000000</i>
    <i name="BMIX_MAG">      1.00000000</i>
    <separator name="electronic mixer details" >
     <i type="int" name="IMIX">     4</i>
     <i type="logical" name="MIXFIRST"> F  </i>
     <i type="int" name="MAXMIX">   -45</i>
     <i name="WC">    100.00000000</i>
     <i type="int" name="INIMIX">     1</i>
     <i type="int" name="MIXPRE">     1</i>
     <i type="int" name="MREMOVE">     5</i>
    </separator>
   </separator>
   <separator name="electronic dipolcorrection" >
    <i type="logical" name="LDIPOL"> F  </i>
    <i type="logical" name="LMONO"> F  </i>
    <i type="int" name="IDIPOL">     0</i>
    <i name="EPSILON">      1.00000000</i>
    <v name="DIPOL">   -100.00000000   -100.00000000   -100.00000000</v>
    <i name="EFIELD">      0.00000000</i>
   </separator>
  </separator>
  <separator name="grids" >
   <i type="int" name="NGX">    90</i>
   <i type="int" name="NGY">    50</i>
   <i type="int" name="NGZ">    90</i>
   <i type="int" name="NGXF">   180</i>
   <i type="int" name="NGYF">   100</i>
   <i type="int" name="NGZF">   180</i>
   <i type="logical" name="ADDGRID"> F  </i>
  </separator>
  <separator name="ionic" >
   <i type="int" name="NSW">     0</i>
   <i type="int" name="IBRION">    -1</i>
   <i type="int" name="MDALGO">     0</i>
   <i type="int" name="ISIF">     2</i>
   <i name="PSTRESS">      0.00000000</i>
   <i name="EDIFFG">      0.00100000</i>
   <i type="int" name="NFREE">     0</i>
   <i name="POTIM">      0.50000000</i>
   <i name="SMASS">     -3.00000000</i>
   <i name="SCALEE">      1.00000000</i>
  </separator>
  <separator name="ionic md" >
   <i name="TEBEG">      0.00010000</i>
   <i name="TEEND">      0.00010000</i>
   <i type="int" name="NBLOCK">     1</i>
   <i type="int" name="KBLOCK">     1</i>
   <i type="int" name="NPACO">   256</i>
   <i name="APACO">     16.00000000</i>
  </separator>
  <separator name="symmetry" >
   <i type="int" name="ISYM">     2</i>
   <i name="SYMPREC">      0.00001000</i>
  </separator>
  <separator name="dos" >
   <i type="int" name="LORBIT">     0</i>
   <v name="RWIGS">     -1.00000000     -1.00000000</v>
   <i type="int" name="NEDOS">   301</i>
   <i name="EMIN">     10.00000000</i>
   <i name="EMAX">    -10.00000000</i>
   <i name="EFERMI">      0.00000000</i>
  </separator>
  <separator name="writing" >
   <i type="int" name="NWRITE">     2</i>
   <i type="logical" name="LWAVE"> F  </i>
   <i type="logical" name="LDOWNSAMPLE"> F  </i>
   <i type="logical" name="LCHARG"> F  </i>
   <i type="logical" name="LPARD"> F  </i>
   <i type="logical" name="LVTOT"> F  </i>
   <i type="logical" name="LVHAR"> F  </i>
   <i type="logical" name="LELF"> F  </i>
   <i type="logical" name="LOPTICS"> F  </i>
   <v name="STM">      0.00000000      0.00000000      0.00000000      0.00000000      0.00000000      0.00000000      0.00000000</v>
  </separator>
  <separator name="performance" >
   <i type="int" name="NPAR">     2</i>
   <i type="int" name="NSIM">     4</i>
   <i type="int" name="NBLK">    -1</i>
   <i type="logical" name="LPLANE"> T  </i>
   <i type="logical" name="LSCALAPACK"> T  </i>
   <i type="logical" name="LSCAAWARE"> F  </i>
   <i type="logical" name="LSCALU"> F  </i>
   <i type="logical" name="LASYNC"> F  </i>
   <i type="logical" name="LORBITALREAL"> F  </i>
  </separator>
  <separator name="miscellaneous" >
   <i type="int" name="IDIOT">     3</i>
   <i type="int" name="ISPECIAL">     0</i>
   <i type="logical" name="LMUSIC"> F  </i>
   <v name="POMASS">     58.69000000     32.06600000</v>
   <v name="DARWINR">      0.00000000      0.00000000</v>
   <v name="DARWINV">      1.00000000      1.00000000</v>
   <i type="logical" name="LCORR"> T  </i>
  </separator>
  <i type="logical" name="GGA_COMPAT"> T  </i>
  <i type="logical" name="LBERRY"> F  </i>
  <i type="int" name="ICORELEVEL">     0</i>
  <i type="logical" name="LDAU"> F  </i>
  <i type="int" name="I_CONSTRAINED_M">     0</i>
  <separator name="electronic exchange-correlation" >
   <i type="string" name="GGA">--</i>
   <i type="int" name="VOSKOWN">     0</i>
   <i type="logical" name="LHFCALC"> F  </i>
   <i type="string" name="PRECFOCK"></i>
   <i type="logical" name="LSYMGRAD"> F  </i>
   <i type="logical" name="LHFONE"> F  </i>
   <i type="logical" name="LRHFCALC"> F  </i>
   <i type="logical" name="LTHOMAS"> F  </i>
   <i type="logical" name="LMODELHF"> F  </i>
   <i name="ENCUT4O">     -1.00000000</i>
   <i type="int" name="EXXOEP">     0</i>
   <i type="int" name="FOURORBIT">     0</i>
   <i name="AEXX">      0.00000000</i>
   <i name="HFALPHA">      0.00000000</i>
   <i name="MCALPHA">      0.00000000</i>
   <i name="ALDAX">      1.00000000</i>
   <i name="AGGAX">      1.00000000</i>
   <i name="ALDAC">      1.00000000</i>
   <i name="AGGAC">      1.00000000</i>
   <i type="int" name="NKREDX">     1</i>
   <i type="int" name="NKREDY">     1</i>
   <i type="int" name="NKREDZ">     1</i>
   <i type="logical" name="SHIFTRED"> F  </i>
   <i type="logical" name="ODDONLY"> F  </i>
   <i type="logical" name="EVENONLY"> F  </i>
   <i type="int" name="LMAXFOCK">     0</i>
   <i type="int" name="NMAXFOCKAE">     0</i>
   <i type="logical" name="LFOCKAEDFT"> F  </i>
   <i name="HFSCREEN">      0.00000000</i>
   <i name="HFSCREENC">      0.00000000</i>
   <i type="int" name="NBANDSGWLOW">     0</i>
  </separator>
  <separator name="vdW DFT" >
   <i type="logical" name="LUSE_VDW"> F  </i>
   <i name="Zab_VDW">     -0.84910000</i>
   <i name="PARAM1">      0.12340000</i>
   <i name="PARAM2">      1.00000000</i>
   <i name="PARAM3">      0.00000000</i>
  </separator>
  <separator name="model GW" >
   <i type="int" name="MODEL_GW">     0</i>
   <i name="MODEL_EPS0">     21.83944246</i>
   <i name="MODEL_ALPHA">      1.00000000</i>
  </separator>
  <separator name="linear response parameters" >
   <i type="logical" name="LEPSILON"> F  </i>
   <i type="logical" name="LRPA"> F  </i>
   <i type="logical" name="LNABLA"> F  </i>
   <i type="logical" name="LVEL"> F  </i>
   <i type="int" name="KINTER">     0</i>
   <i name="CSHIFT">      0.10000000</i>
   <i name="OMEGAMAX">     -1.00000000</i>
   <i name="DEG_THRESHOLD">      0.00200000</i>
   <i name="RTIME">     -0.10000000</i>
   <i name="WPLASMAI">      0.00000000</i>
   <v name="DFIELD">      0.00000000      0.00000000      0.00000000</v>
   <v name="WPLASMA">      0.00000000      0.00000000      0.00000000      0.00000000      0.00000000      0.00000000      0.00000000      0.00000000      0.00000000</v>
  </separator>
  <separator name="orbital magnetization" >
   <i type="logical" name="NUCIND"> F  </i>
   <v name="MAGPOS">      0.00000000      0.00000000      0.00000000</v>
   <i type="logical" name="LNICSALL"> T  </i>
   <i type="logical" name="ORBITALMAG"> F  </i>
   <i type="logical" name="LMAGBLOCH"> F  </i>
   <i type="logical" name="LCHIMAG"> F  </i>
   <i type="logical" name="LGAUGE"> T  </i>
   <i type="int" name="MAGATOM">     0</i>
   <v name="MAGDIPOL">      0.00000000      0.00000000      0.00000000</v>
   <v name="AVECCONST">      0.00000000      0.00000000      0.00000000</v>
  </separator>
  <separator name="response functions" >
   <i type="logical" name="LADDER"> F  </i>
   <i type="logical" name="LRPAFORCE"> F  </i>
   <i type="logical" name="LFXC"> F  </i>
   <i type="logical" name="LHARTREE"> T  </i>
   <i type="int" name="IBSE">     0</i>
   <v type="int" name="KPOINT">    -1     0     0     0</v>
   <i type="logical" name="LTCTE"> F  </i>
   <i type="logical" name="LTETE"> F  </i>
   <i type="logical" name="LTRIPLET"> F  </i>
   <i type="logical" name="LFXCEPS"> F  </i>
   <i type="logical" name="LFXHEG"> F  </i>
   <i type="int" name="NATURALO">     2</i>
   <i type="logical" name="L2ORDER"> F  </i>
   <i type="logical" name="LMP2LT"> F  </i>
   <i type="logical" name="LUSEW"> F  </i>
   <i name="ENCUTGW">     -2.00000000</i>
   <i name="ENCUTGWSOFT">     -2.00000000</i>
   <i name="ENCUTLF">     -1.00000000</i>
   <i type="int" name="LMAXMP2">    -1</i>
   <i name="SCISSOR">      0.00000000</i>
   <i type="int" name="NOMEGA">     0</i>
   <i type="int" name="NOMEGAR">     0</i>
   <i type="int" name="NBANDSGW">    -1</i>
   <i type="int" name="NBANDSO">    -1</i>
   <i type="int" name="NBANDSV">    -1</i>
   <i type="int" name="NELM">   100</i>
   <i type="int" name="NELMHF">     1</i>
   <i type="int" name="DIM">     3</i>
   <i type="int" name="ANTIRES">     0</i>
   <i name="OMEGAMAX">    -30.00000000</i>
   <i name="OMEGAMIN">    -30.00000000</i>
   <i name="OMEGATL">   -200.00000000</i>
   <i type="int" name="OMEGAGRID">   140</i>
   <i name="CSHIFT">     -0.10000000</i>
   <i type="logical" name="SELFENERGY"> F  </i>
   <i type="logical" name="LSPECTRAL"> F  </i>
   <i type="logical" name="LSPECTRALGW"> F  </i>
   <i type="logical" name="LSINGLES"> F  </i>
   <i type="logical" name="LFERMIGW"> F  </i>
   <i type="logical" name="ODDONLYGW"> F  </i>
   <i type="logical" name="EVENONLYGW"> F  </i>
   <i type="int" name="NKREDLFX">     1</i>
   <i type="int" name="NKREDLFY">     1</i>
   <i type="int" name="NKREDLFZ">     1</i>
   <i type="int" name="MAXMEM">  2800</i>
   <i type="int" name="TELESCOPE">     0</i>
   <i type="int" name="TAUPAR">     1</i>
   <i type="int" name="OMEGAPAR">    -1</i>
   <i name="LAMBDA">      1.00000000</i>
  </separator>
  <separator name="External order field" >
   <i name="OFIELD_KAPPA">      0.00000000</i>
   <v name="OFIELD_K">      0.00000000      0.00000000      0.00000000</v>
   <i name="OFIELD_Q6_NEAR">      0.00000000</i>
   <i name="OFIELD_Q6_FAR">      0.00000000</i>
   <i name="OFIELD_A">      0.00000000</i>
  </separator>
 </parameters>
 <atominfo>
  <atoms>      74 </atoms>
  <types>       2 </types>
  <array name="atoms" >
   <dimension dim="1">ion</dimension>
   <field type="string">element</field>
   <field type="int">atomtype</field>
   <set>
    <rc><c>Ni</c><c>   1</c></rc>
    <rc><c>Ni</c><c>   1</c></rc>
    <rc><c>Ni</c><c>   1</c></rc>
    <rc><c>Ni</c><c>   1</c></rc>
    <rc><c>Ni</c><c>   1</c></rc>
    <rc><c>Ni</c><c>   1</c></rc>
    <rc><c>Ni</c><c>   1</c></rc>
    <rc><c>Ni</c><c>   1</c></rc>
    <rc><c>Ni</c><c>   1</c></rc>
    <rc><c>Ni</c><c>   1</c></rc>
    <rc><c>Ni</c><c>   1</c></rc>
    <rc><c>Ni</c><c>   1</c></rc>
    <rc><c>Ni</c><c>   1</c></rc>
    <rc><c>Ni</c><c>   1</c></rc>
    <rc><c>Ni</c><c>   1</c></rc>
    <rc><c>Ni</c><c>   1</c></rc>
    <rc><c>Ni</c><c>   1</c></rc>
    <rc><c>Ni</c><c>   1</c></rc>
    <rc><c>Ni</c><c>   1</c></rc>
    <rc><c>Ni</c><c>   1</c></rc>
    <rc><c>Ni</c><c>   1</c></rc>
    <rc><c>Ni</c><c>   1</c></rc>
    <rc><c>Ni</c><c>   1</c></rc>
    <rc><c>Ni</c><c>   1</c></rc>
    <rc><c>Ni</c><c>   1</c></rc>
    <rc><c>Ni</c><c>   1</c></rc>
    <rc><c>Ni</c><c>   1</c></rc>
    <rc><c>Ni</c><c>   1</c></rc>
    <rc><c>Ni</c><c>   1</c></rc>
    <rc><c>Ni</c><c>   1</c></rc>
    <rc><c>Ni</c><c>   1</c></rc>
    <rc><c>Ni</c><c>   1</c></rc>
    <rc><c>Ni</c><c>   1</c></rc>
    <rc><c>Ni</c><c>   1</c></rc>
    <rc><c>Ni</c><c>   1</c></rc>
    <rc><c>Ni</c><c>   1</c></rc>
    <rc><c>Ni</c><c>   1</c></rc>
    <rc><c>S </c><c>   2</c></rc>
    <rc><c>S </c><c>   2</c></rc>
    <rc><c>S </c><c>   2</c></rc>
    <rc><c>S </c><c>   2</c></rc>
    <rc><c>S </c><c>   2</c></rc>
    <rc><c>S </c><c>   2</c></rc>
    <rc><c>S </c><c>   2</c></rc>
    <rc><c>S </c><c>   2</c></rc>
    <rc><c>S </c><c>   2</c></rc>
    <rc><c>S </c><c>   2</c></rc>
    <rc><c>S </c><c>   2</c></rc>
    <rc><c>S </c><c>   2</c></rc>
    <rc><c>S </c><c>   2</c></rc>
    <rc><c>S </c><c>   2</c></rc>
    <rc><c>S </c><c>   2</c></rc>
    <rc><c>S </c><c>   2</c></rc>
    <rc><c>S </c><c>   2</c></rc>
    <rc><c>S </c><c>   2</c></rc>
    <rc><c>S </c><c>   2</c></rc>
    <rc><c>S </c><c>   2</c></rc>
    <rc><c>S </c><c>   2</c></rc>
    <rc><c>S </c><c>   2</c></rc>
    <rc><c>S </c><c>   2</c></rc>
    <rc><c>S </c><c>   2</c></rc>
    <rc><c>S </c><c>   2</c></rc>
    <rc><c>S </c><c>   2</c></rc>
    <rc><c>S </c><c>   2</c></rc>
    <rc><c>S </c><c>   2</c></rc>
    <rc><c>S </c><c>   2</c></rc>
    <rc><c>S </c><c>   2</c></rc>
    <rc><c>S </c><c>   2</c></rc>
    <rc><c>S </c><c>   2</c></rc>
    <rc><c>S </c><c>   2</c></rc>
    <rc><c>S </c><c>   2</c></rc>
    <rc><c>S </c><c>   2</c></rc>
    <rc><c>S </c><c>   2</c></rc>
    <rc><c>S </c><c>   2</c></rc>
   </set>
  </array>
  <array name="atomtypes" >
   <dimension dim="1">type</dimension>
   <field type="int">atomspertype</field>
   <field type="string">element</field>
   <field>mass</field>
   <field>valence</field>
   <field type="string">pseudopotential</field>
   <set>
    <rc><c>  37</c><c>Ni</c><c>     58.69000000</c><c>     16.00000000</c><c>  PAW_PBE Ni_pv 06Sep2000               </c></rc>
    <rc><c>  37</c><c>S </c><c>     32.06600000</c><c>      6.00000000</c><c>  PAW_PBE S 06Sep2000                   </c></rc>
   </set>
  </array>
 </atominfo>
 <structure name="initialpos" >
  <crystal>
   <varray name="basis" >
    <v>      16.88469405       0.00000000       0.00000000 </v>
    <v>       0.00000000       9.57841000       0.00000000 </v>
    <v>       0.00000000       0.00000000      16.65464569 </v>
   </varray>
   <i name="volume">   2693.53123734 </i>
   <varray name="rec_basis" >
    <v>       0.05922524       0.00000000       0.00000000 </v>
    <v>       0.00000000       0.10440146       0.00000000 </v>
    <v>       0.00000000       0.00000000       0.06004331 </v>
   </varray>
  </crystal>
  <varray name="positions" >
   <v>       0.78004630       0.14529696       0.12347080 </v>
   <v>       0.80212635       0.14549936       0.28530962 </v>
   <v>       0.29733028       0.64529696       0.21607389 </v>
   <v>       0.38292212       0.07845096       0.12180655 </v>
   <v>       0.46975828       0.14529696       0.24694159 </v>
   <v>       0.95247430       0.64529696       0.15433850 </v>
   <v>       0.97567450       0.64502391       0.31776360 </v>
   <v>       0.17076386       0.14739488       0.04768619 </v>
   <v>       0.12490229       0.14529696       0.18520619 </v>
   <v>       0.06837882       0.09574446       0.31176421 </v>
   <v>       0.57086750       0.64753658       0.16102028 </v>
   <v>       0.64218627       0.64529696       0.27780929 </v>
   <v>       0.90955982       0.00486364       0.11878606 </v>
   <v>       0.93983514       0.00709046       0.26845542 </v>
   <v>       0.35311930       0.64969829       0.07972734 </v>
   <v>       0.42486675       0.51319396       0.19160760 </v>
   <v>       0.46352572       0.47074578       0.33138293 </v>
   <v>       0.52859863       0.14668110       0.09267480 </v>
   <v>       0.59729475       0.01319396       0.22247530 </v>
   <v>       0.08001077       0.51319396       0.12987220 </v>
   <v>       0.11285865       0.50190337       0.29146580 </v>
   <v>       0.25243876       0.01319396       0.16073990 </v>
   <v>       0.29686601       0.97840883       0.29576578 </v>
   <v>       0.76628752       0.41985172       0.12078976 </v>
   <v>       0.76972274       0.51319396       0.25334300 </v>
   <v>       0.91004104       0.28658122       0.12028361 </v>
   <v>       0.94496445       0.27708958       0.27070005 </v>
   <v>       0.44397299       0.85341970       0.05654918 </v>
   <v>       0.42486675       0.77739996       0.19160760 </v>
   <v>       0.46423231       0.82561071       0.32935880 </v>
   <v>       0.62046125       0.35063253       0.08954748 </v>
   <v>       0.59729475       0.27739996       0.22247530 </v>
   <v>       0.08001077       0.77739996       0.12987220 </v>
   <v>       0.11287443       0.78490205       0.29355768 </v>
   <v>       0.25243876       0.27739996       0.16073990 </v>
   <v>       0.77820533       0.85356483       0.12041485 </v>
   <v>       0.76972274       0.77739996       0.25334300 </v>
   <v>       0.96096767       0.13883864       0.36320426 </v>
   <v>       0.99146120       0.14529696       0.18349304 </v>
   <v>       0.47417723       0.64529696       0.09088994 </v>
   <v>       0.50874518       0.64529696       0.27609614 </v>
   <v>       0.64660522       0.14529696       0.12175764 </v>
   <v>       0.67900545       0.14389516       0.28238585 </v>
   <v>       0.10343641       0.64543036       0.04007149 </v>
   <v>       0.16388920       0.64529696       0.21436074 </v>
   <v>       0.08090957       0.64117261       0.37884001 </v>
   <v>       0.28848617       0.16076006       0.06094034 </v>
   <v>       0.33359143       0.15029207       0.23096428 </v>
   <v>       0.81903321       0.64529696       0.15262534 </v>
   <v>       0.85114006       0.64537996       0.31263573 </v>
   <v>       0.81764776       0.29124212       0.03929179 </v>
   <v>       0.82906105       0.31351196       0.21464750 </v>
   <v>       0.33191602       0.85867515       0.11157439 </v>
   <v>       0.34908837       0.78786185       0.29677342 </v>
   <v>       0.48420507       0.31351196       0.15291210 </v>
   <v>       0.52369364       0.29081630       0.32232825 </v>
   <v>       0.00148905       0.81351196       0.24551520 </v>
   <v>       0.96726290       0.82102479       0.08335229 </v>
   <v>       0.14168727       0.32472969       0.11036734 </v>
   <v>       0.12647297       0.28082077       0.28604335 </v>
   <v>       0.65663306       0.81351196       0.18377980 </v>
   <v>       0.69464797       0.79306889       0.34708218 </v>
   <v>       0.31153405       0.47272250       0.13667780 </v>
   <v>       0.35111261       0.49677750       0.29235953 </v>
   <v>       0.81551329       0.99647862       0.04002285 </v>
   <v>       0.82906105       0.97708196       0.21464750 </v>
   <v>       0.00148905       0.47708196       0.24551520 </v>
   <v>       0.96773885       0.46944296       0.08353527 </v>
   <v>       0.48420507       0.97708196       0.15291210 </v>
   <v>       0.52640610       0.00395186       0.32356116 </v>
   <v>       0.65663306       0.47708196       0.18377980 </v>
   <v>       0.69707544       0.50370849       0.34927491 </v>
   <v>       0.14057422       0.96773926       0.10686513 </v>
   <v>       0.17391704       0.97708196       0.27638290 </v>
  </varray>
 </structure>
 <calculation>
  <scstep>
   <time name="dav">    9.46    9.47</time>
   <time name="total">    9.85    9.85</time>
   <energy>
    <i name="alphaZ">   1458.83996183 </i>
    <i name="ewald"> 168125.65670893 </i>
    <i name="hartreedc">-291734.29448563 </i>
    <i name="XCdc">   3785.08584459 </i>
    <i name="pawpsdc"> 115860.90926010 </i>
    <i name="pawaedc">-120909.33166199 </i>
    <i name="eentropy">     -0.43896755 </i>
    <i name="bandstr">  -7222.73169301 </i>
    <i name="atom"> 139780.45519414 </i>
    <i name="e_fr_energy">   9144.15016140 </i>
    <i name="e_wo_entrp">   9144.58912896 </i>
    <i name="e_0_energy">   9144.36964518 </i>
   </energy>
  </scstep>
  <scstep>
   <time name="dav">    8.31    8.31</time>
   <time name="total">    8.31    8.32</time>
   <energy>
    <i name="e_fr_energy">    493.82083318 </i>
    <i name="e_wo_entrp">    494.51889301 </i>
    <i name="e_0_energy">    494.16986309 </i>
   </energy>
  </scstep>
  <scstep>
   <time name="dav">    9.19    9.19</time>
   <time name="total">    9.19    9.19</time>
   <energy>
    <i name="e_fr_energy">   -360.03177350 </i>
    <i name="e_wo_entrp">   -358.91018379 </i>
    <i name="e_0_energy">   -359.47097864 </i>
   </energy>
  </scstep>
  <scstep>
   <time name="dav">    9.11    9.12</time>
   <time name="total">    9.11    9.12</time>
   <energy>
    <i name="e_fr_energy">   -401.99662976 </i>
    <i name="e_wo_entrp">   -400.82502279 </i>
    <i name="e_0_energy">   -401.41082627 </i>
   </energy>
  </scstep>
  <scstep>
   <time name="dav">    9.44    9.44</time>
   <time name="total">    9.82    9.83</time>
   <energy>
    <i name="e_fr_energy">   -403.48033902 </i>
    <i name="e_wo_entrp">   -402.30747226 </i>
    <i name="e_0_energy">   -402.89390564 </i>
   </energy>
  </scstep>
  <scstep>
   <time name="dav">    9.36    9.36</time>
   <time name="total">   10.04   10.04</time>
   <energy>
    <i name="e_fr_energy">   -469.05784462 </i>
    <i name="e_wo_entrp">   -468.20680647 </i>
    <i name="e_0_energy">   -468.63232555 </i>
   </energy>
  </scstep>
  <scstep>
   <time name="dav">    8.77    8.78</time>
   <time name="total">    9.60    9.60</time>
   <energy>
    <i name="e_fr_energy">   -367.82270211 </i>
    <i name="e_wo_entrp">   -366.84769334 </i>
    <i name="e_0_energy">   -367.33519772 </i>
   </energy>
  </scstep>
  <scstep>
   <time name="dav">   10.37   10.37</time>
   <time name="total">   11.05   11.05</time>
   <energy>
    <i name="e_fr_energy">   -413.26430959 </i>
    <i name="e_wo_entrp">   -412.18303453 </i>
    <i name="e_0_energy">   -412.72367206 </i>
   </energy>
  </scstep>
  <scstep>
   <time name="dav">    9.90    9.90</time>
   <time name="total">   10.58   10.58</time>
   <energy>
    <i name="e_fr_energy">   -370.74747270 </i>
    <i name="e_wo_entrp">   -369.54786617 </i>
    <i name="e_0_energy">   -370.14766944 </i>
   </energy>
  </scstep>
  <scstep>
   <time name="dav">   10.95   10.95</time>
   <time name="total">   11.72   11.72</time>
   <energy>
    <i name="e_fr_energy">   -390.67607723 </i>
    <i name="e_wo_entrp">   -389.62046398 </i>
    <i name="e_0_energy">   -390.14827060 </i>
   </energy>
  </scstep>
  <scstep>
   <time name="dav">   10.25   10.25</time>
   <time name="total">   10.93   10.94</time>
   <energy>
    <i name="e_fr_energy">   -363.33082704 </i>
    <i name="e_wo_entrp">   -362.30933713 </i>
    <i name="e_0_energy">   -362.82008209 </i>
   </energy>
  </scstep>
  <scstep>
   <time name="dav">   10.17   10.17</time>
   <time name="total">   10.86   10.86</time>
   <energy>
    <i name="e_fr_energy">   -356.25283177 </i>
    <i name="e_wo_entrp">   -355.16586029 </i>
    <i name="e_0_energy">   -355.70934603 </i>
   </energy>
  </scstep>
  <scstep>
   <time name="dav">   10.44   10.44</time>
   <time name="total">   11.13   11.13</time>
   <energy>
    <i name="e_fr_energy">   -355.99731567 </i>
    <i name="e_wo_entrp">   -354.96582636 </i>
    <i name="e_0_energy">   -355.48157102 </i>
   </energy>
  </scstep>
  <scstep>
   <time name="dav">   10.05   10.05</time>
   <time name="total">   10.73   10.73</time>
   <energy>
    <i name="e_fr_energy">   -352.83874887 </i>
    <i name="e_wo_entrp">   -351.77728913 </i>
    <i name="e_0_energy">   -352.30801900 </i>
   </energy>
  </scstep>
  <scstep>
   <time name="dav">   10.33   10.34</time>
   <time name="total">   11.02   11.02</time>
   <energy>
    <i name="e_fr_energy">   -352.17863391 </i>
    <i name="e_wo_entrp">   -351.15408635 </i>
    <i name="e_0_energy">   -351.66636013 </i>
   </energy>
  </scstep>
  <scstep>
   <time name="dav">   10.16   10.17</time>
   <time name="total">   10.85   10.85</time>
   <energy>
    <i name="e_fr_energy">   -351.82696736 </i>
    <i name="e_wo_entrp">   -350.77431589 </i>
    <i name="e_0_energy">   -351.30064163 </i>
   </energy>
  </scstep>
  <scstep>
   <time name="dav">   10.05   10.06</time>
   <time name="total">   10.73   10.74</time>
   <energy>
    <i name="e_fr_energy">   -351.64968555 </i>
    <i name="e_wo_entrp">   -350.62273927 </i>
    <i name="e_0_energy">   -351.13621241 </i>
   </energy>
  </scstep>
  <scstep>
   <time name="dav">   10.31   10.32</time>
   <time name="total">   11.01   11.01</time>
   <energy>
    <i name="e_fr_energy">   -351.36656739 </i>
    <i name="e_wo_entrp">   -350.30653526 </i>
    <i name="e_0_energy">   -350.83655132 </i>
   </energy>
  </scstep>
  <scstep>
   <time name="dav">   10.45   10.46</time>
   <time name="total">   11.14   11.15</time>
   <energy>
    <i name="e_fr_energy">   -351.06461917 </i>
    <i name="e_wo_entrp">   -350.03113388 </i>
    <i name="e_0_energy">   -350.54787652 </i>
   </energy>
  </scstep>
  <scstep>
   <time name="dav">   10.19   10.19</time>
   <time name="total">   10.88   10.88</time>
   <energy>
    <i name="e_fr_energy">   -350.83504939 </i>
    <i name="e_wo_entrp">   -349.75957487 </i>
    <i name="e_0_energy">   -350.29731213 </i>
   </energy>
  </scstep>
  <scstep>
   <time name="dav">   10.22   10.22</time>
   <time name="total">   10.91   10.91</time>
   <energy>
    <i name="e_fr_energy">   -350.75947545 </i>
    <i name="e_wo_entrp">   -349.68802525 </i>
    <i name="e_0_energy">   -350.22375035 </i>
   </energy>
  </scstep>
  <scstep>
   <time name="dav">    8.61    8.62</time>
   <time name="total">    9.30    9.31</time>
   <energy>
    <i name="e_fr_energy">   -350.74947042 </i>
    <i name="e_wo_entrp">   -349.67311674 </i>
    <i name="e_0_energy">   -350.21129358 </i>
   </energy>
  </scstep>
  <scstep>
   <time name="dav">    9.46    9.47</time>
   <time name="total">   10.16   10.16</time>
   <energy>
    <i name="e_fr_energy">   -350.74835917 </i>
    <i name="e_wo_entrp">   -349.67243488 </i>
    <i name="e_0_energy">   -350.21039702 </i>
   </energy>
  </scstep>
  <scstep>
   <time name="dav">    9.78    9.78</time>
   <time name="total">   10.47   10.47</time>
   <energy>
    <i name="e_fr_energy">   -350.74040517 </i>
    <i name="e_wo_entrp">   -349.66857119 </i>
    <i name="e_0_energy">   -350.20448818 </i>
   </energy>
  </scstep>
  <scstep>
   <time name="dav">    9.98    9.99</time>
   <time name="total">   10.69   10.69</time>
   <energy>
    <i name="e_fr_energy">   -350.75553156 </i>
    <i name="e_wo_entrp">   -349.67670324 </i>
    <i name="e_0_energy">   -350.21611740 </i>
   </energy>
  </scstep>
  <scstep>
   <time name="dav">   10.28   10.29</time>
   <time name="total">   10.98   10.99</time>
   <energy>
    <i name="e_fr_energy">   -350.73484627 </i>
    <i name="e_wo_entrp">   -349.66538472 </i>
    <i name="e_0_energy">   -350.20011550 </i>
   </energy>
  </scstep>
  <scstep>
   <time name="dav">   10.08   10.08</time>
   <time name="total">   10.78   10.78</time>
   <energy>
    <i name="e_fr_energy">   -350.73379572 </i>
    <i name="e_wo_entrp">   -349.66309995 </i>
    <i name="e_0_energy">   -350.19844783 </i>
   </energy>
  </scstep>
  <scstep>
   <time name="dav">    8.91    8.92</time>
   <time name="total">    9.85    9.86</time>
   <energy>
    <i name="e_fr_energy">   -350.73286407 </i>
    <i name="e_wo_entrp">   -349.66366514 </i>
    <i name="e_0_energy">   -350.19826460 </i>
   </energy>
  </scstep>
  <scstep>
   <time name="dav">    9.25    9.26</time>
   <time name="total">    9.95    9.96</time>
   <energy>
    <i name="e_fr_energy">   -350.73305498 </i>
    <i name="e_wo_entrp">   -349.66512754 </i>
    <i name="e_0_energy">   -350.19909126 </i>
   </energy>
  </scstep>
  <scstep>
   <time name="dav">    8.85    8.86</time>
   <time name="total">    9.55    9.56</time>
   <energy>
    <i name="e_fr_energy">   -350.73289726 </i>
    <i name="e_wo_entrp">   -349.66299172 </i>
    <i name="e_0_energy">   -350.19794449 </i>
   </energy>
  </scstep>
  <scstep>
   <time name="dav">    8.30    8.30</time>
   <time name="total">    9.00    9.01</time>
   <energy>
    <i name="e_fr_energy">   -350.73302966 </i>
    <i name="e_wo_entrp">   -349.66413233 </i>
    <i name="e_0_energy">   -350.19858099 </i>
   </energy>
  </scstep>
  <scstep>
   <time name="dav">    8.12    8.12</time>
   <time name="total">    8.82    8.82</time>
   <energy>
    <i name="e_fr_energy">   -350.73340964 </i>
    <i name="e_wo_entrp">   -349.66408737 </i>
    <i name="e_0_energy">   -350.19874851 </i>
   </energy>
  </scstep>
  <scstep>
   <time name="dav">    6.95    6.96</time>
   <time name="total">    7.65    7.66</time>
   <energy>
    <i name="e_fr_energy">   -350.73364956 </i>
    <i name="e_wo_entrp">   -349.66424793 </i>
    <i name="e_0_energy">   -350.19894875 </i>
   </energy>
  </scstep>
  <scstep>
   <time name="dav">    5.66    5.67</time>
   <time name="total">    6.37    6.37</time>
   <energy>
    <i name="e_fr_energy">   -350.73398164 </i>
    <i name="e_wo_entrp">   -349.66451894 </i>
    <i name="e_0_energy">   -350.19925029 </i>
   </energy>
  </scstep>
  <scstep>
   <time name="dav">    5.77    5.77</time>
   <time name="total">    6.49    6.49</time>
   <energy>
    <i name="e_fr_energy">   -350.73434122 </i>
    <i name="e_wo_entrp">   -349.66452101 </i>
    <i name="e_0_energy">   -350.19943111 </i>
   </energy>
  </scstep>
  <scstep>
   <time name="dav">    5.91    5.92</time>
   <time name="total">    6.63    6.64</time>
   <energy>
    <i name="e_fr_energy">   -350.73487001 </i>
    <i name="e_wo_entrp">   -349.66543336 </i>
    <i name="e_0_energy">   -350.20015168 </i>
   </energy>
  </scstep>
  <scstep>
   <time name="dav">    5.68    5.68</time>
   <time name="total">    6.64    6.64</time>
   <energy>
    <i name="e_fr_energy">   -350.73515258 </i>
    <i name="e_wo_entrp">   -349.66587917 </i>
    <i name="e_0_energy">   -350.20051588 </i>
   </energy>
  </scstep>
  <scstep>
   <time name="dav">    5.73    5.73</time>
   <time name="total">    6.46    6.46</time>
   <energy>
    <i name="e_fr_energy">   -350.73546884 </i>
    <i name="e_wo_entrp">   -349.66617423 </i>
    <i name="e_0_energy">   -350.20082154 </i>
   </energy>
  </scstep>
  <scstep>
   <time name="dav">    5.81    5.81</time>
   <time name="total">    6.54    6.54</time>
   <energy>
    <i name="e_fr_energy">   -350.73599590 </i>
    <i name="e_wo_entrp">   -349.66668995 </i>
    <i name="e_0_energy">   -350.20134292 </i>
   </energy>
  </scstep>
  <scstep>
   <time name="dav">    5.83    5.84</time>
   <time name="total">    6.59    6.59</time>
   <energy>
    <i name="e_fr_energy">   -350.73634785 </i>
    <i name="e_wo_entrp">   -349.66701900 </i>
    <i name="e_0_energy">   -350.20168343 </i>
   </energy>
  </scstep>
  <scstep>
   <time name="dav">    5.62    5.63</time>
   <time name="total">    6.36    6.36</time>
   <energy>
    <i name="e_fr_energy">   -350.73651016 </i>
    <i name="e_wo_entrp">   -349.66719877 </i>
    <i name="e_0_energy">   -350.20185446 </i>
   </energy>
  </scstep>
  <scstep>
   <time name="dav">    5.68    5.68</time>
   <time name="total">    6.05    6.05</time>
   <energy>
    <i name="alphaZ">   1458.83996183 </i>
    <i name="ewald"> 168125.65670893 </i>
    <i name="hartreedc">-291092.49126277 </i>
    <i name="XCdc">   3755.60448231 </i>
    <i name="pawpsdc"> 144863.98698809 </i>
    <i name="pawaedc">-149996.03418729 </i>
    <i name="eentropy">     -1.06933175 </i>
    <i name="bandstr"> -17245.68514755 </i>
    <i name="atom"> 139780.45519414 </i>
    <i name="e_fr_energy">   -350.73659406 </i>
    <i name="e_wo_entrp">   -349.66726231 </i>
    <i name="e_0_energy">   -350.20192818 </i>
   </energy>
  </scstep>
  <structure>
   <crystal>
    <varray name="basis" >
     <v>      16.88469405       0.00000000       0.00000000 </v>
     <v>       0.00000000       9.57841000       0.00000000 </v>
     <v>       0.00000000       0.00000000      16.65464569 </v>
    </varray>
    <i name="volume">   2693.53123734 </i>
    <varray name="rec_basis" >
     <v>       0.05922524       0.00000000       0.00000000 </v>
     <v>       0.00000000       0.10440146       0.00000000 </v>
     <v>       0.00000000       0.00000000       0.06004331 </v>
    </varray>
   </crystal>
   <varray name="positions" >
    <v>       0.78004630       0.14529696       0.12347080 </v>
    <v>       0.80212635       0.14549936       0.28530962 </v>
    <v>       0.29733028       0.64529696       0.21607389 </v>
    <v>       0.38292212       0.07845096       0.12180655 </v>
    <v>       0.46975828       0.14529696       0.24694159 </v>
    <v>       0.95247430       0.64529696       0.15433850 </v>
    <v>       0.97567450       0.64502391       0.31776360 </v>
    <v>       0.17076386       0.14739488       0.04768619 </v>
    <v>       0.12490229       0.14529696       0.18520619 </v>
    <v>       0.06837882       0.09574446       0.31176421 </v>
    <v>       0.57086750       0.64753658       0.16102028 </v>
    <v>       0.64218627       0.64529696       0.27780929 </v>
    <v>       0.90955982       0.00486364       0.11878606 </v>
    <v>       0.93983514       0.00709046       0.26845542 </v>
    <v>       0.35311930       0.64969829       0.07972734 </v>
    <v>       0.42486675       0.51319396       0.19160760 </v>
    <v>       0.46352572       0.47074578       0.33138293 </v>
    <v>       0.52859863       0.14668110       0.09267480 </v>
    <v>       0.59729475       0.01319396       0.22247530 </v>
    <v>       0.08001077       0.51319396       0.12987220 </v>
    <v>       0.11285865       0.50190337       0.29146580 </v>
    <v>       0.25243876       0.01319396       0.16073990 </v>
    <v>       0.29686601       0.97840883       0.29576578 </v>
    <v>       0.76628752       0.41985172       0.12078976 </v>
    <v>       0.76972274       0.51319396       0.25334300 </v>
    <v>       0.91004104       0.28658122       0.12028361 </v>
    <v>       0.94496445       0.27708958       0.27070005 </v>
    <v>       0.44397299       0.85341970       0.05654918 </v>
    <v>       0.42486675       0.77739996       0.19160760 </v>
    <v>       0.46423231       0.82561071       0.32935880 </v>
    <v>       0.62046125       0.35063253       0.08954748 </v>
    <v>       0.59729475       0.27739996       0.22247530 </v>
    <v>       0.08001077       0.77739996       0.12987220 </v>
    <v>       0.11287443       0.78490205       0.29355768 </v>
    <v>       0.25243876       0.27739996       0.16073990 </v>
    <v>       0.77820533       0.85356483       0.12041485 </v>
    <v>       0.76972274       0.77739996       0.25334300 </v>
    <v>       0.96096767       0.13883864       0.36320426 </v>
    <v>       0.99146120       0.14529696       0.18349304 </v>
    <v>       0.47417723       0.64529696       0.09088994 </v>
    <v>       0.50874518       0.64529696       0.27609614 </v>
    <v>       0.64660522       0.14529696       0.12175764 </v>
    <v>       0.67900545       0.14389516       0.28238585 </v>
    <v>       0.10343641       0.64543036       0.04007149 </v>
    <v>       0.16388920       0.64529696       0.21436074 </v>
    <v>       0.08090957       0.64117261       0.37884001 </v>
    <v>       0.28848617       0.16076006       0.06094034 </v>
    <v>       0.33359143       0.15029207       0.23096428 </v>
    <v>       0.81903321       0.64529696       0.15262534 </v>
    <v>       0.85114006       0.64537996       0.31263573 </v>
    <v>       0.81764776       0.29124212       0.03929179 </v>
    <v>       0.82906105       0.31351196       0.21464750 </v>
    <v>       0.33191602       0.85867515       0.11157439 </v>
    <v>       0.34908837       0.78786185       0.29677342 </v>
    <v>       0.48420507       0.31351196       0.15291210 </v>
    <v>       0.52369364       0.29081630       0.32232825 </v>
    <v>       0.00148905       0.81351196       0.24551520 </v>
    <v>       0.96726290       0.82102479       0.08335229 </v>
    <v>       0.14168727       0.32472969       0.11036734 </v>
    <v>       0.12647297       0.28082077       0.28604335 </v>
    <v>       0.65663306       0.81351196       0.18377980 </v>
    <v>       0.69464797       0.79306889       0.34708218 </v>
    <v>       0.31153405       0.47272250       0.13667780 </v>
    <v>       0.35111261       0.49677750       0.29235953 </v>
    <v>       0.81551329       0.99647862       0.04002285 </v>
    <v>       0.82906105       0.97708196       0.21464750 </v>
    <v>       0.00148905       0.47708196       0.24551520 </v>
    <v>       0.96773885       0.46944296       0.08353527 </v>
    <v>       0.48420507       0.97708196       0.15291210 </v>
    <v>       0.52640610       0.00395186       0.32356116 </v>
    <v>       0.65663306       0.47708196       0.18377980 </v>
    <v>       0.69707544       0.50370849       0.34927491 </v>
    <v>       0.14057422       0.96773926       0.10686513 </v>
    <v>       0.17391704       0.97708196       0.27638290 </v>
   </varray>
  </structure>
  <varray name="forces" >
   <v>       0.13790284      -0.11396383       0.99442187 </v>
   <v>      -0.03345196       0.02412516       1.03646927 </v>
   <v>      -1.37392963      -0.12302265       0.09572363 </v>
   <v>       0.78285466       0.23361280      -0.85888350 </v>
   <v>      -1.39268574       0.69046393      -1.40465582 </v>
   <v>      -0.50563207      -0.03229844       2.08656893 </v>
   <v>      -1.59201325      -0.00732531       0.48663459 </v>
   <v>      -0.67950506      -0.02693710      -1.88217904 </v>
   <v>      -0.76701454      -0.16389911       0.33807938 </v>
   <v>       0.62764664      -0.59327927       0.52865731 </v>
   <v>       0.65238779      -0.25202426      -0.38248760 </v>
   <v>      -0.89121459       0.17934659      -0.94630988 </v>
   <v>       1.04112207       0.77083065       0.15416732 </v>
   <v>      -0.32522477      -1.05674333      -0.22774185 </v>
   <v>      -0.98154141       0.23796067      -1.38399938 </v>
   <v>       0.84316749      -0.55001669      -0.93198799 </v>
   <v>       0.31602429       0.25410147       0.86451618 </v>
   <v>      -0.29703466      -0.22640933      -1.70255838 </v>
   <v>       0.87417819      -0.49112109      -1.51032915 </v>
   <v>       0.09563558      -0.67066537       2.25318143 </v>
   <v>       1.12022423      -1.51973547       0.23916166 </v>
   <v>      -0.64636234      -0.33188009      -0.02496981 </v>
   <v>      -0.59062292       0.18403844       1.41775736 </v>
   <v>      -0.63592613       1.07086472       0.01962776 </v>
   <v>       1.15284217       0.05171469      -1.44549448 </v>
   <v>       0.89492684      -0.57211587       0.25017745 </v>
   <v>      -1.19553768       1.25540430      -0.44457616 </v>
   <v>       0.24618785       0.45753170      -0.88679339 </v>
   <v>       0.47129125      -0.12741245       0.54626499 </v>
   <v>      -0.17444110      -0.42406809       0.80157375 </v>
   <v>      -0.22254574       0.49273593      -1.01240840 </v>
   <v>       0.24413189       0.14567720      -0.32084205 </v>
   <v>       0.11590154       0.81807723       2.15990078 </v>
   <v>       1.01788665       1.26974854       0.67969956 </v>
   <v>       0.41160697       1.03360318       1.35835161 </v>
   <v>      -0.94583471      -0.71112217       0.26505328 </v>
   <v>       0.63806224       0.02831463      -1.43418543 </v>
   <v>      -0.73773226       0.20834132       4.03658581 </v>
   <v>       1.48067529      -0.46184305      -2.41274044 </v>
   <v>       0.86395881      -0.61616413      -3.07884762 </v>
   <v>       1.16879522       0.29984569       0.93534701 </v>
   <v>       1.51648073      -0.76855162      -1.62468071 </v>
   <v>       0.54757906       0.08109033       2.59897142 </v>
   <v>       1.50450481       0.01060559      -3.96371044 </v>
   <v>       2.40638902       0.20502872      -1.95286595 </v>
   <v>       0.59842217       0.05291719       4.26033330 </v>
   <v>       1.25673068       0.49846852      -3.25808707 </v>
   <v>       0.48788705       1.36320335       2.31927247 </v>
   <v>       0.40899526      -0.50454531      -1.61418380 </v>
   <v>       0.79660535      -0.05469978       2.55145828 </v>
   <v>      -0.17901500       0.83611521      -3.69091525 </v>
   <v>      -0.57999521       1.35349111       1.59960459 </v>
   <v>      -1.65143423      -0.54875604      -0.89398788 </v>
   <v>      -1.08602386       0.68265012       1.35919663 </v>
   <v>      -0.35924209       1.65396372      -0.35503446 </v>
   <v>       0.22326852       0.22078468       2.87374516 </v>
   <v>      -1.14560575       1.37515200      -0.85291456 </v>
   <v>      -0.41559715       0.68482534      -2.75573895 </v>
   <v>      -0.85502540       1.04035914      -1.33165949 </v>
   <v>       1.65680581       0.86738219       1.61006665 </v>
   <v>      -0.11955268       1.00654005      -0.92697619 </v>
   <v>      -0.48159859       1.22307407       3.73825561 </v>
   <v>      -0.90311371      -0.90591452      -1.30157257 </v>
   <v>      -1.76858906      -1.70846299       2.23594876 </v>
   <v>      -0.42527695      -0.74734623      -3.94336735 </v>
   <v>      -1.25703864      -1.51364545       1.22550818 </v>
   <v>      -1.29224452      -1.31745021      -0.80889550 </v>
   <v>      -0.58961657      -0.69868119      -2.90316595 </v>
   <v>       1.84415395      -2.07306388       0.44331882 </v>
   <v>       0.21665649      -0.24010472       2.89569120 </v>
   <v>      -0.64596359      -0.35318746      -0.29540919 </v>
   <v>      -0.47122310      -1.17667860       3.85040777 </v>
   <v>      -0.75022164      -1.18485054      -1.46416709 </v>
   <v>       0.30273885       0.00599549       1.11962298 </v>
  </varray>
  <varray name="stress" >
   <v>      71.81111264      -1.67939927      -1.81888695 </v>
   <v>      -1.67939952      76.39576602       0.77646178 </v>
   <v>      -1.81888692       0.77646136      87.70381982 </v>
  </varray>
  <energy>
   <i name="e_fr_energy">   -350.73659406 </i>
   <i name="e_wo_entrp">   -350.20192818 </i>
   <i name="e_0_energy">     -1.06933175 </i>
  </energy>
  <time name="totalsc">  403.23  403.36</time>
  <eigenvalues>
   <array>
    <dimension dim="1">band</dimension>
    <dimension dim="2">kpoint</dimension>
    <dimension dim="3">spin</dimension>
    <field>eigene</field>
    <field>occ</field>
    <set>
     <set comment="spin 1">
      <set comment="kpoint 1">
       <r>  -65.1066    1.0000 </r>
       <r>  -65.0064    1.0000 </r>
       <r>  -64.9729    1.0000 </r>
       <r>  -64.9688    1.0000 </r>
       <r>  -64.9612    1.0000 </r>
       <r>  -64.9274    1.0000 </r>
       <r>  -64.9244    1.0000 </r>
       <r>  -64.9191    1.0000 </r>
       <r>  -64.9125    1.0000 </r>
       <r>  -64.8733    1.0000 </r>
       <r>  -64.8640    1.0000 </r>
       <r>  -64.8626    1.0000 </r>
       <r>  -64.8574    1.0000 </r>
       <r>  -64.8276    1.0000 </r>
       <r>  -64.8188    1.0000 </r>
       <r>  -64.8128    1.0000 </r>
       <r>  -64.7903    1.0000 </r>
       <r>  -64.7805    1.0000 </r>
       <r>  -64.7605    1.0000 </r>
       <r>  -64.7549    1.0000 </r>
       <r>  -64.7507    1.0000 </r>
       <r>  -64.7385    1.0000 </r>
       <r>  -64.7375    1.0000 </r>
       <r>  -64.7312    1.0000 </r>
       <r>  -64.7218    1.0000 </r>
       <r>  -64.7203    1.0000 </r>
       <r>  -64.7163    1.0000 </r>
       <r>  -64.7048    1.0000 </r>
       <r>  -64.7039    1.0000 </r>
       <r>  -64.6980    1.0000 </r>
       <r>  -64.6907    1.0000 </r>
       <r>  -64.6743    1.0000 </r>
       <r>  -64.6626    1.0000 </r>
       <r>  -64.6553    1.0000 </r>
       <r>  -64.6545    1.0000 </r>
       <r>  -64.6540    1.0000 </r>
       <r>  -64.5906    1.0000 </r>
       <r>  -64.5875    1.0000 </r>
       <r>  -64.5850    1.0000 </r>
       <r>  -64.5826    1.0000 </r>
       <r>  -64.5757    1.0000 </r>
       <r>  -64.5665    1.0000 </r>
       <r>  -64.5627    1.0000 </r>
       <r>  -64.5591    1.0000 </r>
       <r>  -64.5584    1.0000 </r>
       <r>  -64.5545    1.0000 </r>
       <r>  -64.5364    1.0000 </r>
       <r>  -64.5354    1.0000 </r>
       <r>  -64.5192    1.0000 </r>
       <r>  -64.5002    1.0000 </r>
       <r>  -64.4987    1.0000 </r>
       <r>  -64.4946    1.0000 </r>
       <r>  -64.4879    1.0000 </r>
       <r>  -64.4765    1.0000 </r>
       <r>  -64.4699    1.0000 </r>
       <r>  -64.4646    1.0000 </r>
       <r>  -64.4594    1.0000 </r>
       <r>  -64.4589    1.0000 </r>
       <r>  -64.4546    1.0000 </r>
       <r>  -64.4391    1.0000 </r>
       <r>  -64.4384    1.0000 </r>
       <r>  -64.4348    1.0000 </r>
       <r>  -64.4330    1.0000 </r>
       <r>  -64.4248    1.0000 </r>
       <r>  -64.4207    1.0000 </r>
       <r>  -64.4191    1.0000 </r>
       <r>  -64.4084    1.0000 </r>
       <r>  -64.3951    1.0000 </r>
       <r>  -64.3888    1.0000 </r>
       <r>  -64.3738    1.0000 </r>
       <r>  -64.3543    1.0000 </r>
       <r>  -64.3442    1.0000 </r>
       <r>  -64.3290    1.0000 </r>
       <r>  -64.3218    1.0000 </r>
       <r>  -64.3066    1.0000 </r>
       <r>  -64.3031    1.0000 </r>
       <r>  -64.3012    1.0000 </r>
       <r>  -64.2482    1.0000 </r>
       <r>  -64.2454    1.0000 </r>
       <r>  -64.2421    1.0000 </r>
       <r>  -64.2380    1.0000 </r>
       <r>  -64.2176    1.0000 </r>
       <r>  -64.2110    1.0000 </r>
       <r>  -64.2028    1.0000 </r>
       <r>  -64.1951    1.0000 </r>
       <r>  -64.1917    1.0000 </r>
       <r>  -64.1672    1.0000 </r>
       <r>  -64.1621    1.0000 </r>
       <r>  -64.1612    1.0000 </r>
       <r>  -64.1444    1.0000 </r>
       <r>  -64.1235    1.0000 </r>
       <r>  -64.1216    1.0000 </r>
       <r>  -64.1121    1.0000 </r>
       <r>  -64.0941    1.0000 </r>
       <r>  -64.0834    1.0000 </r>
       <r>  -64.0333    1.0000 </r>
       <r>  -64.0048    1.0000 </r>
       <r>  -63.9856    1.0000 </r>
       <r>  -63.9725    1.0000 </r>
       <r>  -63.9637    1.0000 </r>
       <r>  -63.9558    1.0000 </r>
       <r>  -63.8086    1.0000 </r>
       <r>  -63.7934    1.0000 </r>
       <r>  -63.6989    1.0000 </r>
       <r>  -63.6817    1.0000 </r>
       <r>  -63.6647    1.0000 </r>
       <r>  -63.6494    1.0000 </r>
       <r>  -63.6226    1.0000 </r>
       <r>  -63.5428    1.0000 </r>
       <r>  -63.5066    1.0000 </r>
       <r>  -63.4692    1.0000 </r>
       <r>  -16.6165    1.0000 </r>
       <r>  -16.4442    1.0000 </r>
       <r>  -16.0909    1.0000 </r>
       <r>  -15.8491    1.0000 </r>
       <r>  -15.7361    1.0000 </r>
       <r>  -15.6626    1.0000 </r>
       <r>  -15.4816    1.0000 </r>
       <r>  -15.4215    1.0000 </r>
       <r>  -15.2879    1.0000 </r>
       <r>  -15.1512    1.0000 </r>
       <r>  -15.0695    1.0000 </r>
       <r>  -14.9465    1.0000 </r>
       <r>  -14.8597    1.0000 </r>
       <r>  -14.8196    1.0000 </r>
       <r>  -14.7842    1.0000 </r>
       <r>  -14.7093    1.0000 </r>
       <r>  -14.6196    1.0000 </r>
       <r>  -14.5487    1.0000 </r>
       <r>  -14.4836    1.0000 </r>
       <r>  -14.4045    1.0000 </r>
       <r>  -14.3578    1.0000 </r>
       <r>  -14.2943    1.0000 </r>
       <r>  -14.2475    1.0000 </r>
       <r>  -14.1747    1.0000 </r>
       <r>  -14.0084    1.0000 </r>
       <r>  -13.9256    1.0000 </r>
       <r>  -13.8642    1.0000 </r>
       <r>  -13.7815    1.0000 </r>
       <r>  -13.7254    1.0000 </r>
       <r>  -13.6093    1.0000 </r>
       <r>  -13.5609    1.0000 </r>
       <r>  -13.4868    1.0000 </r>
       <r>  -13.3484    1.0000 </r>
       <r>  -13.3153    1.0000 </r>
       <r>  -13.2166    1.0000 </r>
       <r>  -12.9803    1.0000 </r>
       <r>  -12.8527    1.0000 </r>
       <r>   -8.4700    1.0000 </r>
       <r>   -8.3575    1.0000 </r>
       <r>   -8.1464    1.0000 </r>
       <r>   -8.0504    1.0000 </r>
       <r>   -7.9504    1.0000 </r>
       <r>   -7.8985    1.0000 </r>
       <r>   -7.8726    1.0000 </r>
       <r>   -7.7758    1.0000 </r>
       <r>   -7.7531    1.0000 </r>
       <r>   -7.6260    1.0000 </r>
       <r>   -7.5481    1.0000 </r>
       <r>   -7.5114    1.0000 </r>
       <r>   -7.4585    1.0000 </r>
       <r>   -7.4294    1.0000 </r>
       <r>   -7.3659    1.0000 </r>
       <r>   -7.3567    1.0000 </r>
       <r>   -7.3311    1.0000 </r>
       <r>   -7.1847    1.0000 </r>
       <r>   -7.1653    1.0000 </r>
       <r>   -7.1192    1.0000 </r>
       <r>   -7.0909    1.0000 </r>
       <r>   -7.0005    1.0000 </r>
       <r>   -6.9574    1.0000 </r>
       <r>   -6.9253    1.0000 </r>
       <r>   -6.8834    1.0000 </r>
       <r>   -6.8141    1.0000 </r>
       <r>   -6.7713    1.0000 </r>
       <r>   -6.7067    1.0000 </r>
       <r>   -6.6471    1.0000 </r>
       <r>   -6.6284    1.0000 </r>
       <r>   -6.5499    1.0000 </r>
       <r>   -6.4811    1.0000 </r>
       <r>   -6.4470    1.0000 </r>
       <r>   -6.4001    1.0000 </r>
       <r>   -6.3895    1.0000 </r>
       <r>   -6.2838    1.0000 </r>
       <r>   -6.2472    1.0000 </r>
       <r>   -6.2382    1.0000 </r>
       <r>   -6.1913    1.0000 </r>
       <r>   -6.1711    1.0000 </r>
       <r>   -6.1562    1.0000 </r>
       <r>   -6.0849    1.0000 </r>
       <r>   -6.0359    1.0000 </r>
       <r>   -6.0095    1.0000 </r>
       <r>   -5.9736    1.0000 </r>
       <r>   -5.9660    1.0000 </r>
       <r>   -5.9026    1.0000 </r>
       <r>   -5.8727    1.0000 </r>
       <r>   -5.8450    1.0000 </r>
       <r>   -5.7966    1.0000 </r>
       <r>   -5.7855    1.0000 </r>
       <r>   -5.7516    1.0000 </r>
       <r>   -5.6837    1.0000 </r>
       <r>   -5.6493    1.0000 </r>
       <r>   -5.6255    1.0000 </r>
       <r>   -5.6103    1.0000 </r>
       <r>   -5.5634    1.0000 </r>
       <r>   -5.5484    1.0000 </r>
       <r>   -5.5366    1.0000 </r>
       <r>   -5.4407    1.0000 </r>
       <r>   -5.4237    1.0000 </r>
       <r>   -5.4111    1.0000 </r>
       <r>   -5.3864    1.0000 </r>
       <r>   -5.3222    1.0000 </r>
       <r>   -5.2718    1.0000 </r>
       <r>   -5.2497    1.0000 </r>
       <r>   -5.2231    1.0000 </r>
       <r>   -5.1861    1.0000 </r>
       <r>   -5.1570    1.0000 </r>
       <r>   -5.1320    1.0000 </r>
       <r>   -5.1217    1.0000 </r>
       <r>   -5.1106    1.0000 </r>
       <r>   -5.0760    1.0000 </r>
       <r>   -5.0672    1.0000 </r>
       <r>   -5.0238    1.0000 </r>
       <r>   -5.0129    1.0000 </r>
       <r>   -4.9994    1.0000 </r>
       <r>   -4.9611    1.0000 </r>
       <r>   -4.9246    1.0000 </r>
       <r>   -4.8603    1.0000 </r>
       <r>   -4.8552    1.0000 </r>
       <r>   -4.8202    1.0000 </r>
       <r>   -4.7671    1.0000 </r>
       <r>   -4.7529    1.0000 </r>
       <r>   -4.7404    1.0000 </r>
       <r>   -4.7236    1.0000 </r>
       <r>   -4.6882    1.0000 </r>
       <r>   -4.6559    1.0000 </r>
       <r>   -4.5879    1.0000 </r>
       <r>   -4.5545    1.0000 </r>
       <r>   -4.4625    1.0000 </r>
       <r>   -4.4470    1.0000 </r>
       <r>   -4.4105    1.0000 </r>
       <r>   -4.3791    1.0000 </r>
       <r>   -4.3029    1.0000 </r>
       <r>   -4.2482    1.0000 </r>
       <r>   -4.2231    1.0000 </r>
       <r>   -4.1909    1.0000 </r>
       <r>   -4.0887    1.0000 </r>
       <r>   -4.0644    1.0000 </r>
       <r>   -3.9933    1.0000 </r>
       <r>   -3.9833    1.0000 </r>
       <r>   -3.9553    1.0000 </r>
       <r>   -3.9380    1.0000 </r>
       <r>   -3.8626    1.0000 </r>
       <r>   -3.8371    1.0000 </r>
       <r>   -3.7983    1.0000 </r>
       <r>   -3.7797    1.0000 </r>
       <r>   -3.7031    1.0000 </r>
       <r>   -3.6654    1.0000 </r>
       <r>   -3.6367    1.0000 </r>
       <r>   -3.6004    1.0000 </r>
       <r>   -3.5517    1.0000 </r>
       <r>   -3.5364    1.0000 </r>
       <r>   -3.5125    1.0000 </r>
       <r>   -3.4584    1.0000 </r>
       <r>   -3.4351    1.0000 </r>
       <r>   -3.4102    1.0000 </r>
       <r>   -3.3522    1.0000 </r>
       <r>   -3.3181    1.0000 </r>
       <r>   -3.2982    1.0000 </r>
       <r>   -3.2610    1.0000 </r>
       <r>   -3.2195    1.0000 </r>
       <r>   -3.2084    1.0000 </r>
       <r>   -3.1791    1.0000 </r>
       <r>   -3.1704    1.0000 </r>
       <r>   -3.1417    1.0000 </r>
       <r>   -3.1146    1.0000 </r>
       <r>   -3.1094    1.0000 </r>
       <r>   -3.0900    1.0000 </r>
       <r>   -3.0370    1.0000 </r>
       <r>   -3.0089    1.0000 </r>
       <r>   -3.0014    1.0000 </r>
       <r>   -2.9798    1.0000 </r>
       <r>   -2.9679    1.0000 </r>
       <r>   -2.9665    1.0000 </r>
       <r>   -2.9338    1.0000 </r>
       <r>   -2.9121    1.0000 </r>
       <r>   -2.8945    1.0000 </r>
       <r>   -2.8617    1.0000 </r>
       <r>   -2.8327    1.0000 </r>
       <r>   -2.8269    1.0000 </r>
       <r>   -2.7967    1.0000 </r>
       <r>   -2.7699    1.0000 </r>
       <r>   -2.7633    1.0000 </r>
       <r>   -2.7464    1.0000 </r>
       <r>   -2.7363    1.0000 </r>
       <r>   -2.7121    1.0000 </r>
       <r>   -2.6869    1.0000 </r>
       <r>   -2.6685    1.0000 </r>
       <r>   -2.6536    1.0000 </r>
       <r>   -2.6472    1.0000 </r>
       <r>   -2.6220    1.0000 </r>
       <r>   -2.5931    1.0000 </r>
       <r>   -2.5813    1.0000 </r>
       <r>   -2.5602    1.0000 </r>
       <r>   -2.5480    1.0000 </r>
       <r>   -2.5330    1.0000 </r>
       <r>   -2.4960    1.0000 </r>
       <r>   -2.4946    1.0000 </r>
       <r>   -2.4663    1.0000 </r>
       <r>   -2.4592    1.0000 </r>
       <r>   -2.4388    1.0000 </r>
       <r>   -2.4261    1.0000 </r>
       <r>   -2.4055    1.0000 </r>
       <r>   -2.3993    1.0000 </r>
       <r>   -2.3796    1.0000 </r>
       <r>   -2.3744    1.0000 </r>
       <r>   -2.3555    1.0000 </r>
       <r>   -2.3420    1.0000 </r>
       <r>   -2.3238    1.0000 </r>
       <r>   -2.3168    1.0000 </r>
       <r>   -2.2929    1.0000 </r>
       <r>   -2.2714    1.0000 </r>
       <r>   -2.2654    1.0000 </r>
       <r>   -2.2530    1.0000 </r>
       <r>   -2.2285    1.0000 </r>
       <r>   -2.2173    1.0000 </r>
       <r>   -2.2020    1.0000 </r>
       <r>   -2.1902    1.0000 </r>
       <r>   -2.1595    1.0000 </r>
       <r>   -2.1513    1.0000 </r>
       <r>   -2.1277    1.0000 </r>
       <r>   -2.1116    1.0000 </r>
       <r>   -2.1009    1.0000 </r>
       <r>   -2.0830    1.0000 </r>
       <r>   -2.0674    1.0000 </r>
       <r>   -2.0474    1.0000 </r>
       <r>   -2.0328    1.0000 </r>
       <r>   -2.0167    1.0000 </r>
       <r>   -1.9942    1.0000 </r>
       <r>   -1.9733    1.0000 </r>
       <r>   -1.9504    1.0000 </r>
       <r>   -1.9389    1.0000 </r>
       <r>   -1.9289    1.0000 </r>
       <r>   -1.9128    1.0000 </r>
       <r>   -1.8904    1.0000 </r>
       <r>   -1.8816    1.0000 </r>
       <r>   -1.8430    1.0000 </r>
       <r>   -1.8365    1.0000 </r>
       <r>   -1.8190    1.0000 </r>
       <r>   -1.7872    1.0000 </r>
       <r>   -1.7660    1.0000 </r>
       <r>   -1.7426    1.0000 </r>
       <r>   -1.7253    1.0000 </r>
       <r>   -1.7136    1.0000 </r>
       <r>   -1.7082    1.0000 </r>
       <r>   -1.6868    1.0000 </r>
       <r>   -1.6649    1.0000 </r>
       <r>   -1.6436    1.0000 </r>
       <r>   -1.6362    1.0000 </r>
       <r>   -1.6083    1.0000 </r>
       <r>   -1.5744    1.0000 </r>
       <r>   -1.5530    1.0000 </r>
       <r>   -1.5339    1.0000 </r>
       <r>   -1.5057    1.0000 </r>
       <r>   -1.4863    1.0000 </r>
       <r>   -1.4563    1.0000 </r>
       <r>   -1.4402    1.0000 </r>
       <r>   -1.4247    1.0000 </r>
       <r>   -1.3710    1.0000 </r>
       <r>   -1.3458    1.0000 </r>
       <r>   -1.3295    1.0000 </r>
       <r>   -1.3167    1.0000 </r>
       <r>   -1.2850    1.0000 </r>
       <r>   -1.2485    1.0000 </r>
       <r>   -1.2238    1.0000 </r>
       <r>   -1.2070    1.0000 </r>
       <r>   -1.1941    1.0000 </r>
       <r>   -1.1818    1.0000 </r>
       <r>   -1.1338    1.0000 </r>
       <r>   -1.1040    1.0000 </r>
       <r>   -1.0919    1.0000 </r>
       <r>   -1.0626    1.0000 </r>
       <r>   -0.9957    1.0000 </r>
       <r>   -0.9926    1.0000 </r>
       <r>   -0.9677    1.0000 </r>
       <r>   -0.9280    1.0000 </r>
       <r>   -0.9046    1.0000 </r>
       <r>   -0.8794    1.0000 </r>
       <r>   -0.8599    1.0000 </r>
       <r>   -0.8065    1.0000 </r>
       <r>   -0.7424    0.9999 </r>
       <r>   -0.7255    0.9999 </r>
       <r>   -0.6893    0.9996 </r>
       <r>   -0.6553    0.9991 </r>
       <r>   -0.6286    0.9984 </r>
       <r>   -0.5961    0.9967 </r>
       <r>   -0.5764    0.9950 </r>
       <r>   -0.5449    0.9908 </r>
       <r>   -0.5335    0.9886 </r>
       <r>   -0.4750    0.9687 </r>
       <r>   -0.4630    0.9622 </r>
       <r>   -0.4211    0.9306 </r>
       <r>   -0.3889    0.8949 </r>
       <r>   -0.3518    0.8391 </r>
       <r>   -0.3333    0.8051 </r>
       <r>   -0.2399    0.5790 </r>
       <r>   -0.2203    0.5243 </r>
       <r>   -0.1984    0.4624 </r>
       <r>   -0.1692    0.3820 </r>
       <r>   -0.1037    0.2225 </r>
       <r>   -0.0755    0.1678 </r>
       <r>   -0.0464    0.1213 </r>
       <r>    0.0151    0.0544 </r>
       <r>    0.0350    0.0406 </r>
       <r>    0.0479    0.0332 </r>
       <r>    0.0810    0.0193 </r>
       <r>    0.1070    0.0121 </r>
       <r>    0.1227    0.0090 </r>
       <r>    0.1980    0.0019 </r>
       <r>    0.2245    0.0010 </r>
       <r>    0.2716    0.0003 </r>
       <r>    0.3206    0.0001 </r>
       <r>    0.3797    0.0000 </r>
       <r>    0.4268    0.0000 </r>
       <r>    0.5337    0.0000 </r>
       <r>    0.5823    0.0000 </r>
       <r>    0.6456    0.0000 </r>
       <r>    0.7260    0.0000 </r>
       <r>    0.8000    0.0000 </r>
       <r>    0.8129    0.0000 </r>
       <r>    0.8755    0.0000 </r>
       <r>    0.9294    0.0000 </r>
       <r>    0.9385    0.0000 </r>
       <r>    0.9931    0.0000 </r>
       <r>    1.0394    0.0000 </r>
       <r>    1.0572    0.0000 </r>
       <r>    1.0799    0.0000 </r>
       <r>    1.1093    0.0000 </r>
       <r>    1.1778    0.0000 </r>
       <r>    1.1845    0.0000 </r>
       <r>    1.2993    0.0000 </r>
       <r>    1.3499    0.0000 </r>
       <r>    1.4163    0.0000 </r>
       <r>    1.5038    0.0000 </r>
       <r>    2.0781    0.0000 </r>
       <r>    2.6300    0.0000 </r>
       <r>    2.8619    0.0000 </r>
       <r>    3.1275    0.0000 </r>
       <r>    3.1689    0.0000 </r>
       <r>    3.2579    0.0000 </r>
       <r>    3.5296    0.0000 </r>
       <r>    3.5821    0.0000 </r>
       <r>    3.6605    0.0000 </r>
       <r>    3.7954    0.0000 </r>
       <r>    3.9808    0.0000 </r>
       <r>    4.0427    0.0000 </r>
       <r>    4.1086    0.0000 </r>
       <r>    4.1935    0.0000 </r>
       <r>    4.2488    0.0000 </r>
       <r>    4.3664    0.0000 </r>
       <r>    4.3983    0.0000 </r>
       <r>    4.4260    0.0000 </r>
       <r>    4.4522    0.0000 </r>
       <r>    4.5780    0.0000 </r>
       <r>    4.6777    0.0000 </r>
       <r>    4.7227    0.0000 </r>
       <r>    4.7617    0.0000 </r>
       <r>    4.8563    0.0000 </r>
       <r>    4.8674    0.0000 </r>
       <r>    4.8911    0.0000 </r>
       <r>    4.9699    0.0000 </r>
       <r>    4.9944    0.0000 </r>
       <r>    5.0203    0.0000 </r>
       <r>    5.0723    0.0000 </r>
       <r>    5.1210    0.0000 </r>
       <r>    5.1781    0.0000 </r>
       <r>    5.2435    0.0000 </r>
       <r>    5.2812    0.0000 </r>
       <r>    5.2947    0.0000 </r>
       <r>    5.3709    0.0000 </r>
       <r>    5.4047    0.0000 </r>
       <r>    5.4125    0.0000 </r>
       <r>    5.4966    0.0000 </r>
       <r>    5.5174    0.0000 </r>
       <r>    5.6026    0.0000 </r>
       <r>    5.6759    0.0000 </r>
       <r>    5.6981    0.0000 </r>
       <r>    5.7980    0.0000 </r>
      </set>
     </set>
    </set>
   </array>
  </eigenvalues>
  <separator name="orbital magnetization" >
   <v name="MAGDIPOLOUT">      0.00000000      0.00000000      0.00000000</v>
  </separator>
  <dos>
   <i name="efermi">     -0.21168592 </i>
   <total>
    <array>
     <dimension dim="1">gridpoints</dimension>
     <dimension dim="2">spin</dimension>
     <field>energy</field>
     <field>total</field>
     <field>integrated</field>
     <set>
      <set comment="spin 1">
       <r>   -68.6518     0.0000     0.0000 </r>
       <r>   -68.3919     0.0000     0.0000 </r>
       <r>   -68.1319     0.0000     0.0000 </r>
       <r>   -67.8719     0.0000     0.0000 </r>
       <r>   -67.6119     0.0000     0.0000 </r>
       <r>   -67.3519     0.0000     0.0000 </r>
       <r>   -67.0919     0.0000     0.0000 </r>
       <r>   -66.8320     0.0000     0.0000 </r>
       <r>   -66.5720     0.0000     0.0000 </r>
       <r>   -66.3120     0.0000     0.0000 </r>
       <r>   -66.0520     0.0000     0.0000 </r>
       <r>   -65.7920     0.0000     0.0000 </r>
       <r>   -65.5320     0.0119     0.0031 </r>
       <r>   -65.2721     1.8040     0.4721 </r>
       <r>   -65.0121    34.3518     9.4030 </r>
       <r>   -64.7521   141.4436    46.1761 </r>
       <r>   -64.4921   226.9117   105.1694 </r>
       <r>   -64.2321   212.0173   160.2904 </r>
       <r>   -63.9721   128.6890   193.7475 </r>
       <r>   -63.7122    57.5137   208.7001 </r>
       <r>   -63.4522    40.1375   219.1352 </r>
       <r>   -63.1922    10.6544   221.9052 </r>
       <r>   -62.9322     0.3640   221.9998 </r>
       <r>   -62.6722     0.0008   222.0000 </r>
       <r>   -62.4122     0.0000   222.0000 </r>
       <r>   -62.1522     0.0000   222.0000 </r>
       <r>   -61.8923     0.0000   222.0000 </r>
       <r>   -61.6323     0.0000   222.0000 </r>
       <r>   -61.3723     0.0000   222.0000 </r>
       <r>   -61.1123     0.0000   222.0000 </r>
       <r>   -60.8523     0.0000   222.0000 </r>
       <r>   -60.5923     0.0000   222.0000 </r>
       <r>   -60.3324     0.0000   222.0000 </r>
       <r>   -60.0724     0.0000   222.0000 </r>
       <r>   -59.8124     0.0000   222.0000 </r>
       <r>   -59.5524     0.0000   222.0000 </r>
       <r>   -59.2924     0.0000   222.0000 </r>
       <r>   -59.0324     0.0000   222.0000 </r>
       <r>   -58.7725     0.0000   222.0000 </r>
       <r>   -58.5125     0.0000   222.0000 </r>
       <r>   -58.2525     0.0000   222.0000 </r>
       <r>   -57.9925     0.0000   222.0000 </r>
       <r>   -57.7325     0.0000   222.0000 </r>
       <r>   -57.4725     0.0000   222.0000 </r>
       <r>   -57.2126     0.0000   222.0000 </r>
       <r>   -56.9526     0.0000   222.0000 </r>
       <r>   -56.6926     0.0000   222.0000 </r>
       <r>   -56.4326     0.0000   222.0000 </r>
       <r>   -56.1726     0.0000   222.0000 </r>
       <r>   -55.9126     0.0000   222.0000 </r>
       <r>   -55.6527     0.0000   222.0000 </r>
       <r>   -55.3927     0.0000   222.0000 </r>
       <r>   -55.1327     0.0000   222.0000 </r>
       <r>   -54.8727     0.0000   222.0000 </r>
       <r>   -54.6127     0.0000   222.0000 </r>
       <r>   -54.3527     0.0000   222.0000 </r>
       <r>   -54.0928     0.0000   222.0000 </r>
       <r>   -53.8328     0.0000   222.0000 </r>
       <r>   -53.5728     0.0000   222.0000 </r>
       <r>   -53.3128     0.0000   222.0000 </r>
       <r>   -53.0528     0.0000   222.0000 </r>
       <r>   -52.7928     0.0000   222.0000 </r>
       <r>   -52.5329     0.0000   222.0000 </r>
       <r>   -52.2729     0.0000   222.0000 </r>
       <r>   -52.0129     0.0000   222.0000 </r>
       <r>   -51.7529     0.0000   222.0000 </r>
       <r>   -51.4929     0.0000   222.0000 </r>
       <r>   -51.2329     0.0000   222.0000 </r>
       <r>   -50.9730     0.0000   222.0000 </r>
       <r>   -50.7130     0.0000   222.0000 </r>
       <r>   -50.4530     0.0000   222.0000 </r>
       <r>   -50.1930     0.0000   222.0000 </r>
       <r>   -49.9330     0.0000   222.0000 </r>
       <r>   -49.6730     0.0000   222.0000 </r>
       <r>   -49.4130     0.0000   222.0000 </r>
       <r>   -49.1531     0.0000   222.0000 </r>
       <r>   -48.8931     0.0000   222.0000 </r>
       <r>   -48.6331     0.0000   222.0000 </r>
       <r>   -48.3731     0.0000   222.0000 </r>
       <r>   -48.1131     0.0000   222.0000 </r>
       <r>   -47.8531     0.0000   222.0000 </r>
       <r>   -47.5932     0.0000   222.0000 </r>
       <r>   -47.3332     0.0000   222.0000 </r>
       <r>   -47.0732     0.0000   222.0000 </r>
       <r>   -46.8132     0.0000   222.0000 </r>
       <r>   -46.5532     0.0000   222.0000 </r>
       <r>   -46.2932     0.0000   222.0000 </r>
       <r>   -46.0333     0.0000   222.0000 </r>
       <r>   -45.7733     0.0000   222.0000 </r>
       <r>   -45.5133     0.0000   222.0000 </r>
       <r>   -45.2533     0.0000   222.0000 </r>
       <r>   -44.9933     0.0000   222.0000 </r>
       <r>   -44.7333     0.0000   222.0000 </r>
       <r>   -44.4734     0.0000   222.0000 </r>
       <r>   -44.2134     0.0000   222.0000 </r>
       <r>   -43.9534     0.0000   222.0000 </r>
       <r>   -43.6934     0.0000   222.0000 </r>
       <r>   -43.4334     0.0000   222.0000 </r>
       <r>   -43.1734     0.0000   222.0000 </r>
       <r>   -42.9135     0.0000   222.0000 </r>
       <r>   -42.6535     0.0000   222.0000 </r>
       <r>   -42.3935     0.0000   222.0000 </r>
       <r>   -42.1335     0.0000   222.0000 </r>
       <r>   -41.8735     0.0000   222.0000 </r>
       <r>   -41.6135     0.0000   222.0000 </r>
       <r>   -41.3536     0.0000   222.0000 </r>
       <r>   -41.0936     0.0000   222.0000 </r>
       <r>   -40.8336     0.0000   222.0000 </r>
       <r>   -40.5736     0.0000   222.0000 </r>
       <r>   -40.3136     0.0000   222.0000 </r>
       <r>   -40.0536     0.0000   222.0000 </r>
       <r>   -39.7937     0.0000   222.0000 </r>
       <r>   -39.5337     0.0000   222.0000 </r>
       <r>   -39.2737     0.0000   222.0000 </r>
       <r>   -39.0137     0.0000   222.0000 </r>
       <r>   -38.7537     0.0000   222.0000 </r>
       <r>   -38.4937     0.0000   222.0000 </r>
       <r>   -38.2338     0.0000   222.0000 </r>
       <r>   -37.9738     0.0000   222.0000 </r>
       <r>   -37.7138     0.0000   222.0000 </r>
       <r>   -37.4538     0.0000   222.0000 </r>
       <r>   -37.1938     0.0000   222.0000 </r>
       <r>   -36.9338     0.0000   222.0000 </r>
       <r>   -36.6738     0.0000   222.0000 </r>
       <r>   -36.4139     0.0000   222.0000 </r>
       <r>   -36.1539     0.0000   222.0000 </r>
       <r>   -35.8939     0.0000   222.0000 </r>
       <r>   -35.6339     0.0000   222.0000 </r>
       <r>   -35.3739     0.0000   222.0000 </r>
       <r>   -35.1139     0.0000   222.0000 </r>
       <r>   -34.8540     0.0000   222.0000 </r>
       <r>   -34.5940     0.0000   222.0000 </r>
       <r>   -34.3340     0.0000   222.0000 </r>
       <r>   -34.0740     0.0000   222.0000 </r>
       <r>   -33.8140     0.0000   222.0000 </r>
       <r>   -33.5540     0.0000   222.0000 </r>
       <r>   -33.2941     0.0000   222.0000 </r>
       <r>   -33.0341     0.0000   222.0000 </r>
       <r>   -32.7741     0.0000   222.0000 </r>
       <r>   -32.5141     0.0000   222.0000 </r>
       <r>   -32.2541     0.0000   222.0000 </r>
       <r>   -31.9941     0.0000   222.0000 </r>
       <r>   -31.7342     0.0000   222.0000 </r>
       <r>   -31.4742     0.0000   222.0000 </r>
       <r>   -31.2142     0.0000   222.0000 </r>
       <r>   -30.9542     0.0000   222.0000 </r>
       <r>   -30.6942     0.0000   222.0000 </r>
       <r>   -30.4342     0.0000   222.0000 </r>
       <r>   -30.1743     0.0000   222.0000 </r>
       <r>   -29.9143     0.0000   222.0000 </r>
       <r>   -29.6543     0.0000   222.0000 </r>
       <r>   -29.3943     0.0000   222.0000 </r>
       <r>   -29.1343     0.0000   222.0000 </r>
       <r>   -28.8743     0.0000   222.0000 </r>
       <r>   -28.6144     0.0000   222.0000 </r>
       <r>   -28.3544     0.0000   222.0000 </r>
       <r>   -28.0944     0.0000   222.0000 </r>
       <r>   -27.8344     0.0000   222.0000 </r>
       <r>   -27.5744     0.0000   222.0000 </r>
       <r>   -27.3144     0.0000   222.0000 </r>
       <r>   -27.0545     0.0000   222.0000 </r>
       <r>   -26.7945     0.0000   222.0000 </r>
       <r>   -26.5345     0.0000   222.0000 </r>
       <r>   -26.2745     0.0000   222.0000 </r>
       <r>   -26.0145     0.0000   222.0000 </r>
       <r>   -25.7545     0.0000   222.0000 </r>
       <r>   -25.4946     0.0000   222.0000 </r>
       <r>   -25.2346     0.0000   222.0000 </r>
       <r>   -24.9746     0.0000   222.0000 </r>
       <r>   -24.7146     0.0000   222.0000 </r>
       <r>   -24.4546     0.0000   222.0000 </r>
       <r>   -24.1946     0.0000   222.0000 </r>
       <r>   -23.9346     0.0000   222.0000 </r>
       <r>   -23.6747     0.0000   222.0000 </r>
       <r>   -23.4147     0.0000   222.0000 </r>
       <r>   -23.1547     0.0000   222.0000 </r>
       <r>   -22.8947     0.0000   222.0000 </r>
       <r>   -22.6347     0.0000   222.0000 </r>
       <r>   -22.3747     0.0000   222.0000 </r>
       <r>   -22.1148     0.0000   222.0000 </r>
       <r>   -21.8548     0.0000   222.0000 </r>
       <r>   -21.5948     0.0000   222.0000 </r>
       <r>   -21.3348     0.0000   222.0000 </r>
       <r>   -21.0748     0.0000   222.0000 </r>
       <r>   -20.8148     0.0000   222.0000 </r>
       <r>   -20.5549     0.0000   222.0000 </r>
       <r>   -20.2949     0.0000   222.0000 </r>
       <r>   -20.0349     0.0000   222.0000 </r>
       <r>   -19.7749     0.0000   222.0000 </r>
       <r>   -19.5149     0.0000   222.0000 </r>
       <r>   -19.2549     0.0000   222.0000 </r>
       <r>   -18.9950     0.0000   222.0000 </r>
       <r>   -18.7350     0.0000   222.0000 </r>
       <r>   -18.4750     0.0000   222.0000 </r>
       <r>   -18.2150     0.0000   222.0000 </r>
       <r>   -17.9550     0.0000   222.0000 </r>
       <r>   -17.6950     0.0000   222.0000 </r>
       <r>   -17.4351     0.0000   222.0000 </r>
       <r>   -17.1751     0.0003   222.0001 </r>
       <r>   -16.9151     0.1366   222.0356 </r>
       <r>   -16.6551     3.4045   222.9207 </r>
       <r>   -16.3951     8.7116   225.1856 </r>
       <r>   -16.1351     6.1080   226.7736 </r>
       <r>   -15.8752     9.3013   229.1918 </r>
       <r>   -15.6152    15.8370   233.3091 </r>
       <r>   -15.3552    17.2115   237.7838 </r>
       <r>   -15.0952    17.9047   242.4388 </r>
       <r>   -14.8352    24.3588   248.7717 </r>
       <r>   -14.5752    29.4122   256.4184 </r>
       <r>   -14.3153    29.9705   264.2102 </r>
       <r>   -14.0553    24.7274   270.6389 </r>
       <r>   -13.7953    23.4563   276.7372 </r>
       <r>   -13.5353    25.3098   283.3173 </r>
       <r>   -13.2753    22.3830   289.1365 </r>
       <r>   -13.0153    14.2699   292.8464 </r>
       <r>   -12.7554     9.8061   295.3959 </r>
       <r>   -12.4954     2.2771   295.9879 </r>
       <r>   -12.2354     0.0466   296.0000 </r>
       <r>   -11.9754     0.0000   296.0000 </r>
       <r>   -11.7154     0.0000   296.0000 </r>
       <r>   -11.4554     0.0000   296.0000 </r>
       <r>   -11.1954     0.0000   296.0000 </r>
       <r>   -10.9355     0.0000   296.0000 </r>
       <r>   -10.6755     0.0000   296.0000 </r>
       <r>   -10.4155     0.0000   296.0000 </r>
       <r>   -10.1555     0.0000   296.0000 </r>
       <r>    -9.8955     0.0000   296.0000 </r>
       <r>    -9.6355     0.0000   296.0000 </r>
       <r>    -9.3756     0.0000   296.0000 </r>
       <r>    -9.1156     0.0000   296.0000 </r>
       <r>    -8.8556     0.0262   296.0068 </r>
       <r>    -8.5956     1.7741   296.4681 </r>
       <r>    -8.3356     9.7958   299.0148 </r>
       <r>    -8.0756    15.2714   302.9851 </r>
       <r>    -7.8157    27.0771   310.0247 </r>
       <r>    -7.5557    31.0508   318.0974 </r>
       <r>    -7.2957    39.2837   328.3106 </r>
       <r>    -7.0357    38.4908   338.3175 </r>
       <r>    -6.7757    39.3927   348.5590 </r>
       <r>    -6.5157    38.5901   358.5918 </r>
       <r>    -6.2558    44.7917   370.2369 </r>
       <r>    -5.9958    53.8979   384.2495 </r>
       <r>    -5.7358    57.1876   399.1173 </r>
       <r>    -5.4758    59.1331   414.4909 </r>
       <r>    -5.2158    61.9924   430.6079 </r>
       <r>    -4.9558    73.8691   449.8127 </r>
       <r>    -4.6959    64.9536   466.6996 </r>
       <r>    -4.4359    49.3257   479.5234 </r>
       <r>    -4.1759    42.6693   490.6168 </r>
       <r>    -3.9159    46.9895   502.8332 </r>
       <r>    -3.6559    51.9533   516.3403 </r>
       <r>    -3.3959    57.6457   531.3272 </r>
       <r>    -3.1360    72.3915   550.1478 </r>
       <r>    -2.8760    92.6288   574.2298 </r>
       <r>    -2.6160   105.1703   601.5724 </r>
       <r>    -2.3560   119.9532   632.7582 </r>
       <r>    -2.0960   123.6826   664.9137 </r>
       <r>    -1.8360   112.5914   694.1856 </r>
       <r>    -1.5761   100.6221   720.3457 </r>
       <r>    -1.3161    84.5209   742.3198 </r>
       <r>    -1.0561    76.5766   762.2284 </r>
       <r>    -0.7961    65.0779   779.1476 </r>
       <r>    -0.5361    62.4332   795.3793 </r>
       <r>    -0.2761    58.3699   810.5545 </r>
       <r>    -0.0162    54.9535   824.8415 </r>
       <r>     0.2438    54.1444   838.9182 </r>
       <r>     0.5038    37.1038   848.5645 </r>
       <r>     0.7638    32.9579   857.1331 </r>
       <r>     1.0238    46.0484   869.1049 </r>
       <r>     1.2838    43.6482   880.4527 </r>
       <r>     1.5438    23.5502   886.5754 </r>
       <r>     1.8037     5.5201   888.0105 </r>
       <r>     2.0637     3.4937   888.9188 </r>
       <r>     2.3237     3.9585   889.9480 </r>
       <r>     2.5837     3.2467   890.7921 </r>
       <r>     2.8437     7.8620   892.8360 </r>
       <r>     3.1037    11.0210   895.7013 </r>
       <r>     3.3636    15.3139   899.6827 </r>
       <r>     3.6236    15.6343   903.7474 </r>
       <r>     3.8836    17.1675   908.2106 </r>
       <r>     4.1436    21.8862   913.9007 </r>
       <r>     4.4036    29.9554   921.6886 </r>
       <r>     4.6636    30.8407   929.7067 </r>
       <r>     4.9235    38.7326   939.7765 </r>
       <r>     5.1835    44.4816   951.3410 </r>
       <r>     5.4435    43.8322   962.7367 </r>
       <r>     5.7035    34.7853   971.7803 </r>
       <r>     5.9635    14.8530   975.6419 </r>
       <r>     6.2235     1.3662   975.9970 </r>
       <r>     6.4834     0.0113   976.0000 </r>
       <r>     6.7434     0.0000   976.0000 </r>
       <r>     7.0034     0.0000   976.0000 </r>
       <r>     7.2634     0.0000   976.0000 </r>
       <r>     7.5234     0.0000   976.0000 </r>
       <r>     7.7834     0.0000   976.0000 </r>
       <r>     8.0433     0.0000   976.0000 </r>
       <r>     8.3033     0.0000   976.0000 </r>
       <r>     8.5633     0.0000   976.0000 </r>
       <r>     8.8233     0.0000   976.0000 </r>
       <r>     9.0833     0.0000   976.0000 </r>
       <r>     9.3433     0.0000   976.0000 </r>
      </set>
     </set>
    </array>
   </total>
  </dos>
 </calculation>
 <structure name="finalpos" >
  <crystal>
   <varray name="basis" >
    <v>      16.88469405       0.00000000       0.00000000 </v>
    <v>       0.00000000       9.57841000       0.00000000 </v>
    <v>       0.00000000       0.00000000      16.65464569 </v>
   </varray>
   <i name="volume">   2693.53123734 </i>
   <varray name="rec_basis" >
    <v>       0.05922524       0.00000000       0.00000000 </v>
    <v>       0.00000000       0.10440146       0.00000000 </v>
    <v>       0.00000000       0.00000000       0.06004331 </v>
   </varray>
  </crystal>
  <varray name="positions" >
   <v>       0.78004630       0.14529696       0.12347080 </v>
   <v>       0.80212635       0.14549936       0.28530962 </v>
   <v>       0.29733028       0.64529696       0.21607389 </v>
   <v>       0.38292212       0.07845096       0.12180655 </v>
   <v>       0.46975828       0.14529696       0.24694159 </v>
   <v>       0.95247430       0.64529696       0.15433850 </v>
   <v>       0.97567450       0.64502391       0.31776360 </v>
   <v>       0.17076386       0.14739488       0.04768619 </v>
   <v>       0.12490229       0.14529696       0.18520619 </v>
   <v>       0.06837882       0.09574446       0.31176421 </v>
   <v>       0.57086750       0.64753658       0.16102028 </v>
   <v>       0.64218627       0.64529696       0.27780929 </v>
   <v>       0.90955982       0.00486364       0.11878606 </v>
   <v>       0.93983514       0.00709046       0.26845542 </v>
   <v>       0.35311930       0.64969829       0.07972734 </v>
   <v>       0.42486675       0.51319396       0.19160760 </v>
   <v>       0.46352572       0.47074578       0.33138293 </v>
   <v>       0.52859863       0.14668110       0.09267480 </v>
   <v>       0.59729475       0.01319396       0.22247530 </v>
   <v>       0.08001077       0.51319396       0.12987220 </v>
   <v>       0.11285865       0.50190337       0.29146580 </v>
   <v>       0.25243876       0.01319396       0.16073990 </v>
   <v>       0.29686601       0.97840883       0.29576578 </v>
   <v>       0.76628752       0.41985172       0.12078976 </v>
   <v>       0.76972274       0.51319396       0.25334300 </v>
   <v>       0.91004104       0.28658122       0.12028361 </v>
   <v>       0.94496445       0.27708958       0.27070005 </v>
   <v>       0.44397299       0.85341970       0.05654918 </v>
   <v>       0.42486675       0.77739996       0.19160760 </v>
   <v>       0.46423231       0.82561071       0.32935880 </v>
   <v>       0.62046125       0.35063253       0.08954748 </v>
   <v>       0.59729475       0.27739996       0.22247530 </v>
   <v>       0.08001077       0.77739996       0.12987220 </v>
   <v>       0.11287443       0.78490205       0.29355768 </v>
   <v>       0.25243876       0.27739996       0.16073990 </v>
   <v>       0.77820533       0.85356483       0.12041485 </v>
   <v>       0.76972274       0.77739996       0.25334300 </v>
   <v>       0.96096767       0.13883864       0.36320426 </v>
   <v>       0.99146120       0.14529696       0.18349304 </v>
   <v>       0.47417723       0.64529696       0.09088994 </v>
   <v>       0.50874518       0.64529696       0.27609614 </v>
   <v>       0.64660522       0.14529696       0.12175764 </v>
   <v>       0.67900545       0.14389516       0.28238585 </v>
   <v>       0.10343641       0.64543036       0.04007149 </v>
   <v>       0.16388920       0.64529696       0.21436074 </v>
   <v>       0.08090957       0.64117261       0.37884001 </v>
   <v>       0.28848617       0.16076006       0.06094034 </v>
   <v>       0.33359143       0.15029207       0.23096428 </v>
   <v>       0.81903321       0.64529696       0.15262534 </v>
   <v>       0.85114006       0.64537996       0.31263573 </v>
   <v>       0.81764776       0.29124212       0.03929179 </v>
   <v>       0.82906105       0.31351196       0.21464750 </v>
   <v>       0.33191602       0.85867515       0.11157439 </v>
   <v>       0.34908837       0.78786185       0.29677342 </v>
   <v>       0.48420507       0.31351196       0.15291210 </v>
   <v>       0.52369364       0.29081630       0.32232825 </v>
   <v>       0.00148905       0.81351196       0.24551520 </v>
   <v>       0.96726290       0.82102479       0.08335229 </v>
   <v>       0.14168727       0.32472969       0.11036734 </v>
   <v>       0.12647297       0.28082077       0.28604335 </v>
   <v>       0.65663306       0.81351196       0.18377980 </v>
   <v>       0.69464797       0.79306889       0.34708218 </v>
   <v>       0.31153405       0.47272250       0.13667780 </v>
   <v>       0.35111261       0.49677750       0.29235953 </v>
   <v>       0.81551329       0.99647862       0.04002285 </v>
   <v>       0.82906105       0.97708196       0.21464750 </v>
   <v>       0.00148905       0.47708196       0.24551520 </v>
   <v>       0.96773885       0.46944296       0.08353527 </v>
   <v>       0.48420507       0.97708196       0.15291210 </v>
   <v>       0.52640610       0.00395186       0.32356116 </v>
   <v>       0.65663306       0.47708196       0.18377980 </v>
   <v>       0.69707544       0.50370849       0.34927491 </v>
   <v>       0.14057422       0.96773926       0.10686513 </v>
   <v>       0.17391704       0.97708196       0.27638290 </v>
  </varray>
 </structure>
</modeling>
