"Millerite NiS"                         
           1
    11.256463    0.000000    0.000000
     5.044562   10.062820    0.000000
     0.000000    0.000000   22.883649
   Ty   Ty
  52  52
Direct configuration=     1
   0.26092070  0.47878036  0.29050611
   0.35488056  0.38482049  0.41880986
   0.33735053  0.38799928  0.51967771
   0.16696083  0.07274024  0.16220237
   0.03872228  0.05356046  0.49386627
   0.27423906  0.33335899  0.12830375
   0.36819893  0.23939913  0.25660749
   0.46215880  0.14543926  0.38491124
   0.00030194  0.37150212  0.25660749
   0.09426181  0.27754226  0.38491124
   0.18798812  0.19736704  0.49709275
   0.40634206  0.46546199  0.12830375
   0.76092070  0.47878036  0.29050611
   0.85488056  0.38482049  0.41880986
   0.94784561  0.27974404  0.52651368
   0.66696083  0.07274024  0.16220237
   0.55748389  0.03330191  0.47584199
   0.77423906  0.33335899  0.12830375
   0.86819893  0.23939913  0.25660749
   0.96215880  0.14543926  0.38491124
   0.50030194  0.37150212  0.25660749
   0.59426181  0.27754226  0.38491124
   0.90634206  0.46546199  0.12830375
   0.71418622  0.02856566  0.05715437
   0.26092070  0.97878036  0.29050611
   0.35488056  0.88482049  0.41880986
   0.28221373  0.95663464  0.51419328
   0.04179594  0.71347542  0.08929538
   0.16696083  0.57274024  0.16220237
   0.07527024  0.53220735  0.50385382
   0.17319619  0.83378710  0.04128662
   0.27423907  0.83335899  0.12830375
   0.36819893  0.73939913  0.25660749
   0.46215880  0.64543926  0.38491124
   0.00030194  0.87150212  0.25660749
   0.09426181  0.77754226  0.38491124
   0.19096088  0.69262354  0.49699795
   0.40634206  0.96546199  0.12830375
   0.22489486  0.50655826  0.05224514
   0.76092070  0.97878036  0.29050611
   0.85488056  0.88482049  0.41880986
   0.94203197  0.77464698  0.51653273
   0.53400268  0.73995936  0.08809490
   0.66696083  0.57274024  0.16220237
   0.68917881  0.82422659  0.03691670
   0.77423907  0.83335899  0.12830375
   0.86819893  0.73939913  0.25660749
   0.96215880  0.64543926  0.38491124
   0.50030194  0.87150212  0.25660749
   0.59426181  0.77754226  0.38491124
   0.90634206  0.96546199  0.12830375
   0.71348029  0.51447235  0.05323593
   0.07287763  0.16682343  0.30639927
   0.16683750  0.07286357  0.43470302
   0.39738410  0.34203994  0.06353471
   0.47891775  0.26078330  0.17809552
   0.20593338  0.55557022  0.55997972
   0.03023343  0.37768264  0.47786825
   0.43627354  0.47164251  0.34956450
   0.25968845  0.15686879  0.11107162
   0.34231368  0.06560239  0.22126075
   0.07756290  0.49465188  0.10240968
   0.17409868  0.39738738  0.22126075
   0.26805855  0.30342751  0.34956450
   0.36201842  0.20946765  0.47786825
   0.57287763  0.16682343  0.30639927
   0.66268041  0.07793259  0.41181183
   0.88908376  0.35114275  0.06226924
   0.97891775  0.26078330  0.17809552
   0.78111358  0.44271792  0.50311248
   0.51223660  0.34694981  0.47053167
   0.93627354  0.47164251  0.34956450
   0.75736165  0.15767320  0.10655386
   0.84231368  0.06560239  0.22126075
   0.57848224  0.48762197  0.10529171
   0.67409868  0.39738738  0.22126075
   0.76805855  0.30342751  0.34956450
   0.86196390  0.20856225  0.46296165
   0.07287764  0.66682343  0.30639927
   0.16683750  0.57286357  0.43470302
   0.34846695  0.87304512  0.05381922
   0.47891775  0.76078330  0.17809552
   0.12473956  0.10942666  0.56123768
   0.03023342  0.87768264  0.47786825
   0.43627354  0.97164251  0.34956450
   0.24835381  0.65956226  0.09295701
   0.34231368  0.56560239  0.22126075
   0.08341419  0.98045927  0.10334580
   0.17409868  0.89738738  0.22126075
   0.26805855  0.80342751  0.34956450
   0.32964492  0.76577626  0.48245091
   0.57287764  0.66682343  0.30639927
   0.65699596  0.58130090  0.40990498
   0.88495789  0.85474317  0.04979178
   0.97891775  0.76078330  0.17809552
   0.75382934  0.92075813  0.50069999
   0.49566222  0.88730572  0.47412564
   0.93627354  0.97164251  0.34956450
   0.74835381  0.65956226  0.09295701
   0.84231368  0.56560239  0.22126075
   0.58254795  0.97281521  0.09850867
   0.67409868  0.89738738  0.22126075
   0.76805855  0.80342751  0.34956450
   0.88573913  0.65994582  0.46679616
