"Millerite NiS"                         
           1
    10.062820    5.044562    0.000000
     0.000000   11.256463    0.000000
     0.000000    0.000000   20.756454
   Ni   S 
    48    48
Direct configuration=     1
   0.26092069  0.47878036  0.21779465
   0.35488056  0.38482049  0.35924742
   0.44884043  0.29086063  0.50070019
   0.16696083  0.07274024  0.07634187
   0.05611868  0.05147940  0.46332752
   0.27423906  0.33335900  0.03896920
   0.36819893  0.23939913  0.18042198
   0.46215880  0.14543926  0.32187475
   0.00030194  0.37150213  0.18042198
   0.09426181  0.27754226  0.32187475
   0.18822167  0.18358239  0.46332752
   0.40634206  0.46546199  0.03896920
   0.76092069  0.47878036  0.21779465
   0.85488056  0.38482049  0.35924742
   0.94884043  0.29086063  0.50070019
   0.66696083  0.07274024  0.07634187
   0.55611868  0.05147940  0.46332752
   0.77423906  0.33335900  0.03896920
   0.86819893  0.23939913  0.18042198
   0.96215880  0.14543926  0.32187475
   0.50030194  0.37150213  0.18042198
   0.59426181  0.27754226  0.32187475
   0.68822167  0.18358239  0.46332752
   0.90634206  0.46546199  0.03896920
   0.26092069  0.97878036  0.21779465
   0.35488056  0.88482049  0.35924742
   0.44884043  0.79086063  0.50070019
   0.16696083  0.57274024  0.07634187
   0.05611868  0.55147940  0.46332752
   0.27423906  0.83335900  0.03896920
   0.36819893  0.73939913  0.18042198
   0.46215880  0.64543926  0.32187475
   0.00030194  0.87150213  0.18042198
   0.09426181  0.77754226  0.32187475
   0.18822167  0.68358239  0.46332752
   0.40634206  0.96546199  0.03896920
   0.76092069  0.97878036  0.21779465
   0.85488056  0.88482049  0.35924742
   0.94884043  0.79086063  0.50070019
   0.66696083  0.57274024  0.07634187
   0.55611868  0.55147940  0.46332752
   0.77423906  0.83335900  0.03896920
   0.86819893  0.73939913  0.18042198
   0.96215880  0.64543926  0.32187475
   0.50030194  0.87150213  0.18042198
   0.59426181  0.77754226  0.32187475
   0.68822167  0.68358239  0.46332752
   0.90634206  0.96546199  0.03896920
   0.07287763  0.16682344  0.23531659
   0.16683750  0.07286357  0.37676936
   0.47891775  0.26078330  0.09386382
   0.26079737  0.47890369  0.51822214
   0.03023342  0.37768264  0.42435832
   0.43627354  0.47164251  0.28290555
   0.24835381  0.15956226  0.00000000
   0.34231368  0.06560239  0.14145277
   0.08013881  0.49134725  0.00000000
   0.17409868  0.39738738  0.14145277
   0.26805855  0.30342751  0.28290555
   0.36201841  0.20946765  0.42435832
   0.57287763  0.16682344  0.23531659
   0.66683750  0.07286357  0.37676936
   0.97891775  0.26078330  0.09386382
   0.76079737  0.47890369  0.51822214
   0.53023342  0.37768264  0.42435832
   0.93627354  0.47164251  0.28290555
   0.74835381  0.15956226  0.00000000
   0.84231368  0.06560239  0.14145277
   0.58013881  0.49134725  0.00000000
   0.67409868  0.39738738  0.14145277
   0.76805855  0.30342751  0.28290555
   0.86201841  0.20946765  0.42435832
   0.07287763  0.66682344  0.23531659
   0.16683750  0.57286357  0.37676936
   0.47891775  0.76078330  0.09386382
   0.26079737  0.97890369  0.51822214
   0.03023342  0.87768264  0.42435832
   0.43627354  0.97164251  0.28290555
   0.24835381  0.65956226  0.00000000
   0.34231368  0.56560239  0.14145277
   0.08013881  0.99134725  0.00000000
   0.17409868  0.89738738  0.14145277
   0.26805855  0.80342751  0.28290555
   0.36201841  0.70946765  0.42435832
   0.57287763  0.66682344  0.23531659
   0.66683750  0.57286357  0.37676936
   0.97891775  0.76078330  0.09386382
   0.76079737  0.97890369  0.51822214
   0.53023342  0.87768264  0.42435832
   0.93627354  0.97164251  0.28290555
   0.74835381  0.65956226  0.00000000
   0.84231368  0.56560239  0.14145277
   0.58013881  0.99134725  0.00000000
   0.67409868  0.89738738  0.14145277
   0.76805855  0.80342751  0.28290555
   0.86201841  0.70946765  0.42435832
