  96  96   0   0
  0.2565633E+02  0.1125646E-08  0.1125646E-08  0.2174423E-08  0.5000000E-15
  1.000000000000000E-004
  CAR 
 "Millerite NiS"                         
     11.45927727    -66.11088927  301      1.51724339      1.00000000
    -66.111  0.0000E+00  0.0000E+00
    -65.852  0.0000E+00  0.0000E+00
    -65.594  0.0000E+00  0.0000E+00
    -65.335  0.0000E+00  0.0000E+00
    -65.077  0.0000E+00  0.0000E+00
    -64.818  0.0000E+00  0.0000E+00
    -64.559  0.0000E+00  0.0000E+00
    -64.301  0.0000E+00  0.0000E+00
    -64.042  0.0000E+00  0.0000E+00
    -63.784  0.0000E+00  0.0000E+00
    -63.525  0.6813E-09  0.1762E-09
    -63.267  0.4940E-04  0.1277E-04
    -63.008  0.1575E+00  0.4073E-01
    -62.750  0.2505E+02  0.6519E+01
    -62.491  0.2693E+03  0.7614E+02
    -62.232  0.3965E+03  0.1787E+03
    -61.974  0.2228E+03  0.2363E+03
    -61.715  0.1136E+03  0.2656E+03
    -61.457  0.6034E+02  0.2813E+03
    -61.198  0.2301E+02  0.2872E+03
    -60.940  0.3046E+01  0.2880E+03
    -60.681  0.4804E-01  0.2880E+03
    -60.422  0.4767E-04  0.2880E+03
    -60.164  0.2092E-08  0.2880E+03
    -59.905  0.3435E-14  0.2880E+03
    -59.647  0.0000E+00  0.2880E+03
    -59.388  0.0000E+00  0.2880E+03
    -59.130  0.0000E+00  0.2880E+03
    -58.871  0.0000E+00  0.2880E+03
    -58.612  0.0000E+00  0.2880E+03
    -58.354  0.0000E+00  0.2880E+03
    -58.095  0.0000E+00  0.2880E+03
    -57.837  0.0000E+00  0.2880E+03
    -57.578  0.0000E+00  0.2880E+03
    -57.320  0.0000E+00  0.2880E+03
    -57.061  0.0000E+00  0.2880E+03
    -56.802  0.0000E+00  0.2880E+03
    -56.544  0.0000E+00  0.2880E+03
    -56.285  0.0000E+00  0.2880E+03
    -56.027  0.0000E+00  0.2880E+03
    -55.768  0.0000E+00  0.2880E+03
    -55.510  0.0000E+00  0.2880E+03
    -55.251  0.0000E+00  0.2880E+03
    -54.992  0.0000E+00  0.2880E+03
    -54.734  0.0000E+00  0.2880E+03
    -54.475  0.0000E+00  0.2880E+03
    -54.217  0.0000E+00  0.2880E+03
    -53.958  0.0000E+00  0.2880E+03
    -53.700  0.0000E+00  0.2880E+03
    -53.441  0.0000E+00  0.2880E+03
    -53.183  0.0000E+00  0.2880E+03
    -52.924  0.0000E+00  0.2880E+03
    -52.665  0.0000E+00  0.2880E+03
    -52.407  0.0000E+00  0.2880E+03
    -52.148  0.0000E+00  0.2880E+03
    -51.890  0.0000E+00  0.2880E+03
    -51.631  0.0000E+00  0.2880E+03
    -51.373  0.0000E+00  0.2880E+03
    -51.114  0.0000E+00  0.2880E+03
    -50.855  0.0000E+00  0.2880E+03
    -50.597  0.0000E+00  0.2880E+03
    -50.338  0.0000E+00  0.2880E+03
    -50.080  0.0000E+00  0.2880E+03
    -49.821  0.0000E+00  0.2880E+03
    -49.563  0.0000E+00  0.2880E+03
    -49.304  0.0000E+00  0.2880E+03
    -49.045  0.0000E+00  0.2880E+03
    -48.787  0.0000E+00  0.2880E+03
    -48.528  0.0000E+00  0.2880E+03
    -48.270  0.0000E+00  0.2880E+03
    -48.011  0.0000E+00  0.2880E+03
    -47.753  0.0000E+00  0.2880E+03
    -47.494  0.0000E+00  0.2880E+03
    -47.235  0.0000E+00  0.2880E+03
    -46.977  0.0000E+00  0.2880E+03
    -46.718  0.0000E+00  0.2880E+03
    -46.460  0.0000E+00  0.2880E+03
    -46.201  0.0000E+00  0.2880E+03
    -45.943  0.0000E+00  0.2880E+03
    -45.684  0.0000E+00  0.2880E+03
    -45.426  0.0000E+00  0.2880E+03
    -45.167  0.0000E+00  0.2880E+03
    -44.908  0.0000E+00  0.2880E+03
    -44.650  0.0000E+00  0.2880E+03
    -44.391  0.0000E+00  0.2880E+03
    -44.133  0.0000E+00  0.2880E+03
    -43.874  0.0000E+00  0.2880E+03
    -43.616  0.0000E+00  0.2880E+03
    -43.357  0.0000E+00  0.2880E+03
    -43.098  0.0000E+00  0.2880E+03
    -42.840  0.0000E+00  0.2880E+03
    -42.581  0.0000E+00  0.2880E+03
    -42.323  0.0000E+00  0.2880E+03
    -42.064  0.0000E+00  0.2880E+03
    -41.806  0.0000E+00  0.2880E+03
    -41.547  0.0000E+00  0.2880E+03
    -41.288  0.0000E+00  0.2880E+03
    -41.030  0.0000E+00  0.2880E+03
    -40.771  0.0000E+00  0.2880E+03
    -40.513  0.0000E+00  0.2880E+03
    -40.254  0.0000E+00  0.2880E+03
    -39.996  0.0000E+00  0.2880E+03
    -39.737  0.0000E+00  0.2880E+03
    -39.478  0.0000E+00  0.2880E+03
    -39.220  0.0000E+00  0.2880E+03
    -38.961  0.0000E+00  0.2880E+03
    -38.703  0.0000E+00  0.2880E+03
    -38.444  0.0000E+00  0.2880E+03
    -38.186  0.0000E+00  0.2880E+03
    -37.927  0.0000E+00  0.2880E+03
    -37.668  0.0000E+00  0.2880E+03
    -37.410  0.0000E+00  0.2880E+03
    -37.151  0.0000E+00  0.2880E+03
    -36.893  0.0000E+00  0.2880E+03
    -36.634  0.0000E+00  0.2880E+03
    -36.376  0.0000E+00  0.2880E+03
    -36.117  0.0000E+00  0.2880E+03
    -35.859  0.0000E+00  0.2880E+03
    -35.600  0.0000E+00  0.2880E+03
    -35.341  0.0000E+00  0.2880E+03
    -35.083  0.0000E+00  0.2880E+03
    -34.824  0.0000E+00  0.2880E+03
    -34.566  0.0000E+00  0.2880E+03
    -34.307  0.0000E+00  0.2880E+03
    -34.049  0.0000E+00  0.2880E+03
    -33.790  0.0000E+00  0.2880E+03
    -33.531  0.0000E+00  0.2880E+03
    -33.273  0.0000E+00  0.2880E+03
    -33.014  0.0000E+00  0.2880E+03
    -32.756  0.0000E+00  0.2880E+03
    -32.497  0.0000E+00  0.2880E+03
    -32.239  0.0000E+00  0.2880E+03
    -31.980  0.0000E+00  0.2880E+03
    -31.721  0.0000E+00  0.2880E+03
    -31.463  0.0000E+00  0.2880E+03
    -31.204  0.0000E+00  0.2880E+03
    -30.946  0.0000E+00  0.2880E+03
    -30.687  0.0000E+00  0.2880E+03
    -30.429  0.0000E+00  0.2880E+03
    -30.170  0.0000E+00  0.2880E+03
    -29.911  0.0000E+00  0.2880E+03
    -29.653  0.0000E+00  0.2880E+03
    -29.394  0.0000E+00  0.2880E+03
    -29.136  0.0000E+00  0.2880E+03
    -28.877  0.0000E+00  0.2880E+03
    -28.619  0.0000E+00  0.2880E+03
    -28.360  0.0000E+00  0.2880E+03
    -28.102  0.0000E+00  0.2880E+03
    -27.843  0.0000E+00  0.2880E+03
    -27.584  0.0000E+00  0.2880E+03
    -27.326  0.0000E+00  0.2880E+03
    -27.067  0.0000E+00  0.2880E+03
    -26.809  0.0000E+00  0.2880E+03
    -26.550  0.0000E+00  0.2880E+03
    -26.292  0.0000E+00  0.2880E+03
    -26.033  0.0000E+00  0.2880E+03
    -25.774  0.0000E+00  0.2880E+03
    -25.516  0.0000E+00  0.2880E+03
    -25.257  0.0000E+00  0.2880E+03
    -24.999  0.0000E+00  0.2880E+03
    -24.740  0.0000E+00  0.2880E+03
    -24.482  0.0000E+00  0.2880E+03
    -24.223  0.0000E+00  0.2880E+03
    -23.964  0.0000E+00  0.2880E+03
    -23.706  0.0000E+00  0.2880E+03
    -23.447  0.0000E+00  0.2880E+03
    -23.189  0.0000E+00  0.2880E+03
    -22.930  0.0000E+00  0.2880E+03
    -22.672  0.0000E+00  0.2880E+03
    -22.413  0.0000E+00  0.2880E+03
    -22.154  0.0000E+00  0.2880E+03
    -21.896  0.0000E+00  0.2880E+03
    -21.637  0.0000E+00  0.2880E+03
    -21.379  0.0000E+00  0.2880E+03
    -21.120  0.0000E+00  0.2880E+03
    -20.862  0.0000E+00  0.2880E+03
    -20.603  0.0000E+00  0.2880E+03
    -20.344  0.0000E+00  0.2880E+03
    -20.086  0.0000E+00  0.2880E+03
    -19.827  0.0000E+00  0.2880E+03
    -19.569  0.0000E+00  0.2880E+03
    -19.310  0.0000E+00  0.2880E+03
    -19.052  0.0000E+00  0.2880E+03
    -18.793  0.0000E+00  0.2880E+03
    -18.535  0.0000E+00  0.2880E+03
    -18.276  0.0000E+00  0.2880E+03
    -18.017  0.0000E+00  0.2880E+03
    -17.759  0.0000E+00  0.2880E+03
    -17.500  0.0000E+00  0.2880E+03
    -17.242  0.0000E+00  0.2880E+03
    -16.983  0.0000E+00  0.2880E+03
    -16.725  0.0000E+00  0.2880E+03
    -16.466  0.0000E+00  0.2880E+03
    -16.207  0.0000E+00  0.2880E+03
    -15.949  0.0000E+00  0.2880E+03
    -15.690  0.0000E+00  0.2880E+03
    -15.432  0.0000E+00  0.2880E+03
    -15.173  0.0000E+00  0.2880E+03
    -14.915  0.2091E-10  0.2880E+03
    -14.656  0.1570E-05  0.2880E+03
    -14.397  0.4658E-02  0.2880E+03
    -14.139  0.6092E+00  0.2882E+03
    -13.880  0.4512E+01  0.2893E+03
    -13.622  0.3014E+01  0.2901E+03
    -13.363  0.7066E+01  0.2919E+03
    -13.105  0.2059E+02  0.2973E+03
    -12.846  0.2540E+02  0.3038E+03
    -12.587  0.3421E+02  0.3127E+03
    -12.329  0.2951E+02  0.3203E+03
    -12.070  0.4591E+02  0.3322E+03
    -11.812  0.5897E+02  0.3474E+03
    -11.553  0.3850E+02  0.3574E+03
    -11.295  0.2100E+02  0.3628E+03
    -11.036  0.1453E+02  0.3666E+03
    -10.778  0.1448E+02  0.3703E+03
    -10.519  0.1998E+02  0.3755E+03
    -10.260  0.1681E+02  0.3798E+03
    -10.002  0.1452E+02  0.3836E+03
     -9.743  0.1668E+01  0.3840E+03
     -9.485  0.1451E-01  0.3840E+03
     -9.226  0.6648E-05  0.3840E+03
     -8.968  0.1313E-09  0.3840E+03
     -8.709  0.0000E+00  0.3840E+03
     -8.450  0.0000E+00  0.3840E+03
     -8.192  0.0000E+00  0.3840E+03
     -7.933  0.0000E+00  0.3840E+03
     -7.675  0.0000E+00  0.3840E+03
     -7.416  0.0000E+00  0.3840E+03
     -7.158  0.0000E+00  0.3840E+03
     -6.899  0.8588E-15  0.3840E+03
     -6.640  0.9118E-09  0.3840E+03
     -6.382  0.3823E-04  0.3840E+03
     -6.123  0.6611E-01  0.3840E+03
     -5.865  0.5442E+01  0.3854E+03
     -5.606  0.2854E+02  0.3928E+03
     -5.348  0.1853E+02  0.3976E+03
     -5.089  0.2526E+02  0.4041E+03
     -4.830  0.4600E+02  0.4160E+03
     -4.572  0.5885E+02  0.4312E+03
     -4.313  0.6795E+02  0.4488E+03
     -4.055  0.3910E+02  0.4589E+03
     -3.796  0.3963E+02  0.4692E+03
     -3.538  0.6816E+02  0.4868E+03
     -3.279  0.6864E+02  0.5045E+03
     -3.020  0.8572E+02  0.5267E+03
     -2.762  0.8656E+02  0.5491E+03
     -2.503  0.8401E+02  0.5708E+03
     -2.245  0.1046E+03  0.5978E+03
     -1.986  0.7361E+02  0.6169E+03
     -1.728  0.5240E+02  0.6304E+03
     -1.469  0.5940E+02  0.6458E+03
     -1.211  0.8142E+02  0.6668E+03
     -0.952  0.9827E+02  0.6922E+03
     -0.693  0.1286E+03  0.7255E+03
     -0.435  0.1663E+03  0.7685E+03
     -0.176  0.1891E+03  0.8174E+03
      0.082  0.2248E+03  0.8755E+03
      0.341  0.2078E+03  0.9292E+03
      0.599  0.1553E+03  0.9694E+03
      0.858  0.1241E+03  0.1001E+04
      1.117  0.9674E+02  0.1026E+04
      1.375  0.7509E+02  0.1046E+04
      1.634  0.7048E+02  0.1064E+04
      1.892  0.6724E+02  0.1082E+04
      2.151  0.7364E+02  0.1101E+04
      2.409  0.8064E+02  0.1121E+04
      2.668  0.7467E+02  0.1141E+04
      2.927  0.4278E+02  0.1152E+04
      3.185  0.8615E+01  0.1154E+04
      3.444  0.4345E+01  0.1155E+04
      3.702  0.7750E+01  0.1157E+04
      3.961  0.4233E+01  0.1158E+04
      4.219  0.5935E+01  0.1160E+04
      4.478  0.1136E+02  0.1163E+04
      4.737  0.1684E+02  0.1167E+04
      4.995  0.1782E+02  0.1172E+04
      5.254  0.1436E+02  0.1175E+04
      5.512  0.1881E+02  0.1180E+04
      5.771  0.2483E+02  0.1187E+04
      6.029  0.2512E+02  0.1193E+04
      6.288  0.3156E+02  0.1201E+04
      6.547  0.3203E+02  0.1210E+04
      6.805  0.3576E+02  0.1219E+04
      7.064  0.3935E+02  0.1229E+04
      7.322  0.5011E+02  0.1242E+04
      7.581  0.5390E+02  0.1256E+04
      7.839  0.5859E+02  0.1271E+04
      8.098  0.3149E+02  0.1279E+04
      8.356  0.3024E+01  0.1280E+04
      8.615  0.2538E-01  0.1280E+04
      8.874  0.1130E-04  0.1280E+04
      9.132  0.2138E-09  0.1280E+04
      9.391  0.0000E+00  0.1280E+04
      9.649  0.0000E+00  0.1280E+04
      9.908  0.0000E+00  0.1280E+04
     10.166  0.0000E+00  0.1280E+04
     10.425  0.0000E+00  0.1280E+04
     10.684  0.0000E+00  0.1280E+04
     10.942  0.0000E+00  0.1280E+04
     11.201  0.0000E+00  0.1280E+04
     11.459  0.0000E+00  0.1280E+04
