 vasp.6.1.0 28Jan20 (build Mar 31 2020 17:42:31) gamma-only                     
  
 executed on             LinuxIFC date 2020.04.12  08:48:23
 running on   48 total cores
 distrk:  each k-point on   48 cores,    1 groups
 distr:  one band on NCORE=   6 cores,    8 groups


--------------------------------------------------------------------------------------------------------


 INCAR:
 POTCAR:    PAW_PBE Ni_pv 06Sep2000               
 POTCAR:    PAW_PBE S 06Sep2000                   
 POTCAR:    PAW_PBE Ni_pv 06Sep2000               
   VRHFIN =Ni:                                                                                      
   LEXCH  = PE                                                                                      
   EATOM  =  3501.1230 eV,  257.3253 Ry                                                             
                                                                                                    
   TITEL  = PAW_PBE Ni_pv 06Sep2000                                                                 
   LULTRA =        F    use ultrasoft PP ?                                                          
   IUNSCR =        1    unscreen: 0-lin 1-nonlin 2-no                                               
   RPACOR =    1.500    partial core radius                                                         
   POMASS =   58.690; ZVAL   =   16.000    mass and valenz                                          
   RCORE  =    2.000    outmost cutoff radius                                                       
   RWIGS  =    2.000; RWIGS  =    1.058    wigner-seitz radius (au A)                               
   ENMAX  =  367.986; ENMIN  =  275.989 eV                                                          
   RCLOC  =    1.301    cutoff for local pot                                                        
   LCOR   =        T    correct aug charges                                                         
   LPAW   =        T    paw PP                                                                      
   EAUG   =  703.443                                                                                
   DEXC   =    0.000                                                                                
   RMAX   =    2.041    core radius for proj-oper                                                   
   RAUG   =    1.300    factor for augmentation sphere                                              
   RDEP   =    2.103    radius for radial grids                                                     
   RDEPT  =    1.618    core radius for aug-charge                                                  
                                                                                                    
   Atomic configuration                                                                             
    8 entries                                                                                       
     n  l   j            E        occ.                                                              
     1  0  0.50     -8206.4253   2.0000                                                             
     2  0  0.50      -976.1748   2.0000                                                             
     2  1  1.50      -839.0571   6.0000                                                             
     3  0  0.50      -105.9991   2.0000                                                             
     3  1  1.50       -66.4603   6.0000                                                             
     3  2  2.50        -4.6458   9.0000                                                             
     4  0  0.50        -4.4926   1.0000                                                             
     4  3  2.50        -1.3606   0.0000                                                             
   Description                                                                                      
     l       E           TYP  RCUT    TYP  RCUT                                                     
     1    -66.4602962     23  1.700                                                                 
     1     -1.3605826     23  1.700                                                                 
     2     -4.6457867     23  2.000                                                                 
     2     -6.0063693     23  2.000                                                                 
     0     -4.4925576     23  1.900                                                                 
     0     16.3626226     23  1.900                                                                 
  local pseudopotential read in
  partial core-charges read in
  partial kinetic energy density read in
  atomic valenz-charges read in
  non local Contribution for L=           1  read in
    real space projection operators read in
  non local Contribution for L=           1  read in
    real space projection operators read in
  non local Contribution for L=           2  read in
    real space projection operators read in
  non local Contribution for L=           2  read in
    real space projection operators read in
  non local Contribution for L=           0  read in
    real space projection operators read in
  non local Contribution for L=           0  read in
    real space projection operators read in
    PAW grid and wavefunctions read in
 
   number of l-projection  operators is LMAX  =           6
   number of lm-projection operators is LMMAX =          18
 
 POTCAR:    PAW_PBE S 06Sep2000                   
   VRHFIN =S : s2p4                                                                                 
   LEXCH  = PE                                                                                      
   EATOM  =   276.8230 eV,   20.3459 Ry                                                             
                                                                                                    
   TITEL  = PAW_PBE S 06Sep2000                                                                     
   LULTRA =        F    use ultrasoft PP ?                                                          
   IUNSCR =        1    unscreen: 0-lin 1-nonlin 2-no                                               
   RPACOR =    1.500    partial core radius                                                         
   POMASS =   32.066; ZVAL   =    6.000    mass and valenz                                          
   RCORE  =    1.900    outmost cutoff radius                                                       
   RWIGS  =    2.200; RWIGS  =    1.164    wigner-seitz radius (au A)                               
   ENMAX  =  258.689; ENMIN  =  194.016 eV                                                          
   ICORE  =        2    local potential                                                             
   LCOR   =        T    correct aug charges                                                         
   LPAW   =        T    paw PP                                                                      
   EAUG   =  335.092                                                                                
   DEXC   =    0.000                                                                                
   RMAX   =    1.942    core radius for proj-oper                                                   
   RAUG   =    1.300    factor for augmentation sphere                                              
   RDEP   =    1.954    radius for radial grids                                                     
   RDEPT  =    1.744    core radius for aug-charge                                                  
                                                                                                    
   Atomic configuration                                                                             
    6 entries                                                                                       
     n  l   j            E        occ.                                                              
     1  0  0.50     -2405.8406   2.0000                                                             
     2  0  0.50      -211.7007   2.0000                                                             
     2  1  1.50      -156.4958   6.0000                                                             
     3  0  0.50       -17.2562   2.0000                                                             
     3  1  0.50        -7.0085   4.0000                                                             
     3  2  1.50        -6.8029   0.0000                                                             
   Description                                                                                      
     l       E           TYP  RCUT    TYP  RCUT                                                     
     0    -17.2561641     23  1.900                                                                 
     0    -15.8743224     23  1.900                                                                 
     1     -7.0085400     23  1.900                                                                 
     1     -2.7779785     23  1.900                                                                 
     2     -6.8029130     23  1.900                                                                 
  local pseudopotential read in
  partial core-charges read in
  partial kinetic energy density read in
  atomic valenz-charges read in
  non local Contribution for L=           0  read in
    real space projection operators read in
  non local Contribution for L=           0  read in
    real space projection operators read in
  non local Contribution for L=           1  read in
    real space projection operators read in
  non local Contribution for L=           1  read in
    real space projection operators read in
    PAW grid and wavefunctions read in
 
   number of l-projection  operators is LMAX  =           4
   number of lm-projection operators is LMMAX =           8
 
 Optimization of the real space projectors (new method)

 maximal supplied QI-value         = 18.90
 optimisation between [QCUT,QGAM] = [ 10.77, 21.73] = [ 32.49,132.25] Ry 
 Optimized for a Real-space Cutoff    1.38 Angstroem

   l    n(q)    QCUT    max X(q) W(low)/X(q) W(high)/X(q)  e(spline) 
   1      8    10.771     2.836    0.40E-04    0.29E-04    0.12E-06
   1      8    10.771     4.023    0.10E-03    0.48E-04    0.29E-06
   2      8    10.771    73.368    0.42E-03    0.97E-04    0.44E-06
   2      8    10.771    69.010    0.42E-03    0.99E-04    0.45E-06
   0      9    10.771    54.797    0.10E-03    0.56E-04    0.74E-07
   0      9    10.771    24.266    0.89E-04    0.49E-04    0.67E-07
 Optimization of the real space projectors (new method)

 maximal supplied QI-value         = 19.84
 optimisation between [QCUT,QGAM] = [ 10.71, 21.63] = [ 32.15,130.99] Ry 
 Optimized for a Real-space Cutoff    1.19 Angstroem

   l    n(q)    QCUT    max X(q) W(low)/X(q) W(high)/X(q)  e(spline) 
   0      8    10.715   187.594    0.41E-03    0.53E-04    0.66E-07
   0      8    10.715   164.243    0.41E-03    0.53E-04    0.65E-07
   1      7    10.715    67.533    0.19E-03    0.59E-03    0.68E-07
   1      7    10.715    50.729    0.19E-03    0.58E-03    0.67E-07
  PAW_PBE Ni_pv 06Sep2000               :
 energy of atom  1       EATOM=-3501.1230
 kinetic energy error for atom=    0.0925 (will be added to EATOM!!)
  PAW_PBE S 06Sep2000                   :
 energy of atom  2       EATOM= -276.8230
 kinetic energy error for atom=    0.0033 (will be added to EATOM!!)
 
 
 POSCAR: Structure 8 made from -112-10.xsd file
  positions in direct lattice
  No initial velocities read in
 exchange correlation table for  LEXCH =        8
   RHO(1)=    0.500       N(1)  =     2000
   RHO(2)=  100.500       N(2)  =     4000
 


--------------------------------------------------------------------------------------------------------


 ion  position               nearest neighbor table
   1  0.780  0.145  0.121-  41 2.25  49 2.26  63 2.26  50 2.36  64 2.36  24 2.53  13 2.53
   2  0.815  0.145  0.311-  42 2.25  50 2.26  64 2.26  25 2.53  14 2.53
   3  0.263  0.645  0.025-  43 2.25  51 2.36  61 2.36  26 2.53  15 2.53
   4  0.297  0.645  0.216-  44 2.25  51 2.26  61 2.26  52 2.36  62 2.36  27 2.53  16 2.53
   5  0.435  0.145  0.057-  45 2.25  53 2.36  67 2.36  29 2.53  17 2.53
   6  0.470  0.145  0.248-  46 2.25  53 2.26  67 2.26  54 2.36  68 2.36  30 2.53  18 2.53
   7  0.952  0.645  0.152-  47 2.25  56 2.26  66 2.26  55 2.36  65 2.36  31 2.53  19 2.53
   8  0.987  0.645  0.343-  48 2.25  55 2.26  65 2.26  32 2.53  20 2.53
   9  0.125  0.145  0.184-  38 2.25  57 2.26  71 2.26  58 2.36  72 2.36  33 2.53  21 2.53
  10  0.159  0.145  0.375-  37 2.25  58 2.26  72 2.26  34 2.53  22 2.53
  11  0.608  0.645  0.089-  39 2.25  59 2.36  69 2.36  35 2.53
  12  0.642  0.645  0.280-  40 2.25  59 2.26  69 2.26  60 2.36  70 2.36  36 2.53  23 2.53
  13  0.908  0.013  0.095-  56 2.25  63 2.26  64 2.36  38 2.36   1 2.53  24 2.53
  14  0.942  0.013  0.286-  55 2.25  64 2.26  38 2.26  37 2.36   2 2.53  25 2.53
  15  0.390  0.513  0.000-  39 2.36  61 2.36   3 2.53  26 2.53
  16  0.425  0.513  0.191-  53 2.25  39 2.26  61 2.26  40 2.36  62 2.36  27 2.53   4 2.53
  17  0.563  0.013  0.032-  41 2.36  67 2.36   5 2.53  29 2.53
  18  0.597  0.013  0.223-  59 2.25  67 2.26  41 2.26  68 2.36  42 2.36   6 2.53  30 2.53
  19  0.080  0.513  0.127-  57 2.25  43 2.26  66 2.26  44 2.36  65 2.36   7 2.53  31 2.53
  20  0.115  0.513  0.318-  58 2.25  44 2.26  65 2.26   8 2.53  32 2.53
  21  0.252  0.013  0.159-  51 2.25  45 2.26  71 2.26  46 2.36  72 2.36   9 2.53  33 2.53
  22  0.287  0.013  0.350-  52 2.25  46 2.26  72 2.26  10 2.53  34 2.53
  23  0.770  0.513  0.254-  50 2.25  69 2.26  47 2.26  48 2.36  70 2.36  12 2.53  36 2.53
  24  0.908  0.277  0.095-  66 2.25  49 2.26  50 2.36  38 2.36   1 2.53  13 2.53
  25  0.942  0.277  0.286-  65 2.25  50 2.26  38 2.26  37 2.36   2 2.53  14 2.53
  26  0.390  0.777  0.000-  39 2.36  51 2.36   3 2.53  15 2.53
  27  0.425  0.777  0.191-  67 2.25  39 2.26  51 2.26  40 2.36  52 2.36  16 2.53   4 2.53
  28  0.459  0.777  0.382-  68 2.25  40 2.26  52 2.26
  29  0.563  0.277  0.032-  41 2.36  53 2.36   5 2.53  17 2.53
  30  0.597  0.277  0.223-  69 2.25  53 2.26  41 2.26  54 2.36  42 2.36   6 2.53  18 2.53
  31  0.080  0.777  0.127-  71 2.25  43 2.26  56 2.26  44 2.36  55 2.36   7 2.53  19 2.53
  32  0.115  0.777  0.318-  72 2.25  44 2.26  55 2.26   8 2.53  20 2.53
  33  0.252  0.277  0.159-  61 2.25  45 2.26  57 2.26  46 2.36  58 2.36   9 2.53  21 2.53
  34  0.287  0.277  0.350-  62 2.25  46 2.26  58 2.26  10 2.53  22 2.53
  35  0.735  0.777  0.064-  63 2.25  59 2.36  47 2.36  11 2.53
  36  0.770  0.777  0.254-  64 2.25  59 2.26  47 2.26  48 2.36  60 2.36  12 2.53  23 2.53
  37  0.026  0.145  0.373-  10 2.25  14 2.36  25 2.36
  38  0.991  0.145  0.182-   9 2.25  14 2.26  25 2.26  24 2.36  13 2.36
  39  0.474  0.645  0.087-  11 2.25  16 2.26  27 2.26  26 2.36  15 2.36
  40  0.509  0.645  0.278-  12 2.25  28 2.26  27 2.36  16 2.36
  41  0.647  0.145  0.119-   1 2.25  18 2.26  30 2.26  29 2.36  17 2.36
  42  0.681  0.145  0.310-   2 2.25  18 2.36  30 2.36
  43  0.129  0.645  0.023-   3 2.25  19 2.26  31 2.26
  44  0.164  0.645  0.214-   4 2.25  20 2.26  32 2.26  31 2.36  19 2.36
  45  0.302  0.145  0.055-   5 2.25  21 2.26  33 2.26
  46  0.336  0.145  0.246-   6 2.25  22 2.26  34 2.26  33 2.36  21 2.36
  47  0.819  0.645  0.151-   7 2.25  23 2.26  36 2.26  35 2.36
  48  0.854  0.645  0.341-   8 2.25  23 2.36  36 2.36
  49  0.794  0.314  0.024-   1 2.26  24 2.26
  50  0.829  0.314  0.214-  23 2.25  25 2.26   2 2.26  24 2.36   1 2.36
  51  0.312  0.814  0.119-  21 2.25   4 2.26  27 2.26  26 2.36   3 2.36
  52  0.346  0.814  0.310-  22 2.25  28 2.26   4 2.36  27 2.36
  53  0.484  0.314  0.151-  16 2.25  30 2.26   6 2.26  29 2.36   5 2.36
  54  0.519  0.314  0.342-  30 2.36   6 2.36
  55  0.001  0.814  0.246-  14 2.25   8 2.26  32 2.26   7 2.36  31 2.36
  56  0.967  0.814  0.056-  13 2.25   7 2.26  31 2.26
  57  0.139  0.314  0.087-  19 2.25  33 2.26   9 2.26
  58  0.174  0.314  0.278-  20 2.25  10 2.26  34 2.26   9 2.36  33 2.36
  59  0.657  0.814  0.183-  18 2.25  36 2.26  12 2.26  35 2.36  11 2.36
  60  0.691  0.814  0.373-  36 2.36  12 2.36
  61  0.312  0.477  0.119-  33 2.25   4 2.26  16 2.26  15 2.36   3 2.36
  62  0.346  0.477  0.310-  34 2.25   4 2.36  16 2.36
  63  0.794  0.977  0.024-  35 2.25   1 2.26  13 2.26
  64  0.829  0.977  0.214-  36 2.25  14 2.26   2 2.26  13 2.36   1 2.36
  65  0.001  0.477  0.246-  25 2.25   8 2.26  20 2.26   7 2.36  19 2.36
  66  0.967  0.477  0.056-  24 2.25   7 2.26  19 2.26
  67  0.484  0.977  0.151-  27 2.25  18 2.26   6 2.26  17 2.36   5 2.36
  68  0.519  0.977  0.342-  28 2.25  18 2.36   6 2.36
  69  0.657  0.477  0.183-  30 2.25  23 2.26  12 2.26  11 2.36
  70  0.691  0.477  0.373-  23 2.36  12 2.36
  71  0.139  0.977  0.087-  31 2.25  21 2.26   9 2.26
  72  0.174  0.977  0.278-  32 2.25  10 2.26  22 2.26   9 2.36  21 2.36
 
  LATTYP: Found a simple orthorhombic cell.
 ALAT       =     9.5784100000
 B/A-ratio  =     1.6880763216
 C/A-ratio  =     1.7627867312
  
  Lattice vectors:
  
 A1 = (   0.0000000000,   9.5784100000,   0.0000000000)
 A2 = (   0.0000000000,   0.0000000000, -16.1690871197)
 A3 = ( -16.8846940542,   0.0000000000,   0.0000000000)


Analysis of symmetry for initial positions (statically):
=====================================================================
 Subroutine PRICEL returns:
 Original cell was already a primitive cell.
 

 Routine SETGRP: Setting up the symmetry group for a 
 simple orthorhombic supercell.


 Subroutine GETGRP returns: Found  1 space group operations
 (whereof  1 operations were pure point group operations)
 out of a pool of  8 trial point group operations.


The static configuration has the point symmetry C_1 .


Analysis of symmetry for dynamics (positions and initial velocities):
=====================================================================
 Subroutine PRICEL returns:
 Original cell was already a primitive cell.
 

 Routine SETGRP: Setting up the symmetry group for a 
 simple orthorhombic supercell.


 Subroutine GETGRP returns: Found  1 space group operations
 (whereof  1 operations were pure point group operations)
 out of a pool of  8 trial point group operations.


The dynamic configuration has the point symmetry C_1 .


 Subroutine INISYM returns: Found  1 space group operations
 (whereof  1 operations are pure point group operations),
 and found     1 'primitive' translations


----------------------------------------------------------------------------------------

                                     Primitive cell                                     

  volume of cell :    2615.0026

  direct lattice vectors                    reciprocal lattice vectors
    16.884694054  0.000000000  0.000000000     0.059225237  0.000000000  0.000000000
     0.000000000  9.578410000  0.000000000     0.000000000  0.104401461  0.000000000
     0.000000000  0.000000000 16.169087120     0.000000000  0.000000000  0.061846411

  length of vectors
    16.884694054  9.578410000 16.169087120     0.059225237  0.104401461  0.061846411

  position of ions in fractional coordinates (direct lattice)
     0.780046307  0.145296954  0.120584992
     0.814614264  0.145296954  0.311352939
     0.262762328  0.645296954  0.025201018
     0.297330285  0.645296954  0.215968965
     0.435190321  0.145296954  0.056995676
     0.469758278  0.145296954  0.247763623
     0.952474300  0.645296954  0.152379650
     0.987042257  0.645296954  0.343147597
     0.124902293  0.145296954  0.184174308
     0.159470250  0.145296954  0.374942255
     0.607618314  0.645296954  0.088790334
     0.642186271  0.645296954  0.279558281
     0.907582776  0.013193954  0.095383974
     0.942150733  0.013193954  0.286151921
     0.390298797  0.513193954  0.000000000
     0.424866755  0.513193954  0.190767947
     0.562726790  0.013193954  0.031794658
     0.597294747  0.013193954  0.222562605
     0.080010769  0.513193954  0.127178632
     0.114578726  0.513193954  0.317946579
     0.252438762  0.013193954  0.158973289
     0.287006719  0.013193954  0.349741237
     0.769722740  0.513193954  0.254357263
     0.907582776  0.277399954  0.095383974
     0.942150733  0.277399954  0.286151921
     0.390298797  0.777399954  0.000000000
     0.424866755  0.777399954  0.190767947
     0.459434712  0.777399954  0.381535895
     0.562726790  0.277399954  0.031794658
     0.597294747  0.277399954  0.222562605
     0.080010769  0.777399954  0.127178632
     0.114578726  0.777399954  0.317946579
     0.252438762  0.277399954  0.158973289
     0.287006719  0.277399954  0.349741237
     0.735154783  0.777399954  0.063589316
     0.769722740  0.777399954  0.254357263
     0.026029163  0.145296954  0.373177651
     0.991461206  0.145296954  0.182409704
     0.474177227  0.645296954  0.087025730
     0.508745184  0.645296954  0.277793678
     0.646605220  0.145296954  0.118820388
     0.681173177  0.145296954  0.309588336
     0.129321241  0.645296954  0.023436415
     0.163889198  0.645296954  0.214204362
     0.301749234  0.145296954  0.055231073
     0.336317191  0.145296954  0.245999020
     0.819033213  0.645296954  0.150615046
     0.853601170  0.645296954  0.341382993
     0.794493097  0.313511954  0.023731787
     0.829061055  0.313511954  0.214499734
     0.311777076  0.813511954  0.119115761
     0.346345033  0.813511954  0.309883708
     0.484205069  0.313511954  0.150910419
     0.518773026  0.313511954  0.341678366
     0.001489047  0.813511954  0.246294392
     0.966921090  0.813511954  0.055526445
     0.139349083  0.313511954  0.087321103
     0.173917040  0.313511954  0.278089050
     0.656633062  0.813511954  0.182705076
     0.691201019  0.813511954  0.373473024
     0.311777076  0.477081954  0.119115761
     0.346345033  0.477081954  0.309883708
     0.794493097  0.977081954  0.023731787
     0.829061055  0.977081954  0.214499734
     0.001489047  0.477081954  0.246294392
     0.966921090  0.477081954  0.055526445
     0.484205069  0.977081954  0.150910419
     0.518773026  0.977081954  0.341678366
     0.656633062  0.477081954  0.182705076
     0.691201019  0.477081954  0.373473024
     0.139349083  0.977081954  0.087321103
     0.173917040  0.977081954  0.278089050

  ion indices of the primitive-cell ions
   primitive index   ion index
                 1           1
                 2           2
                 3           3
                 4           4
                 5           5
                 6           6
                 7           7
                 8           8
                 9           9
                10          10
                11          11
                12          12
                13          13
                14          14
                15          15
                16          16
                17          17
                18          18
                19          19
                20          20
                21          21
                22          22
                23          23
                24          24
                25          25
                26          26
                27          27
                28          28
                29          29
                30          30
                31          31
                32          32
                33          33
                34          34
                35          35
                36          36
                37          37
                38          38
                39          39
                40          40
                41          41
                42          42
                43          43
                44          44
                45          45
                46          46
                47          47
                48          48
                49          49
                50          50
                51          51
                52          52
                53          53
                54          54
                55          55
                56          56
                57          57
                58          58
                59          59
                60          60
                61          61
                62          62
                63          63
                64          64
                65          65
                66          66
                67          67
                68          68
                69          69
                70          70
                71          71
                72          72

----------------------------------------------------------------------------------------

 
 
 KPOINTS: gamma-point-only calculation. no periodi

Automatic generation of k-mesh.
Space group operators:
 irot       det(A)        alpha          n_x          n_y          n_z        tau_x        tau_y        tau_z
    1     1.000000     0.000000     1.000000     0.000000     0.000000     0.000000     0.000000     0.000000
 
 Subroutine IBZKPT returns following result:
 ===========================================
 
 Found      1 irreducible k-points:
 
 Following reciprocal coordinates:
            Coordinates               Weight
  0.000000  0.000000  0.000000      1.000000
 
 Following cartesian coordinates:
            Coordinates               Weight
  0.000000  0.000000  0.000000      1.000000
 


--------------------------------------------------------------------------------------------------------




 Dimension of arrays:
   k-points           NKPTS =      1   k-points in BZ     NKDIM =      1   number of bands    NBANDS=    480
   number of dos      NEDOS =    301   number of ions     NIONS =     72
   non local maximal  LDIM  =      6   non local SUM 2l+1 LMDIM =     18
   total plane-waves  NPLWV = 378000
   max r-space proj   IRMAX =   1644   max aug-charges    IRDMAX=   4753
   dimension x,y,z NGX =    90 NGY =   50 NGZ =   84
   dimension x,y,z NGXF=   180 NGYF=  100 NGZF=  168
   support grid    NGXF=   180 NGYF=  100 NGZF=  168
   ions per type =              36  36
   NGX,Y,Z   is equivalent  to a cutoff of   8.86,  8.68,  8.64 a.u.
   NGXF,Y,Z  is equivalent  to a cutoff of  17.72, 17.36, 17.27 a.u.

 SYSTEM =  "Millerite NiS"                         
 POSCAR =  Structure 8 made from -112-10.xsd file  

 Startparameter for this run:
   NWRITE =      2    write-flag & timer
   PREC   = normal    normal or accurate (medium, high low for compatibility)
   ISTART =      0    job   : 0-new  1-cont  2-samecut
   ICHARG =      2    charge: 1-file 2-atom 10-const
   ISPIN  =      1    spin polarized calculation?
   LNONCOLLINEAR =      F non collinear calculations
   LSORBIT =      F    spin-orbit coupling
   INIWAV =      1    electr: 0-lowe 1-rand  2-diag
   LASPH  =      F    aspherical Exc in radial PAW
   METAGGA=      F    non-selfconsistent MetaGGA calc.

 Electronic Relaxation 1
   ENCUT  =  450.0 eV  33.07 Ry    5.75 a.u.  29.20 16.57 27.97*2*pi/ulx,y,z
   ENINI  =  450.0     initial cutoff
   ENAUG  =  703.4 eV  augmentation charge cutoff
   NELM   =    100;   NELMIN=  2; NELMDL= -5     # of ELM steps 
   EDIFF  = 0.1E-03   stopping-criterion for ELM
   LREAL  =      T    real-space projection
   NLSPLINE    = F    spline interpolate recip. space projectors
   LCOMPAT=      F    compatible to vasp.4.4
   GGA_COMPAT  = T    GGA compatible to vasp.4.4-vasp.4.6
   LMAXPAW     = -100 max onsite density
   LMAXMIX     =    2 max onsite mixed and CHGCAR
   VOSKOWN=      0    Vosko Wilk Nusair interpolation
   ROPT   =   -0.00050  -0.00050
 Ionic relaxation
   EDIFFG = 0.1E-02   stopping-criterion for IOM
   NSW    =      0    number of steps for IOM
   NBLOCK =      1;   KBLOCK =      1    inner block; outer block 
   IBRION =     -1    ionic relax: 0-MD 1-quasi-New 2-CG
   NFREE  =      0    steps in history (QN), initial steepest desc. (CG)
   ISIF   =      2    stress and relaxation
   IWAVPR =     10    prediction:  0-non 1-charg 2-wave 3-comb
   ISYM   =      2    0-nonsym 1-usesym 2-fastsym
   LCORR  =      T    Harris-Foulkes like correction to forces

   POTIM  = 0.5000    time-step for ionic-motion
   TEIN   =    0.0    initial temperature
   TEBEG  =    0.0;   TEEND  =   0.0 temperature during run
   SMASS  =  -3.00    Nose mass-parameter (am)
   estimated Nose-frequenzy (Omega)   =  0.10E-29 period in steps = 0.13E+47 mass=  -0.652E-26a.u.
   SCALEE = 1.0000    scale energy and forces
   NPACO  =    256;   APACO  = 16.0  distance and # of slots for P.C.
   PSTRESS=    0.0 pullay stress

  Mass of Ions in am
   POMASS =  58.69 32.07
  Ionic Valenz
   ZVAL   =  16.00  6.00
  Atomic Wigner-Seitz radii
   RWIGS  =  -1.00 -1.00
  virtual crystal weights 
   VCA    =   1.00  1.00
   NELECT =     792.0000    total number of electrons
   NUPDOWN=      -1.0000    fix difference up-down

 DOS related values:
   EMIN   =  10.00;   EMAX   =-10.00  energy-range for DOS
   EFERMI =   0.00
   ISMEAR =     0;   SIGMA  =   0.20  broadening in eV -4-tet -1-fermi 0-gaus

 Electronic relaxation 2 (details)
   IALGO  =     38    algorithm
   LDIAG  =      T    sub-space diagonalisation (order eigenvalues)
   LSUBROT=      F    optimize rotation matrix (better conditioning)
   TURBO    =      0    0=normal 1=particle mesh
   IRESTART =      0    0=no restart 2=restart with 2 vectors
   NREBOOT  =      0    no. of reboots
   NMIN     =      0    reboot dimension
   EREF     =   0.00    reference energy to select bands
   IMIX   =      4    mixing-type and parameters
     AMIX     =   0.40;   BMIX     =  1.00
     AMIX_MAG =   1.60;   BMIX_MAG =  1.00
     AMIN     =   0.10
     WC   =   100.;   INIMIX=   1;  MIXPRE=   1;  MAXMIX= -45

 Intra band minimization:
   WEIMIN = 0.0000     energy-eigenvalue tresh-hold
   EBREAK =  0.52E-07  absolut break condition
   DEPER  =   0.30     relativ break condition  

   TIME   =   0.40     timestep for ELM

  volume/ion in A,a.u.               =      36.32       245.10
  Fermi-wavevector in a.u.,A,eV,Ry     =   1.099409  2.077581 16.445356  1.208700
  Thomas-Fermi vector in A             =   2.235803
 
 Write flags
   LWAVE        =      F    write WAVECAR
   LDOWNSAMPLE  =      F    k-point downsampling of WAVECAR
   LCHARG       =      F    write CHGCAR
   LVTOT        =      F    write LOCPOT, total local potential
   LVHAR        =      F    write LOCPOT, Hartree potential only
   LELF         =      F    write electronic localiz. function (ELF)
   LORBIT       =      0    0 simple, 1 ext, 2 COOP (PROOUT), +10 PAW based schemes


 Dipole corrections
   LMONO  =      F    monopole corrections only (constant potential shift)
   LDIPOL =      F    correct potential (dipole corrections)
   IDIPOL =      0    1-x, 2-y, 3-z, 4-all directions 
   EPSILON=  1.0000000 bulk dielectric constant

 Exchange correlation treatment:
   GGA     =    --    GGA type
   LEXCH   =     8    internal setting for exchange type
   VOSKOWN=      0    Vosko Wilk Nusair interpolation
   LHFCALC =     F    Hartree Fock is set to
   LHFONE  =     F    Hartree Fock one center treatment
   AEXX    =    0.0000 exact exchange contribution

 Linear response parameters
   LEPSILON=     F    determine dielectric tensor
   LRPA    =     F    only Hartree local field effects (RPA)
   LNABLA  =     F    use nabla operator in PAW spheres
   LVEL    =     F    velocity operator in full k-point grid
   LINTERFAST=   F  fast interpolation
   KINTER  =     0    interpolate to denser k-point grid
   CSHIFT  =0.1000    complex shift for real part using Kramers Kronig
   OMEGAMAX=  -1.0    maximum frequency
   DEG_THRESHOLD= 0.2000000E-02 threshold for treating states as degnerate
   RTIME   =   -0.100 relaxation time in fs
  (WPLASMAI=    0.000 imaginary part of plasma frequency in eV, 0.658/RTIME)
   DFIELD  = 0.0000000 0.0000000 0.0000000 field for delta impulse in time
 
 Orbital magnetization related:
   ORBITALMAG=     F  switch on orbital magnetization
   LCHIMAG   =     F  perturbation theory with respect to B field
   DQ        =  0.001000  dq finite difference perturbation B field
   LLRAUG    =     F  two centre corrections for induced B field



--------------------------------------------------------------------------------------------------------


 Static calculation
 charge density and potential will be updated during run
 non-spin polarized calculation
 Variant of blocked Davidson
 Davidson routine will perform the subspace rotation
 perform sub-space diagonalisation
    after iterative eigenvector-optimisation
 modified Broyden-mixing scheme, WC =      100.0
 initial mixing is a Kerker type mixing with AMIX =  0.4000 and BMIX =      1.0000
 Hartree-type preconditioning will be used
 using additional bands           84
 real space projection scheme for non local part
 use partial core corrections
 calculate Harris-corrections to forces 
   (improved forces if not selfconsistent)
 use gradient corrections 
 use of overlap-Matrix (Vanderbilt PP)
 Gauss-broadening in eV      SIGMA  =   0.20


--------------------------------------------------------------------------------------------------------


  energy-cutoff  :      450.00
  volume of cell :     2615.00
      direct lattice vectors                 reciprocal lattice vectors
    16.884694054  0.000000000  0.000000000     0.059225237  0.000000000  0.000000000
     0.000000000  9.578410000  0.000000000     0.000000000  0.104401461  0.000000000
     0.000000000  0.000000000 16.169087120     0.000000000  0.000000000  0.061846411

  length of vectors
    16.884694054  9.578410000 16.169087120     0.059225237  0.104401461  0.061846411


 
 k-points in units of 2pi/SCALE and weight: gamma-point-only calculation. no periodi
   0.00000000  0.00000000  0.00000000       1.000
 
 k-points in reciprocal lattice and weights: gamma-point-only calculation. no periodi
   0.00000000  0.00000000  0.00000000       1.000
 
 position of ions in fractional coordinates (direct lattice) 
   0.78004631  0.14529695  0.12058499
   0.81461426  0.14529695  0.31135294
   0.26276233  0.64529695  0.02520102
   0.29733029  0.64529695  0.21596897
   0.43519032  0.14529695  0.05699568
   0.46975828  0.14529695  0.24776362
   0.95247430  0.64529695  0.15237965
   0.98704226  0.64529695  0.34314760
   0.12490229  0.14529695  0.18417431
   0.15947025  0.14529695  0.37494226
   0.60761831  0.64529695  0.08879033
   0.64218627  0.64529695  0.27955828
   0.90758278  0.01319395  0.09538397
   0.94215073  0.01319395  0.28615192
   0.39029880  0.51319395  0.00000000
   0.42486675  0.51319395  0.19076795
   0.56272679  0.01319395  0.03179466
   0.59729475  0.01319395  0.22256261
   0.08001077  0.51319395  0.12717863
   0.11457873  0.51319395  0.31794658
   0.25243876  0.01319395  0.15897329
   0.28700672  0.01319395  0.34974124
   0.76972274  0.51319395  0.25435726
   0.90758278  0.27739995  0.09538397
   0.94215073  0.27739995  0.28615192
   0.39029880  0.77739995  0.00000000
   0.42486675  0.77739995  0.19076795
   0.45943471  0.77739995  0.38153589
   0.56272679  0.27739995  0.03179466
   0.59729475  0.27739995  0.22256261
   0.08001077  0.77739995  0.12717863
   0.11457873  0.77739995  0.31794658
   0.25243876  0.27739995  0.15897329
   0.28700672  0.27739995  0.34974124
   0.73515478  0.77739995  0.06358932
   0.76972274  0.77739995  0.25435726
   0.02602916  0.14529695  0.37317765
   0.99146121  0.14529695  0.18240970
   0.47417723  0.64529695  0.08702573
   0.50874518  0.64529695  0.27779368
   0.64660522  0.14529695  0.11882039
   0.68117318  0.14529695  0.30958834
   0.12932124  0.64529695  0.02343641
   0.16388920  0.64529695  0.21420436
   0.30174923  0.14529695  0.05523107
   0.33631719  0.14529695  0.24599902
   0.81903321  0.64529695  0.15061505
   0.85360117  0.64529695  0.34138299
   0.79449310  0.31351195  0.02373179
   0.82906105  0.31351195  0.21449973
   0.31177708  0.81351195  0.11911576
   0.34634503  0.81351195  0.30988371
   0.48420507  0.31351195  0.15091042
   0.51877303  0.31351195  0.34167837
   0.00148905  0.81351195  0.24629439
   0.96692109  0.81351195  0.05552644
   0.13934908  0.31351195  0.08732110
   0.17391704  0.31351195  0.27808905
   0.65663306  0.81351195  0.18270508
   0.69120102  0.81351195  0.37347302
   0.31177708  0.47708195  0.11911576
   0.34634503  0.47708195  0.30988371
   0.79449310  0.97708195  0.02373179
   0.82906105  0.97708195  0.21449973
   0.00148905  0.47708195  0.24629439
   0.96692109  0.47708195  0.05552644
   0.48420507  0.97708195  0.15091042
   0.51877303  0.97708195  0.34167837
   0.65663306  0.47708195  0.18270508
   0.69120102  0.47708195  0.37347302
   0.13934908  0.97708195  0.08732110
   0.17391704  0.97708195  0.27808905
 
 position of ions in cartesian coordinates  (Angst):
  13.17084324  1.39171380  1.94974924
  13.75451262  1.39171380  5.03429280
   4.43666152  6.18091880  0.40747746
   5.02033090  6.18091880  3.49202101
   7.34805543  1.39171380  0.92156805
   7.93172480  1.39171380  4.00611161
  16.08223715  6.18091880  2.46383984
  16.66590653  6.18091880  5.54838339
   2.10893700  1.39171380  2.97793043
   2.69260638  1.39171380  6.06247399
  10.25944933  6.18091880  1.43565865
  10.84311871  6.18091880  4.52020220
  15.32425750  0.12637710  1.54227179
  15.90792688  0.12637710  4.62681534
   6.59007578  4.91558210  0.00000000
   7.17374517  4.91558210  3.08454355
   9.50146969  0.12637710  0.51409060
  10.08513906  0.12637710  3.59863415
   1.35095736  4.91558210  2.05636238
   1.93462673  4.91558210  5.14090594
   4.26235126  0.12637710  2.57045296
   4.84602064  0.12637710  5.65499653
  12.99653297  4.91558210  4.11272474
  15.32425750  2.65705049  1.54227179
  15.90792688  2.65705049  4.62681534
   6.59007578  7.44625549  0.00000000
   7.17374517  7.44625549  3.08454355
   7.75741455  7.44625549  6.16908713
   9.50146969  2.65705049  0.51409060
  10.08513906  2.65705049  3.59863415
   1.35095736  7.44625549  2.05636238
   1.93462673  7.44625549  5.14090594
   4.26235126  2.65705049  2.57045296
   4.84602064  2.65705049  5.65499653
  12.41286359  7.44625549  1.02818119
  12.99653297  7.44625549  4.11272474
   0.43949445  1.39171380  6.03394195
  16.74051913  1.39171380  2.94939840
   8.00633741  6.18091880  1.40712661
   8.59000678  6.18091880  4.49167018
  10.91773131  1.39171380  1.92121721
  11.50140069  1.39171380  5.00576078
   2.18354959  6.18091880  0.37894544
   2.76721897  6.18091880  3.46348899
   5.09494350  1.39171380  0.89303603
   5.67861288  1.39171380  3.97757959
  13.82912522  6.18091880  2.43530780
  14.41279460  6.18091880  5.51985136
  13.41477287  3.00294604  0.38372133
  13.99844227  3.00294604  3.46826489
   5.26426054  7.79215104  1.92599312
   5.84792992  7.79215104  5.01053667
   8.17565445  3.00294604  2.44008371
   8.75932383  3.00294604  5.52462727
   0.02514210  7.79215104  3.98235548
  16.32616678  7.79215104  0.89781193
   2.35286663  3.00294604  1.41190252
   2.93653601  3.00294604  4.49644608
  11.08704836  7.79215104  2.95417429
  11.67071774  7.79215104  6.03871786
   5.26426054  4.56968656  1.92599312
   5.84792992  4.56968656  5.01053667
  13.41477287  9.35889156  0.38372133
  13.99844227  9.35889156  3.46826489
   0.02514210  4.56968656  3.98235548
  16.32616678  4.56968656  0.89781193
   8.17565445  9.35889156  2.44008371
   8.75932383  9.35889156  5.52462727
  11.08704836  4.56968656  2.95417429
  11.67071774  4.56968656  6.03871786
   2.35286663  9.35889156  1.41190252
   2.93653601  9.35889156  4.49644608
 


--------------------------------------------------------------------------------------------------------


 use parallel FFT for orbitals z direction half grid
 k-point   1 :   0.0000 0.0000 0.0000  plane waves:   28369

 maximum and minimum number of plane-waves per node :      4733     4722

 maximum number of plane-waves:     28369
 maximum index in each direction: 
   IXMAX=   29   IYMAX=   16   IZMAX=   27
   IXMIN=  -29   IYMIN=  -16   IZMIN=    0


 real space projection operators:
  total allocation   :      10059.55 KBytes
  max/ min on nodes  :       1680.28       1674.14


 parallel 3D FFT for wavefunctions:
    minimum data exchange during FFTs selected (reduces bandwidth)
 parallel 3D FFT for charge:
    minimum data exchange during FFTs selected (reduces bandwidth)


 total amount of memory used by VASP MPI-rank0    46725. kBytes
=======================================================================

   base      :      30000. kBytes
   nonlr-proj:       2059. kBytes
   fftplans  :       3623. kBytes
   grid      :       6327. kBytes
   one-center:         93. kBytes
   wavefun   :       4623. kBytes
 
     INWAV:  cpu time    0.0000: real time    0.0000
 Broyden mixing: mesh for mixing (old mesh)
   NGX = 59   NGY = 33   NGZ = 55
  (NGX  =180   NGY  =100   NGZ  =168)
  gives a total of 107085 points

 initial charge density was supplied:
 charge density of overlapping atoms calculated
 number of electron     792.0000000 magnetization 
 keeping initial charge density in first step


--------------------------------------------------------------------------------------------------------


 Maximum index for non-local projection operator          266
 Maximum index for augmentation-charges          321 (set IRDMAX)


--------------------------------------------------------------------------------------------------------


 First call to EWALD:  gamma=   0.129
 Maximum number of real-space cells 2x 4x 2
 Maximum number of reciprocal cells 3x 2x 3

    FEWALD:  cpu time    0.0037: real time    0.0037


--------------------------------------- Iteration      1(   1)  ---------------------------------------


    POTLOK:  cpu time    0.0524: real time    0.0528
    SETDIJ:  cpu time    0.0051: real time    0.0070
     EDDAV:  cpu time    2.5644: real time    2.5750
       DOS:  cpu time    0.0030: real time    0.0030
    --------------------------------------------
      LOOP:  cpu time    2.6249: real time    2.6379

 eigenvalue-minimisations  :  1184
 total energy-change (2. order) : 0.8615206E+04  (-0.4996095E+05)
 number of electron     792.0000000 magnetization 
 augmentation part      792.0000000 magnetization 

 Free energy of the ion-electron system (eV)
  ---------------------------------------------------
  alpha Z        PSCENC =      1422.52235994
  Ewald energy   TEWEN  =    104284.90629964
  -Hartree energ DENC   =   -225148.71813361
  -exchange      EXHF   =         0.00000000
  -V(xc)+E(xc)   XCENC  =      3638.99933360
  PAW double counting   =    112729.53333415  -117641.51188735
  entropy T*S    EENTRO =        -0.34150020
  eigenvalues    EBANDS =     -6672.78859686
  atomic energy  EATOM  =    136002.60505376
  Solvation  Ediel_sol  =         0.00000000
  ---------------------------------------------------
  free energy    TOTEN  =      8615.20626307 eV

  energy without entropy =     8615.54776327  energy(sigma->0) =     8615.37701317


--------------------------------------------------------------------------------------------------------




--------------------------------------- Iteration      1(   2)  ---------------------------------------


     EDDAV:  cpu time    2.2664: real time    2.2743
       DOS:  cpu time    0.0027: real time    0.0027
    --------------------------------------------
      LOOP:  cpu time    2.2691: real time    2.2769

 eigenvalue-minimisations  :  1024
 total energy-change (2. order) :-0.8134808E+04  (-0.7841985E+04)
 number of electron     792.0000000 magnetization 
 augmentation part      792.0000000 magnetization 

 Free energy of the ion-electron system (eV)
  ---------------------------------------------------
  alpha Z        PSCENC =      1422.52235994
  Ewald energy   TEWEN  =    104284.90629964
  -Hartree energ DENC   =   -225148.71813361
  -exchange      EXHF   =         0.00000000
  -V(xc)+E(xc)   XCENC  =      3638.99933360
  PAW double counting   =    112729.53333415  -117641.51188735
  entropy T*S    EENTRO =        -0.86232985
  eigenvalues    EBANDS =    -14807.07558552
  atomic energy  EATOM  =    136002.60505376
  Solvation  Ediel_sol  =         0.00000000
  ---------------------------------------------------
  free energy    TOTEN  =       480.39844475 eV

  energy without entropy =      481.26077461  energy(sigma->0) =      480.82960968


--------------------------------------------------------------------------------------------------------




--------------------------------------- Iteration      1(   3)  ---------------------------------------


     EDDAV:  cpu time    2.4507: real time    2.4592
       DOS:  cpu time    0.0027: real time    0.0027
    --------------------------------------------
      LOOP:  cpu time    2.4534: real time    2.4620

 eigenvalue-minimisations  :  1112
 total energy-change (2. order) :-0.8258491E+03  (-0.7787772E+03)
 number of electron     792.0000000 magnetization 
 augmentation part      792.0000000 magnetization 

 Free energy of the ion-electron system (eV)
  ---------------------------------------------------
  alpha Z        PSCENC =      1422.52235994
  Ewald energy   TEWEN  =    104284.90629964
  -Hartree energ DENC   =   -225148.71813361
  -exchange      EXHF   =         0.00000000
  -V(xc)+E(xc)   XCENC  =      3638.99933360
  PAW double counting   =    112729.53333415  -117641.51188735
  entropy T*S    EENTRO =        -1.43831727
  eigenvalues    EBANDS =    -15632.34871737
  atomic energy  EATOM  =    136002.60505376
  Solvation  Ediel_sol  =         0.00000000
  ---------------------------------------------------
  free energy    TOTEN  =      -345.45067451 eV

  energy without entropy =     -344.01235724  energy(sigma->0) =     -344.73151588


--------------------------------------------------------------------------------------------------------




--------------------------------------- Iteration      1(   4)  ---------------------------------------


     EDDAV:  cpu time    2.4657: real time    2.4739
       DOS:  cpu time    0.0027: real time    0.0027
    --------------------------------------------
      LOOP:  cpu time    2.4683: real time    2.4766

 eigenvalue-minimisations  :  1144
 total energy-change (2. order) :-0.5034595E+02  (-0.4967684E+02)
 number of electron     792.0000000 magnetization 
 augmentation part      792.0000000 magnetization 

 Free energy of the ion-electron system (eV)
  ---------------------------------------------------
  alpha Z        PSCENC =      1422.52235994
  Ewald energy   TEWEN  =    104284.90629964
  -Hartree energ DENC   =   -225148.71813361
  -exchange      EXHF   =         0.00000000
  -V(xc)+E(xc)   XCENC  =      3638.99933360
  PAW double counting   =    112729.53333415  -117641.51188735
  entropy T*S    EENTRO =        -1.49495799
  eigenvalues    EBANDS =    -15682.63802505
  atomic energy  EATOM  =    136002.60505376
  Solvation  Ediel_sol  =         0.00000000
  ---------------------------------------------------
  free energy    TOTEN  =      -395.79662291 eV

  energy without entropy =     -394.30166492  energy(sigma->0) =     -395.04914392


--------------------------------------------------------------------------------------------------------




--------------------------------------- Iteration      1(   5)  ---------------------------------------


     EDDAV:  cpu time    2.5463: real time    2.5525
       DOS:  cpu time    0.0028: real time    0.0028
    CHARGE:  cpu time    0.0495: real time    0.0496
    MIXING:  cpu time    0.0028: real time    0.0031
    --------------------------------------------
      LOOP:  cpu time    2.6013: real time    2.6080

 eigenvalue-minimisations  :  1192
 total energy-change (2. order) :-0.1720706E+01  (-0.1717888E+01)
 number of electron     791.9997306 magnetization 
 augmentation part      284.8950683 magnetization 

 Broyden mixing:
  rms(total) = 0.82192E+01    rms(broyden)= 0.82037E+01
  rms(prec ) = 0.89396E+01
  weight for this iteration     100.00

 Free energy of the ion-electron system (eV)
  ---------------------------------------------------
  alpha Z        PSCENC =      1422.52235994
  Ewald energy   TEWEN  =    104284.90629964
  -Hartree energ DENC   =   -225148.71813361
  -exchange      EXHF   =         0.00000000
  -V(xc)+E(xc)   XCENC  =      3638.99933360
  PAW double counting   =    112729.53333415  -117641.51188735
  entropy T*S    EENTRO =        -1.49514789
  eigenvalues    EBANDS =    -15684.35854147
  atomic energy  EATOM  =    136002.60505376
  Solvation  Ediel_sol  =         0.00000000
  ---------------------------------------------------
  free energy    TOTEN  =      -397.51732924 eV

  energy without entropy =     -396.02218135  energy(sigma->0) =     -396.76975529


--------------------------------------------------------------------------------------------------------




--------------------------------------- Iteration      1(   6)  ---------------------------------------


    POTLOK:  cpu time    0.0503: real time    0.0504
    SETDIJ:  cpu time    0.0062: real time    0.0062
     EDDAV:  cpu time    2.4928: real time    2.4989
       DOS:  cpu time    0.0054: real time    0.0054
    CHARGE:  cpu time    0.0486: real time    0.0488
    MIXING:  cpu time    0.0028: real time    0.0029
    --------------------------------------------
      LOOP:  cpu time    2.6061: real time    2.6126

 eigenvalue-minimisations  :  1160
 total energy-change (2. order) :-0.1165238E+03  (-0.1057865E+03)
 number of electron     791.9996674 magnetization 
 augmentation part      356.8031990 magnetization 

 Broyden mixing:
  rms(total) = 0.17780E+02    rms(broyden)= 0.17776E+02
  rms(prec ) = 0.18784E+02
  weight for this iteration     100.00

 eigenvalues of (default mixing * dielectric matrix)
  average eigenvalue GAMMA=   0.2010
  0.2010

 Free energy of the ion-electron system (eV)
  ---------------------------------------------------
  alpha Z        PSCENC =      1422.52235994
  Ewald energy   TEWEN  =    104284.90629964
  -Hartree energ DENC   =   -222279.41488672
  -exchange      EXHF   =         0.00000000
  -V(xc)+E(xc)   XCENC  =      3559.59404832
  PAW double counting   =    113689.67049539  -118353.03048966
  entropy T*S    EENTRO =        -0.86997469
  eigenvalues    EBANDS =    -18840.02401037
  atomic energy  EATOM  =    136002.60505376
  Solvation  Ediel_sol  =         0.00000000
  ---------------------------------------------------
  free energy    TOTEN  =      -514.04110439 eV

  energy without entropy =     -513.17112971  energy(sigma->0) =     -513.60611705


--------------------------------------------------------------------------------------------------------




--------------------------------------- Iteration      1(   7)  ---------------------------------------


    POTLOK:  cpu time    0.0585: real time    0.0609
    SETDIJ:  cpu time    0.0048: real time    0.0082
     EDDAV:  cpu time    2.5710: real time    2.5789
       DOS:  cpu time    0.0053: real time    0.0054
    CHARGE:  cpu time    0.0487: real time    0.0488
    MIXING:  cpu time    0.0026: real time    0.0026
    --------------------------------------------
      LOOP:  cpu time    2.6910: real time    2.7047

 eigenvalue-minimisations  :  1128
 total energy-change (2. order) : 0.1385313E+03  (-0.1979288E+02)
 number of electron     791.9996848 magnetization 
 augmentation part      335.5915162 magnetization 

 Broyden mixing:
  rms(total) = 0.75619E+01    rms(broyden)= 0.75608E+01
  rms(prec ) = 0.81615E+01
  weight for this iteration     100.00

 eigenvalues of (default mixing * dielectric matrix)
  average eigenvalue GAMMA=   0.5005
  0.5005  0.5005

 Free energy of the ion-electron system (eV)
  ---------------------------------------------------
  alpha Z        PSCENC =      1422.52235994
  Ewald energy   TEWEN  =    104284.90629964
  -Hartree energ DENC   =   -223463.20604018
  -exchange      EXHF   =         0.00000000
  -V(xc)+E(xc)   XCENC  =      3589.42271415
  PAW double counting   =    117757.87683992  -122567.97845836
  entropy T*S    EENTRO =        -1.26884791
  eigenvalues    EBANDS =    -17400.38973749
  atomic energy  EATOM  =    136002.60505376
  Solvation  Ediel_sol  =         0.00000000
  ---------------------------------------------------
  free energy    TOTEN  =      -375.50981654 eV

  energy without entropy =     -374.24096864  energy(sigma->0) =     -374.87539259


--------------------------------------------------------------------------------------------------------




--------------------------------------- Iteration      1(   8)  ---------------------------------------


    POTLOK:  cpu time    0.0525: real time    0.0538
    SETDIJ:  cpu time    0.0050: real time    0.0075
     EDDAV:  cpu time    2.9530: real time    2.9604
       DOS:  cpu time    0.0050: real time    0.0050
    CHARGE:  cpu time    0.0507: real time    0.0508
    MIXING:  cpu time    0.0028: real time    0.0028
    --------------------------------------------
      LOOP:  cpu time    3.0690: real time    3.0803

 eigenvalue-minimisations  :  1368
 total energy-change (2. order) :-0.1533255E+02  (-0.1936732E+02)
 number of electron     791.9997181 magnetization 
 augmentation part      306.7772857 magnetization 

 Broyden mixing:
  rms(total) = 0.10891E+02    rms(broyden)= 0.10888E+02
  rms(prec ) = 0.13683E+02
  weight for this iteration     100.00

 eigenvalues of (default mixing * dielectric matrix)
  average eigenvalue GAMMA=   0.3902
  0.5259  0.5259  0.1186

 Free energy of the ion-electron system (eV)
  ---------------------------------------------------
  alpha Z        PSCENC =      1422.52235994
  Ewald energy   TEWEN  =    104284.90629964
  -Hartree energ DENC   =   -224313.06219475
  -exchange      EXHF   =         0.00000000
  -V(xc)+E(xc)   XCENC  =      3611.28877543
  PAW double counting   =    122876.86643093  -127791.47017607
  entropy T*S    EENTRO =        -1.49954950
  eigenvalues    EBANDS =    -16482.99936166
  atomic energy  EATOM  =    136002.60505376
  Solvation  Ediel_sol  =         0.00000000
  ---------------------------------------------------
  free energy    TOTEN  =      -390.84236229 eV

  energy without entropy =     -389.34281279  energy(sigma->0) =     -390.09258754


--------------------------------------------------------------------------------------------------------




--------------------------------------- Iteration      1(   9)  ---------------------------------------


    POTLOK:  cpu time    0.0510: real time    0.0512
    SETDIJ:  cpu time    0.0047: real time    0.0048
     EDDAV:  cpu time    2.8647: real time    2.8718
       DOS:  cpu time    0.0049: real time    0.0049
    CHARGE:  cpu time    0.0498: real time    0.0500
    MIXING:  cpu time    0.0028: real time    0.0028
    --------------------------------------------
      LOOP:  cpu time    2.9780: real time    2.9853

 eigenvalue-minimisations  :  1304
 total energy-change (2. order) : 0.2683406E+02  (-0.1104149E+02)
 number of electron     791.9997185 magnetization 
 augmentation part      307.5202039 magnetization 

 Broyden mixing:
  rms(total) = 0.62995E+01    rms(broyden)= 0.62948E+01
  rms(prec ) = 0.72929E+01
  weight for this iteration     100.00

 eigenvalues of (default mixing * dielectric matrix)
  average eigenvalue GAMMA=   0.3765
  0.8099  0.3158  0.2634  0.1168

 Free energy of the ion-electron system (eV)
  ---------------------------------------------------
  alpha Z        PSCENC =      1422.52235994
  Ewald energy   TEWEN  =    104284.90629964
  -Hartree energ DENC   =   -224364.75975782
  -exchange      EXHF   =         0.00000000
  -V(xc)+E(xc)   XCENC  =      3612.90637835
  PAW double counting   =    124287.63217709  -129220.94322845
  entropy T*S    EENTRO =        -1.17622924
  eigenvalues    EBANDS =    -16387.70135499
  atomic energy  EATOM  =    136002.60505376
  Solvation  Ediel_sol  =         0.00000000
  ---------------------------------------------------
  free energy    TOTEN  =      -364.00830174 eV

  energy without entropy =     -362.83207250  energy(sigma->0) =     -363.42018712


--------------------------------------------------------------------------------------------------------




--------------------------------------- Iteration      1(  10)  ---------------------------------------


    POTLOK:  cpu time    0.0515: real time    0.0516
    SETDIJ:  cpu time    0.0048: real time    0.0048
     EDDAV:  cpu time    2.8538: real time    2.8614
       DOS:  cpu time    0.0050: real time    0.0050
    CHARGE:  cpu time    0.0501: real time    0.0502
    MIXING:  cpu time    0.0028: real time    0.0028
    --------------------------------------------
      LOOP:  cpu time    2.9678: real time    2.9757

 eigenvalue-minimisations  :  1312
 total energy-change (2. order) : 0.1135756E+02  (-0.5229571E+01)
 number of electron     791.9997079 magnetization 
 augmentation part      305.3788875 magnetization 

 Broyden mixing:
  rms(total) = 0.54264E+01    rms(broyden)= 0.54193E+01
  rms(prec ) = 0.65416E+01
  weight for this iteration     100.00

 eigenvalues of (default mixing * dielectric matrix)
  average eigenvalue GAMMA=   0.4904
  1.4332  0.3938  0.3938  0.1156  0.1156

 Free energy of the ion-electron system (eV)
  ---------------------------------------------------
  alpha Z        PSCENC =      1422.52235994
  Ewald energy   TEWEN  =    104284.90629964
  -Hartree energ DENC   =   -224382.70855598
  -exchange      EXHF   =         0.00000000
  -V(xc)+E(xc)   XCENC  =      3614.30596626
  PAW double counting   =    125586.43186183  -130537.23531751
  entropy T*S    EENTRO =        -1.73996025
  eigenvalues    EBANDS =    -16341.73844994
  atomic energy  EATOM  =    136002.60505376
  Solvation  Ediel_sol  =         0.00000000
  ---------------------------------------------------
  free energy    TOTEN  =      -352.65074225 eV

  energy without entropy =     -350.91078201  energy(sigma->0) =     -351.78076213


--------------------------------------------------------------------------------------------------------




--------------------------------------- Iteration      1(  11)  ---------------------------------------


    POTLOK:  cpu time    0.0508: real time    0.0510
    SETDIJ:  cpu time    0.0047: real time    0.0047
     EDDAV:  cpu time    2.9804: real time    2.9902
       DOS:  cpu time    0.0006: real time    0.0006
    CHARGE:  cpu time    0.0509: real time    0.0510
    MIXING:  cpu time    0.0027: real time    0.0027
    --------------------------------------------
      LOOP:  cpu time    3.0901: real time    3.1001

 eigenvalue-minimisations  :  1368
 total energy-change (2. order) :-0.9361500E+01  (-0.5597753E+01)
 number of electron     791.9997082 magnetization 
 augmentation part      307.0462886 magnetization 

 Broyden mixing:
  rms(total) = 0.71868E+01    rms(broyden)= 0.71838E+01
  rms(prec ) = 0.89749E+01
  weight for this iteration     100.00

 eigenvalues of (default mixing * dielectric matrix)
  average eigenvalue GAMMA=   0.4903
  1.7782  0.4083  0.4083  0.1287  0.1287  0.0898

 Free energy of the ion-electron system (eV)
  ---------------------------------------------------
  alpha Z        PSCENC =      1422.52235994
  Ewald energy   TEWEN  =    104284.90629964
  -Hartree energ DENC   =   -224307.49459136
  -exchange      EXHF   =         0.00000000
  -V(xc)+E(xc)   XCENC  =      3611.01734884
  PAW double counting   =    127815.05637439  -132778.92546948
  entropy T*S    EENTRO =        -1.70254694
  eigenvalues    EBANDS =    -16409.99707123
  atomic energy  EATOM  =    136002.60505376
  Solvation  Ediel_sol  =         0.00000000
  ---------------------------------------------------
  free energy    TOTEN  =      -362.01224246 eV

  energy without entropy =     -360.30969552  energy(sigma->0) =     -361.16096899


--------------------------------------------------------------------------------------------------------




--------------------------------------- Iteration      1(  12)  ---------------------------------------


    POTLOK:  cpu time    0.0498: real time    0.0510
    SETDIJ:  cpu time    0.0043: real time    0.0061
     EDDAV:  cpu time    2.9291: real time    2.9362
       DOS:  cpu time    0.0006: real time    0.0006
    CHARGE:  cpu time    0.0501: real time    0.0502
    MIXING:  cpu time    0.0027: real time    0.0027
    --------------------------------------------
      LOOP:  cpu time    3.0366: real time    3.0468

 eigenvalue-minimisations  :  1360
 total energy-change (2. order) : 0.1009441E+02  (-0.3618133E+01)
 number of electron     791.9997085 magnetization 
 augmentation part      312.3988243 magnetization 

 Broyden mixing:
  rms(total) = 0.42200E+01    rms(broyden)= 0.42161E+01
  rms(prec ) = 0.49721E+01
  weight for this iteration     100.00

 eigenvalues of (default mixing * dielectric matrix)
  average eigenvalue GAMMA=   0.4610
  1.8629  0.4097  0.4097  0.2255  0.1095  0.1095  0.0999

 Free energy of the ion-electron system (eV)
  ---------------------------------------------------
  alpha Z        PSCENC =      1422.52235994
  Ewald energy   TEWEN  =    104284.90629964
  -Hartree energ DENC   =   -224245.81051778
  -exchange      EXHF   =         0.00000000
  -V(xc)+E(xc)   XCENC  =      3608.86050187
  PAW double counting   =    129257.99735801  -134230.77912042
  entropy T*S    EENTRO =        -1.33558336
  eigenvalues    EBANDS =    -16450.88418566
  atomic energy  EATOM  =    136002.60505376
  Solvation  Ediel_sol  =         0.00000000
  ---------------------------------------------------
  free energy    TOTEN  =      -351.91783400 eV

  energy without entropy =     -350.58225065  energy(sigma->0) =     -351.25004233


--------------------------------------------------------------------------------------------------------




--------------------------------------- Iteration      1(  13)  ---------------------------------------


    POTLOK:  cpu time    0.0495: real time    0.0496
    SETDIJ:  cpu time    0.0047: real time    0.0047
     EDDAV:  cpu time    2.8559: real time    2.8634
       DOS:  cpu time    0.0006: real time    0.0006
    CHARGE:  cpu time    0.0509: real time    0.0510
    MIXING:  cpu time    0.0030: real time    0.0030
    --------------------------------------------
      LOOP:  cpu time    2.9645: real time    2.9722

 eigenvalue-minimisations  :  1320
 total energy-change (2. order) : 0.1949634E+01  (-0.3764250E+01)
 number of electron     791.9997080 magnetization 
 augmentation part      313.8250060 magnetization 

 Broyden mixing:
  rms(total) = 0.30258E+01    rms(broyden)= 0.30235E+01
  rms(prec ) = 0.35373E+01
  weight for this iteration     100.00

 eigenvalues of (default mixing * dielectric matrix)
  average eigenvalue GAMMA=   0.4535
  1.8533  0.4842  0.4113  0.4113  0.1249  0.1249  0.1260  0.0921

 Free energy of the ion-electron system (eV)
  ---------------------------------------------------
  alpha Z        PSCENC =      1422.52235994
  Ewald energy   TEWEN  =    104284.90629964
  -Hartree energ DENC   =   -224248.74910850
  -exchange      EXHF   =         0.00000000
  -V(xc)+E(xc)   XCENC  =      3608.52568835
  PAW double counting   =    129614.39885310  -134590.96002660
  entropy T*S    EENTRO =        -1.10597585
  eigenvalues    EBANDS =    -16442.11134349
  atomic energy  EATOM  =    136002.60505376
  Solvation  Ediel_sol  =         0.00000000
  ---------------------------------------------------
  free energy    TOTEN  =      -349.96819967 eV

  energy without entropy =     -348.86222381  energy(sigma->0) =     -349.41521174


--------------------------------------------------------------------------------------------------------




--------------------------------------- Iteration      1(  14)  ---------------------------------------


    POTLOK:  cpu time    0.0494: real time    0.0495
    SETDIJ:  cpu time    0.0047: real time    0.0047
     EDDAV:  cpu time    2.7180: real time    2.7246
       DOS:  cpu time    0.0005: real time    0.0005
    CHARGE:  cpu time    0.0512: real time    0.0513
    MIXING:  cpu time    0.0029: real time    0.0029
    --------------------------------------------
      LOOP:  cpu time    2.8267: real time    2.8336

 eigenvalue-minimisations  :  1240
 total energy-change (2. order) : 0.3002628E+01  (-0.9266594E+00)
 number of electron     791.9997082 magnetization 
 augmentation part      313.4763925 magnetization 

 Broyden mixing:
  rms(total) = 0.28092E+01    rms(broyden)= 0.28074E+01
  rms(prec ) = 0.33132E+01
  weight for this iteration     100.00

 eigenvalues of (default mixing * dielectric matrix)
  average eigenvalue GAMMA=   0.4311
  1.8325  0.5198  0.4196  0.4196  0.1785  0.1785  0.1193  0.1193  0.0930

 Free energy of the ion-electron system (eV)
  ---------------------------------------------------
  alpha Z        PSCENC =      1422.52235994
  Ewald energy   TEWEN  =    104284.90629964
  -Hartree energ DENC   =   -224292.77637803
  -exchange      EXHF   =         0.00000000
  -V(xc)+E(xc)   XCENC  =      3609.26311107
  PAW double counting   =    129540.61069755  -134519.20778485
  entropy T*S    EENTRO =        -1.12313058
  eigenvalues    EBANDS =    -16393.76579977
  atomic energy  EATOM  =    136002.60505376
  Solvation  Ediel_sol  =         0.00000000
  ---------------------------------------------------
  free energy    TOTEN  =      -346.96557127 eV

  energy without entropy =     -345.84244069  energy(sigma->0) =     -346.40400598


--------------------------------------------------------------------------------------------------------




--------------------------------------- Iteration      1(  15)  ---------------------------------------


    POTLOK:  cpu time    0.0500: real time    0.0501
    SETDIJ:  cpu time    0.0047: real time    0.0047
     EDDAV:  cpu time    2.8157: real time    2.8226
       DOS:  cpu time    0.0006: real time    0.0006
    CHARGE:  cpu time    0.0508: real time    0.0509
    MIXING:  cpu time    0.0030: real time    0.0030
    --------------------------------------------
      LOOP:  cpu time    2.9248: real time    2.9320

 eigenvalue-minimisations  :  1296
 total energy-change (2. order) : 0.1298705E+01  (-0.5859131E+00)
 number of electron     791.9997079 magnetization 
 augmentation part      313.0429071 magnetization 

 Broyden mixing:
  rms(total) = 0.23347E+01    rms(broyden)= 0.23320E+01
  rms(prec ) = 0.28964E+01
  weight for this iteration     100.00

 eigenvalues of (default mixing * dielectric matrix)
  average eigenvalue GAMMA=   0.4222
  1.8235  0.4998  0.4998  0.3918  0.3918  0.1610  0.1213  0.1213  0.1209  0.0913

 Free energy of the ion-electron system (eV)
  ---------------------------------------------------
  alpha Z        PSCENC =      1422.52235994
  Ewald energy   TEWEN  =    104284.90629964
  -Hartree energ DENC   =   -224315.54543946
  -exchange      EXHF   =         0.00000000
  -V(xc)+E(xc)   XCENC  =      3609.79474125
  PAW double counting   =    129441.52732864  -134420.46245988
  entropy T*S    EENTRO =        -1.07928016
  eigenvalues    EBANDS =    -16369.93546949
  atomic energy  EATOM  =    136002.60505376
  Solvation  Ediel_sol  =         0.00000000
  ---------------------------------------------------
  free energy    TOTEN  =      -345.66686578 eV

  energy without entropy =     -344.58758561  energy(sigma->0) =     -345.12722570


--------------------------------------------------------------------------------------------------------




--------------------------------------- Iteration      1(  16)  ---------------------------------------


    POTLOK:  cpu time    0.0496: real time    0.0497
    SETDIJ:  cpu time    0.0048: real time    0.0048
     EDDAV:  cpu time    2.6397: real time    2.6460
       DOS:  cpu time    0.0006: real time    0.0006
    CHARGE:  cpu time    0.0528: real time    0.0529
    MIXING:  cpu time    0.0031: real time    0.0031
    --------------------------------------------
      LOOP:  cpu time    2.7506: real time    2.7572

 eigenvalue-minimisations  :  1216
 total energy-change (2. order) : 0.1593561E+01  (-0.3990832E+00)
 number of electron     791.9997076 magnetization 
 augmentation part      312.7530602 magnetization 

 Broyden mixing:
  rms(total) = 0.14411E+01    rms(broyden)= 0.14387E+01
  rms(prec ) = 0.17171E+01
  weight for this iteration     100.00

 eigenvalues of (default mixing * dielectric matrix)
  average eigenvalue GAMMA=   0.4290
  1.8207  0.6553  0.6553  0.4001  0.4001  0.1699  0.1699  0.1232  0.1232  0.0913
  0.1095

 Free energy of the ion-electron system (eV)
  ---------------------------------------------------
  alpha Z        PSCENC =      1422.52235994
  Ewald energy   TEWEN  =    104284.90629964
  -Hartree energ DENC   =   -224340.02558700
  -exchange      EXHF   =         0.00000000
  -V(xc)+E(xc)   XCENC  =      3610.31654058
  PAW double counting   =    129314.61993711  -134293.02920707
  entropy T*S    EENTRO =        -1.18128579
  eigenvalues    EBANDS =    -16344.80741569
  atomic energy  EATOM  =    136002.60505376
  Solvation  Ediel_sol  =         0.00000000
  ---------------------------------------------------
  free energy    TOTEN  =      -344.07330453 eV

  energy without entropy =     -342.89201874  energy(sigma->0) =     -343.48266164


--------------------------------------------------------------------------------------------------------




--------------------------------------- Iteration      1(  17)  ---------------------------------------


    POTLOK:  cpu time    0.0498: real time    0.0499
    SETDIJ:  cpu time    0.0047: real time    0.0047
     EDDAV:  cpu time    2.7478: real time    2.7546
       DOS:  cpu time    0.0006: real time    0.0006
    CHARGE:  cpu time    0.0488: real time    0.0489
    MIXING:  cpu time    0.0032: real time    0.0032
    --------------------------------------------
      LOOP:  cpu time    2.8549: real time    2.8619

 eigenvalue-minimisations  :  1280
 total energy-change (2. order) : 0.6829683E+00  (-0.1533541E+00)
 number of electron     791.9997072 magnetization 
 augmentation part      312.2545362 magnetization 

 Broyden mixing:
  rms(total) = 0.10643E+01    rms(broyden)= 0.10625E+01
  rms(prec ) = 0.12387E+01
  weight for this iteration     100.00

 eigenvalues of (default mixing * dielectric matrix)
  average eigenvalue GAMMA=   0.4335
  1.8779  0.7482  0.7482  0.4031  0.4031  0.2229  0.2229  0.1227  0.1227  0.1265
  0.0909  0.1136

 Free energy of the ion-electron system (eV)
  ---------------------------------------------------
  alpha Z        PSCENC =      1422.52235994
  Ewald energy   TEWEN  =    104284.90629964
  -Hartree energ DENC   =   -224360.32934044
  -exchange      EXHF   =         0.00000000
  -V(xc)+E(xc)   XCENC  =      3610.70089425
  PAW double counting   =    129214.09582134  -134191.40723149
  entropy T*S    EENTRO =        -1.26171769
  eigenvalues    EBANDS =    -16325.22247547
  atomic energy  EATOM  =    136002.60505376
  Solvation  Ediel_sol  =         0.00000000
  ---------------------------------------------------
  free energy    TOTEN  =      -343.39033619 eV

  energy without entropy =     -342.12861850  energy(sigma->0) =     -342.75947734


--------------------------------------------------------------------------------------------------------




--------------------------------------- Iteration      1(  18)  ---------------------------------------


    POTLOK:  cpu time    0.0502: real time    0.0503
    SETDIJ:  cpu time    0.0047: real time    0.0047
     EDDAV:  cpu time    2.8183: real time    2.8282
       DOS:  cpu time    0.0006: real time    0.0006
    CHARGE:  cpu time    0.0494: real time    0.0495
    MIXING:  cpu time    0.0036: real time    0.0036
    --------------------------------------------
      LOOP:  cpu time    2.9269: real time    2.9370

 eigenvalue-minimisations  :  1296
 total energy-change (2. order) : 0.3353625E-01  (-0.1414726E+00)
 number of electron     791.9997071 magnetization 
 augmentation part      312.2803992 magnetization 

 Broyden mixing:
  rms(total) = 0.10242E+01    rms(broyden)= 0.10227E+01
  rms(prec ) = 0.12272E+01
  weight for this iteration     100.00

 eigenvalues of (default mixing * dielectric matrix)
  average eigenvalue GAMMA=   0.4581
  1.9161  0.9364  0.9364  0.4374  0.4129  0.4129  0.1971  0.1227  0.1227  0.1468
  0.1216  0.0910  0.1013

 Free energy of the ion-electron system (eV)
  ---------------------------------------------------
  alpha Z        PSCENC =      1422.52235994
  Ewald energy   TEWEN  =    104284.90629964
  -Hartree energ DENC   =   -224361.44081648
  -exchange      EXHF   =         0.00000000
  -V(xc)+E(xc)   XCENC  =      3610.66023485
  PAW double counting   =    129236.41266485  -134212.80337561
  entropy T*S    EENTRO =        -1.22291875
  eigenvalues    EBANDS =    -16324.99630212
  atomic energy  EATOM  =    136002.60505376
  Solvation  Ediel_sol  =         0.00000000
  ---------------------------------------------------
  free energy    TOTEN  =      -343.35679994 eV

  energy without entropy =     -342.13388118  energy(sigma->0) =     -342.74534056


--------------------------------------------------------------------------------------------------------




--------------------------------------- Iteration      1(  19)  ---------------------------------------


    POTLOK:  cpu time    0.0502: real time    0.0525
    SETDIJ:  cpu time    0.0043: real time    0.0061
     EDDAV:  cpu time    2.7516: real time    2.7582
       DOS:  cpu time    0.0006: real time    0.0006
    CHARGE:  cpu time    0.0487: real time    0.0489
    MIXING:  cpu time    0.0035: real time    0.0035
    --------------------------------------------
      LOOP:  cpu time    2.8588: real time    2.8697

 eigenvalue-minimisations  :  1280
 total energy-change (2. order) : 0.1882487E+00  (-0.7431449E-01)
 number of electron     791.9997081 magnetization 
 augmentation part      311.9356651 magnetization 

 Broyden mixing:
  rms(total) = 0.79335E+00    rms(broyden)= 0.79205E+00
  rms(prec ) = 0.91591E+00
  weight for this iteration     100.00

 eigenvalues of (default mixing * dielectric matrix)
  average eigenvalue GAMMA=   0.4600
  1.9779  1.0307  1.0307  0.4502  0.4205  0.4205  0.1993  0.1993  0.1220  0.1220
  0.1509  0.1204  0.0910  0.1041

 Free energy of the ion-electron system (eV)
  ---------------------------------------------------
  alpha Z        PSCENC =      1422.52235994
  Ewald energy   TEWEN  =    104284.90629964
  -Hartree energ DENC   =   -224378.55280113
  -exchange      EXHF   =         0.00000000
  -V(xc)+E(xc)   XCENC  =      3610.77735342
  PAW double counting   =    129166.86405686  -134141.27961415
  entropy T*S    EENTRO =        -1.31331050
  eigenvalues    EBANDS =    -16309.69794908
  atomic energy  EATOM  =    136002.60505376
  Solvation  Ediel_sol  =         0.00000000
  ---------------------------------------------------
  free energy    TOTEN  =      -343.16855125 eV

  energy without entropy =     -341.85524075  energy(sigma->0) =     -342.51189600


--------------------------------------------------------------------------------------------------------




--------------------------------------- Iteration      1(  20)  ---------------------------------------


    POTLOK:  cpu time    0.0500: real time    0.0501
    SETDIJ:  cpu time    0.0046: real time    0.0046
     EDDAV:  cpu time    2.5821: real time    2.5891
       DOS:  cpu time    0.0006: real time    0.0006
    CHARGE:  cpu time    0.0481: real time    0.0482
    MIXING:  cpu time    0.0039: real time    0.0039
    --------------------------------------------
      LOOP:  cpu time    2.6893: real time    2.6965

 eigenvalue-minimisations  :  1184
 total energy-change (2. order) :-0.1094405E+00  (-0.7938715E-01)
 number of electron     791.9997070 magnetization 
 augmentation part      312.1542594 magnetization 

 Broyden mixing:
  rms(total) = 0.91881E+00    rms(broyden)= 0.91740E+00
  rms(prec ) = 0.10795E+01
  weight for this iteration     100.00

 eigenvalues of (default mixing * dielectric matrix)
  average eigenvalue GAMMA=   0.4812
  2.0519  1.1659  1.1659  0.5082  0.5082  0.3989  0.3989  0.1967  0.1587  0.1224
  0.1224  0.1167  0.1167  0.0909  0.0954

 Free energy of the ion-electron system (eV)
  ---------------------------------------------------
  alpha Z        PSCENC =      1422.52235994
  Ewald energy   TEWEN  =    104284.90629964
  -Hartree energ DENC   =   -224378.20606586
  -exchange      EXHF   =         0.00000000
  -V(xc)+E(xc)   XCENC  =      3610.63176345
  PAW double counting   =    129169.00971226  -134142.33056022
  entropy T*S    EENTRO =        -1.26549715
  eigenvalues    EBANDS =    -16311.15105755
  atomic energy  EATOM  =    136002.60505376
  Solvation  Ediel_sol  =         0.00000000
  ---------------------------------------------------
  free energy    TOTEN  =      -343.27799174 eV

  energy without entropy =     -342.01249459  energy(sigma->0) =     -342.64524316


--------------------------------------------------------------------------------------------------------




--------------------------------------- Iteration      1(  21)  ---------------------------------------


    POTLOK:  cpu time    0.0498: real time    0.0499
    SETDIJ:  cpu time    0.0046: real time    0.0046
     EDDAV:  cpu time    2.7001: real time    2.7066
       DOS:  cpu time    0.0007: real time    0.0007
    CHARGE:  cpu time    0.0485: real time    0.0486
    MIXING:  cpu time    0.0037: real time    0.0037
    --------------------------------------------
      LOOP:  cpu time    2.8073: real time    2.8141

 eigenvalue-minimisations  :  1272
 total energy-change (2. order) : 0.1245996E+00  (-0.4990249E-01)
 number of electron     791.9997072 magnetization 
 augmentation part      312.3212224 magnetization 

 Broyden mixing:
  rms(total) = 0.70341E+00    rms(broyden)= 0.70232E+00
  rms(prec ) = 0.82105E+00
  weight for this iteration     100.00

 eigenvalues of (default mixing * dielectric matrix)
  average eigenvalue GAMMA=   0.4733
  2.0741  1.2038  1.2038  0.5607  0.5607  0.3998  0.3998  0.1880  0.1880  0.1226
  0.1226  0.1248  0.1248  0.0910  0.1076  0.1002

 Free energy of the ion-electron system (eV)
  ---------------------------------------------------
  alpha Z        PSCENC =      1422.52235994
  Ewald energy   TEWEN  =    104284.90629964
  -Hartree energ DENC   =   -224390.67670035
  -exchange      EXHF   =         0.00000000
  -V(xc)+E(xc)   XCENC  =      3610.57142320
  PAW double counting   =    129085.14135814  -134056.49076002
  entropy T*S    EENTRO =        -1.30795497
  eigenvalues    EBANDS =    -16300.42447150
  atomic energy  EATOM  =    136002.60505376
  Solvation  Ediel_sol  =         0.00000000
  ---------------------------------------------------
  free energy    TOTEN  =      -343.15339217 eV

  energy without entropy =     -341.84543720  energy(sigma->0) =     -342.49941469


--------------------------------------------------------------------------------------------------------




--------------------------------------- Iteration      1(  22)  ---------------------------------------


    POTLOK:  cpu time    0.0505: real time    0.0507
    SETDIJ:  cpu time    0.0047: real time    0.0047
     EDDAV:  cpu time    2.5802: real time    2.5866
       DOS:  cpu time    0.0006: real time    0.0006
    CHARGE:  cpu time    0.0493: real time    0.0494
    MIXING:  cpu time    0.0039: real time    0.0040
    --------------------------------------------
      LOOP:  cpu time    2.6893: real time    2.6959

[...]
    FORCOR:  cpu time    0.0659: real time    0.0661
    FORHAR:  cpu time    0.0279: real time    0.0279
    MIXING:  cpu time    0.0080: real time    0.0080
    OFIELD:  cpu time    0.0001: real time    0.0003

  FORCE on cell =-STRESS in cart. coord.  units (eV):
  Direction    XX          YY          ZZ          XY          YZ          ZX
  --------------------------------------------------------------------------------------
  Alpha Z  1422.52236  1422.52236  1422.52236
  Ewald  151671.09906152250.33883************   206.21945  -281.76082  -669.73813
  Hartree187193.23130188217.87175************   123.36349  -210.01144  -681.36461
  E(xc)   -5016.59516 -5018.10443 -5023.87971     0.25534    -0.27811     0.49692
  Local  ************************338036.71835  -327.11662   488.85682  1359.22667
  n-local  -692.19088  -702.96232  -702.42862     1.20686    -1.54978     3.06612
  augment  5778.47744  5795.31436  5800.80341    -1.22416     2.16295    -5.86257
  Kinetic 10925.51574 10942.77569 10970.40792    -2.48554     5.03631   -17.32724
  Fock        0.00000     0.00000     0.00000     0.00000     0.00000     0.00000
  -------------------------------------------------------------------------------------
  Total     -43.10478   -41.77701   -61.49444     0.21882     2.45592   -11.50284
  in kB     -26.40973   -25.59622   -37.67683     0.13407     1.50471    -7.04764
  external pressure =      -29.89 kB  Pullay stress =        0.00 kB


 VOLUME and BASIS-vectors are now :
 -----------------------------------------------------------------------------
  energy-cutoff  :      450.00
  volume of cell :     2615.00
      direct lattice vectors                 reciprocal lattice vectors
    16.884694054  0.000000000  0.000000000     0.059225237  0.000000000  0.000000000
     0.000000000  9.578410000  0.000000000     0.000000000  0.104401461  0.000000000
     0.000000000  0.000000000 16.169087120     0.000000000  0.000000000  0.061846411

  length of vectors
    16.884694054  9.578410000 16.169087120     0.059225237  0.104401461  0.061846411


 FORCES acting on ions
    electron-ion (+dipol)            ewald-force                    non-local-force                 convergence-correction
 -----------------------------------------------------------------------------------------------
   0.417E+03 -.170E+03 0.149E+04   -.418E+03 0.171E+03 -.149E+04   0.127E+01 -.800E+00 0.533E+01   -.535E-01 0.880E-02 -.154E-01
   0.549E+03 -.385E+02 -.273E+04   -.550E+03 0.382E+02 0.273E+04   0.354E+00 0.241E+00 0.658E+01   -.871E-02 0.384E-02 -.323E-02
   0.787E+03 0.894E+01 0.296E+04   -.789E+03 -.919E+01 -.296E+04   0.221E+01 0.225E+00 -.194E+01   0.501E-01 0.894E-02 -.230E-01
   0.442E+03 0.552E+02 -.893E+03   -.443E+03 -.566E+02 0.895E+03   0.891E+00 0.115E+01 -.212E+01   0.421E-02 -.696E-02 -.320E-01
   0.487E+03 -.316E+02 0.257E+04   -.490E+03 0.316E+02 -.257E+04   0.236E+01 0.849E-01 -.111E+01   0.857E-01 0.330E-01 -.439E-01
   0.209E+03 -.120E+03 -.156E+04   -.209E+03 0.121E+03 0.156E+04   0.367E+00 -.116E+01 -.425E+01   0.119E-01 0.151E-01 -.576E-01
   0.707E+03 0.505E+02 0.109E+04   -.710E+03 -.504E+02 -.109E+04   0.278E+01 -.566E-01 0.369E+01   -.149E-02 -.103E-02 -.626E-02
   0.616E+03 0.112E+02 -.306E+04   -.616E+03 -.113E+02 0.305E+04   -.832E+00 0.652E-01 0.599E+01   0.308E-01 0.188E-03 -.750E-02
   0.655E+03 -.113E+02 0.590E+03   -.657E+03 0.113E+02 -.595E+03   0.199E+01 -.443E-01 0.413E+01   0.699E-02 0.164E-02 -.168E-01
   0.514E+03 -.185E+02 -.330E+04   -.514E+03 0.183E+02 0.329E+04   -.617E+00 0.128E+00 0.553E+01   0.621E-02 0.573E-02 0.107E-02
   -.216E+03 0.281E+03 0.221E+04   0.216E+03 -.280E+03 -.220E+04   -.755E+00 -.878E+00 -.403E+01   -.240E-01 -.227E-01 -.369E-01
   0.338E+03 0.125E+03 -.197E+04   -.339E+03 -.125E+03 0.198E+04   0.975E+00 0.665E+00 -.388E+01   -.128E-01 -.132E-01 -.273E-01
   -.358E+03 0.307E+03 0.232E+04   0.357E+03 -.312E+03 -.232E+04   0.131E+00 0.355E+01 0.184E+01   -.162E-01 -.170E-02 -.633E-02
   0.214E+02 0.435E+03 -.200E+04   -.195E+02 -.433E+03 0.200E+04   -.126E+01 -.236E+01 -.268E+00   -.107E-01 0.540E-02 0.460E-02
   -.227E+03 0.638E+03 0.326E+04   0.223E+03 -.628E+03 -.325E+04   0.378E+01 -.959E+01 -.622E+01   0.228E-01 0.882E-02 -.216E-02
   -.428E+03 0.468E+03 -.347E+03   0.427E+03 -.470E+03 0.349E+03   0.611E-02 0.178E+01 -.178E+01   0.115E-01 -.201E-01 -.502E-01
   -.499E+03 0.501E+03 0.303E+04   0.494E+03 -.492E+03 -.302E+04   0.498E+01 -.882E+01 -.604E+01   -.301E-01 0.877E-01 -.143E-01
   -.467E+03 0.355E+03 -.926E+03   0.468E+03 -.356E+03 0.929E+03   -.878E+00 0.121E+01 -.215E+01   -.116E-01 0.221E-01 -.568E-01
   -.572E+01 0.522E+03 0.169E+04   0.677E+01 -.525E+03 -.169E+04   -.866E+00 0.304E+01 0.453E+01   0.259E-01 0.375E-02 -.764E-02
   -.222E+03 0.309E+03 -.258E+04   0.219E+03 -.305E+03 0.257E+04   0.238E+01 -.409E+01 0.475E+01   0.190E-01 0.206E-01 -.289E-02
   -.361E+02 0.347E+03 0.104E+04   0.356E+02 -.348E+03 -.104E+04   0.532E+00 0.600E+00 0.436E+01   0.329E-01 -.134E-01 -.367E-01
   -.413E+03 0.478E+03 -.296E+04   0.410E+03 -.475E+03 0.296E+04   0.253E+01 -.300E+01 0.458E+01   0.135E-01 -.445E-02 -.603E-02
   -.200E+03 0.463E+03 -.117E+04   0.200E+03 -.464E+03 0.117E+04   0.404E+00 0.981E+00 -.216E+01   -.165E-01 -.804E-02 -.171E-01
   -.247E+03 -.433E+03 0.234E+04   0.245E+03 0.437E+03 -.234E+04   0.117E+01 -.311E+01 0.307E+01   -.190E-01 0.491E-02 -.994E-02
   0.421E+02 -.465E+03 -.198E+04   -.402E+02 0.462E+03 0.198E+04   -.132E+01 0.243E+01 -.375E+00   -.114E-01 -.362E-02 0.392E-02
   -.209E+03 -.615E+03 0.327E+04   0.205E+03 0.604E+03 -.327E+04   0.414E+01 0.983E+01 -.626E+01   0.471E-02 -.443E-02 -.107E-01
   -.372E+03 -.353E+03 -.171E+03   0.373E+03 0.354E+03 0.172E+03   -.938E+00 -.128E+01 -.677E+00   0.107E-02 0.727E-03 -.571E-01
   -.205E+03 0.187E+03 -.329E+04   0.204E+03 -.184E+03 0.328E+04   0.823E+00 -.235E+01 0.128E+02   -.759E-03 -.357E-02 -.751E-02
   -.607E+03 -.639E+03 0.299E+04   0.600E+03 0.629E+03 -.299E+04   0.589E+01 0.936E+01 -.609E+01   -.268E-01 -.142E-01 -.193E-01
   -.468E+03 -.519E+03 -.925E+03   0.468E+03 0.521E+03 0.929E+03   -.506E+00 -.245E+01 -.331E+01   -.191E-01 0.858E-03 -.797E-01
   -.182E+02 -.504E+03 0.169E+04   0.192E+02 0.508E+03 -.169E+04   -.753E+00 -.306E+01 0.452E+01   0.274E-01 -.551E-02 -.709E-02
   -.210E+03 -.292E+03 -.258E+04   0.207E+03 0.288E+03 0.257E+04   0.252E+01 0.405E+01 0.474E+01   0.158E-01 -.221E-01 -.195E-02
   -.569E+02 -.376E+03 0.102E+04   0.563E+02 0.377E+03 -.102E+04   0.619E+00 -.669E+00 0.436E+01   0.349E-01 0.144E-01 -.289E-01
   -.525E+03 -.602E+03 -.298E+04   0.522E+03 0.601E+03 0.298E+04   0.225E+01 0.177E+01 0.543E+01   0.190E-01 0.227E-01 -.595E-02
   -.330E+03 0.204E+03 0.272E+04   0.332E+03 -.199E+03 -.272E+04   -.202E+01 -.424E+01 -.396E+01   -.325E-01 0.355E-02 -.127E-01
   -.253E+03 -.347E+03 -.134E+04   0.254E+03 0.348E+03 0.135E+04   -.393E+00 -.606E+00 -.275E+01   -.732E-02 0.265E-02 -.232E-01
   0.117E+03 -.312E+01 -.126E+04   -.117E+03 0.316E+01 0.127E+04   -.594E+00 -.193E-01 -.371E+01   -.742E-02 0.462E-03 -.137E-02
   -.124E+03 -.885E+01 0.286E+03   0.127E+03 0.871E+01 -.287E+03   -.276E+01 0.137E+00 -.274E+00   -.847E-03 0.101E-02 0.238E-02
   -.286E+03 0.212E+02 0.782E+03   0.290E+03 -.213E+02 -.781E+03   -.284E+01 0.134E-01 -.196E+01   -.768E-02 -.293E-02 -.227E-01
   -.136E+03 0.148E+03 -.743E+03   0.137E+03 -.149E+03 0.745E+03   -.713E+00 0.180E+01 -.128E+01   0.638E-04 -.663E-02 -.128E-01
   -.255E+03 -.554E+02 0.606E+03   0.257E+03 0.553E+02 -.606E+03   -.226E+01 0.424E-01 -.659E+00   -.322E-01 0.179E-01 -.349E-01
   -.284E+02 -.262E+02 -.106E+04   0.279E+02 0.262E+02 0.106E+04   0.632E+00 0.379E-01 -.464E+01   0.102E-02 0.343E-02 -.684E-02
   0.141E+03 0.309E+01 0.135E+04   -.142E+03 -.310E+01 -.135E+04   0.224E+01 0.148E-01 0.517E+01   0.190E-01 -.871E-04 -.702E-02
   -.125E+03 0.566E+01 -.881E+02   0.127E+03 -.574E+01 0.878E+02   -.185E+01 0.774E-01 0.145E+01   0.353E-02 -.229E-03 0.553E-02
   0.138E+03 -.504E+01 0.122E+04   -.140E+03 0.505E+01 -.122E+04   0.262E+01 0.755E-02 0.481E+01   0.243E-01 -.390E-03 -.117E-01
   -.199E+03 -.260E+02 -.326E+03   0.201E+03 0.261E+02 0.325E+03   -.192E+01 -.317E-01 0.154E+01   0.860E-02 0.440E-02 -.121E-01
   -.476E+02 0.124E+03 0.574E+03   0.472E+02 -.125E+03 -.576E+03   -.221E-02 0.190E+01 0.215E+01   -.997E-02 0.362E-03 -.613E-02
   0.482E+02 0.104E+02 -.116E+04   -.482E+02 -.104E+02 0.116E+04   -.131E+00 -.969E-01 -.431E+01   -.356E-02 -.335E-03 -.242E-02
   0.100E+03 -.246E+03 0.125E+04   -.102E+03 0.249E+03 -.125E+04   0.235E+01 -.277E+01 0.375E+01   -.211E-01 -.400E-03 -.391E-02
   0.140E+03 -.193E+03 -.107E+03   -.142E+03 0.193E+03 0.108E+03   0.170E+01 -.970E+00 0.266E-01   -.874E-02 -.445E-02 0.277E-03
   0.151E+03 -.188E+03 0.565E+03   -.153E+03 0.190E+03 -.565E+03   0.123E+01 -.181E+01 -.101E+01   0.118E-01 -.680E-02 -.273E-01
   0.653E+02 0.563E+02 -.941E+03   -.668E+02 -.559E+02 0.943E+03   0.202E+01 -.508E+00 -.565E+00   -.190E-02 -.325E-02 -.858E-02
   0.116E+02 -.166E+03 0.269E+03   -.130E+02 0.168E+03 -.269E+03   0.140E+01 -.238E+01 -.142E+01   0.178E-01 -.736E-02 -.483E-01
   -.452E+02 -.144E+03 -.124E+04   0.445E+02 0.146E+03 0.125E+04   0.957E+00 -.319E+01 -.439E+01   -.474E-04 0.166E-02 -.590E-02
   0.158E+03 -.145E+03 -.337E+03   -.159E+03 0.147E+03 0.337E+03   0.151E+01 -.249E+01 0.140E+01   0.817E-02 0.323E-03 0.311E-02
   0.904E+02 -.279E+02 0.125E+04   -.916E+02 0.272E+02 -.125E+04   0.109E+01 0.132E+01 0.571E+01   0.585E-03 -.232E-02 -.641E-02
   0.147E+03 0.399E+02 0.111E+04   -.148E+03 -.410E+02 -.112E+04   0.658E+00 0.113E+01 0.583E+01   0.870E-02 0.414E-02 -.872E-02
   0.111E+03 -.180E+03 -.542E+03   -.113E+03 0.183E+03 0.541E+03   0.221E+01 -.271E+01 0.213E+01   0.335E-02 0.151E-01 -.227E-02
   0.136E+02 -.873E+02 0.108E+03   -.148E+02 0.890E+02 -.107E+03   0.137E+01 -.237E+01 -.163E+01   -.479E-02 0.230E-02 -.146E-01
   -.412E+01 -.141E+03 -.131E+04   0.355E+01 0.143E+03 0.132E+04   0.813E+00 -.318E+01 -.471E+01   -.155E-02 0.103E-02 -.198E-02
   0.141E+03 0.197E+03 0.551E+03   -.142E+03 -.198E+03 -.551E+03   0.128E+01 0.182E+01 -.103E+01   0.111E-01 0.574E-02 -.186E-01
   -.104E+03 -.322E+02 -.104E+04   0.105E+03 0.330E+02 0.105E+04   -.911E+00 -.830E+00 -.348E+01   0.101E-02 -.208E-02 -.635E-02
   -.343E+00 0.469E+02 0.131E+04   -.115E+00 -.471E+02 -.132E+04   0.567E+00 -.516E+00 0.558E+01   -.168E-01 0.184E-02 -.324E-02
   0.106E+03 0.147E+03 -.153E+03   -.108E+03 -.148E+03 0.154E+03   0.184E+01 0.154E+01 0.666E+00   -.826E-02 0.373E-02 0.873E-03
   0.166E+03 0.150E+03 -.332E+03   -.167E+03 -.153E+03 0.331E+03   0.145E+01 0.258E+01 0.143E+01   0.749E-02 -.128E-02 0.241E-02
   0.128E+03 0.416E+02 0.124E+04   -.129E+03 -.407E+02 -.125E+04   0.966E+00 -.151E+01 0.567E+01   0.184E-03 0.110E-02 -.657E-02
   0.265E+02 0.134E+03 0.295E+03   -.276E+02 -.136E+03 -.294E+03   0.113E+01 0.209E+01 -.174E+01   0.299E-02 0.119E-01 -.325E-01
   -.139E+03 -.582E+02 -.118E+04   0.140E+03 0.588E+02 0.119E+04   -.150E+01 -.642E+00 -.378E+01   0.120E-02 0.522E-02 -.481E-02
   -.711E+02 0.119E+03 0.238E+03   0.712E+02 -.120E+03 -.239E+03   -.389E+00 0.209E+01 0.139E+01   -.122E-01 -.100E-01 -.190E-01
   0.313E+02 0.160E+03 -.130E+04   -.318E+02 -.162E+03 0.130E+04   0.819E+00 0.315E+01 -.463E+01   -.400E-02 -.424E-02 -.140E-02
   0.146E+03 -.434E+02 0.111E+04   -.147E+03 0.444E+02 -.112E+04   0.655E+00 -.109E+01 0.571E+01   0.980E-02 -.402E-02 -.912E-02
   0.121E+03 0.172E+03 -.539E+03   -.124E+03 -.175E+03 0.538E+03   0.224E+01 0.260E+01 0.204E+01   -.676E-03 -.150E-01 -.412E-02
 -----------------------------------------------------------------------------------------------
   -.523E+02 0.119E+02 -.370E+02   0.188E-11 0.739E-12 -.227E-11   0.521E+02 -.122E+02 0.381E+02   0.121E+00 0.140E+00 -.106E+01
 
 
 POSITION                                       TOTAL-FORCE (eV/Angst)
 -----------------------------------------------------------------------------------
     13.17084      1.39171      1.94975         0.422164      0.102885     -0.680309
     13.75451      1.39171      5.03429        -1.021186     -0.026655     -1.507686
      4.43666      6.18092      0.40748        -0.295715     -0.020880      1.091470
      5.02033      6.18092      3.49202        -0.267797     -0.263758      0.210999
      7.34806      1.39171      0.92157        -0.339012      0.031757      0.886021
      7.93172      1.39171      4.00611        -0.063856      0.056324      0.378870
     16.08224      6.18092      2.46384        -0.268561      0.051396      0.017377
     16.66591      6.18092      5.54838        -0.868339     -0.008374     -1.682461
      2.10894      1.39171      2.97793        -0.185155      0.003124     -0.229343
      2.69261      1.39171      6.06247        -0.596117     -0.010608     -1.566855
     10.25945      6.18092      1.43566         0.010759      0.071245      1.187050
     10.84312      6.18092      4.52020        -0.026073     -0.163283      0.646410
     15.32426      0.12638      1.54227        -0.250849     -0.706443      0.332226
     15.90793      0.12638      4.62682         0.569617      0.312765     -0.442357
      6.59008      4.91558      0.00000         0.011487      0.647733      1.727021
      7.17375      4.91558      3.08454        -0.184894     -0.170505      0.322299
      9.50147      0.12638      0.51409        -0.230864      0.495991      1.594268
     10.08514      0.12638      3.59863         0.146797      0.088135      0.149573
      1.35096      4.91558      2.05636         0.212100     -0.451177     -0.281195
      1.93463      4.91558      5.14091        -0.091481     -0.152901     -1.378565
      4.26235      0.12638      2.57045         0.091861     -0.191232     -0.227160
      4.84602      0.12638      5.65500        -0.189544     -0.225856     -1.496959
     12.99653      4.91558      4.11272         0.191573     -0.021282      0.250814
     15.32426      2.65705      1.54227        -0.561614      0.845111      0.185430
     15.90793      2.65705      4.62682         0.592915     -0.343451     -0.458909
      6.59008      7.44626      0.00000         0.028313     -0.676995      1.700134
      7.17375      7.44626      3.08454         0.083415      0.117227      0.036269
      7.75741      7.44626      6.16909        -0.019248      0.776769     -2.299043
      9.50147      2.65705      0.51409        -0.351517     -0.603858      1.658723
     10.08514      2.65705      3.59863         0.028347     -0.061304      0.400730
      1.35096      7.44626      2.05636         0.277698      0.462948     -0.291500
      1.93463      7.44626      5.14091        -0.103049      0.140177     -1.391788
      4.26235      2.65705      2.57045         0.090372      0.149857     -0.202168
      4.84602      2.65705      5.65500        -0.150116      0.358152     -1.645473
     12.41286      7.44626      1.02818         0.203549      0.661303      1.304096
     12.99653      7.44626      4.11272         0.407331     -0.043470      0.390882
      0.43949      1.39171      6.03394        -1.124804      0.021465      0.015986
     16.74052      1.39171      2.94940        -0.206285     -0.002346     -0.995064
      8.00634      6.18092      1.40713         0.309984     -0.113571     -1.589465
      8.59001      6.18092      4.49167        -0.343219      0.354837      0.914549
     10.91773      1.39171      1.92122        -0.501546     -0.014607     -0.931494
     11.50140      1.39171      5.00576         0.113167      0.046605      0.403860
      2.18355      6.18092      0.37895         1.246896      0.008931      0.175885
      2.76722      6.18092      3.46349         0.081039     -0.005803      1.131194
      5.09494      1.39171      0.89304         1.308127      0.013874     -0.007523
      5.67861      1.39171      3.97758         0.045885      0.033781      0.972576
     13.82913      6.18092      2.43531        -0.359857      0.506443     -0.274901
     14.41279      6.18092      5.51985        -0.133294     -0.075646      0.229725
     13.41477      3.00295      0.38372         0.913058     -0.598923      0.795608
     13.99844      3.00295      3.46826         0.068755     -0.358552      1.083346
      5.26426      7.79215      1.92599        -0.072822     -0.152390     -0.948132
      5.84793      7.79215      5.01054         0.495710     -0.057142      0.827271
      8.17565      3.00295      2.44008         0.075935     -0.246723     -0.833963
      8.75932      3.00295      5.52463         0.247842     -0.801239     -1.332975
      0.02514      7.79215      3.98236         0.104228     -0.195535      0.930182
     16.32617      7.79215      0.89781        -0.055854      0.576095      0.496878
      2.35287      3.00295      1.41190        -0.103701      0.067515      0.496086
      2.93654      3.00295      4.49645         0.087370      0.038186      0.973107
     11.08705      7.79215      2.95417         0.146293     -0.697168     -0.812623
     11.67072      7.79215      6.03872         0.244700     -0.949554     -1.433321
      5.26426      4.56969      1.92599        -0.068299      0.239427     -1.061460
      5.84793      4.56969      5.01054         0.004191      0.044121      0.097209
     13.41477      9.35889      0.38372         0.093746     -0.695463      0.315348
     13.99844      9.35889      3.46826         0.176829      0.486371      1.192491
      0.02514      4.56969      3.98236         0.094700      0.231441      0.972552
     16.32617      4.56969      0.89781        -0.058684     -0.586631      0.448510
      8.17565      9.35889      2.44008         0.054014      0.256076     -0.967690
      8.75932      9.35889      5.52463        -0.139780     -0.009724      0.134539
     11.08705      4.56969      2.95417        -0.307462      0.645058     -0.271154
     11.67072      4.56969      6.03872         0.320512      0.886177     -1.340715
      2.35287      9.35889      1.41190        -0.109268     -0.077077      0.500892
      2.93654      9.35889      4.49645         0.048584     -0.049178      1.003791
 -----------------------------------------------------------------------------------
    total drift:                               -0.072512     -0.112540      0.013553


--------------------------------------------------------------------------------------------------------



  FREE ENERGIE OF THE ION-ELECTRON SYSTEM (eV)
  ---------------------------------------------------
  free  energy   TOTEN  =      -342.96304182 eV

  energy  without entropy=     -341.66680655  energy(sigma->0) =     -342.31492419
 


--------------------------------------------------------------------------------------------------------


    POTLOK:  cpu time    0.0558: real time    0.0560


--------------------------------------------------------------------------------------------------------


     LOOP+:  cpu time  120.7160: real time  121.0970
    4ORBIT:  cpu time    0.0000: real time    0.0000

 total amount of memory used by VASP MPI-rank0    46725. kBytes
=======================================================================

   base      :      30000. kBytes
   nonlr-proj:       2059. kBytes
   fftplans  :       3623. kBytes
   grid      :       6327. kBytes
   one-center:         93. kBytes
   wavefun   :       4623. kBytes
 
  
  
 General timing and accounting informations for this job:
 ========================================================
  
                  Total CPU time used (sec):      123.130
                            User time (sec):      122.444
                          System time (sec):        0.686
                         Elapsed time (sec):      124.014
  
                   Maximum memory used (kb):      261120.
                   Average memory used (kb):           0.
  
                          Minor page faults:        83234
                          Major page faults:            0
                 Voluntary context switches:          952
