 vasp.6.1.0 28Jan20 (build Mar 31 2020 17:42:31) gamma-only                     
  
 executed on             LinuxIFC date 2020.04.13  06:21:23
 running on   48 total cores
 distrk:  each k-point on   48 cores,    1 groups
 distr:  one band on NCORE=   6 cores,    8 groups


--------------------------------------------------------------------------------------------------------


 INCAR:
 POTCAR:    PAW_PBE Ni_pv 06Sep2000               
 POTCAR:    PAW_PBE S 06Sep2000                   
 POTCAR:    PAW_PBE Ni_pv 06Sep2000               
   VRHFIN =Ni:                                                                                      
   LEXCH  = PE                                                                                      
   EATOM  =  3501.1230 eV,  257.3253 Ry                                                             
                                                                                                    
   TITEL  = PAW_PBE Ni_pv 06Sep2000                                                                 
   LULTRA =        F    use ultrasoft PP ?                                                          
   IUNSCR =        1    unscreen: 0-lin 1-nonlin 2-no                                               
   RPACOR =    1.500    partial core radius                                                         
   POMASS =   58.690; ZVAL   =   16.000    mass and valenz                                          
   RCORE  =    2.000    outmost cutoff radius                                                       
   RWIGS  =    2.000; RWIGS  =    1.058    wigner-seitz radius (au A)                               
   ENMAX  =  367.986; ENMIN  =  275.989 eV                                                          
   RCLOC  =    1.301    cutoff for local pot                                                        
   LCOR   =        T    correct aug charges                                                         
   LPAW   =        T    paw PP                                                                      
   EAUG   =  703.443                                                                                
   DEXC   =    0.000                                                                                
   RMAX   =    2.041    core radius for proj-oper                                                   
   RAUG   =    1.300    factor for augmentation sphere                                              
   RDEP   =    2.103    radius for radial grids                                                     
   RDEPT  =    1.618    core radius for aug-charge                                                  
                                                                                                    
   Atomic configuration                                                                             
    8 entries                                                                                       
     n  l   j            E        occ.                                                              
     1  0  0.50     -8206.4253   2.0000                                                             
     2  0  0.50      -976.1748   2.0000                                                             
     2  1  1.50      -839.0571   6.0000                                                             
     3  0  0.50      -105.9991   2.0000                                                             
     3  1  1.50       -66.4603   6.0000                                                             
     3  2  2.50        -4.6458   9.0000                                                             
     4  0  0.50        -4.4926   1.0000                                                             
     4  3  2.50        -1.3606   0.0000                                                             
   Description                                                                                      
     l       E           TYP  RCUT    TYP  RCUT                                                     
     1    -66.4602962     23  1.700                                                                 
     1     -1.3605826     23  1.700                                                                 
     2     -4.6457867     23  2.000                                                                 
     2     -6.0063693     23  2.000                                                                 
     0     -4.4925576     23  1.900                                                                 
     0     16.3626226     23  1.900                                                                 
  local pseudopotential read in
  partial core-charges read in
  partial kinetic energy density read in
  atomic valenz-charges read in
  non local Contribution for L=           1  read in
    real space projection operators read in
  non local Contribution for L=           1  read in
    real space projection operators read in
  non local Contribution for L=           2  read in
    real space projection operators read in
  non local Contribution for L=           2  read in
    real space projection operators read in
  non local Contribution for L=           0  read in
    real space projection operators read in
  non local Contribution for L=           0  read in
    real space projection operators read in
    PAW grid and wavefunctions read in
 
   number of l-projection  operators is LMAX  =           6
   number of lm-projection operators is LMMAX =          18
 
 POTCAR:    PAW_PBE S 06Sep2000                   
   VRHFIN =S : s2p4                                                                                 
   LEXCH  = PE                                                                                      
   EATOM  =   276.8230 eV,   20.3459 Ry                                                             
                                                                                                    
   TITEL  = PAW_PBE S 06Sep2000                                                                     
   LULTRA =        F    use ultrasoft PP ?                                                          
   IUNSCR =        1    unscreen: 0-lin 1-nonlin 2-no                                               
   RPACOR =    1.500    partial core radius                                                         
   POMASS =   32.066; ZVAL   =    6.000    mass and valenz                                          
   RCORE  =    1.900    outmost cutoff radius                                                       
   RWIGS  =    2.200; RWIGS  =    1.164    wigner-seitz radius (au A)                               
   ENMAX  =  258.689; ENMIN  =  194.016 eV                                                          
   ICORE  =        2    local potential                                                             
   LCOR   =        T    correct aug charges                                                         
   LPAW   =        T    paw PP                                                                      
   EAUG   =  335.092                                                                                
   DEXC   =    0.000                                                                                
   RMAX   =    1.942    core radius for proj-oper                                                   
   RAUG   =    1.300    factor for augmentation sphere                                              
   RDEP   =    1.954    radius for radial grids                                                     
   RDEPT  =    1.744    core radius for aug-charge                                                  
                                                                                                    
   Atomic configuration                                                                             
    6 entries                                                                                       
     n  l   j            E        occ.                                                              
     1  0  0.50     -2405.8406   2.0000                                                             
     2  0  0.50      -211.7007   2.0000                                                             
     2  1  1.50      -156.4958   6.0000                                                             
     3  0  0.50       -17.2562   2.0000                                                             
     3  1  0.50        -7.0085   4.0000                                                             
     3  2  1.50        -6.8029   0.0000                                                             
   Description                                                                                      
     l       E           TYP  RCUT    TYP  RCUT                                                     
     0    -17.2561641     23  1.900                                                                 
     0    -15.8743224     23  1.900                                                                 
     1     -7.0085400     23  1.900                                                                 
     1     -2.7779785     23  1.900                                                                 
     2     -6.8029130     23  1.900                                                                 
  local pseudopotential read in
  partial core-charges read in
  partial kinetic energy density read in
  atomic valenz-charges read in
  non local Contribution for L=           0  read in
    real space projection operators read in
  non local Contribution for L=           0  read in
    real space projection operators read in
  non local Contribution for L=           1  read in
    real space projection operators read in
  non local Contribution for L=           1  read in
    real space projection operators read in
    PAW grid and wavefunctions read in
 
   number of l-projection  operators is LMAX  =           4
   number of lm-projection operators is LMMAX =           8
 
 Optimization of the real space projectors (new method)

 maximal supplied QI-value         = 18.90
 optimisation between [QCUT,QGAM] = [ 10.77, 21.73] = [ 32.49,132.25] Ry 
 Optimized for a Real-space Cutoff    1.38 Angstroem

   l    n(q)    QCUT    max X(q) W(low)/X(q) W(high)/X(q)  e(spline) 
   1      8    10.771     2.836    0.40E-04    0.29E-04    0.12E-06
   1      8    10.771     4.023    0.10E-03    0.48E-04    0.29E-06
   2      8    10.771    73.368    0.42E-03    0.97E-04    0.44E-06
   2      8    10.771    69.010    0.42E-03    0.99E-04    0.45E-06
   0      9    10.771    54.797    0.10E-03    0.56E-04    0.74E-07
   0      9    10.771    24.266    0.89E-04    0.49E-04    0.67E-07
 Optimization of the real space projectors (new method)

 maximal supplied QI-value         = 19.84
 optimisation between [QCUT,QGAM] = [ 10.71, 21.63] = [ 32.15,130.99] Ry 
 Optimized for a Real-space Cutoff    1.19 Angstroem

   l    n(q)    QCUT    max X(q) W(low)/X(q) W(high)/X(q)  e(spline) 
   0      8    10.715   187.594    0.41E-03    0.53E-04    0.66E-07
   0      8    10.715   164.243    0.41E-03    0.53E-04    0.65E-07
   1      7    10.715    67.533    0.19E-03    0.59E-03    0.68E-07
   1      7    10.715    50.729    0.19E-03    0.58E-03    0.67E-07
  PAW_PBE Ni_pv 06Sep2000               :
 energy of atom  1       EATOM=-3501.1230
 kinetic energy error for atom=    0.0925 (will be added to EATOM!!)
  PAW_PBE S 06Sep2000                   :
 energy of atom  2       EATOM= -276.8230
 kinetic energy error for atom=    0.0033 (will be added to EATOM!!)
 
 
 POSCAR: Structure 7 made from 021-5.xsd file
  positions in direct lattice
  No initial velocities read in
 exchange correlation table for  LEXCH =        8
   RHO(1)=    0.500       N(1)  =     2000
   RHO(2)=  100.500       N(2)  =     4000
 


--------------------------------------------------------------------------------------------------------


 ion  position               nearest neighbor table
   1  0.924  0.194  0.114-  49 2.25  41 2.26  44 2.26  42 2.36  45 2.36   4 2.53   7 2.53
   2  0.061  0.057  0.245-  50 2.25  45 2.26  42 2.26  46 2.36  43 2.36   5 2.53   8 2.53
   3  0.197  0.921  0.375-  46 2.26  43 2.26  47 2.36   6 2.53   9 2.53
   4  0.116  0.134  0.045-  37 2.26  44 2.26  38 2.36  45 2.36   1 2.53   7 2.53
   5  0.253  0.997  0.176-  45 2.26  38 2.26  39 2.36  46 2.36   2 2.53   8 2.53
   6  0.389  0.861  0.306-  69 2.25  46 2.26  39 2.26  40 2.36  47 2.36   3 2.53   9 2.53
   7  0.056  0.326  0.114-  63 2.25  37 2.26  41 2.26  38 2.36  42 2.36   4 2.53   1 2.53
   8  0.193  0.189  0.245-  64 2.25  38 2.26  42 2.26  39 2.36  43 2.36   5 2.53   2 2.53
   9  0.329  0.053  0.375-  65 2.25  39 2.26  43 2.26  40 2.36   6 2.53   3 2.53
  10  0.424  0.194  0.114-  38 2.25  51 2.26  53 2.26  52 2.36  54 2.36  13 2.53  16 2.53
  11  0.561  0.057  0.245-  39 2.25  54 2.26  52 2.26  55 2.36  14 2.53  17 2.53
  12  0.697  0.921  0.375-  40 2.25  55 2.26  56 2.36  15 2.53  18 2.53
  13  0.616  0.134  0.045-  48 2.26  53 2.26  49 2.36  54 2.36  10 2.53  16 2.53
  14  0.753  0.997  0.176-  60 2.25  54 2.26  49 2.26  50 2.36  55 2.36  11 2.53  17 2.53
  15  0.889  0.861  0.306-  61 2.25  55 2.26  50 2.26  56 2.36  12 2.53  18 2.53
  16  0.556  0.326  0.114-  71 2.25  48 2.26  51 2.26  49 2.36  52 2.36  13 2.53  10 2.53
  17  0.693  0.189  0.245-  72 2.25  49 2.26  52 2.26  50 2.36  14 2.53  11 2.53
  18  0.829  0.053  0.375-  50 2.26  15 2.53  12 2.53
  19  0.924  0.694  0.114-  66 2.25  60 2.26  62 2.26  61 2.36  63 2.36  22 2.53  25 2.53
  20  0.061  0.557  0.245-  67 2.25  63 2.26  61 2.26  64 2.36  23 2.53  26 2.53
  21  0.197  0.421  0.375-  68 2.25  64 2.26  65 2.36  24 2.53  27 2.53
  22  0.116  0.634  0.045-  62 2.26  57 2.36  63 2.36  19 2.53  25 2.53
  23  0.253  0.497  0.176-  51 2.25  63 2.26  57 2.26  58 2.36  64 2.36  20 2.53  26 2.53
  24  0.389  0.361  0.306-  52 2.25  64 2.26  58 2.26  59 2.36  65 2.36  21 2.53  27 2.53
  25  0.056  0.826  0.114-  45 2.25  60 2.26  57 2.36  61 2.36  22 2.53  19 2.53
  26  0.193  0.689  0.245-  46 2.25  57 2.26  61 2.26  58 2.36  23 2.53  20 2.53
  27  0.329  0.553  0.375-  47 2.25  58 2.26  59 2.36  24 2.53  21 2.53
  28  0.424  0.694  0.114-  57 2.25  70 2.26  69 2.36  71 2.36  31 2.53  34 2.53
  29  0.561  0.557  0.245-  58 2.25  71 2.26  69 2.26  72 2.36  32 2.53  35 2.53
  30  0.697  0.421  0.375-  59 2.25  72 2.26  33 2.53  36 2.53
  31  0.616  0.634  0.045-  70 2.26  66 2.36  71 2.36  28 2.53  34 2.53
  32  0.753  0.497  0.176-  41 2.25  71 2.26  66 2.26  67 2.36  72 2.36  29 2.53  35 2.53
  33  0.889  0.361  0.306-  42 2.25  72 2.26  67 2.26  68 2.36  30 2.53  36 2.53
  34  0.556  0.826  0.114-  54 2.25  66 2.36  69 2.36  31 2.53  28 2.53
  35  0.693  0.689  0.245-  55 2.25  66 2.26  69 2.26  67 2.36  32 2.53  29 2.53
  36  0.829  0.553  0.375-  56 2.25  67 2.26  68 2.36  33 2.53  30 2.53
  37  0.105  0.313  0.000-   7 2.26   4 2.26
  38  0.241  0.177  0.130-  10 2.25   8 2.26   5 2.26   4 2.36   7 2.36
  39  0.378  0.040  0.261-  11 2.25   9 2.26   6 2.26   5 2.36   8 2.36
  40  0.514  0.904  0.391-  12 2.25   6 2.36   9 2.36
  41  0.860  0.390  0.088-  32 2.25   1 2.26   7 2.26
  42  0.997  0.253  0.218-  33 2.25   8 2.26   2 2.26   1 2.36   7 2.36
  43  0.133  0.117  0.349-   9 2.26   3 2.26   2 2.36   8 2.36
  44  0.937  0.145  0.000-   1 2.26   4 2.26
  45  0.073  0.009  0.130-  25 2.25   2 2.26   5 2.26   4 2.36   1 2.36
  46  0.210  0.872  0.261-  26 2.25   3 2.26   6 2.26   5 2.36   2 2.36
  47  0.346  0.736  0.391-  27 2.25   6 2.36   3 2.36
  48  0.605  0.313  0.000-  16 2.26  13 2.26
  49  0.741  0.177  0.130-   1 2.25  17 2.26  14 2.26  13 2.36  16 2.36
  50  0.878  0.040  0.261-   2 2.25  18 2.26  15 2.26  14 2.36  17 2.36
  51  0.360  0.390  0.088-  23 2.25  10 2.26  16 2.26
  52  0.497  0.253  0.218-  24 2.25  17 2.26  11 2.26  10 2.36  16 2.36
  53  0.437  0.145  0.000-  10 2.26  13 2.26
  54  0.573  0.009  0.130-  34 2.25  11 2.26  14 2.26  13 2.36  10 2.36
  55  0.710  0.872  0.261-  35 2.25  12 2.26  15 2.26  14 2.36  11 2.36
  56  0.846  0.736  0.391-  36 2.25  15 2.36  12 2.36
  57  0.241  0.677  0.130-  28 2.25  26 2.26  23 2.26  22 2.36  25 2.36
  58  0.378  0.540  0.261-  29 2.25  27 2.26  24 2.26  23 2.36  26 2.36
  59  0.514  0.404  0.391-  30 2.25  24 2.36  27 2.36
  60  0.860  0.890  0.088-  14 2.25  19 2.26  25 2.26
  61  0.997  0.753  0.218-  15 2.25  26 2.26  20 2.26  19 2.36  25 2.36
  62  0.937  0.645  0.000-  19 2.26  22 2.26
  63  0.073  0.509  0.130-   7 2.25  20 2.26  23 2.26  22 2.36  19 2.36
  64  0.210  0.372  0.261-   8 2.25  21 2.26  24 2.26  23 2.36  20 2.36
  65  0.346  0.236  0.391-   9 2.25  24 2.36  21 2.36
  66  0.741  0.677  0.130-  19 2.25  35 2.26  32 2.26  31 2.36  34 2.36
  67  0.878  0.540  0.261-  20 2.25  36 2.26  33 2.26  32 2.36  35 2.36
  68  0.014  0.404  0.391-  21 2.25  33 2.36  36 2.36
  69  0.497  0.753  0.218-   6 2.25  35 2.26  29 2.26  28 2.36  34 2.36
  70  0.437  0.645  0.000-  28 2.26  31 2.26
  71  0.573  0.509  0.130-  16 2.25  29 2.26  32 2.26  31 2.36  28 2.36
  72  0.710  0.372  0.261-  17 2.25  30 2.26  33 2.26  32 2.36  29 2.36
 
  LATTYP: Found a base centered orthorhombic cell.
 ALAT       =    13.8711387481
 B/A-ratio  =     1.3810560848
 C/A-ratio  =     1.3837068471
  
  Lattice vectors:
  
 A1 = (  11.2351097480,   3.6905792348,   0.0000000000)
 A2 = (   0.0000000000, -11.8257374459,   0.0000000000)
 A3 = (   0.0000000000,   0.0000000000, -19.1935896625)


Analysis of symmetry for initial positions (statically):
=====================================================================
 Subroutine PRICEL returns:
 Original cell was already a primitive cell.
 

 Routine SETGRP: Setting up the symmetry group for a 
 base centered orthorhombic supercell.


 Subroutine GETGRP returns: Found  1 space group operations
 (whereof  1 operations were pure point group operations)
 out of a pool of  8 trial point group operations.


The static configuration has the point symmetry C_1 .


Analysis of symmetry for dynamics (positions and initial velocities):
=====================================================================
 Subroutine PRICEL returns:
 Original cell was already a primitive cell.
 

 Routine SETGRP: Setting up the symmetry group for a 
 base centered orthorhombic supercell.


 Subroutine GETGRP returns: Found  1 space group operations
 (whereof  1 operations were pure point group operations)
 out of a pool of  8 trial point group operations.


The dynamic configuration has the point symmetry C_1 .


 Subroutine INISYM returns: Found  1 space group operations
 (whereof  1 operations are pure point group operations),
 and found     1 'primitive' translations


----------------------------------------------------------------------------------------

                                     Primitive cell                                     

  volume of cell :    2550.1267

  direct lattice vectors                    reciprocal lattice vectors
    11.235109748  3.690579235  0.000000000     0.089006696  0.000000000  0.000000000
     0.000000000 11.825737446  0.000000000    -0.027777233  0.084561323  0.000000000
     0.000000000  0.000000000 19.193589662     0.000000000  0.000000000  0.052100728

  length of vectors
    11.825737446 11.825737446 19.193589662     0.089006696  0.089006696  0.052100728

  position of ions in fractional coordinates (direct lattice)
     0.924088227  0.193817547  0.114259528
     0.060673734  0.057232039  0.244673624
     0.197259241  0.920646517  0.375087720
     0.116120798  0.133887972  0.045347155
     0.252706305  0.997302464  0.175761251
     0.389291812  0.860716942  0.306175347
     0.056191223  0.325920543  0.114259528
     0.192776730  0.189335035  0.244673624
     0.329362237  0.052749513  0.375087720
     0.424088227  0.193817547  0.114259528
     0.560673734  0.057232039  0.244673624
     0.697259241  0.920646517  0.375087720
     0.616120798  0.133887972  0.045347155
     0.752706305  0.997302464  0.175761251
     0.889291812  0.860716942  0.306175347
     0.556191223  0.325920543  0.114259528
     0.692776730  0.189335035  0.244673624
     0.829362237  0.052749513  0.375087720
     0.924088227  0.693817547  0.114259528
     0.060673734  0.557232039  0.244673624
     0.197259241  0.420646517  0.375087720
     0.116120798  0.633887972  0.045347155
     0.252706305  0.497302464  0.175761251
     0.389291812  0.360716942  0.306175347
     0.056191223  0.825920543  0.114259528
     0.192776730  0.689335035  0.244673624
     0.329362237  0.552749513  0.375087720
     0.424088227  0.693817547  0.114259528
     0.560673734  0.557232039  0.244673624
     0.697259241  0.420646517  0.375087720
     0.616120798  0.633887972  0.045347155
     0.752706305  0.497302464  0.175761251
     0.889291812  0.360716942  0.306175347
     0.556191223  0.825920543  0.114259528
     0.692776730  0.689335035  0.244673624
     0.829362237  0.552749513  0.375087720
     0.104739725  0.313484025  0.000000000
     0.241325247  0.176898518  0.130414096
     0.377910754  0.040313010  0.260828192
     0.514496261  0.903727488  0.391242288
     0.860212659  0.389796095  0.087750429
     0.996798181  0.253210588  0.218164525
     0.133383688  0.116625081  0.348578621
     0.936524730  0.145269030  0.000000000
     0.073110252  0.008683523  0.130414096
     0.209695759  0.872098015  0.260828192
     0.346281266  0.735512493  0.391242288
     0.604739725  0.313484025  0.000000000
     0.741325247  0.176898518  0.130414096
     0.877910754  0.040313010  0.260828192
     0.360212659  0.389796095  0.087750429
     0.496798181  0.253210588  0.218164525
     0.436524730  0.145269030  0.000000000
     0.573110252  0.008683523  0.130414096
     0.709695759  0.872098015  0.260828192
     0.846281266  0.735512493  0.391242288
     0.241325247  0.676898518  0.130414096
     0.377910754  0.540313010  0.260828192
     0.514496261  0.403727488  0.391242288
     0.860212659  0.889796095  0.087750429
     0.996798181  0.753210588  0.218164525
     0.936524730  0.645269030  0.000000000
     0.073110252  0.508683523  0.130414096
     0.209695759  0.372098015  0.260828192
     0.346281266  0.235512493  0.391242288
     0.741325247  0.676898518  0.130414096
     0.877910754  0.540313010  0.260828192
     0.014496261  0.403727488  0.391242288
     0.496798181  0.753210588  0.218164525
     0.436524730  0.645269030  0.000000000
     0.573110252  0.508683523  0.130414096
     0.709695759  0.372098015  0.260828192

  ion indices of the primitive-cell ions
   primitive index   ion index
                 1           1
                 2           2
                 3           3
                 4           4
                 5           5
                 6           6
                 7           7
                 8           8
                 9           9
                10          10
                11          11
                12          12
                13          13
                14          14
                15          15
                16          16
                17          17
                18          18
                19          19
                20          20
                21          21
                22          22
                23          23
                24          24
                25          25
                26          26
                27          27
                28          28
                29          29
                30          30
                31          31
                32          32
                33          33
                34          34
                35          35
                36          36
                37          37
                38          38
                39          39
                40          40
                41          41
                42          42
                43          43
                44          44
                45          45
                46          46
                47          47
                48          48
                49          49
                50          50
                51          51
                52          52
                53          53
                54          54
                55          55
                56          56
                57          57
                58          58
                59          59
                60          60
                61          61
                62          62
                63          63
                64          64
                65          65
                66          66
                67          67
                68          68
                69          69
                70          70
                71          71
                72          72

----------------------------------------------------------------------------------------

 
 
 KPOINTS: gamma-point-only calculation. no periodi

Automatic generation of k-mesh.
Space group operators:
 irot       det(A)        alpha          n_x          n_y          n_z        tau_x        tau_y        tau_z
    1     1.000000     0.000001     1.000000     0.000000     0.000000     0.000000     0.000000     0.000000
 
 Subroutine IBZKPT returns following result:
 ===========================================
 
 Found      1 irreducible k-points:
 
 Following reciprocal coordinates:
            Coordinates               Weight
  0.000000  0.000000  0.000000      1.000000
 
 Following cartesian coordinates:
            Coordinates               Weight
  0.000000  0.000000  0.000000      1.000000
 


--------------------------------------------------------------------------------------------------------




 Dimension of arrays:
   k-points           NKPTS =      1   k-points in BZ     NKDIM =      1   number of bands    NBANDS=    480
   number of dos      NEDOS =    301   number of ions     NIONS =     72
   non local maximal  LDIM  =      6   non local SUM 2l+1 LMDIM =     18
   total plane-waves  NPLWV = 409600
   max r-space proj   IRMAX =   1821   max aug-charges    IRDMAX=   5259
   dimension x,y,z NGX =    64 NGY =   64 NGZ =  100
   dimension x,y,z NGXF=   128 NGYF=  128 NGZF=  200
   support grid    NGXF=   128 NGYF=  128 NGZF=  200
   ions per type =              36  36
   NGX,Y,Z   is equivalent  to a cutoff of   9.00,  9.00,  8.66 a.u.
   NGXF,Y,Z  is equivalent  to a cutoff of  17.99, 17.99, 17.32 a.u.

 SYSTEM =  "Millerite NiS"                         
 POSCAR =  Structure 7 made from 021-5.xsd file    

 Startparameter for this run:
   NWRITE =      2    write-flag & timer
   PREC   = normal    normal or accurate (medium, high low for compatibility)
   ISTART =      0    job   : 0-new  1-cont  2-samecut
   ICHARG =      2    charge: 1-file 2-atom 10-const
   ISPIN  =      1    spin polarized calculation?
   LNONCOLLINEAR =      F non collinear calculations
   LSORBIT =      F    spin-orbit coupling
   INIWAV =      1    electr: 0-lowe 1-rand  2-diag
   LASPH  =      F    aspherical Exc in radial PAW
   METAGGA=      F    non-selfconsistent MetaGGA calc.

 Electronic Relaxation 1
   ENCUT  =  450.0 eV  33.07 Ry    5.75 a.u.  20.45 20.45 33.20*2*pi/ulx,y,z
   ENINI  =  450.0     initial cutoff
   ENAUG  =  703.4 eV  augmentation charge cutoff
   NELM   =    100;   NELMIN=  2; NELMDL= -5     # of ELM steps 
   EDIFF  = 0.1E-03   stopping-criterion for ELM
   LREAL  =      T    real-space projection
   NLSPLINE    = F    spline interpolate recip. space projectors
   LCOMPAT=      F    compatible to vasp.4.4
   GGA_COMPAT  = T    GGA compatible to vasp.4.4-vasp.4.6
   LMAXPAW     = -100 max onsite density
   LMAXMIX     =    2 max onsite mixed and CHGCAR
   VOSKOWN=      0    Vosko Wilk Nusair interpolation
   ROPT   =   -0.00050  -0.00050
 Ionic relaxation
   EDIFFG = 0.1E-02   stopping-criterion for IOM
   NSW    =      0    number of steps for IOM
   NBLOCK =      1;   KBLOCK =      1    inner block; outer block 
   IBRION =     -1    ionic relax: 0-MD 1-quasi-New 2-CG
   NFREE  =      0    steps in history (QN), initial steepest desc. (CG)
   ISIF   =      2    stress and relaxation
   IWAVPR =     10    prediction:  0-non 1-charg 2-wave 3-comb
   ISYM   =      2    0-nonsym 1-usesym 2-fastsym
   LCORR  =      T    Harris-Foulkes like correction to forces

   POTIM  = 0.5000    time-step for ionic-motion
   TEIN   =    0.0    initial temperature
   TEBEG  =    0.0;   TEEND  =   0.0 temperature during run
   SMASS  =  -3.00    Nose mass-parameter (am)
   estimated Nose-frequenzy (Omega)   =  0.10E-29 period in steps = 0.13E+47 mass=  -0.320E-26a.u.
   SCALEE = 1.0000    scale energy and forces
   NPACO  =    256;   APACO  = 16.0  distance and # of slots for P.C.
   PSTRESS=    0.0 pullay stress

  Mass of Ions in am
   POMASS =  58.69 32.07
  Ionic Valenz
   ZVAL   =  16.00  6.00
  Atomic Wigner-Seitz radii
   RWIGS  =  -1.00 -1.00
  virtual crystal weights 
   VCA    =   1.00  1.00
   NELECT =     792.0000    total number of electrons
   NUPDOWN=      -1.0000    fix difference up-down

 DOS related values:
   EMIN   =  10.00;   EMAX   =-10.00  energy-range for DOS
   EFERMI =   0.00
   ISMEAR =     0;   SIGMA  =   0.20  broadening in eV -4-tet -1-fermi 0-gaus

 Electronic relaxation 2 (details)
   IALGO  =     38    algorithm
   LDIAG  =      T    sub-space diagonalisation (order eigenvalues)
   LSUBROT=      F    optimize rotation matrix (better conditioning)
   TURBO    =      0    0=normal 1=particle mesh
   IRESTART =      0    0=no restart 2=restart with 2 vectors
   NREBOOT  =      0    no. of reboots
   NMIN     =      0    reboot dimension
   EREF     =   0.00    reference energy to select bands
   IMIX   =      4    mixing-type and parameters
     AMIX     =   0.40;   BMIX     =  1.00
     AMIX_MAG =   1.60;   BMIX_MAG =  1.00
     AMIN     =   0.10
     WC   =   100.;   INIMIX=   1;  MIXPRE=   1;  MAXMIX= -45

 Intra band minimization:
   WEIMIN = 0.0000     energy-eigenvalue tresh-hold
   EBREAK =  0.52E-07  absolut break condition
   DEPER  =   0.30     relativ break condition  

   TIME   =   0.40     timestep for ELM

  volume/ion in A,a.u.               =      35.42       239.02
  Fermi-wavevector in a.u.,A,eV,Ry     =   1.108654  2.095052 16.723103  1.229113
  Thomas-Fermi vector in A             =   2.245184
 
 Write flags
   LWAVE        =      F    write WAVECAR
   LDOWNSAMPLE  =      F    k-point downsampling of WAVECAR
   LCHARG       =      F    write CHGCAR
   LVTOT        =      F    write LOCPOT, total local potential
   LVHAR        =      F    write LOCPOT, Hartree potential only
   LELF         =      F    write electronic localiz. function (ELF)
   LORBIT       =      0    0 simple, 1 ext, 2 COOP (PROOUT), +10 PAW based schemes


 Dipole corrections
   LMONO  =      F    monopole corrections only (constant potential shift)
   LDIPOL =      F    correct potential (dipole corrections)
   IDIPOL =      0    1-x, 2-y, 3-z, 4-all directions 
   EPSILON=  1.0000000 bulk dielectric constant

 Exchange correlation treatment:
   GGA     =    --    GGA type
   LEXCH   =     8    internal setting for exchange type
   VOSKOWN=      0    Vosko Wilk Nusair interpolation
   LHFCALC =     F    Hartree Fock is set to
   LHFONE  =     F    Hartree Fock one center treatment
   AEXX    =    0.0000 exact exchange contribution

 Linear response parameters
   LEPSILON=     F    determine dielectric tensor
   LRPA    =     F    only Hartree local field effects (RPA)
   LNABLA  =     F    use nabla operator in PAW spheres
   LVEL    =     F    velocity operator in full k-point grid
   LINTERFAST=   F  fast interpolation
   KINTER  =     0    interpolate to denser k-point grid
   CSHIFT  =0.1000    complex shift for real part using Kramers Kronig
   OMEGAMAX=  -1.0    maximum frequency
   DEG_THRESHOLD= 0.2000000E-02 threshold for treating states as degnerate
   RTIME   =   -0.100 relaxation time in fs
  (WPLASMAI=    0.000 imaginary part of plasma frequency in eV, 0.658/RTIME)
   DFIELD  = 0.0000000 0.0000000 0.0000000 field for delta impulse in time
 
 Orbital magnetization related:
   ORBITALMAG=     F  switch on orbital magnetization
   LCHIMAG   =     F  perturbation theory with respect to B field
   DQ        =  0.001000  dq finite difference perturbation B field
   LLRAUG    =     F  two centre corrections for induced B field



--------------------------------------------------------------------------------------------------------


 Static calculation
 charge density and potential will be updated during run
 non-spin polarized calculation
 Variant of blocked Davidson
 Davidson routine will perform the subspace rotation
 perform sub-space diagonalisation
    after iterative eigenvector-optimisation
 modified Broyden-mixing scheme, WC =      100.0
 initial mixing is a Kerker type mixing with AMIX =  0.4000 and BMIX =      1.0000
 Hartree-type preconditioning will be used
 using additional bands           84
 real space projection scheme for non local part
 use partial core corrections
 calculate Harris-corrections to forces 
   (improved forces if not selfconsistent)
 use gradient corrections 
 use of overlap-Matrix (Vanderbilt PP)
 Gauss-broadening in eV      SIGMA  =   0.20


--------------------------------------------------------------------------------------------------------


  energy-cutoff  :      450.00
  volume of cell :     2550.13
      direct lattice vectors                 reciprocal lattice vectors
    11.235109748  3.690579235  0.000000000     0.089006696  0.000000000  0.000000000
     0.000000000 11.825737446  0.000000000    -0.027777233  0.084561323  0.000000000
     0.000000000  0.000000000 19.193589662     0.000000000  0.000000000  0.052100728

  length of vectors
    11.825737446 11.825737446 19.193589662     0.089006696  0.089006696  0.052100728


 
 k-points in units of 2pi/SCALE and weight: gamma-point-only calculation. no periodi
   0.00000000  0.00000000  0.00000000       1.000
 
 k-points in reciprocal lattice and weights: gamma-point-only calculation. no periodi
   0.00000000  0.00000000  0.00000000       1.000
 
 position of ions in fractional coordinates (direct lattice) 
   0.92408823  0.19381755  0.11425953
   0.06067373  0.05723204  0.24467362
   0.19725924  0.92064652  0.37508772
   0.11612080  0.13388797  0.04534716
   0.25270630  0.99730246  0.17576125
   0.38929181  0.86071694  0.30617535
   0.05619122  0.32592054  0.11425953
   0.19277673  0.18933503  0.24467362
   0.32936224  0.05274951  0.37508772
   0.42408823  0.19381755  0.11425953
   0.56067373  0.05723204  0.24467362
   0.69725924  0.92064652  0.37508772
   0.61612080  0.13388797  0.04534716
   0.75270630  0.99730246  0.17576125
   0.88929181  0.86071694  0.30617535
   0.55619122  0.32592054  0.11425953
   0.69277673  0.18933503  0.24467362
   0.82936224  0.05274951  0.37508772
   0.92408823  0.69381755  0.11425953
   0.06067373  0.55723204  0.24467362
   0.19725924  0.42064652  0.37508772
   0.11612080  0.63388797  0.04534716
   0.25270630  0.49730246  0.17576125
   0.38929181  0.36071694  0.30617535
   0.05619122  0.82592054  0.11425953
   0.19277673  0.68933503  0.24467362
   0.32936224  0.55274951  0.37508772
   0.42408823  0.69381755  0.11425953
   0.56067373  0.55723204  0.24467362
   0.69725924  0.42064652  0.37508772
   0.61612080  0.63388797  0.04534716
   0.75270630  0.49730246  0.17576125
   0.88929181  0.36071694  0.30617535
   0.55619122  0.82592054  0.11425953
   0.69277673  0.68933503  0.24467362
   0.82936224  0.55274951  0.37508772
   0.10473973  0.31348403  0.00000000
   0.24132525  0.17689852  0.13041410
   0.37791075  0.04031301  0.26082819
   0.51449626  0.90372749  0.39124229
   0.86021266  0.38979610  0.08775043
   0.99679818  0.25321059  0.21816452
   0.13338369  0.11662508  0.34857862
   0.93652473  0.14526903  0.00000000
   0.07311025  0.00868352  0.13041410
   0.20969576  0.87209801  0.26082819
   0.34628127  0.73551249  0.39124229
   0.60473973  0.31348403  0.00000000
   0.74132525  0.17689852  0.13041410
   0.87791075  0.04031301  0.26082819
   0.36021266  0.38979610  0.08775043
   0.49679818  0.25321059  0.21816452
   0.43652473  0.14526903  0.00000000
   0.57311025  0.00868352  0.13041410
   0.70969576  0.87209801  0.26082819
   0.84628127  0.73551249  0.39124229
   0.24132525  0.67689852  0.13041410
   0.37791075  0.54031301  0.26082819
   0.51449626  0.40372749  0.39124229
   0.86021266  0.88979610  0.08775043
   0.99679818  0.75321059  0.21816452
   0.93652473  0.64526903  0.00000000
   0.07311025  0.50868352  0.13041410
   0.20969576  0.37209801  0.26082819
   0.34628127  0.23551249  0.39124229
   0.74132525  0.67689852  0.13041410
   0.87791075  0.54031301  0.26082819
   0.01449626  0.40372749  0.39124229
   0.49679818  0.75321059  0.21816452
   0.43652473  0.64526903  0.00000000
   0.57311025  0.50868352  0.13041410
   0.70969576  0.37209801  0.26082819
 
 position of ions in cartesian coordinates  (Angst):
  10.38223265  5.70245624  2.19305050
   0.68167606  0.90073229  4.69616514
   2.21622922 11.61532485  7.19927979
   1.30462991  2.01187701  0.87037469
   2.83918307 12.72646974  3.37348933
   4.37373623 11.61532485  5.87660398
   0.63131456  4.06162893  2.19305050
   2.16586772  2.95048421  4.69616514
   3.70042088  1.83933932  7.19927979
   4.76467777  3.85716663  2.19305050
   6.29923093  2.74602191  4.69616514
   7.83378410 13.46061447  7.19927979
   6.92218478  3.85716663  0.87037469
   8.45673794 14.57175935  3.37348933
   9.99129111 13.46061447  5.87660398
   6.24886943  5.90691855  2.19305050
   7.78342259  4.79577383  4.69616514
   9.31797575  3.68462894  7.19927979
  10.38223265 11.61532497  2.19305050
   0.68167606  6.81360101  4.69616514
   2.21622922  5.70245613  7.19927979
   1.30462991  7.92474573  0.87037469
   2.83918307  6.81360101  3.37348933
   4.37373623  5.70245613  5.87660398
   0.63131456  9.97449765  2.19305050
   2.16586772  8.86335293  4.69616514
   3.70042088  7.75220805  7.19927979
   4.76467777  9.77003535  2.19305050
   6.29923093  8.65889063  4.69616514
   7.83378410  7.54774574  7.19927979
   6.92218478  9.77003535  0.87037469
   8.45673794  8.65889063  3.37348933
   9.99129111  7.54774574  5.87660398
   6.24886943 11.81978727  2.19305050
   7.78342259 10.70864255  4.69616514
   9.31797575  9.59749766  7.19927979
   1.17676231  4.09373003  0.00000000
   2.71131564  2.98258537  2.50311464
   4.24586880  1.87144065  5.00622929
   5.78042196 12.58603321  7.50934393
   9.66458363  7.78430925  1.68424573
  11.19913696  6.67316460  4.18736037
   1.49858037  1.87144066  6.69047502
  10.52195812  5.17423213  0.00000000
   0.82140170  0.37250824  2.50311464
   2.35595487 11.08710097  5.00622929
   3.89050803  9.97595608  7.50934393
   6.79431718  5.93901964  0.00000000
   8.32887051  4.82787499  2.50311464
   9.86342367  3.71673027  5.00622929
   4.04702876  5.93901964  1.68424573
   5.58158209  4.82787498  4.18736037
   4.90440325  3.32894251  0.00000000
   6.43895658  2.21779786  2.50311464
   7.97350974 12.93239058  5.00622929
   9.50806290 11.82124570  7.50934393
   2.71131564  8.89545410  2.50311464
   4.24586880  7.78430938  5.00622929
   5.78042196  6.67316449  7.50934393
   9.66458363 13.69717798  1.68424573
  11.19913696 12.58603332  4.18736037
  10.52195812 11.08710085  0.00000000
   0.82140170  6.28537696  2.50311464
   2.35595487  5.17423224  5.00622929
   3.89050803  4.06308736  7.50934393
   8.32887051 10.74074371  2.50311464
   9.86342367  9.62959899  5.00622929
   0.16286708  4.82787487  7.50934393
   5.58158209 10.74074371  4.18736037
   4.90440325  9.24181123  0.00000000
   6.43895658  8.13066658  2.50311464
   7.97350974  7.01952186  5.00622929
 


--------------------------------------------------------------------------------------------------------


 use parallel FFT for orbitals z direction half grid
 k-point   1 :   0.0000 0.0000 0.0000  plane waves:   27617

 maximum and minimum number of plane-waves per node :      4607     4600

 maximum number of plane-waves:     27617
 maximum index in each direction: 
   IXMAX=   20   IYMAX=   20   IZMAX=   33
   IXMIN=  -20   IYMIN=  -20   IZMIN=    0


 real space projection operators:
  total allocation   :      11207.62 KBytes
  max/ min on nodes  :       1925.00       1757.34


 parallel 3D FFT for wavefunctions:
    minimum data exchange during FFTs selected (reduces bandwidth)
 parallel 3D FFT for charge:
    minimum data exchange during FFTs selected (reduces bandwidth)


 total amount of memory used by VASP MPI-rank0    48172. kBytes
=======================================================================

   base      :      30000. kBytes
   nonlr-proj:       2353. kBytes
   fftplans  :       4076. kBytes
   grid      :       7158. kBytes
   one-center:         93. kBytes
   wavefun   :       4492. kBytes
 
     INWAV:  cpu time    0.0000: real time    0.0000
 Broyden mixing: mesh for mixing (old mesh)
   NGX = 41   NGY = 41   NGZ = 67
  (NGX  =128   NGY  =128   NGZ  =200)
  gives a total of 112627 points

 initial charge density was supplied:
 charge density of overlapping atoms calculated
 number of electron     792.0000000 magnetization 
 keeping initial charge density in first step


--------------------------------------------------------------------------------------------------------


 Maximum index for non-local projection operator          357
 Maximum index for augmentation-charges          334 (set IRDMAX)


--------------------------------------------------------------------------------------------------------


 First call to EWALD:  gamma=   0.130
 Maximum number of real-space cells 3x 3x 2
 Maximum number of reciprocal cells 2x 2x 4

    FEWALD:  cpu time    0.0032: real time    0.0032


--------------------------------------- Iteration      1(   1)  ---------------------------------------


    POTLOK:  cpu time    0.0640: real time    0.0645
    SETDIJ:  cpu time    0.0049: real time    0.0066
     EDDAV:  cpu time    3.0371: real time    3.0473
       DOS:  cpu time    0.0037: real time    0.0038
    --------------------------------------------
      LOOP:  cpu time    3.1098: real time    3.1221

 eigenvalue-minimisations  :  1184
 total energy-change (2. order) : 0.8715650E+04  (-0.5010837E+05)
 number of electron     792.0000000 magnetization 
 augmentation part      792.0000000 magnetization 

 Free energy of the ion-electron system (eV)
  ---------------------------------------------------
  alpha Z        PSCENC =      1458.71169128
  Ewald energy   TEWEN  =    169100.12582435
  -Hartree energ DENC   =   -290072.47901715
  -exchange      EXHF   =         0.00000000
  -V(xc)+E(xc)   XCENC  =      3641.66959179
  PAW double counting   =    112729.53333415  -117641.51188735
  entropy T*S    EENTRO =        -0.35263573
  eigenvalues    EBANDS =     -6502.65197422
  atomic energy  EATOM  =    136002.60505376
  Solvation  Ediel_sol  =         0.00000000
  ---------------------------------------------------
  free energy    TOTEN  =      8715.64998087 eV

  energy without entropy =     8716.00261660  energy(sigma->0) =     8715.82629874


--------------------------------------------------------------------------------------------------------




--------------------------------------- Iteration      1(   2)  ---------------------------------------


     EDDAV:  cpu time    2.6717: real time    2.6820
       DOS:  cpu time    0.0036: real time    0.0036
    --------------------------------------------
      LOOP:  cpu time    2.6753: real time    2.6855

 eigenvalue-minimisations  :  1016
 total energy-change (2. order) :-0.8224296E+04  (-0.7935356E+04)
 number of electron     792.0000000 magnetization 
 augmentation part      792.0000000 magnetization 

 Free energy of the ion-electron system (eV)
  ---------------------------------------------------
  alpha Z        PSCENC =      1458.71169128
  Ewald energy   TEWEN  =    169100.12582435
  -Hartree energ DENC   =   -290072.47901715
  -exchange      EXHF   =         0.00000000
  -V(xc)+E(xc)   XCENC  =      3641.66959179
  PAW double counting   =    112729.53333415  -117641.51188735
  entropy T*S    EENTRO =        -0.77617895
  eigenvalues    EBANDS =    -14726.52488594
  atomic energy  EATOM  =    136002.60505376
  Solvation  Ediel_sol  =         0.00000000
  ---------------------------------------------------
  free energy    TOTEN  =       491.35352594 eV

  energy without entropy =      492.12970488  energy(sigma->0) =      491.74161541


--------------------------------------------------------------------------------------------------------




--------------------------------------- Iteration      1(   3)  ---------------------------------------


     EDDAV:  cpu time    2.9398: real time    2.9495
       DOS:  cpu time    0.0037: real time    0.0037
    --------------------------------------------
      LOOP:  cpu time    2.9436: real time    2.9533

 eigenvalue-minimisations  :  1136
 total energy-change (2. order) :-0.8408912E+03  (-0.7952423E+03)
 number of electron     792.0000000 magnetization 
 augmentation part      792.0000000 magnetization 

 Free energy of the ion-electron system (eV)
  ---------------------------------------------------
  alpha Z        PSCENC =      1458.71169128
  Ewald energy   TEWEN  =    169100.12582435
  -Hartree energ DENC   =   -290072.47901715
  -exchange      EXHF   =         0.00000000
  -V(xc)+E(xc)   XCENC  =      3641.66959179
  PAW double counting   =    112729.53333415  -117641.51188735
  entropy T*S    EENTRO =        -1.47064164
  eigenvalues    EBANDS =    -15566.72159955
  atomic energy  EATOM  =    136002.60505376
  Solvation  Ediel_sol  =         0.00000000
  ---------------------------------------------------
  free energy    TOTEN  =      -349.53765037 eV

  energy without entropy =     -348.06700873  energy(sigma->0) =     -348.80232955


--------------------------------------------------------------------------------------------------------




--------------------------------------- Iteration      1(   4)  ---------------------------------------


     EDDAV:  cpu time    2.9621: real time    2.9716
       DOS:  cpu time    0.0037: real time    0.0036
    --------------------------------------------
      LOOP:  cpu time    2.9657: real time    2.9752

 eigenvalue-minimisations  :  1160
 total energy-change (2. order) :-0.5039517E+02  (-0.4975678E+02)
 number of electron     792.0000000 magnetization 
 augmentation part      792.0000000 magnetization 

 Free energy of the ion-electron system (eV)
  ---------------------------------------------------
  alpha Z        PSCENC =      1458.71169128
  Ewald energy   TEWEN  =    169100.12582435
  -Hartree energ DENC   =   -290072.47901715
  -exchange      EXHF   =         0.00000000
  -V(xc)+E(xc)   XCENC  =      3641.66959179
  PAW double counting   =    112729.53333415  -117641.51188735
  entropy T*S    EENTRO =        -1.52933316
  eigenvalues    EBANDS =    -15617.05808111
  atomic energy  EATOM  =    136002.60505376
  Solvation  Ediel_sol  =         0.00000000
  ---------------------------------------------------
  free energy    TOTEN  =      -399.93282345 eV

  energy without entropy =     -398.40349029  energy(sigma->0) =     -399.16815687


--------------------------------------------------------------------------------------------------------




--------------------------------------- Iteration      1(   5)  ---------------------------------------


     EDDAV:  cpu time    3.0028: real time    3.0105
       DOS:  cpu time    0.0035: real time    0.0035
    CHARGE:  cpu time    0.0649: real time    0.0651
    MIXING:  cpu time    0.0032: real time    0.0035
    --------------------------------------------
      LOOP:  cpu time    3.0744: real time    3.0826

 eigenvalue-minimisations  :  1184
 total energy-change (2. order) :-0.1581423E+01  (-0.1579249E+01)
 number of electron     791.9998837 magnetization 
 augmentation part      284.4226680 magnetization 

 Broyden mixing:
  rms(total) = 0.82970E+01    rms(broyden)= 0.82820E+01
  rms(prec ) = 0.88655E+01
  weight for this iteration     100.00

 Free energy of the ion-electron system (eV)
  ---------------------------------------------------
  alpha Z        PSCENC =      1458.71169128
  Ewald energy   TEWEN  =    169100.12582435
  -Hartree energ DENC   =   -290072.47901715
  -exchange      EXHF   =         0.00000000
  -V(xc)+E(xc)   XCENC  =      3641.66959179
  PAW double counting   =    112729.53333415  -117641.51188735
  entropy T*S    EENTRO =        -1.51613338
  eigenvalues    EBANDS =    -15618.65270382
  atomic energy  EATOM  =    136002.60505376
  Solvation  Ediel_sol  =         0.00000000
  ---------------------------------------------------
  free energy    TOTEN  =      -401.51424638 eV

  energy without entropy =     -399.99811299  energy(sigma->0) =     -400.75617968


--------------------------------------------------------------------------------------------------------




--------------------------------------- Iteration      1(   6)  ---------------------------------------


    POTLOK:  cpu time    0.0631: real time    0.0632
    SETDIJ:  cpu time    0.0047: real time    0.0065
     EDDAV:  cpu time    2.9727: real time    2.9825
       DOS:  cpu time    0.0008: real time    0.0008
    CHARGE:  cpu time    0.0679: real time    0.0681
    MIXING:  cpu time    0.0031: real time    0.0032
    --------------------------------------------
      LOOP:  cpu time    3.1123: real time    3.1243

 eigenvalue-minimisations  :  1160
 total energy-change (2. order) :-0.1243206E+03  (-0.1067901E+03)
 number of electron     791.9998639 magnetization 
 augmentation part      358.1217277 magnetization 

 Broyden mixing:
  rms(total) = 0.17625E+02    rms(broyden)= 0.17622E+02
  rms(prec ) = 0.18624E+02
  weight for this iteration     100.00

 eigenvalues of (default mixing * dielectric matrix)
  average eigenvalue GAMMA=   0.2076
  0.2076

 Free energy of the ion-electron system (eV)
  ---------------------------------------------------
  alpha Z        PSCENC =      1458.71169128
  Ewald energy   TEWEN  =    169100.12582435
  -Hartree energ DENC   =   -286992.43278095
  -exchange      EXHF   =         0.00000000
  -V(xc)+E(xc)   XCENC  =      3560.79773242
  PAW double counting   =    113718.87905338  -118377.64131111
  entropy T*S    EENTRO =        -1.05794152
  eigenvalues    EBANDS =    -18995.82219659
  atomic energy  EATOM  =    136002.60505376
  Solvation  Ediel_sol  =         0.00000000
  ---------------------------------------------------
  free energy    TOTEN  =      -525.83487499 eV

  energy without entropy =     -524.77693347  energy(sigma->0) =     -525.30590423


--------------------------------------------------------------------------------------------------------




--------------------------------------- Iteration      1(   7)  ---------------------------------------


    POTLOK:  cpu time    0.0651: real time    0.0662
    SETDIJ:  cpu time    0.0046: real time    0.0065
     EDDAV:  cpu time    3.0186: real time    3.0259
       DOS:  cpu time    0.0007: real time    0.0007
    CHARGE:  cpu time    0.0671: real time    0.0673
    MIXING:  cpu time    0.0026: real time    0.0026
    --------------------------------------------
      LOOP:  cpu time    3.1588: real time    3.1692

 eigenvalue-minimisations  :  1152
 total energy-change (2. order) : 0.1502870E+03  (-0.1944166E+02)
 number of electron     791.9998694 magnetization 
 augmentation part      336.2134882 magnetization 

 Broyden mixing:
  rms(total) = 0.73227E+01    rms(broyden)= 0.73219E+01
  rms(prec ) = 0.77534E+01
  weight for this iteration     100.00

 eigenvalues of (default mixing * dielectric matrix)
  average eigenvalue GAMMA=   0.4928
  0.4928  0.4928

 Free energy of the ion-electron system (eV)
  ---------------------------------------------------
  alpha Z        PSCENC =      1458.71169128
  Ewald energy   TEWEN  =    169100.12582435
  -Hartree energ DENC   =   -288333.64472878
  -exchange      EXHF   =         0.00000000
  -V(xc)+E(xc)   XCENC  =      3591.20301181
  PAW double counting   =    117885.44357575  -122694.95918422
  entropy T*S    EENTRO =        -1.01801430
  eigenvalues    EBANDS =    -17384.01510574
  atomic energy  EATOM  =    136002.60505376
  Solvation  Ediel_sol  =         0.00000000
  ---------------------------------------------------
  free energy    TOTEN  =      -375.54787609 eV

  energy without entropy =     -374.52986179  energy(sigma->0) =     -375.03886894


--------------------------------------------------------------------------------------------------------




--------------------------------------- Iteration      1(   8)  ---------------------------------------


    POTLOK:  cpu time    0.0644: real time    0.0646
    SETDIJ:  cpu time    0.0051: real time    0.0051
     EDDAV:  cpu time    3.4409: real time    3.4495
       DOS:  cpu time    0.0007: real time    0.0007
    CHARGE:  cpu time    0.0681: real time    0.0683
    MIXING:  cpu time    0.0028: real time    0.0028
    --------------------------------------------
      LOOP:  cpu time    3.5820: real time    3.5909

 eigenvalue-minimisations  :  1352
 total energy-change (2. order) :-0.2192136E+02  (-0.1802021E+02)
 number of electron     791.9998908 magnetization 
 augmentation part      306.1643679 magnetization 

 Broyden mixing:
  rms(total) = 0.12601E+02    rms(broyden)= 0.12599E+02
  rms(prec ) = 0.15416E+02
  weight for this iteration     100.00

 eigenvalues of (default mixing * dielectric matrix)
  average eigenvalue GAMMA=   0.3824
  0.5224  0.5224  0.1025

 Free energy of the ion-electron system (eV)
  ---------------------------------------------------
  alpha Z        PSCENC =      1458.71169128
  Ewald energy   TEWEN  =    169100.12582435
  -Hartree energ DENC   =   -289128.88390236
  -exchange      EXHF   =         0.00000000
  -V(xc)+E(xc)   XCENC  =      3615.59794579
  PAW double counting   =    123160.74330688  -128085.80873283
  entropy T*S    EENTRO =        -1.04928641
  eigenvalues    EBANDS =    -16519.51113665
  atomic energy  EATOM  =    136002.60505376
  Solvation  Ediel_sol  =         0.00000000
  ---------------------------------------------------
  free energy    TOTEN  =      -397.46923620 eV

  energy without entropy =     -396.41994979  energy(sigma->0) =     -396.94459299


--------------------------------------------------------------------------------------------------------




--------------------------------------- Iteration      1(   9)  ---------------------------------------


    POTLOK:  cpu time    0.0645: real time    0.0647
    SETDIJ:  cpu time    0.0051: real time    0.0051
     EDDAV:  cpu time    3.1184: real time    3.1261
       DOS:  cpu time    0.0010: real time    0.0011
    CHARGE:  cpu time    0.0688: real time    0.0690
    MIXING:  cpu time    0.0028: real time    0.0028
    --------------------------------------------
      LOOP:  cpu time    3.2606: real time    3.2687

 eigenvalue-minimisations  :  1200
 total energy-change (2. order) : 0.3582717E+02  (-0.1249141E+02)
 number of electron     791.9998767 magnetization 
 augmentation part      307.9597758 magnetization 

 Broyden mixing:
  rms(total) = 0.49988E+01    rms(broyden)= 0.49896E+01
  rms(prec ) = 0.54933E+01
  weight for this iteration     100.00

 eigenvalues of (default mixing * dielectric matrix)
  average eigenvalue GAMMA=   0.4670
  1.0500  0.3651  0.3651  0.0878

 Free energy of the ion-electron system (eV)
  ---------------------------------------------------
  alpha Z        PSCENC =      1458.71169128
  Ewald energy   TEWEN  =    169100.12582435
  -Hartree energ DENC   =   -289171.80997586
  -exchange      EXHF   =         0.00000000
  -V(xc)+E(xc)   XCENC  =      3615.93093513
  PAW double counting   =    124306.41930649  -129243.03742760
  entropy T*S    EENTRO =        -1.25794192
  eigenvalues    EBANDS =    -16429.32953344
  atomic energy  EATOM  =    136002.60505376
  Solvation  Ediel_sol  =         0.00000000
  ---------------------------------------------------
  free energy    TOTEN  =      -361.64206782 eV

  energy without entropy =     -360.38412590  energy(sigma->0) =     -361.01309686


--------------------------------------------------------------------------------------------------------




--------------------------------------- Iteration      1(  10)  ---------------------------------------


    POTLOK:  cpu time    0.0639: real time    0.0641
    SETDIJ:  cpu time    0.0051: real time    0.0051
     EDDAV:  cpu time    3.4327: real time    3.4434
       DOS:  cpu time    0.0009: real time    0.0009
    CHARGE:  cpu time    0.0694: real time    0.0695
    MIXING:  cpu time    0.0030: real time    0.0030
    --------------------------------------------
      LOOP:  cpu time    3.5749: real time    3.5860

 eigenvalue-minimisations  :  1336
 total energy-change (2. order) :-0.1972211E+02  (-0.5042631E+01)
 number of electron     791.9998819 magnetization 
 augmentation part      302.6511689 magnetization 

 Broyden mixing:
  rms(total) = 0.10726E+02    rms(broyden)= 0.10723E+02
  rms(prec ) = 0.12584E+02
  weight for this iteration     100.00

 eigenvalues of (default mixing * dielectric matrix)
  average eigenvalue GAMMA=   0.5067
  1.5606  0.3935  0.3935  0.0930  0.0930

 Free energy of the ion-electron system (eV)
  ---------------------------------------------------
  alpha Z        PSCENC =      1458.71169128
  Ewald energy   TEWEN  =    169100.12582435
  -Hartree energ DENC   =   -289185.11969270
  -exchange      EXHF   =         0.00000000
  -V(xc)+E(xc)   XCENC  =      3615.72818538
  PAW double counting   =    126692.57875111  -131652.70813288
  entropy T*S    EENTRO =        -1.38643241
  eigenvalues    EBANDS =    -16411.89942253
  atomic energy  EATOM  =    136002.60505376
  Solvation  Ediel_sol  =         0.00000000
  ---------------------------------------------------
  free energy    TOTEN  =      -381.36417464 eV

  energy without entropy =     -379.97774222  energy(sigma->0) =     -380.67095843


--------------------------------------------------------------------------------------------------------




--------------------------------------- Iteration      1(  11)  ---------------------------------------


    POTLOK:  cpu time    0.0636: real time    0.0647
    SETDIJ:  cpu time    0.0045: real time    0.0062
     EDDAV:  cpu time    3.3990: real time    3.4071
       DOS:  cpu time    0.0016: real time    0.0016
    CHARGE:  cpu time    0.0662: real time    0.0664
    MIXING:  cpu time    0.0028: real time    0.0028
    --------------------------------------------
      LOOP:  cpu time    3.5377: real time    3.5489

 eigenvalue-minimisations  :  1360
 total energy-change (2. order) : 0.1282215E+02  (-0.2800012E+01)
 number of electron     791.9998750 magnetization 
 augmentation part      307.1164381 magnetization 

 Broyden mixing:
  rms(total) = 0.61234E+01    rms(broyden)= 0.61211E+01
  rms(prec ) = 0.70237E+01
  weight for this iteration     100.00

 eigenvalues of (default mixing * dielectric matrix)
  average eigenvalue GAMMA=   0.4876
  1.7970  0.3925  0.3925  0.1544  0.1036  0.0855

 Free energy of the ion-electron system (eV)
  ---------------------------------------------------
  alpha Z        PSCENC =      1458.71169128
  Ewald energy   TEWEN  =    169100.12582435
  -Hartree energ DENC   =   -289108.21614856
  -exchange      EXHF   =         0.00000000
  -V(xc)+E(xc)   XCENC  =      3612.50203418
  PAW double counting   =    128730.47798717  -133701.60616971
  entropy T*S    EENTRO =        -1.30790231
  eigenvalues    EBANDS =    -16461.83439178
  atomic energy  EATOM  =    136002.60505376
  Solvation  Ediel_sol  =         0.00000000
  ---------------------------------------------------
  free energy    TOTEN  =      -368.54202163 eV

  energy without entropy =     -367.23411932  energy(sigma->0) =     -367.88807047


--------------------------------------------------------------------------------------------------------




--------------------------------------- Iteration      1(  12)  ---------------------------------------


    POTLOK:  cpu time    0.0618: real time    0.0620
    SETDIJ:  cpu time    0.0051: real time    0.0051
     EDDAV:  cpu time    3.1901: real time    3.1979
       DOS:  cpu time    0.0016: real time    0.0016
    CHARGE:  cpu time    0.0665: real time    0.0667
    MIXING:  cpu time    0.0029: real time    0.0029
    --------------------------------------------
      LOOP:  cpu time    3.3281: real time    3.3362

 eigenvalue-minimisations  :  1256
 total energy-change (2. order) : 0.1185002E+02  (-0.3001069E+01)
 number of electron     791.9998759 magnetization 
 augmentation part      312.0534380 magnetization 

 Broyden mixing:
  rms(total) = 0.43324E+01    rms(broyden)= 0.43288E+01
  rms(prec ) = 0.49407E+01
  weight for this iteration     100.00

 eigenvalues of (default mixing * dielectric matrix)
  average eigenvalue GAMMA=   0.4602
  1.8571  0.3900  0.3900  0.2805  0.1195  0.0922  0.0922

 Free energy of the ion-electron system (eV)
  ---------------------------------------------------
  alpha Z        PSCENC =      1458.71169128
  Ewald energy   TEWEN  =    169100.12582435
  -Hartree energ DENC   =   -289021.24081190
  -exchange      EXHF   =         0.00000000
  -V(xc)+E(xc)   XCENC  =      3610.88097237
  PAW double counting   =    129836.00204945  -134814.79298934
  entropy T*S    EENTRO =        -1.14924770
  eigenvalues    EBANDS =    -16527.83454310
  atomic energy  EATOM  =    136002.60505376
  Solvation  Ediel_sol  =         0.00000000
  ---------------------------------------------------
  free energy    TOTEN  =      -356.69200083 eV

  energy without entropy =     -355.54275313  energy(sigma->0) =     -356.11737698


--------------------------------------------------------------------------------------------------------




--------------------------------------- Iteration      1(  13)  ---------------------------------------


    POTLOK:  cpu time    0.0626: real time    0.0628
    SETDIJ:  cpu time    0.0049: real time    0.0049
     EDDAV:  cpu time    3.2835: real time    3.2913
       DOS:  cpu time    0.0015: real time    0.0015
    CHARGE:  cpu time    0.0665: real time    0.0667
    MIXING:  cpu time    0.0031: real time    0.0031
    --------------------------------------------
      LOOP:  cpu time    3.4222: real time    3.4303

 eigenvalue-minimisations  :  1304
 total energy-change (2. order) : 0.1113681E+01  (-0.2355986E+01)
 number of electron     791.9998758 magnetization 
 augmentation part      312.3830270 magnetization 

 Broyden mixing:
  rms(total) = 0.47251E+01    rms(broyden)= 0.47232E+01
  rms(prec ) = 0.54184E+01
  weight for this iteration     100.00

 eigenvalues of (default mixing * dielectric matrix)
  average eigenvalue GAMMA=   0.4624
  1.9106  0.5138  0.4303  0.4303  0.1160  0.1160  0.0910  0.0910

 Free energy of the ion-electron system (eV)
  ---------------------------------------------------
  alpha Z        PSCENC =      1458.71169128
  Ewald energy   TEWEN  =    169100.12582435
  -Hartree energ DENC   =   -289014.34100416
  -exchange      EXHF   =         0.00000000
  -V(xc)+E(xc)   XCENC  =      3610.77815551
  PAW double counting   =    130144.52480271  -135127.05205015
  entropy T*S    EENTRO =        -1.20118219
  eigenvalues    EBANDS =    -16529.72961135
  atomic energy  EATOM  =    136002.60505376
  Solvation  Ediel_sol  =         0.00000000
  ---------------------------------------------------
  free energy    TOTEN  =      -355.57832025 eV

  energy without entropy =     -354.37713806  energy(sigma->0) =     -354.97772915


--------------------------------------------------------------------------------------------------------




--------------------------------------- Iteration      1(  14)  ---------------------------------------


    POTLOK:  cpu time    0.0626: real time    0.0627
    SETDIJ:  cpu time    0.0049: real time    0.0049
     EDDAV:  cpu time    3.2361: real time    3.2438
       DOS:  cpu time    0.0017: real time    0.0017
    CHARGE:  cpu time    0.0664: real time    0.0666
    MIXING:  cpu time    0.0032: real time    0.0032
    --------------------------------------------
      LOOP:  cpu time    3.3749: real time    3.3829

 eigenvalue-minimisations  :  1280
 total energy-change (2. order) : 0.1313741E+01  (-0.2239418E+01)
 number of electron     791.9998747 magnetization 
 augmentation part      313.9423835 magnetization 

 Broyden mixing:
  rms(total) = 0.34459E+01    rms(broyden)= 0.34452E+01
  rms(prec ) = 0.39159E+01
  weight for this iteration     100.00

 eigenvalues of (default mixing * dielectric matrix)
  average eigenvalue GAMMA=   0.4379
  1.8666  0.6493  0.4334  0.4334  0.1478  0.1118  0.1118  0.0933  0.0933

 Free energy of the ion-electron system (eV)
  ---------------------------------------------------
  alpha Z        PSCENC =      1458.71169128
  Ewald energy   TEWEN  =    169100.12582435
  -Hartree energ DENC   =   -289012.96809470
  -exchange      EXHF   =         0.00000000
  -V(xc)+E(xc)   XCENC  =      3610.57338150
  PAW double counting   =    130444.92694404  -135431.92240674
  entropy T*S    EENTRO =        -1.22221015
  eigenvalues    EBANDS =    -16525.09476216
  atomic energy  EATOM  =    136002.60505376
  Solvation  Ediel_sol  =         0.00000000
  ---------------------------------------------------
  free energy    TOTEN  =      -354.26457882 eV

  energy without entropy =     -353.04236867  energy(sigma->0) =     -353.65347375


--------------------------------------------------------------------------------------------------------




--------------------------------------- Iteration      1(  15)  ---------------------------------------


    POTLOK:  cpu time    0.0621: real time    0.0622
    SETDIJ:  cpu time    0.0049: real time    0.0049
     EDDAV:  cpu time    3.1850: real time    3.1925
       DOS:  cpu time    0.0017: real time    0.0017
    CHARGE:  cpu time    0.0675: real time    0.0676
    MIXING:  cpu time    0.0033: real time    0.0033
    --------------------------------------------
      LOOP:  cpu time    3.3244: real time    3.3323

 eigenvalue-minimisations  :  1256
 total energy-change (2. order) : 0.4702991E+01  (-0.6763935E+00)
 number of electron     791.9998746 magnetization 
 augmentation part      313.7501458 magnetization 

 Broyden mixing:
  rms(total) = 0.20818E+01    rms(broyden)= 0.20801E+01
  rms(prec ) = 0.23646E+01
  weight for this iteration     100.00

 eigenvalues of (default mixing * dielectric matrix)
  average eigenvalue GAMMA=   0.4197
  1.8366  0.5500  0.4588  0.4588  0.3346  0.1399  0.1156  0.1156  0.0933  0.0933

 Free energy of the ion-electron system (eV)
  ---------------------------------------------------
  alpha Z        PSCENC =      1458.71169128
  Ewald energy   TEWEN  =    169100.12582435
  -Hartree energ DENC   =   -289046.05164690
  -exchange      EXHF   =         0.00000000
  -V(xc)+E(xc)   XCENC  =      3611.31969129
  PAW double counting   =    130324.90837189  -135313.40654037
  entropy T*S    EENTRO =        -1.24140584
  eigenvalues    EBANDS =    -16486.53262729
  atomic energy  EATOM  =    136002.60505376
  Solvation  Ediel_sol  =         0.00000000
  ---------------------------------------------------
  free energy    TOTEN  =      -349.56158783 eV

  energy without entropy =     -348.32018200  energy(sigma->0) =     -348.94088491


--------------------------------------------------------------------------------------------------------




--------------------------------------- Iteration      1(  16)  ---------------------------------------


    POTLOK:  cpu time    0.0626: real time    0.0628
    SETDIJ:  cpu time    0.0049: real time    0.0049
     EDDAV:  cpu time    3.3192: real time    3.3285
       DOS:  cpu time    0.0006: real time    0.0006
    CHARGE:  cpu time    0.0658: real time    0.0660
    MIXING:  cpu time    0.0037: real time    0.0037
    --------------------------------------------
      LOOP:  cpu time    3.4568: real time    3.4664

 eigenvalue-minimisations  :  1320
 total energy-change (2. order) : 0.4208330E+00  (-0.3791055E+00)
 number of electron     791.9998762 magnetization 
 augmentation part      312.5676962 magnetization 

 Broyden mixing:
  rms(total) = 0.22347E+01    rms(broyden)= 0.22334E+01
  rms(prec ) = 0.25510E+01
  weight for this iteration     100.00

 eigenvalues of (default mixing * dielectric matrix)
  average eigenvalue GAMMA=   0.4139
  1.8617  0.5906  0.5906  0.4086  0.4086  0.1581  0.1140  0.1140  0.1245  0.0909
  0.0909

 Free energy of the ion-electron system (eV)
  ---------------------------------------------------
  alpha Z        PSCENC =      1458.71169128
  Ewald energy   TEWEN  =    169100.12582435
  -Hartree energ DENC   =   -289088.78016502
  -exchange      EXHF   =         0.00000000
  -V(xc)+E(xc)   XCENC  =      3611.89584255
  PAW double counting   =    130147.83633853  -135135.29008794
  entropy T*S    EENTRO =        -1.22026880
  eigenvalues    EBANDS =    -16445.02498354
  atomic energy  EATOM  =    136002.60505376
  Solvation  Ediel_sol  =         0.00000000
  ---------------------------------------------------
  free energy    TOTEN  =      -349.14075484 eV

  energy without entropy =     -347.92048604  energy(sigma->0) =     -348.53062044


--------------------------------------------------------------------------------------------------------




--------------------------------------- Iteration      1(  17)  ---------------------------------------


    POTLOK:  cpu time    0.0634: real time    0.0646
    SETDIJ:  cpu time    0.0045: real time    0.0063
     EDDAV:  cpu time    3.1568: real time    3.1643
       DOS:  cpu time    0.0005: real time    0.0005
    CHARGE:  cpu time    0.0626: real time    0.0627
    MIXING:  cpu time    0.0036: real time    0.0036
    --------------------------------------------
      LOOP:  cpu time    3.2914: real time    3.3021

 eigenvalue-minimisations  :  1256
 total energy-change (2. order) : 0.7304806E+00  (-0.2747508E+00)
 number of electron     791.9998755 magnetization 
 augmentation part      312.3226280 magnetization 

 Broyden mixing:
  rms(total) = 0.16810E+01    rms(broyden)= 0.16800E+01
  rms(prec ) = 0.19281E+01
  weight for this iteration     100.00

 eigenvalues of (default mixing * dielectric matrix)
  average eigenvalue GAMMA=   0.4157
  1.9015  0.7036  0.7036  0.4046  0.4046  0.2284  0.1156  0.1156  0.1315  0.0941
  0.0941  0.0918

 Free energy of the ion-electron system (eV)
  ---------------------------------------------------
  alpha Z        PSCENC =      1458.71169128
  Ewald energy   TEWEN  =    169100.12582435
  -Hartree energ DENC   =   -289108.98800095
  -exchange      EXHF   =         0.00000000
  -V(xc)+E(xc)   XCENC  =      3612.08012019
  PAW double counting   =    130091.03614489  -135077.38101582
  entropy T*S    EENTRO =        -1.20811325
  eigenvalues    EBANDS =    -16425.39197867
  atomic energy  EATOM  =    136002.60505376
  Solvation  Ediel_sol  =         0.00000000
  ---------------------------------------------------
  free energy    TOTEN  =      -348.41027422 eV

  energy without entropy =     -347.20216097  energy(sigma->0) =     -347.80621759


--------------------------------------------------------------------------------------------------------




--------------------------------------- Iteration      1(  18)  ---------------------------------------


    POTLOK:  cpu time    0.0622: real time    0.0624
    SETDIJ:  cpu time    0.0050: real time    0.0050
     EDDAV:  cpu time    3.2532: real time    3.2610
       DOS:  cpu time    0.0006: real time    0.0006
    CHARGE:  cpu time    0.0642: real time    0.0643
    MIXING:  cpu time    0.0037: real time    0.0037
    --------------------------------------------
      LOOP:  cpu time    3.3889: real time    3.3970

 eigenvalue-minimisations  :  1304
 total energy-change (2. order) : 0.5969629E+00  (-0.8903875E-01)
 number of electron     791.9998758 magnetization 
 augmentation part      312.3119891 magnetization 

 Broyden mixing:
  rms(total) = 0.13747E+01    rms(broyden)= 0.13740E+01
  rms(prec ) = 0.15652E+01
  weight for this iteration     100.00

 eigenvalues of (default mixing * dielectric matrix)
  average eigenvalue GAMMA=   0.4548
  1.9822  0.9213  0.9213  0.4296  0.4296  0.4262  0.1476  0.1476  0.1130  0.1130
  0.0917  0.0917  0.0982

 Free energy of the ion-electron system (eV)
  ---------------------------------------------------
  alpha Z        PSCENC =      1458.71169128
  Ewald energy   TEWEN  =    169100.12582435
  -Hartree energ DENC   =   -289109.26090377
  -exchange      EXHF   =         0.00000000
  -V(xc)+E(xc)   XCENC  =      3612.17288007
  PAW double counting   =    130069.06473101  -135054.24439006
  entropy T*S    EENTRO =        -1.24995403
  eigenvalues    EBANDS =    -16425.73824389
  atomic energy  EATOM  =    136002.60505376
  Solvation  Ediel_sol  =         0.00000000
  ---------------------------------------------------
  free energy    TOTEN  =      -347.81331129 eV

  energy without entropy =     -346.56335726  energy(sigma->0) =     -347.18833427


--------------------------------------------------------------------------------------------------------




--------------------------------------- Iteration      1(  19)  ---------------------------------------


    POTLOK:  cpu time    0.0630: real time    0.0632
    SETDIJ:  cpu time    0.0050: real time    0.0050
     EDDAV:  cpu time    3.3012: real time    3.3091
       DOS:  cpu time    0.0006: real time    0.0006
    CHARGE:  cpu time    0.0647: real time    0.0649
    MIXING:  cpu time    0.0039: real time    0.0039
    --------------------------------------------
      LOOP:  cpu time    3.4384: real time    3.4466

 eigenvalue-minimisations  :  1328
 total energy-change (2. order) : 0.1799785E+00  (-0.6714582E-01)
 number of electron     791.9998756 magnetization 
 augmentation part      312.9464623 magnetization 

 Broyden mixing:
  rms(total) = 0.11814E+01    rms(broyden)= 0.11809E+01
  rms(prec ) = 0.13385E+01
  weight for this iteration     100.00

 eigenvalues of (default mixing * dielectric matrix)
  average eigenvalue GAMMA=   0.4612
  1.9958  1.0743  1.0743  0.4656  0.4345  0.4345  0.1752  0.1752  0.1139  0.1139
  0.1166  0.0922  0.0922  0.0992

 Free energy of the ion-electron system (eV)
  ---------------------------------------------------
  alpha Z        PSCENC =      1458.71169128
  Ewald energy   TEWEN  =    169100.12582435
  -Hartree energ DENC   =   -289097.80921600
  -exchange      EXHF   =         0.00000000
  -V(xc)+E(xc)   XCENC  =      3612.03013570
  PAW double counting   =    130082.62005830  -135065.52662592
  entropy T*S    EENTRO =        -1.24089754
  eigenvalues    EBANDS =    -16439.14935672
  atomic energy  EATOM  =    136002.60505376
  Solvation  Ediel_sol  =         0.00000000
  ---------------------------------------------------
  free energy    TOTEN  =      -347.63333281 eV

  energy without entropy =     -346.39243527  energy(sigma->0) =     -347.01288404


--------------------------------------------------------------------------------------------------------




--------------------------------------- Iteration      1(  20)  ---------------------------------------


    POTLOK:  cpu time    0.0630: real time    0.0632
    SETDIJ:  cpu time    0.0049: real time    0.0049
     EDDAV:  cpu time    3.2686: real time    3.2764
       DOS:  cpu time    0.0006: real time    0.0006
    CHARGE:  cpu time    0.0612: real time    0.0614
    MIXING:  cpu time    0.0039: real time    0.0039
    --------------------------------------------
      LOOP:  cpu time    3.4023: real time    3.4104

 eigenvalue-minimisations  :  1312
 total energy-change (2. order) : 0.2460407E+00  (-0.4454668E-01)
 number of electron     791.9998760 magnetization 
 augmentation part      312.8493004 magnetization 

 Broyden mixing:
  rms(total) = 0.10500E+01    rms(broyden)= 0.10496E+01
  rms(prec ) = 0.11828E+01
  weight for this iteration     100.00

 eigenvalues of (default mixing * dielectric matrix)
  average eigenvalue GAMMA=   0.4818
  1.9968  1.2761  1.2761  0.5403  0.4392  0.4392  0.2956  0.1915  0.1141  0.1141
  0.1304  0.1304  0.0919  0.0919  0.0985

 Free energy of the ion-electron system (eV)
  ---------------------------------------------------
  alpha Z        PSCENC =      1458.71169128
  Ewald energy   TEWEN  =    169100.12582435
  -Hartree energ DENC   =   -289108.80369111
  -exchange      EXHF   =         0.00000000
  -V(xc)+E(xc)   XCENC  =      3612.08204805
  PAW double counting   =    129966.60699565  -134947.12971674
  entropy T*S    EENTRO =        -1.25174918
  eigenvalues    EBANDS =    -16430.33374817
  atomic energy  EATOM  =    136002.60505376
  Solvation  Ediel_sol  =         0.00000000
  ---------------------------------------------------
  free energy    TOTEN  =      -347.38729213 eV

  energy without entropy =     -346.13554295  energy(sigma->0) =     -346.76141754


--------------------------------------------------------------------------------------------------------




--------------------------------------- Iteration      1(  21)  ---------------------------------------


    POTLOK:  cpu time    0.0630: real time    0.0632
    SETDIJ:  cpu time    0.0050: real time    0.0050
     EDDAV:  cpu time    3.1563: real time    3.1638
       DOS:  cpu time    0.0006: real time    0.0006
    CHARGE:  cpu time    0.0631: real time    0.0632
    MIXING:  cpu time    0.0041: real time    0.0041
    --------------------------------------------
      LOOP:  cpu time    3.2921: real time    3.3000

 eigenvalue-minimisations  :  1264
 total energy-change (2. order) : 0.2585093E+00  (-0.3566483E-01)
 number of electron     791.9998759 magnetization 
 augmentation part      312.4620129 magnetization 

 Broyden mixing:
  rms(total) = 0.86248E+00    rms(broyden)= 0.86210E+00
  rms(prec ) = 0.97250E+00
  weight for this iteration     100.00

 eigenvalues of (default mixing * dielectric matrix)
  average eigenvalue GAMMA=   0.4985
  1.9908  1.4675  1.4675  0.4882  0.4882  0.4473  0.4473  0.2507  0.1568  0.1139
  0.1139  0.1420  0.1190  0.0920  0.0920  0.0987

 Free energy of the ion-electron system (eV)
  ---------------------------------------------------
  alpha Z        PSCENC =      1458.71169128
  Ewald energy   TEWEN  =    169100.12582435
  -Hartree energ DENC   =   -289135.74960397
  -exchange      EXHF   =         0.00000000
  -V(xc)+E(xc)   XCENC  =      3612.16193222
  PAW double counting   =    129751.78610373  -134728.79175666
  entropy T*S    EENTRO =        -1.27018066
  eigenvalues    EBANDS =    -16406.70784683
  atomic energy  EATOM  =    136002.60505376
  Solvation  Ediel_sol  =         0.00000000
  ---------------------------------------------------
  free energy    TOTEN  =      -347.12878279 eV

  energy without entropy =     -345.85860213  energy(sigma->0) =     -346.49369246


--------------------------------------------------------------------------------------------------------




--------------------------------------- Iteration      1(  22)  ---------------------------------------


    POTLOK:  cpu time    0.0627: real time    0.0629
    SETDIJ:  cpu time    0.0050: real time    0.0050
     EDDAV:  cpu time    3.2972: real time    3.3051
       DOS:  cpu time    0.0006: real time    0.0006
    CHARGE:  cpu time    0.0646: real time    0.0647
    MIXING:  cpu time    0.0043: real time    0.0043
[...]
    FORCOR:  cpu time    0.0778: real time    0.0782
    FORHAR:  cpu time    0.0319: real time    0.0320
    MIXING:  cpu time    0.0066: real time    0.0066
    OFIELD:  cpu time    0.0001: real time    0.0001

  FORCE on cell =-STRESS in cart. coord.  units (eV):
  Direction    XX          YY          ZZ          XY          YZ          ZX
  --------------------------------------------------------------------------------------
  Alpha Z  1458.71169  1458.71169  1458.71169
  Ewald  216690.88401216659.10216************  1644.81670   589.64956   -25.60989
  Hartree252495.16637252581.87260************  1316.32275   442.57556   -91.56315
  E(xc)   -5018.96063 -5019.21787 -5023.54929     0.75505    -0.10358     1.14228
  Local  ************************467571.16353 -2957.14447 -1043.34986   139.91123
  n-local  -686.84601  -689.41689  -705.75701     3.46851     0.46193     7.34275
  augment  5788.27377  5797.34987  5794.53156     0.16594     4.88915   -15.11434
  Kinetic 10929.83690 10951.85706 10962.68655    -2.34386    11.62428   -30.09967
  Fock        0.00000     0.00000     0.00000     0.00000     0.00000     0.00000
  -------------------------------------------------------------------------------------
  Total     -54.35075   -45.33707   -38.31103     6.04062     5.74705   -13.99078
  in kB     -34.14714   -28.48408   -24.06981     3.79516     3.61072    -8.79004
  external pressure =      -28.90 kB  Pullay stress =        0.00 kB


 VOLUME and BASIS-vectors are now :
 -----------------------------------------------------------------------------
  energy-cutoff  :      450.00
  volume of cell :     2550.13
      direct lattice vectors                 reciprocal lattice vectors
    11.235109748  3.690579235  0.000000000     0.089006696  0.000000000  0.000000000
     0.000000000 11.825737446  0.000000000    -0.027777233  0.084561323  0.000000000
     0.000000000  0.000000000 19.193589662     0.000000000  0.000000000  0.052100728

  length of vectors
    11.825737446 11.825737446 19.193589662     0.089006696  0.089006696  0.052100728


 FORCES acting on ions
    electron-ion (+dipol)            ewald-force                    non-local-force                 convergence-correction
 -----------------------------------------------------------------------------------------------
   0.482E+03 0.246E+03 0.231E+04   -.485E+03 -.245E+03 -.231E+04   0.257E+01 -.988E+00 0.446E+01   -.695E-01 0.283E-01 -.347E-01
   0.459E+03 0.320E+03 -.101E+04   -.459E+03 -.319E+03 0.101E+04   0.678E+00 -.709E+00 -.161E+00   0.715E-01 -.656E-02 -.782E-01
   0.611E+03 0.432E+03 -.388E+04   -.604E+03 -.430E+03 0.387E+04   -.675E+01 -.230E+01 0.491E+01   0.117E+00 0.182E-01 0.119E+00
   -.534E+03 0.464E+03 0.401E+04   0.527E+03 -.459E+03 -.402E+04   0.624E+01 -.467E+01 0.323E+01   0.154E+00 -.815E-01 -.350E-01
   -.531E+03 0.443E+03 0.152E+04   0.527E+03 -.439E+03 -.152E+04   0.344E+01 -.283E+01 -.168E+01   0.147E+00 -.101E+00 -.158E+00
   -.480E+03 0.383E+03 -.201E+04   0.482E+03 -.385E+03 0.201E+04   -.215E+01 0.167E+01 -.142E+01   0.106E-02 -.468E-01 -.372E-01
   -.290E+02 -.526E+03 0.232E+04   0.270E+02 0.528E+03 -.232E+04   0.185E+01 -.197E+01 0.448E+01   -.207E-02 0.997E-01 -.338E-01
   -.896E+02 -.428E+03 -.936E+03   0.890E+02 0.428E+03 0.936E+03   0.588E+00 -.916E+00 -.107E+00   0.838E-01 0.925E-01 0.751E-02
   -.178E+03 -.390E+03 -.384E+04   0.180E+03 0.392E+03 0.384E+04   -.129E+01 -.112E+01 0.106E+01   -.211E-01 0.490E-01 0.102E+00
   0.487E+03 0.287E+03 0.233E+04   -.490E+03 -.287E+03 -.234E+04   0.257E+01 -.652E+00 0.460E+01   0.993E-01 0.159E-01 -.199E+00
   0.319E+03 0.192E+03 -.110E+04   -.319E+03 -.191E+03 0.110E+04   0.124E+00 -.930E+00 0.108E+01   -.130E+00 0.442E-01 -.200E+00
   0.323E+03 0.635E+02 -.380E+04   -.323E+03 -.671E+02 0.380E+04   -.185E+00 0.245E+01 0.199E+01   -.144E+00 -.763E-01 0.181E+00
   -.446E+03 0.432E+03 0.402E+04   0.439E+03 -.427E+03 -.402E+04   0.662E+01 -.469E+01 0.303E+01   -.105E+00 0.144E-01 -.129E+00
   -.384E+03 0.310E+03 0.125E+04   0.386E+03 -.312E+03 -.125E+04   -.185E+01 0.162E+01 0.299E+01   -.501E-01 -.158E-01 -.308E+00
   -.577E+03 0.226E+03 -.223E+04   0.574E+03 -.227E+03 0.223E+04   0.180E+01 0.844E+00 -.783E+00   0.168E+00 -.123E+00 -.128E+00
   -.258E+02 -.540E+03 0.230E+04   0.239E+02 0.542E+03 -.230E+04   0.180E+01 -.190E+01 0.446E+01   -.168E-01 0.514E-01 -.210E+00
   -.966E+02 -.386E+03 -.121E+04   0.957E+02 0.385E+03 0.120E+04   0.123E+01 0.742E+00 0.604E+00   -.106E+00 0.142E+00 -.153E+00
   -.150E+03 -.550E+03 -.389E+04   0.149E+03 0.539E+03 0.387E+04   0.135E+01 0.103E+02 0.129E+02   0.173E-01 0.181E+00 0.183E+00
   0.509E+03 0.116E+03 0.236E+04   -.511E+03 -.115E+03 -.237E+04   0.235E+01 -.924E+00 0.497E+01   0.359E-01 -.218E-01 -.328E+00
   0.377E+03 0.995E+02 -.113E+04   -.377E+03 -.983E+02 0.113E+04   0.174E-01 -.148E+01 0.129E+01   0.474E-01 -.468E-01 -.618E-01
   0.434E+03 0.388E+02 -.382E+04   -.434E+03 -.440E+02 0.381E+04   -.656E+00 0.392E+01 0.245E+01   -.277E-01 -.897E-01 0.176E+00
   -.442E+03 0.357E+02 0.411E+04   0.431E+03 -.358E+02 -.411E+04   0.963E+01 -.672E+00 -.303E+01   -.367E-01 0.831E-01 -.128E+00
   -.365E+03 0.203E+03 0.127E+04   0.367E+03 -.205E+03 -.127E+04   -.226E+01 0.209E+01 0.252E+01   0.797E-01 0.610E-01 -.207E+00
   -.494E+03 0.300E+03 -.208E+04   0.495E+03 -.301E+03 0.208E+04   -.140E+01 0.142E+01 -.132E+01   -.849E-01 -.439E-01 0.891E-01
   -.130E+03 -.568E+03 0.255E+04   0.127E+03 0.570E+03 -.255E+04   0.263E+01 -.133E+01 0.137E+01   0.765E-01 -.191E+00 -.264E+00
   -.152E+02 -.451E+03 -.111E+04   0.142E+02 0.451E+03 0.111E+04   0.919E+00 0.279E+00 0.146E+01   0.107E+00 0.218E-01 -.172E+00
   0.437E+02 -.464E+03 -.380E+04   -.393E+02 0.466E+03 0.380E+04   -.319E+01 -.140E+01 0.210E+01   -.276E-01 -.134E+00 0.845E-01
   0.587E+03 -.102E+03 0.243E+04   -.588E+03 0.102E+03 -.244E+04   0.991E+00 -.273E+00 0.507E+01   0.179E+00 -.411E-02 -.260E+00
   0.359E+03 0.133E+03 -.111E+04   -.360E+03 -.132E+03 0.111E+04   0.169E+00 -.132E+01 0.158E+01   -.412E-01 -.156E-01 -.188E+00
   0.264E+03 0.266E+03 -.384E+04   -.267E+03 -.266E+03 0.383E+04   0.102E+01 -.412E+00 0.663E+01   -.836E-01 0.256E-01 0.126E+00
   -.356E+03 0.208E+02 0.410E+04   0.345E+03 -.199E+02 -.409E+04   0.102E+02 -.140E+01 -.316E+01   -.102E+00 0.183E-01 -.825E-01
   -.343E+03 0.235E+03 0.124E+04   0.346E+03 -.237E+03 -.124E+04   -.206E+01 0.140E+01 0.316E+01   -.162E+00 0.406E-01 -.278E+00
   -.342E+03 0.460E+03 -.223E+04   0.342E+03 -.457E+03 0.223E+04   0.253E+00 -.217E+01 -.696E+00   -.615E-01 0.845E-01 0.877E-01
   0.168E+03 -.541E+03 0.262E+04   -.166E+03 0.541E+03 -.262E+04   -.121E+01 0.495E+00 -.170E+01   -.286E-01 -.307E+00 -.318E+00
   -.244E+02 -.414E+03 -.109E+04   0.237E+02 0.413E+03 0.109E+04   0.934E+00 0.506E+00 0.134E+01   -.100E+00 -.143E+00 -.239E+00
   0.353E+02 -.399E+03 -.381E+04   -.309E+02 0.400E+03 0.381E+04   -.314E+01 -.170E+00 0.216E+01   -.301E-02 -.108E+00 0.188E+00
   -.603E+02 -.191E+03 0.168E+04   0.605E+02 0.193E+03 -.168E+04   -.337E+00 -.345E+01 0.426E+01   0.150E-01 0.368E-01 -.357E-01
   -.160E+03 -.559E+02 0.879E+03   0.162E+03 0.571E+02 -.880E+03   -.117E+01 -.159E+01 0.826E+00   0.480E-01 0.105E-01 -.561E-01
   -.143E+03 -.739E+02 -.318E+03   0.145E+03 0.757E+02 0.317E+03   -.246E+01 -.193E+01 0.150E+01   -.409E-02 -.287E-01 -.673E-02
   -.108E+03 0.937E+02 -.150E+04   0.109E+03 -.961E+02 0.151E+04   -.128E+01 0.300E+01 -.337E+01   -.105E+00 -.391E-01 0.388E-01
   0.148E+03 -.111E+03 0.129E+04   -.150E+03 0.112E+03 -.129E+04   0.237E+01 -.171E+01 0.500E+01   -.774E-01 0.703E-01 -.375E-01
   0.145E+03 -.785E+02 -.137E+03   -.148E+03 0.803E+02 0.138E+03   0.234E+01 -.180E+01 -.109E+01   -.878E-04 0.320E-01 -.462E-01
   0.288E+03 -.135E+03 -.135E+04   -.292E+03 0.138E+03 0.136E+04   0.409E+01 -.351E+01 -.333E+01   0.388E-01 0.367E-01 0.706E-01
   0.151E+03 0.148E+03 0.167E+04   -.153E+03 -.149E+03 -.168E+04   0.312E+01 0.147E+01 0.431E+01   -.161E-01 -.258E-01 -.539E-01
   0.150E+02 0.206E+03 0.893E+03   -.159E+02 -.207E+03 -.894E+03   0.123E+01 0.106E+01 0.340E+00   0.308E-01 -.515E-01 -.725E-01
   0.661E+02 0.168E+03 -.339E+03   -.669E+02 -.171E+03 0.338E+03   0.760E+00 0.296E+01 0.217E+01   0.729E-01 -.118E-01 -.266E-01
   -.947E+02 0.624E+02 -.150E+04   0.977E+02 -.620E+02 0.151E+04   -.379E+01 0.186E-01 -.365E+01   0.155E-01 0.375E-01 0.259E-01
   -.521E+02 -.199E+03 0.167E+04   0.524E+02 0.201E+03 -.168E+04   -.382E+00 -.317E+01 0.459E+01   -.273E-01 0.704E-02 -.223E-01
   -.143E+03 -.853E+02 0.848E+03   0.145E+03 0.866E+02 -.849E+03   -.147E+01 -.127E+01 0.739E+00   -.700E-01 -.526E-03 -.757E-01
   -.114E+03 -.859E+02 -.410E+03   0.116E+03 0.874E+02 0.409E+03   -.242E+01 -.177E+01 0.290E+01   0.612E-03 0.320E-01 -.999E-01
   0.143E+03 -.114E+03 0.129E+04   -.145E+03 0.115E+03 -.130E+04   0.241E+01 -.162E+01 0.498E+01   0.368E-01 0.290E-01 -.536E-01
   0.104E+03 -.809E+02 -.145E+03   -.106E+03 0.820E+02 0.146E+03   0.197E+01 -.150E+01 -.568E+00   -.129E-01 0.295E-01 -.676E-01
   0.164E+03 0.168E+03 0.167E+04   -.166E+03 -.169E+03 -.167E+04   0.307E+01 0.170E+01 0.426E+01   0.575E-01 -.135E-02 -.219E-01
   0.671E+02 0.218E+03 0.890E+03   -.683E+02 -.220E+03 -.892E+03   0.714E+00 0.137E+01 0.939E+00   -.126E-01 0.777E-03 -.119E+00
   0.478E+02 0.132E+03 -.360E+03   -.492E+02 -.134E+03 0.358E+03   0.113E+01 0.294E+01 0.253E+01   -.336E-01 -.330E-01 -.127E+00
   -.135E+03 0.217E+02 -.151E+04   0.137E+03 -.219E+02 0.151E+04   -.321E+01 0.103E+01 -.363E+01   0.533E-01 -.102E+00 0.917E-01
   -.133E+03 -.160E+03 0.898E+03   0.134E+03 0.161E+03 -.899E+03   -.208E+01 -.285E+00 0.302E+00   0.453E-01 0.192E-01 -.125E+00
   -.111E+03 -.114E+03 -.358E+03   0.112E+03 0.116E+03 0.357E+03   -.213E+01 -.189E+01 0.216E+01   0.359E-01 0.141E-01 -.667E-01
   -.118E+03 0.915E+02 -.151E+04   0.120E+03 -.937E+02 0.151E+04   -.140E+01 0.261E+01 -.352E+01   0.394E-01 -.366E-02 0.476E-01
   0.125E+03 -.879E+02 0.132E+04   -.127E+03 0.896E+02 -.132E+04   0.280E+01 -.174E+01 0.486E+01   0.632E-02 -.660E-01 -.729E-01
   0.115E+03 -.106E+03 -.148E+03   -.117E+03 0.107E+03 0.149E+03   0.277E+01 -.179E+01 -.686E-04   0.200E-01 -.166E-01 -.128E+00
   0.177E+03 0.664E+02 0.167E+04   -.178E+03 -.671E+02 -.168E+04   0.276E+01 0.119E+01 0.432E+01   0.338E-02 0.307E-01 -.132E-01
   0.568E+02 0.137E+03 0.863E+03   -.574E+02 -.140E+03 -.864E+03   0.584E+00 0.229E+01 0.409E+00   -.136E-01 0.647E-01 -.111E+00
   0.568E+02 0.115E+03 -.356E+03   -.581E+02 -.118E+03 0.354E+03   0.126E+01 0.303E+01 0.186E+01   0.157E-01 0.990E-02 0.611E-01
   -.140E+03 0.370E+02 -.152E+04   0.143E+03 -.370E+02 0.152E+04   -.289E+01 0.812E+00 -.338E+01   -.572E-01 0.415E-01 0.484E-01
   -.104E+03 -.130E+03 0.890E+03   0.105E+03 0.131E+03 -.892E+03   -.192E+01 -.106E+01 0.592E+00   -.558E-01 -.471E-01 -.175E+00
   -.103E+03 -.103E+03 -.371E+03   0.104E+03 0.105E+03 0.369E+03   -.188E+01 -.202E+01 0.278E+01   -.118E-01 -.136E-01 -.310E-01
   -.467E+02 0.898E+02 -.152E+04   0.478E+02 -.920E+02 0.152E+04   -.201E+01 0.234E+01 -.372E+01   0.774E-01 0.329E-01 0.774E-01
   0.134E+03 -.102E+03 -.916E+02   -.136E+03 0.103E+03 0.927E+02   0.167E+01 -.121E+01 -.120E+01   -.542E-01 -.382E-01 -.112E+00
   0.187E+03 0.346E+02 0.165E+04   -.189E+03 -.355E+02 -.166E+04   0.272E+01 0.172E+01 0.451E+01   0.834E-01 0.416E-01 0.437E-01
   0.643E+02 0.131E+03 0.863E+03   -.650E+02 -.133E+03 -.863E+03   0.881E+00 0.245E+01 -.450E-01   -.230E-01 0.104E+00 -.129E+00
   0.425E+02 0.150E+03 -.399E+03   -.434E+02 -.152E+03 0.398E+03   0.126E+01 0.229E+01 0.273E+01   -.587E-01 0.276E-01 -.185E-01
 -----------------------------------------------------------------------------------------------
   -.429E+02 0.676E+01 -.104E+03   -.327E-12 -.483E-12 0.796E-11   0.429E+02 -.652E+01 0.108E+03   0.454E-01 -.255E+00 -.429E+01
 
 
 POSITION                                       TOTAL-FORCE (eV/Angst)
 -----------------------------------------------------------------------------------
     10.38223      5.70246      2.19305        -0.381136      0.102001     -0.443539
      0.68168      0.90073      4.69617         0.134041     -0.064725      0.446380
      2.21623     11.61532      7.19928         0.685035     -0.278972     -0.998560
      1.30463      2.01188      0.87037        -0.689163      0.533818     -0.069654
      2.83918     12.72647      3.37349        -0.267694      0.288164      0.620951
      4.37374     11.61532      5.87660         0.156202     -0.097641      0.437434
      0.63131      4.06163      2.19305        -0.200153      0.361183     -0.487006
      2.16587      2.95048      4.69617         0.062051     -0.367255      0.136690
      3.70042      1.83934      7.19928         0.351232      0.742779     -0.590086
      4.76468      3.85717      2.19305        -0.348326      0.082324     -0.380965
      6.29923      2.74602      4.69617        -0.005233     -0.456446     -0.307016
      7.83378     13.46061      7.19928        -0.138961     -1.265106     -1.003670
      6.92218      3.85717      0.87037        -0.494175      0.539625     -0.092100
      8.45674     14.57176      3.37349         0.322517     -0.174191      0.048061
      9.99129     13.46061      5.87660        -0.629786     -0.463089     -0.084120
      6.24887      5.90692      2.19305        -0.061155      0.387168     -0.463092
      7.78342      4.79577      4.69617         0.266687      0.353873     -0.287542
      9.31798      3.68463      7.19928        -0.068334     -0.390110     -1.604577
     10.38223     11.61532      2.19305        -0.185703      0.228528     -0.511641
      0.68168      6.81360      4.69617        -0.100622     -0.284903     -0.317069
      2.21623      5.70246      7.19928        -0.327289     -1.410792     -0.866206
      1.30463      7.92475      0.87037        -0.788466     -0.701345      0.724131
      2.83918      6.81360      3.37349         0.192794     -0.291767     -0.243688
      4.37374      5.70246      5.87660        -0.018329      0.012368      0.597046
      0.63131      9.97450      2.19305        -0.341677      0.105596      0.469925
      2.16587      8.86335      4.69617         0.035398      0.117613     -0.321968
      3.70042      7.75221      7.19928         1.185307      0.690714     -0.908887
      4.76468      9.77004      2.19305         0.088226     -0.542488     -0.539650
      6.29923      8.65889      4.69617        -0.184684     -0.279740     -0.376190
      7.83378      7.54775      7.19928        -1.185990     -0.397329     -1.398878
      6.92218      9.77004      0.87037        -1.027826     -0.551122      0.912047
      8.45674      8.65889      3.37349         0.268462     -0.283554     -0.163238
      9.99129      7.54775      5.87660         0.197008      0.955293      0.064599
      6.24887     11.81979      2.19305         0.580059     -0.031032      0.790600
      7.78342     10.70864      4.69617         0.202318      0.170554     -0.486390
      9.31798      9.59750      7.19928         1.302354      0.496386     -0.999684
      1.17676      4.09373      0.00000        -0.060116     -1.135457      0.822408
      2.71132      2.98259      2.50311         0.162445     -0.373382     -0.406476
      4.24587      1.87144      5.00623         0.195796     -0.158768     -0.143407
      5.78042     12.58603      7.50934        -0.432151      0.548579      0.037760
      9.66458      7.78431      1.68425         0.093661     -0.165384      0.408042
     11.19914      6.67316      4.18736        -0.128963      0.048575     -0.109938
      1.49858      1.87144      6.69048         0.272012     -0.529137      0.519949
     10.52196      5.17423      0.00000         1.027040      0.452944      0.815905
      0.82140      0.37251      2.50311         0.372507     -0.443773     -0.817525
      2.35595     11.08710      5.00623         0.027696     -0.086263      0.298571
      3.89051      9.97596      7.50934        -0.828485      0.385869      0.170039
      6.79432      5.93902      0.00000        -0.055266     -1.060416      0.894376
      8.32887      4.82787      2.50311        -0.016832      0.031139     -0.428796
      9.86342      3.71673      5.00623        -0.452495     -0.188189      1.792007
      4.04703      5.93902      1.68425         0.121785     -0.172506      0.340605
      5.58158      4.82787      4.18736         0.383056     -0.362810      0.567591
      4.90440      3.32894      0.00000         1.033636      0.427870      0.803566
      6.43896      2.21780      2.50311        -0.488077     -0.762887     -0.895994
      7.97351     12.93239      5.00623        -0.281349      0.687915      0.526711
      9.50806     11.82125      7.50934        -0.368803      0.779643      0.022043
      2.71132      8.89545      2.50311        -0.136959      0.839282     -1.091940
      4.24587      7.78431      5.00623        -0.628318     -0.215894      0.449523
      5.78042      6.67316      7.50934        -0.163564      0.424091      0.145745
      9.66458     13.69718      1.68425         0.643898     -0.115206      0.223054
     11.19914     12.58603      4.18736         0.447019     -0.488462      0.793023
     10.52196     11.08710      0.00000         1.274278      0.447276      0.940041
      0.82140      6.28538      2.50311         0.060900      0.160035     -0.385419
      2.35595      5.17423      5.00623        -0.081850      0.819229      0.531784
      3.89051      4.06309      7.50934        -0.337385      0.855451      0.220092
      8.32887     10.74074      2.50311        -0.525858      0.286972     -0.981342
      9.86342      9.62960      5.00623        -0.731466     -0.023931      0.528074
      0.16287      4.82787      7.50934        -0.835502      0.132597     -0.019538
      5.58158     10.74074      4.18736         0.174819     -0.098032     -0.246703
      4.90440      9.24181      0.00000         1.151273      0.823264      1.340649
      6.43896      8.13067      2.50311         0.208824      0.190944     -0.309509
      7.97351      7.01952      5.00623         0.317805      0.202443      1.342582
 -----------------------------------------------------------------------------------
    total drift:                                0.038386     -0.020963     -0.021582


--------------------------------------------------------------------------------------------------------



  FREE ENERGIE OF THE ION-ELECTRON SYSTEM (eV)
  ---------------------------------------------------
  free  energy   TOTEN  =      -346.73301188 eV

  energy  without entropy=     -345.41527460  energy(sigma->0) =     -346.07414324
 


--------------------------------------------------------------------------------------------------------


    POTLOK:  cpu time    0.0678: real time    0.0679


--------------------------------------------------------------------------------------------------------


     LOOP+:  cpu time  122.9865: real time  123.3737
    4ORBIT:  cpu time    0.0000: real time    0.0000

 total amount of memory used by VASP MPI-rank0    48172. kBytes
=======================================================================

   base      :      30000. kBytes
   nonlr-proj:       2353. kBytes
   fftplans  :       4076. kBytes
   grid      :       7158. kBytes
   one-center:         93. kBytes
   wavefun   :       4492. kBytes
 
  
  
 General timing and accounting informations for this job:
 ========================================================
  
                  Total CPU time used (sec):      125.449
                            User time (sec):      124.698
                          System time (sec):        0.750
                         Elapsed time (sec):      126.295
  
                   Maximum memory used (kb):      244880.
                   Average memory used (kb):           0.
  
                          Minor page faults:        90617
                          Major page faults:            0
                 Voluntary context switches:          915
