<?xml version="1.0" encoding="ISO-8859-1"?>
<modeling>
 <generator>
  <i name="program" type="string">vasp </i>
  <i name="version" type="string">6.1.0  </i>
  <i name="subversion" type="string">28Jan20 (build Mar 31 2020 17:42:31) gamma-only                       parallel </i>
  <i name="platform" type="string">LinuxIFC </i>
  <i name="date" type="string">2020 04 12 </i>
  <i name="time" type="string">15:28:40 </i>
 </generator>
 <incar>
  <i type="string" name="SYSTEM">"Millerite NiS"</i>
  <i type="int" name="NSIM">     4</i>
  <i type="int" name="NELM">   100</i>
  <i name="ENCUT">    450.00000000</i>
  <i type="string" name="LREAL">A</i>
  <i type="int" name="ISMEAR">     0</i>
  <i type="int" name="NWRITE">     2</i>
  <i type="logical" name="LWAVE"> F  </i>
  <i type="logical" name="LCHARG"> F  </i>
  <i type="int" name="NCORE">     6</i>
  <i type="int" name="NELM">   100</i>
 </incar>
 <structure name="primitive_cell" >
  <crystal>
   <varray name="basis" >
    <v>       9.42510255       3.57329804       0.00000000 </v>
    <v>       0.00000000      10.07973298       0.00000000 </v>
    <v>       0.00000000       0.00000000      20.51013988 </v>
   </varray>
   <i name="volume">   1948.51491473 </i>
   <varray name="rec_basis" >
    <v>       0.10609964       0.00000000       0.00000000 </v>
    <v>      -0.03761267       0.09920898       0.00000000 </v>
    <v>       0.00000000       0.00000000       0.04875637 </v>
   </varray>
  </crystal>
  <varray name="positions" >
   <v>       0.37433215       0.75136220       0.09511235 </v>
   <v>       0.52460066       0.60109368       0.22312232 </v>
   <v>       0.67486918       0.45082517       0.35113229 </v>
   <v>       0.82513769       0.30055666       0.47914226 </v>
   <v>       0.60748648       0.18487454       0.00977237 </v>
   <v>       0.75775499       0.03460603       0.13778234 </v>
   <v>       0.05829201       0.73406900       0.39380228 </v>
   <v>       0.90802350       0.88433751       0.26579231 </v>
   <v>       0.14117783       0.31784985       0.18045233 </v>
   <v>       0.29144634       0.16758134       0.30846230 </v>
   <v>       0.44171485       0.01731283       0.43647227 </v>
   <v>       0.99090931       0.46811837       0.05244236 </v>
   <v>       0.00994000       0.11575434       0.41150025 </v>
   <v>       0.55913447       0.56655988       0.02747034 </v>
   <v>       0.70940298       0.41629137       0.15548031 </v>
   <v>       0.85967149       0.26602286       0.28349028 </v>
   <v>       0.09282582       0.69953520       0.19815030 </v>
   <v>       0.24309433       0.54926668       0.32616027 </v>
   <v>       0.39336284       0.39899817       0.45417024 </v>
   <v>       0.94255730       0.84980371       0.07014033 </v>
   <v>       0.32598014       0.13304754       0.11281032 </v>
   <v>       0.47624865       0.98277903       0.24082029 </v>
   <v>       0.62651717       0.83251052       0.36883026 </v>
   <v>       0.77678568       0.68224200       0.49684023 </v>
   <v>       0.04964185       0.34025850       0.44532126 </v>
   <v>       0.59883631       0.79106404       0.06129134 </v>
   <v>       0.74910482       0.64079553       0.18930132 </v>
   <v>       0.89937333       0.49052701       0.31731129 </v>
   <v>       0.98225915       0.07430787       0.10396133 </v>
   <v>       0.13252766       0.92403935       0.23197131 </v>
   <v>       0.28279617       0.77377084       0.35998128 </v>
   <v>       0.43306468       0.62350233       0.48799125 </v>
   <v>       0.21541347       0.50782021       0.01862135 </v>
   <v>       0.36568198       0.35755170       0.14663132 </v>
   <v>       0.51595050       0.20728318       0.27464130 </v>
   <v>       0.66621901       0.05701467       0.40265127 </v>
   <v>       0.06382158       0.26208477       0.34135992 </v>
   <v>       0.76328455       0.56262179       0.08533998 </v>
   <v>       0.91355307       0.41235328       0.21334995 </v>
   <v>       0.14670739       0.84586562       0.12800997 </v>
   <v>       0.29697590       0.69559711       0.25601994 </v>
   <v>       0.44724442       0.54532860       0.38402991 </v>
   <v>       0.59751293       0.39506009       0.51203988 </v>
   <v>       0.99643888       0.99613414       0.00000000 </v>
   <v>       0.37986171       0.27937797       0.04266999 </v>
   <v>       0.53013023       0.12910945       0.17067996 </v>
   <v>       0.68039874       0.97884094       0.29868993 </v>
   <v>       0.83066725       0.82857243       0.42669990 </v>
   <v>       0.37769571       0.94821064       0.04346280 </v>
   <v>       0.52796422       0.79794212       0.17147277 </v>
   <v>       0.67823274       0.64767361       0.29948274 </v>
   <v>       0.82850125       0.49740510       0.42749271 </v>
   <v>       0.91138706       0.08118595       0.21414276 </v>
   <v>       0.06165557       0.93091744       0.34215273 </v>
   <v>       0.21192409       0.78064893       0.47016270 </v>
   <v>       0.14454139       0.51469829       0.12880278 </v>
   <v>       0.29480990       0.36442978       0.25681275 </v>
   <v>       0.44507841       0.21416127       0.38482272 </v>
   <v>       0.99427287       0.66496681       0.00079281 </v>
   <v>       0.32714088       0.66233547       0.00039640 </v>
   <v>       0.47740939       0.51206696       0.12840637 </v>
   <v>       0.62767790       0.36179845       0.25641634 </v>
   <v>       0.77794641       0.21152993       0.38442631 </v>
   <v>       0.92821492       0.06126142       0.51243628 </v>
   <v>       0.01110074       0.64504228       0.29908633 </v>
   <v>       0.16136925       0.49477376       0.42709630 </v>
   <v>       0.71056371       0.94557930       0.04306639 </v>
   <v>       0.86083223       0.79531079       0.17107636 </v>
   <v>       0.09398655       0.22882313       0.08573638 </v>
   <v>       0.24425506       0.07855462       0.21374635 </v>
   <v>       0.39452358       0.92828610       0.34175632 </v>
   <v>       0.54479209       0.77801759       0.46976629 </v>
  </varray>
 </structure>
 <varray name="primitive_index" >
  <v type="int" >        1 </v>
  <v type="int" >        2 </v>
  <v type="int" >        3 </v>
  <v type="int" >        4 </v>
  <v type="int" >        5 </v>
  <v type="int" >        6 </v>
  <v type="int" >        7 </v>
  <v type="int" >        8 </v>
  <v type="int" >        9 </v>
  <v type="int" >       10 </v>
  <v type="int" >       11 </v>
  <v type="int" >       12 </v>
  <v type="int" >       13 </v>
  <v type="int" >       14 </v>
  <v type="int" >       15 </v>
  <v type="int" >       16 </v>
  <v type="int" >       17 </v>
  <v type="int" >       18 </v>
  <v type="int" >       19 </v>
  <v type="int" >       20 </v>
  <v type="int" >       21 </v>
  <v type="int" >       22 </v>
  <v type="int" >       23 </v>
  <v type="int" >       24 </v>
  <v type="int" >       25 </v>
  <v type="int" >       26 </v>
  <v type="int" >       27 </v>
  <v type="int" >       28 </v>
  <v type="int" >       29 </v>
  <v type="int" >       30 </v>
  <v type="int" >       31 </v>
  <v type="int" >       32 </v>
  <v type="int" >       33 </v>
  <v type="int" >       34 </v>
  <v type="int" >       35 </v>
  <v type="int" >       36 </v>
  <v type="int" >       37 </v>
  <v type="int" >       38 </v>
  <v type="int" >       39 </v>
  <v type="int" >       40 </v>
  <v type="int" >       41 </v>
  <v type="int" >       42 </v>
  <v type="int" >       43 </v>
  <v type="int" >       44 </v>
  <v type="int" >       45 </v>
  <v type="int" >       46 </v>
  <v type="int" >       47 </v>
  <v type="int" >       48 </v>
  <v type="int" >       49 </v>
  <v type="int" >       50 </v>
  <v type="int" >       51 </v>
  <v type="int" >       52 </v>
  <v type="int" >       53 </v>
  <v type="int" >       54 </v>
  <v type="int" >       55 </v>
  <v type="int" >       56 </v>
  <v type="int" >       57 </v>
  <v type="int" >       58 </v>
  <v type="int" >       59 </v>
  <v type="int" >       60 </v>
  <v type="int" >       61 </v>
  <v type="int" >       62 </v>
  <v type="int" >       63 </v>
  <v type="int" >       64 </v>
  <v type="int" >       65 </v>
  <v type="int" >       66 </v>
  <v type="int" >       67 </v>
  <v type="int" >       68 </v>
  <v type="int" >       69 </v>
  <v type="int" >       70 </v>
  <v type="int" >       71 </v>
  <v type="int" >       72 </v>
 </varray>
 <kpoints>
  <generation param="Gamma">
   <v type="int" name="divisions">       1        1        1 </v>
   <v name="usershift">      0.00000000       0.00000000       0.00000000 </v>
   <v name="genvec1">      1.00000000       0.00000000       0.00000000 </v>
   <v name="genvec2">     -0.00000000       1.00000000       0.00000000 </v>
   <v name="genvec3">      0.00000000       0.00000000       1.00000000 </v>
   <v name="shift">      0.00000000       0.00000000       0.00000000 </v>
  </generation>
  <varray name="kpointlist" >
   <v>       0.00000000       0.00000000       0.00000000 </v>
  </varray>
  <varray name="weights" >
   <v>       1.00000000 </v>
  </varray>
 </kpoints>
 <parameters>
  <separator name="general" >
   <i type="string" name="SYSTEM">"Millerite NiS"</i>
   <i type="logical" name="LCOMPAT"> F  </i>
  </separator>
  <separator name="electronic" >
   <i type="string" name="PREC">normal</i>
   <i name="ENMAX">    450.00000000</i>
   <i name="ENAUG">    703.44300000</i>
   <i name="EDIFF">      0.00010000</i>
   <i type="int" name="IALGO">    38</i>
   <i type="int" name="IWAVPR">    10</i>
   <i type="int" name="NBANDS">   480</i>
   <i type="int" name="NBANDSLOW">    -1</i>
   <i type="int" name="NBANDSHIGH">    -1</i>
   <i name="NELECT">    792.00000000</i>
   <i type="int" name="TURBO">     0</i>
   <i type="int" name="IRESTART">     0</i>
   <i type="int" name="NREBOOT">     0</i>
   <i type="int" name="NMIN">     0</i>
   <i name="EREF">      0.00000000</i>
   <separator name="electronic smearing" >
    <i type="int" name="ISMEAR">     0</i>
    <i name="SIGMA">      0.20000000</i>
    <i name="KSPACING">      0.50000000</i>
    <i type="logical" name="KGAMMA"> T  </i>
    <i type="logical" name="KBLOWUP"> T  </i>
   </separator>
   <separator name="electronic projectors" >
    <i type="logical" name="LREAL"> T  </i>
    <v name="ROPT">     -0.00050000     -0.00050000</v>
    <i type="int" name="LMAXPAW">  -100</i>
    <i type="int" name="LMAXMIX">     2</i>
    <i type="logical" name="NLSPLINE"> F  </i>
   </separator>
   <separator name="electronic startup" >
    <i type="int" name="ISTART">     0</i>
    <i type="int" name="ICHARG">     2</i>
    <i type="int" name="INIWAV">     1</i>
   </separator>
   <separator name="electronic spin" >
    <i type="int" name="ISPIN">     1</i>
    <i type="logical" name="LNONCOLLINEAR"> F  </i>
    <v name="MAGMOM">      1.00000000      1.00000000      1.00000000      1.00000000      1.00000000      1.00000000      1.00000000      1.00000000      1.00000000      1.00000000      1.00000000      1.00000000      1.00000000      1.00000000      1.00000000      1.00000000      1.00000000      1.00000000      1.00000000      1.00000000
      1.00000000      1.00000000      1.00000000      1.00000000      1.00000000      1.00000000      1.00000000      1.00000000      1.00000000      1.00000000      1.00000000      1.00000000      1.00000000      1.00000000      1.00000000      1.00000000      1.00000000      1.00000000      1.00000000      1.00000000
      1.00000000      1.00000000      1.00000000      1.00000000      1.00000000      1.00000000      1.00000000      1.00000000      1.00000000      1.00000000      1.00000000      1.00000000      1.00000000      1.00000000      1.00000000      1.00000000      1.00000000      1.00000000      1.00000000      1.00000000
      1.00000000      1.00000000      1.00000000      1.00000000      1.00000000      1.00000000      1.00000000      1.00000000      1.00000000      1.00000000      1.00000000      1.00000000</v>
    <i name="NUPDOWN">     -1.00000000</i>
    <i type="logical" name="LSORBIT"> F  </i>
    <v name="SAXIS">      0.00000000      0.00000000      1.00000000</v>
    <i type="logical" name="LSPIRAL"> F  </i>
    <v name="QSPIRAL">      0.00000000      0.00000000      0.00000000</v>
    <i type="logical" name="LZEROZ"> F  </i>
   </separator>
   <separator name="electronic exchange-correlation" >
    <i type="logical" name="LASPH"> F  </i>
    <i type="logical" name="LMETAGGA"> F  </i>
   </separator>
   <separator name="electronic convergence" >
    <i type="int" name="NELM">   100</i>
    <i type="int" name="NELMDL">    -5</i>
    <i type="int" name="NELMIN">     2</i>
    <i name="ENINI">    450.00000000</i>
    <separator name="electronic convergence detail" >
     <i type="logical" name="LDIAG"> T  </i>
     <i type="logical" name="LSUBROT"> F  </i>
     <i name="WEIMIN">      0.00000000</i>
     <i name="EBREAK">      0.00000005</i>
     <i name="DEPER">      0.30000000</i>
     <i type="int" name="NRMM">     4</i>
     <i name="TIME">      0.40000000</i>
    </separator>
   </separator>
   <separator name="electronic mixer" >
    <i name="AMIX">      0.40000000</i>
    <i name="BMIX">      1.00000000</i>
    <i name="AMIN">      0.10000000</i>
    <i name="AMIX_MAG">      1.60000000</i>
    <i name="BMIX_MAG">      1.00000000</i>
    <separator name="electronic mixer details" >
     <i type="int" name="IMIX">     4</i>
     <i type="logical" name="MIXFIRST"> F  </i>
     <i type="int" name="MAXMIX">   -45</i>
     <i name="WC">    100.00000000</i>
     <i type="int" name="INIMIX">     1</i>
     <i type="int" name="MIXPRE">     1</i>
     <i type="int" name="MREMOVE">     5</i>
    </separator>
   </separator>
   <separator name="electronic dipolcorrection" >
    <i type="logical" name="LDIPOL"> F  </i>
    <i type="logical" name="LMONO"> F  </i>
    <i type="int" name="IDIPOL">     0</i>
    <i name="EPSILON">      1.00000000</i>
    <v name="DIPOL">   -100.00000000   -100.00000000   -100.00000000</v>
    <i name="EFIELD">      0.00000000</i>
   </separator>
  </separator>
  <separator name="grids" >
   <i type="int" name="NGX">    54</i>
   <i type="int" name="NGY">    54</i>
   <i type="int" name="NGZ">   108</i>
   <i type="int" name="NGXF">   108</i>
   <i type="int" name="NGYF">   108</i>
   <i type="int" name="NGZF">   216</i>
   <i type="logical" name="ADDGRID"> F  </i>
  </separator>
  <separator name="ionic" >
   <i type="int" name="NSW">     0</i>
   <i type="int" name="IBRION">    -1</i>
   <i type="int" name="MDALGO">     0</i>
   <i type="int" name="ISIF">     2</i>
   <i name="PSTRESS">      0.00000000</i>
   <i name="EDIFFG">      0.00100000</i>
   <i type="int" name="NFREE">     0</i>
   <i name="POTIM">      0.50000000</i>
   <i name="SMASS">     -3.00000000</i>
   <i name="SCALEE">      1.00000000</i>
  </separator>
  <separator name="ionic md" >
   <i name="TEBEG">      0.00010000</i>
   <i name="TEEND">      0.00010000</i>
   <i type="int" name="NBLOCK">     1</i>
   <i type="int" name="KBLOCK">     1</i>
   <i type="int" name="NPACO">   256</i>
   <i name="APACO">     16.00000000</i>
  </separator>
  <separator name="symmetry" >
   <i type="int" name="ISYM">     2</i>
   <i name="SYMPREC">      0.00001000</i>
  </separator>
  <separator name="dos" >
   <i type="int" name="LORBIT">     0</i>
   <v name="RWIGS">     -1.00000000     -1.00000000</v>
   <i type="int" name="NEDOS">   301</i>
   <i name="EMIN">     10.00000000</i>
   <i name="EMAX">    -10.00000000</i>
   <i name="EFERMI">      0.00000000</i>
  </separator>
  <separator name="writing" >
   <i type="int" name="NWRITE">     2</i>
   <i type="logical" name="LWAVE"> F  </i>
   <i type="logical" name="LDOWNSAMPLE"> F  </i>
   <i type="logical" name="LCHARG"> F  </i>
   <i type="logical" name="LPARD"> F  </i>
   <i type="logical" name="LVTOT"> F  </i>
   <i type="logical" name="LVHAR"> F  </i>
   <i type="logical" name="LELF"> F  </i>
   <i type="logical" name="LOPTICS"> F  </i>
   <v name="STM">      0.00000000      0.00000000      0.00000000      0.00000000      0.00000000      0.00000000      0.00000000</v>
  </separator>
  <separator name="performance" >
   <i type="int" name="NPAR">     8</i>
   <i type="int" name="NSIM">     4</i>
   <i type="int" name="NBLK">    -1</i>
   <i type="logical" name="LPLANE"> T  </i>
   <i type="logical" name="LSCALAPACK"> T  </i>
   <i type="logical" name="LSCAAWARE"> F  </i>
   <i type="logical" name="LSCALU"> F  </i>
   <i type="logical" name="LASYNC"> F  </i>
   <i type="logical" name="LORBITALREAL"> F  </i>
  </separator>
  <separator name="miscellaneous" >
   <i type="int" name="IDIOT">     3</i>
   <i type="int" name="PHON_NSTRUCT">    -1</i>
   <i type="logical" name="LMUSIC"> F  </i>
   <v name="POMASS">     58.69000000     32.06600000</v>
   <v name="DARWINR">      0.00000000      0.00000000</v>
   <v name="DARWINV">      1.00000000      1.00000000</v>
   <i type="logical" name="LCORR"> T  </i>
  </separator>
  <i type="logical" name="GGA_COMPAT"> T  </i>
  <i type="logical" name="LBERRY"> F  </i>
  <i type="int" name="ICORELEVEL">     0</i>
  <i type="logical" name="LDAU"> F  </i>
  <i type="int" name="I_CONSTRAINED_M">     0</i>
  <separator name="electronic exchange-correlation" >
   <i type="string" name="GGA">--</i>
   <i type="int" name="VOSKOWN">     0</i>
   <i type="logical" name="LHFCALC"> F  </i>
   <i type="string" name="PRECFOCK"></i>
   <i type="logical" name="LSYMGRAD"> F  </i>
   <i type="logical" name="LHFONE"> F  </i>
   <i type="logical" name="LRHFCALC"> F  </i>
   <i type="logical" name="LTHOMAS"> F  </i>
   <i type="logical" name="LMODELHF"> F  </i>
   <i type="logical" name="LFOCKACE"> F  </i>
   <i name="ENCUT4O">     -1.00000000</i>
   <i type="int" name="EXXOEP">     0</i>
   <i type="int" name="FOURORBIT">     0</i>
   <i name="AEXX">      0.00000000</i>
   <i name="HFALPHA">      0.00000000</i>
   <i name="MCALPHA">      0.00000000</i>
   <i name="ALDAX">      1.00000000</i>
   <i name="AGGAX">      1.00000000</i>
   <i name="ALDAC">      1.00000000</i>
   <i name="AGGAC">      1.00000000</i>
   <i type="int" name="NKREDX">     1</i>
   <i type="int" name="NKREDY">     1</i>
   <i type="int" name="NKREDZ">     1</i>
   <i type="logical" name="SHIFTRED"> F  </i>
   <i type="logical" name="ODDONLY"> F  </i>
   <i type="logical" name="EVENONLY"> F  </i>
   <i type="int" name="LMAXFOCK">     0</i>
   <i type="int" name="NMAXFOCKAE">     0</i>
   <i type="logical" name="LFOCKAEDFT"> F  </i>
   <i name="HFSCREEN">      0.00000000</i>
   <i name="HFSCREENC">      0.00000000</i>
   <i type="int" name="NBANDSGWLOW">     0</i>
  </separator>
  <separator name="vdW DFT" >
   <i type="logical" name="LUSE_VDW"> F  </i>
   <i name="Zab_VDW">     -0.84910000</i>
   <i name="PARAM1">      0.12340000</i>
   <i name="PARAM2">      1.00000000</i>
   <i name="PARAM3">      0.00000000</i>
  </separator>
  <separator name="model GW" >
   <i type="int" name="MODEL_GW">     0</i>
   <i name="MODEL_EPS0">     16.23762429</i>
   <i name="MODEL_ALPHA">      1.00000000</i>
  </separator>
  <separator name="linear response parameters" >
   <i type="logical" name="LEPSILON"> F  </i>
   <i type="logical" name="LRPA"> F  </i>
   <i type="logical" name="LNABLA"> F  </i>
   <i type="logical" name="LVEL"> F  </i>
   <i type="int" name="KINTER">     0</i>
   <i name="CSHIFT">      0.10000000</i>
   <i name="OMEGAMAX">     -1.00000000</i>
   <i name="DEG_THRESHOLD">      0.00200000</i>
   <i name="RTIME">     -0.10000000</i>
   <i name="WPLASMAI">      0.00000000</i>
   <v name="DFIELD">      0.00000000      0.00000000      0.00000000</v>
   <v name="WPLASMA">      0.00000000      0.00000000      0.00000000      0.00000000      0.00000000      0.00000000      0.00000000      0.00000000      0.00000000</v>
  </separator>
  <separator name="orbital magnetization" >
   <i type="logical" name="NUCIND"> F  </i>
   <v name="MAGPOS">      0.00000000      0.00000000      0.00000000</v>
   <i type="logical" name="LNICSALL"> T  </i>
   <i type="logical" name="ORBITALMAG"> F  </i>
   <i type="logical" name="LMAGBLOCH"> F  </i>
   <i type="logical" name="LCHIMAG"> F  </i>
   <i type="logical" name="LGAUGE"> T  </i>
   <i type="int" name="MAGATOM">     0</i>
   <v name="MAGDIPOL">      0.00000000      0.00000000      0.00000000</v>
   <v name="AVECCONST">      0.00000000      0.00000000      0.00000000</v>
  </separator>
  <separator name="response functions" >
   <i type="logical" name="LFINITE_TEMPERATURE"> F  </i>
   <i type="logical" name="LADDER"> F  </i>
   <i type="logical" name="LRPAFORCE"> F  </i>
   <i type="logical" name="LFXC"> F  </i>
   <i type="logical" name="LHARTREE"> T  </i>
   <i type="int" name="IBSE">     0</i>
   <v type="int" name="KPOINT">    -1     0     0     0</v>
   <i type="logical" name="LTCTC"> F  </i>
   <i type="logical" name="LTCTE"> F  </i>
   <i type="logical" name="LTETE"> F  </i>
   <i type="logical" name="LTRIPLET"> F  </i>
   <i type="logical" name="LFXCEPS"> F  </i>
   <i type="logical" name="LFXHEG"> F  </i>
   <i type="int" name="NATURALO">     2</i>
   <i type="logical" name="LHOLEGF"> F  </i>
   <i type="logical" name="L2ORDER"> F  </i>
   <i type="logical" name="LDMP1"> F  </i>
   <i type="logical" name="LMP2LT"> F  </i>
   <i type="logical" name="LSMP2LT"> F  </i>
   <i type="logical" name="LGWLF"> F  </i>
   <i name="ENCUTGW">     -2.00000000</i>
   <i name="ENCUTGWSOFT">     -2.00000000</i>
   <i name="ENCUTLF">     -1.00000000</i>
   <i type="logical" name="LESF_SPLINES"> F  </i>
   <i type="int" name="LMAXMP2">    -1</i>
   <i name="SCISSOR">      0.00000000</i>
   <i type="int" name="NOMEGA">     0</i>
   <i type="int" name="NOMEGAR">     0</i>
   <i type="int" name="NBANDSGW">    -1</i>
   <i type="int" name="NBANDSO">    -1</i>
   <i type="int" name="NBANDSV">    -1</i>
   <i type="int" name="NELM">   100</i>
   <i type="int" name="NELMHF">     1</i>
   <i type="int" name="DIM">     3</i>
   <i type="int" name="IESPILON">     4</i>
   <i type="int" name="ANTIRES">     0</i>
   <i name="OMEGAMAX">    -30.00000000</i>
   <i name="OMEGAMIN">    -30.00000000</i>
   <i name="OMEGATL">   -200.00000000</i>
   <i type="int" name="OMEGAGRID">     0</i>
   <i name="CSHIFT">     -0.10000000</i>
   <i type="logical" name="LSELFENERGY"> F  </i>
   <i type="logical" name="LSPECTRAL"> F  </i>
   <i type="logical" name="LSPECTRALGW"> F  </i>
   <i type="logical" name="LSINGLES"> F  </i>
   <i type="logical" name="LFERMIGW"> F  </i>
   <i type="logical" name="ODDONLYGW"> F  </i>
   <i type="logical" name="EVENONLYGW"> F  </i>
   <i type="int" name="NKREDLFX">     1</i>
   <i type="int" name="NKREDLFY">     1</i>
   <i type="int" name="NKREDLFZ">     1</i>
   <i type="int" name="MAXMEM">  2800</i>
   <i type="int" name="TELESCOPE">     0</i>
   <i type="int" name="NTAUPAR">    -1</i>
   <i type="int" name="NOMEGAPAR">    -1</i>
   <i name="LAMBDA">      1.00000000</i>
  </separator>
  <separator name="External order field" >
   <i name="OFIELD_KAPPA">      0.00000000</i>
   <v name="OFIELD_K">      0.00000000      0.00000000      0.00000000</v>
   <i name="OFIELD_Q6_NEAR">      0.00000000</i>
   <i name="OFIELD_Q6_FAR">      0.00000000</i>
   <i name="OFIELD_A">      0.00000000</i>
  </separator>
 </parameters>
 <atominfo>
  <atoms>      72 </atoms>
  <types>       2 </types>
  <array name="atoms" >
   <dimension dim="1">ion</dimension>
   <field type="string">element</field>
   <field type="int">atomtype</field>
   <set>
    <rc><c>Ni</c><c>   1</c></rc>
    <rc><c>Ni</c><c>   1</c></rc>
    <rc><c>Ni</c><c>   1</c></rc>
    <rc><c>Ni</c><c>   1</c></rc>
    <rc><c>Ni</c><c>   1</c></rc>
    <rc><c>Ni</c><c>   1</c></rc>
    <rc><c>Ni</c><c>   1</c></rc>
    <rc><c>Ni</c><c>   1</c></rc>
    <rc><c>Ni</c><c>   1</c></rc>
    <rc><c>Ni</c><c>   1</c></rc>
    <rc><c>Ni</c><c>   1</c></rc>
    <rc><c>Ni</c><c>   1</c></rc>
    <rc><c>Ni</c><c>   1</c></rc>
    <rc><c>Ni</c><c>   1</c></rc>
    <rc><c>Ni</c><c>   1</c></rc>
    <rc><c>Ni</c><c>   1</c></rc>
    <rc><c>Ni</c><c>   1</c></rc>
    <rc><c>Ni</c><c>   1</c></rc>
    <rc><c>Ni</c><c>   1</c></rc>
    <rc><c>Ni</c><c>   1</c></rc>
    <rc><c>Ni</c><c>   1</c></rc>
    <rc><c>Ni</c><c>   1</c></rc>
    <rc><c>Ni</c><c>   1</c></rc>
    <rc><c>Ni</c><c>   1</c></rc>
    <rc><c>Ni</c><c>   1</c></rc>
    <rc><c>Ni</c><c>   1</c></rc>
    <rc><c>Ni</c><c>   1</c></rc>
    <rc><c>Ni</c><c>   1</c></rc>
    <rc><c>Ni</c><c>   1</c></rc>
    <rc><c>Ni</c><c>   1</c></rc>
    <rc><c>Ni</c><c>   1</c></rc>
    <rc><c>Ni</c><c>   1</c></rc>
    <rc><c>Ni</c><c>   1</c></rc>
    <rc><c>Ni</c><c>   1</c></rc>
    <rc><c>Ni</c><c>   1</c></rc>
    <rc><c>Ni</c><c>   1</c></rc>
    <rc><c>S </c><c>   2</c></rc>
    <rc><c>S </c><c>   2</c></rc>
    <rc><c>S </c><c>   2</c></rc>
    <rc><c>S </c><c>   2</c></rc>
    <rc><c>S </c><c>   2</c></rc>
    <rc><c>S </c><c>   2</c></rc>
    <rc><c>S </c><c>   2</c></rc>
    <rc><c>S </c><c>   2</c></rc>
    <rc><c>S </c><c>   2</c></rc>
    <rc><c>S </c><c>   2</c></rc>
    <rc><c>S </c><c>   2</c></rc>
    <rc><c>S </c><c>   2</c></rc>
    <rc><c>S </c><c>   2</c></rc>
    <rc><c>S </c><c>   2</c></rc>
    <rc><c>S </c><c>   2</c></rc>
    <rc><c>S </c><c>   2</c></rc>
    <rc><c>S </c><c>   2</c></rc>
    <rc><c>S </c><c>   2</c></rc>
    <rc><c>S </c><c>   2</c></rc>
    <rc><c>S </c><c>   2</c></rc>
    <rc><c>S </c><c>   2</c></rc>
    <rc><c>S </c><c>   2</c></rc>
    <rc><c>S </c><c>   2</c></rc>
    <rc><c>S </c><c>   2</c></rc>
    <rc><c>S </c><c>   2</c></rc>
    <rc><c>S </c><c>   2</c></rc>
    <rc><c>S </c><c>   2</c></rc>
    <rc><c>S </c><c>   2</c></rc>
    <rc><c>S </c><c>   2</c></rc>
    <rc><c>S </c><c>   2</c></rc>
    <rc><c>S </c><c>   2</c></rc>
    <rc><c>S </c><c>   2</c></rc>
    <rc><c>S </c><c>   2</c></rc>
    <rc><c>S </c><c>   2</c></rc>
    <rc><c>S </c><c>   2</c></rc>
    <rc><c>S </c><c>   2</c></rc>
   </set>
  </array>
  <array name="atomtypes" >
   <dimension dim="1">type</dimension>
   <field type="int">atomspertype</field>
   <field type="string">element</field>
   <field>mass</field>
   <field>valence</field>
   <field type="string">pseudopotential</field>
   <set>
    <rc><c>  36</c><c>Ni</c><c>     58.69000000</c><c>     16.00000000</c><c>  PAW_PBE Ni_pv 06Sep2000               </c></rc>
    <rc><c>  36</c><c>S </c><c>     32.06600000</c><c>      6.00000000</c><c>  PAW_PBE S 06Sep2000                   </c></rc>
   </set>
  </array>
 </atominfo>
 <structure name="initialpos" >
  <crystal>
   <varray name="basis" >
    <v>       9.42510255       3.57329804       0.00000000 </v>
    <v>       0.00000000      10.07973298       0.00000000 </v>
    <v>       0.00000000       0.00000000      20.51013988 </v>
   </varray>
   <i name="volume">   1948.51491473 </i>
   <varray name="rec_basis" >
    <v>       0.10609964       0.00000000       0.00000000 </v>
    <v>      -0.03761267       0.09920898       0.00000000 </v>
    <v>       0.00000000       0.00000000       0.04875637 </v>
   </varray>
  </crystal>
  <varray name="positions" >
   <v>       0.37433215       0.75136220       0.09511235 </v>
   <v>       0.52460066       0.60109368       0.22312232 </v>
   <v>       0.67486918       0.45082517       0.35113229 </v>
   <v>       0.82513769       0.30055666       0.47914226 </v>
   <v>       0.60748648       0.18487454       0.00977237 </v>
   <v>       0.75775499       0.03460603       0.13778234 </v>
   <v>       0.05829201       0.73406900       0.39380228 </v>
   <v>       0.90802350       0.88433751       0.26579231 </v>
   <v>       0.14117783       0.31784985       0.18045233 </v>
   <v>       0.29144634       0.16758134       0.30846230 </v>
   <v>       0.44171485       0.01731283       0.43647227 </v>
   <v>       0.99090931       0.46811837       0.05244236 </v>
   <v>       0.00994000       0.11575434       0.41150025 </v>
   <v>       0.55913447       0.56655988       0.02747034 </v>
   <v>       0.70940298       0.41629137       0.15548031 </v>
   <v>       0.85967149       0.26602286       0.28349028 </v>
   <v>       0.09282582       0.69953520       0.19815030 </v>
   <v>       0.24309433       0.54926668       0.32616027 </v>
   <v>       0.39336284       0.39899817       0.45417024 </v>
   <v>       0.94255730       0.84980371       0.07014033 </v>
   <v>       0.32598014       0.13304754       0.11281032 </v>
   <v>       0.47624865       0.98277903       0.24082029 </v>
   <v>       0.62651717       0.83251052       0.36883026 </v>
   <v>       0.77678568       0.68224200       0.49684023 </v>
   <v>       0.04964185       0.34025850       0.44532126 </v>
   <v>       0.59883631       0.79106404       0.06129134 </v>
   <v>       0.74910482       0.64079553       0.18930132 </v>
   <v>       0.89937333       0.49052701       0.31731129 </v>
   <v>       0.98225915       0.07430787       0.10396133 </v>
   <v>       0.13252766       0.92403935       0.23197131 </v>
   <v>       0.28279617       0.77377084       0.35998128 </v>
   <v>       0.43306468       0.62350233       0.48799125 </v>
   <v>       0.21541347       0.50782021       0.01862135 </v>
   <v>       0.36568198       0.35755170       0.14663132 </v>
   <v>       0.51595050       0.20728318       0.27464130 </v>
   <v>       0.66621901       0.05701467       0.40265127 </v>
   <v>       0.06382158       0.26208477       0.34135992 </v>
   <v>       0.76328455       0.56262179       0.08533998 </v>
   <v>       0.91355307       0.41235328       0.21334995 </v>
   <v>       0.14670739       0.84586562       0.12800997 </v>
   <v>       0.29697590       0.69559711       0.25601994 </v>
   <v>       0.44724442       0.54532860       0.38402991 </v>
   <v>       0.59751293       0.39506009       0.51203988 </v>
   <v>       0.99643888       0.99613414       0.00000000 </v>
   <v>       0.37986171       0.27937797       0.04266999 </v>
   <v>       0.53013023       0.12910945       0.17067996 </v>
   <v>       0.68039874       0.97884094       0.29868993 </v>
   <v>       0.83066725       0.82857243       0.42669990 </v>
   <v>       0.37769571       0.94821064       0.04346280 </v>
   <v>       0.52796422       0.79794212       0.17147277 </v>
   <v>       0.67823274       0.64767361       0.29948274 </v>
   <v>       0.82850125       0.49740510       0.42749271 </v>
   <v>       0.91138706       0.08118595       0.21414276 </v>
   <v>       0.06165557       0.93091744       0.34215273 </v>
   <v>       0.21192409       0.78064893       0.47016270 </v>
   <v>       0.14454139       0.51469829       0.12880278 </v>
   <v>       0.29480990       0.36442978       0.25681275 </v>
   <v>       0.44507841       0.21416127       0.38482272 </v>
   <v>       0.99427287       0.66496681       0.00079281 </v>
   <v>       0.32714088       0.66233547       0.00039640 </v>
   <v>       0.47740939       0.51206696       0.12840637 </v>
   <v>       0.62767790       0.36179845       0.25641634 </v>
   <v>       0.77794641       0.21152993       0.38442631 </v>
   <v>       0.92821492       0.06126142       0.51243628 </v>
   <v>       0.01110074       0.64504228       0.29908633 </v>
   <v>       0.16136925       0.49477376       0.42709630 </v>
   <v>       0.71056371       0.94557930       0.04306639 </v>
   <v>       0.86083223       0.79531079       0.17107636 </v>
   <v>       0.09398655       0.22882313       0.08573638 </v>
   <v>       0.24425506       0.07855462       0.21374635 </v>
   <v>       0.39452358       0.92828610       0.34175632 </v>
   <v>       0.54479209       0.77801759       0.46976629 </v>
  </varray>
 </structure>
 <calculation>
  <scstep>
   <time name="dav">    1.96    1.97</time>
   <time name="total">    2.02    2.03</time>
   <energy>
    <i name="alphaZ">   1909.09476555 </i>
    <i name="ewald"> 162114.51865243 </i>
    <i name="hartreedc">-284750.51001163 </i>
    <i name="XCdc">   3651.84472387 </i>
    <i name="pawpsdc"> 112729.53333415 </i>
    <i name="pawaedc">-117641.51188735 </i>
    <i name="eentropy">     -0.34909767 </i>
    <i name="bandstr">  -4197.82791878 </i>
    <i name="atom"> 136002.60505376 </i>
    <i name="e_fr_energy">   9817.39761434 </i>
    <i name="e_wo_entrp">   9817.74671201 </i>
    <i name="e_0_energy">   9817.57216318 </i>
   </energy>
  </scstep>
  <scstep>
   <time name="dav">    1.77    1.78</time>
   <time name="total">    1.77    1.78</time>
   <energy>
    <i name="e_fr_energy">    626.36851941 </i>
    <i name="e_wo_entrp">    627.19462733 </i>
    <i name="e_0_energy">    626.78157337 </i>
   </energy>
  </scstep>
  <scstep>
   <time name="dav">    1.88    1.88</time>
   <time name="total">    1.88    1.88</time>
   <energy>
    <i name="e_fr_energy">   -342.01923138 </i>
    <i name="e_wo_entrp">   -340.74603687 </i>
    <i name="e_0_energy">   -341.38263413 </i>
   </energy>
  </scstep>
  <scstep>
   <time name="dav">    1.93    1.94</time>
   <time name="total">    1.93    1.94</time>
   <energy>
    <i name="e_fr_energy">   -405.15841314 </i>
    <i name="e_wo_entrp">   -403.82358846 </i>
    <i name="e_0_energy">   -404.49100080 </i>
   </energy>
  </scstep>
  <scstep>
   <time name="dav">    2.01    2.02</time>
   <time name="total">    2.05    2.06</time>
   <energy>
    <i name="e_fr_energy">   -407.48506810 </i>
    <i name="e_wo_entrp">   -406.13204813 </i>
    <i name="e_0_energy">   -406.80855812 </i>
   </energy>
  </scstep>
  <scstep>
   <time name="dav">    1.90    1.91</time>
   <time name="total">    1.99    2.00</time>
   <energy>
    <i name="e_fr_energy">   -491.81769934 </i>
    <i name="e_wo_entrp">   -490.84214780 </i>
    <i name="e_0_energy">   -491.32992357 </i>
   </energy>
  </scstep>
  <scstep>
   <time name="dav">    1.91    1.92</time>
   <time name="total">    2.00    2.00</time>
   <energy>
    <i name="e_fr_energy">   -379.12169089 </i>
    <i name="e_wo_entrp">   -378.22878441 </i>
    <i name="e_0_energy">   -378.67523765 </i>
   </energy>
  </scstep>
  <scstep>
   <time name="dav">    2.04    2.04</time>
   <time name="total">    2.12    2.13</time>
   <energy>
    <i name="e_fr_energy">   -496.03035704 </i>
    <i name="e_wo_entrp">   -495.13825130 </i>
    <i name="e_0_energy">   -495.58430417 </i>
   </energy>
  </scstep>
  <scstep>
   <time name="dav">    1.98    1.99</time>
   <time name="total">    2.07    2.08</time>
   <energy>
    <i name="e_fr_energy">   -387.11134868 </i>
    <i name="e_wo_entrp">   -385.82795563 </i>
    <i name="e_0_energy">   -386.46965216 </i>
   </energy>
  </scstep>
  <scstep>
   <time name="dav">    2.14    2.14</time>
   <time name="total">    2.22    2.23</time>
   <energy>
    <i name="e_fr_energy">   -376.16486402 </i>
    <i name="e_wo_entrp">   -375.09067020 </i>
    <i name="e_0_energy">   -375.62776711 </i>
   </energy>
  </scstep>
  <scstep>
   <time name="dav">    2.13    2.13</time>
   <time name="total">    2.21    2.22</time>
   <energy>
    <i name="e_fr_energy">   -391.33026899 </i>
    <i name="e_wo_entrp">   -389.71586196 </i>
    <i name="e_0_energy">   -390.52306547 </i>
   </energy>
  </scstep>
  <scstep>
   <time name="dav">    2.16    2.17</time>
   <time name="total">    2.25    2.26</time>
   <energy>
    <i name="e_fr_energy">   -378.36052388 </i>
    <i name="e_wo_entrp">   -377.28798385 </i>
    <i name="e_0_energy">   -377.82425386 </i>
   </energy>
  </scstep>
  <scstep>
   <time name="dav">    2.26    2.27</time>
   <time name="total">    2.35    2.36</time>
   <energy>
    <i name="e_fr_energy">   -369.86607852 </i>
    <i name="e_wo_entrp">   -368.85603134 </i>
    <i name="e_0_energy">   -369.36105493 </i>
   </energy>
  </scstep>
  <scstep>
   <time name="dav">    2.07    2.08</time>
   <time name="total">    2.16    2.17</time>
   <energy>
    <i name="e_fr_energy">   -365.60874006 </i>
    <i name="e_wo_entrp">   -364.61667698 </i>
    <i name="e_0_energy">   -365.11270852 </i>
   </energy>
  </scstep>
  <scstep>
   <time name="dav">    2.09    2.10</time>
   <time name="total">    2.18    2.18</time>
   <energy>
    <i name="e_fr_energy">   -362.00414782 </i>
    <i name="e_wo_entrp">   -361.07114323 </i>
    <i name="e_0_energy">   -361.53764552 </i>
   </energy>
  </scstep>
  <scstep>
   <time name="dav">    2.03    2.04</time>
   <time name="total">    2.12    2.13</time>
   <energy>
    <i name="e_fr_energy">   -360.88522767 </i>
    <i name="e_wo_entrp">   -359.91183533 </i>
    <i name="e_0_energy">   -360.39853150 </i>
   </energy>
  </scstep>
  <scstep>
   <time name="dav">    2.13    2.13</time>
   <time name="total">    2.22    2.22</time>
   <energy>
    <i name="e_fr_energy">   -360.06869823 </i>
    <i name="e_wo_entrp">   -359.07141795 </i>
    <i name="e_0_energy">   -359.57005809 </i>
   </energy>
  </scstep>
  <scstep>
   <time name="dav">    2.14    2.14</time>
   <time name="total">    2.23    2.23</time>
   <energy>
    <i name="e_fr_energy">   -359.23204699 </i>
    <i name="e_wo_entrp">   -358.23378322 </i>
    <i name="e_0_energy">   -358.73291510 </i>
   </energy>
  </scstep>
  <scstep>
   <time name="dav">    2.13    2.14</time>
   <time name="total">    2.22    2.23</time>
   <energy>
    <i name="e_fr_energy">   -358.40745529 </i>
    <i name="e_wo_entrp">   -357.38885941 </i>
    <i name="e_0_energy">   -357.89815735 </i>
   </energy>
  </scstep>
  <scstep>
   <time name="dav">    2.19    2.19</time>
   <time name="total">    2.28    2.29</time>
   <energy>
    <i name="e_fr_energy">   -357.85900395 </i>
    <i name="e_wo_entrp">   -356.81349677 </i>
    <i name="e_0_energy">   -357.33625036 </i>
   </energy>
  </scstep>
  <scstep>
   <time name="dav">    2.13    2.14</time>
   <time name="total">    2.22    2.23</time>
   <energy>
    <i name="e_fr_energy">   -357.63858320 </i>
    <i name="e_wo_entrp">   -356.49183881 </i>
    <i name="e_0_energy">   -357.06521100 </i>
   </energy>
  </scstep>
  <scstep>
   <time name="dav">    1.88    1.88</time>
   <time name="total">    1.97    1.98</time>
   <energy>
    <i name="e_fr_energy">   -357.49720776 </i>
    <i name="e_wo_entrp">   -356.41293984 </i>
    <i name="e_0_energy">   -356.95507380 </i>
   </energy>
  </scstep>
  <scstep>
   <time name="dav">    2.01    2.01</time>
   <time name="total">    2.10    2.10</time>
   <energy>
    <i name="e_fr_energy">   -357.46528740 </i>
    <i name="e_wo_entrp">   -356.35393264 </i>
    <i name="e_0_energy">   -356.90961002 </i>
   </energy>
  </scstep>
  <scstep>
   <time name="dav">    2.02    2.03</time>
   <time name="total">    2.11    2.12</time>
   <energy>
    <i name="e_fr_energy">   -357.40395797 </i>
    <i name="e_wo_entrp">   -356.33202893 </i>
    <i name="e_0_energy">   -356.86799345 </i>
   </energy>
  </scstep>
  <scstep>
   <time name="dav">    2.16    2.16</time>
   <time name="total">    2.25    2.25</time>
   <energy>
    <i name="e_fr_energy">   -357.47954206 </i>
    <i name="e_wo_entrp">   -356.32658639 </i>
    <i name="e_0_energy">   -356.90306423 </i>
   </energy>
  </scstep>
  <scstep>
   <time name="dav">    2.15    2.15</time>
   <time name="total">    2.24    2.25</time>
   <energy>
    <i name="e_fr_energy">   -357.44774713 </i>
    <i name="e_wo_entrp">   -356.28013368 </i>
    <i name="e_0_energy">   -356.86394040 </i>
   </energy>
  </scstep>
  <scstep>
   <time name="dav">    2.11    2.12</time>
   <time name="total">    2.21    2.21</time>
   <energy>
    <i name="e_fr_energy">   -357.37272436 </i>
    <i name="e_wo_entrp">   -356.24450702 </i>
    <i name="e_0_energy">   -356.80861569 </i>
   </energy>
  </scstep>
  <scstep>
   <time name="dav">    2.07    2.08</time>
   <time name="total">    2.17    2.17</time>
   <energy>
    <i name="e_fr_energy">   -357.34967900 </i>
    <i name="e_wo_entrp">   -356.24587906 </i>
    <i name="e_0_energy">   -356.79777903 </i>
   </energy>
  </scstep>
  <scstep>
   <time name="dav">    2.09    2.09</time>
   <time name="total">    2.18    2.19</time>
   <energy>
    <i name="e_fr_energy">   -357.33596442 </i>
    <i name="e_wo_entrp">   -356.24289870 </i>
    <i name="e_0_energy">   -356.78943156 </i>
   </energy>
  </scstep>
  <scstep>
   <time name="dav">    2.13    2.14</time>
   <time name="total">    2.23    2.24</time>
   <energy>
    <i name="e_fr_energy">   -357.33060481 </i>
    <i name="e_wo_entrp">   -356.24737116 </i>
    <i name="e_0_energy">   -356.78898799 </i>
   </energy>
  </scstep>
  <scstep>
   <time name="dav">    2.00    2.01</time>
   <time name="total">    2.10    2.10</time>
   <energy>
    <i name="e_fr_energy">   -357.33059279 </i>
    <i name="e_wo_entrp">   -356.24512338 </i>
    <i name="e_0_energy">   -356.78785809 </i>
   </energy>
  </scstep>
  <scstep>
   <time name="dav">    2.06    2.07</time>
   <time name="total">    2.16    2.16</time>
   <energy>
    <i name="e_fr_energy">   -357.33115204 </i>
    <i name="e_wo_entrp">   -356.24691132 </i>
    <i name="e_0_energy">   -356.78903168 </i>
   </energy>
  </scstep>
  <scstep>
   <time name="dav">    2.02    2.03</time>
   <time name="total">    2.12    2.12</time>
   <energy>
    <i name="e_fr_energy">   -357.33075276 </i>
    <i name="e_wo_entrp">   -356.24475411 </i>
    <i name="e_0_energy">   -356.78775343 </i>
   </energy>
  </scstep>
  <scstep>
   <time name="dav">    2.03    2.03</time>
   <time name="total">    2.12    2.13</time>
   <energy>
    <i name="e_fr_energy">   -357.33008540 </i>
    <i name="e_wo_entrp">   -356.25325744 </i>
    <i name="e_0_energy">   -356.79167142 </i>
   </energy>
  </scstep>
  <scstep>
   <time name="dav">    1.79    1.80</time>
   <time name="total">    1.89    1.89</time>
   <energy>
    <i name="e_fr_energy">   -357.33031740 </i>
    <i name="e_wo_entrp">   -356.25281901 </i>
    <i name="e_0_energy">   -356.79156821 </i>
   </energy>
  </scstep>
  <scstep>
   <time name="dav">    1.54    1.55</time>
   <time name="total">    1.64    1.64</time>
   <energy>
    <i name="e_fr_energy">   -357.33096357 </i>
    <i name="e_wo_entrp">   -356.25612404 </i>
    <i name="e_0_energy">   -356.79354380 </i>
   </energy>
  </scstep>
  <scstep>
   <time name="dav">    1.28    1.29</time>
   <time name="total">    1.33    1.34</time>
   <energy>
    <i name="alphaZ">   1909.09476555 </i>
    <i name="ewald"> 162114.51865243 </i>
    <i name="hartreedc">-283912.21093623 </i>
    <i name="XCdc">   3622.24862774 </i>
    <i name="pawpsdc"> 130583.16827181 </i>
    <i name="pawaedc">-135553.85525090 </i>
    <i name="eentropy">     -1.07479844 </i>
    <i name="bandstr"> -15121.82534658 </i>
    <i name="atom"> 136002.60505376 </i>
    <i name="e_fr_energy">   -357.33096085 </i>
    <i name="e_wo_entrp">   -356.25616241 </i>
    <i name="e_0_energy">   -356.79356163 </i>
   </energy>
  </scstep>
  <structure>
   <crystal>
    <varray name="basis" >
     <v>       9.42510255       3.57329804       0.00000000 </v>
     <v>       0.00000000      10.07973298       0.00000000 </v>
     <v>       0.00000000       0.00000000      20.51013988 </v>
    </varray>
    <i name="volume">   1948.51491473 </i>
    <varray name="rec_basis" >
     <v>       0.10609964       0.00000000       0.00000000 </v>
     <v>      -0.03761267       0.09920898       0.00000000 </v>
     <v>       0.00000000       0.00000000       0.04875637 </v>
    </varray>
   </crystal>
   <varray name="positions" >
    <v>       0.37433215       0.75136220       0.09511235 </v>
    <v>       0.52460066       0.60109368       0.22312232 </v>
    <v>       0.67486918       0.45082517       0.35113229 </v>
    <v>       0.82513769       0.30055666       0.47914226 </v>
    <v>       0.60748648       0.18487454       0.00977237 </v>
    <v>       0.75775499       0.03460603       0.13778234 </v>
    <v>       0.05829201       0.73406900       0.39380228 </v>
    <v>       0.90802350       0.88433751       0.26579231 </v>
    <v>       0.14117783       0.31784985       0.18045233 </v>
    <v>       0.29144634       0.16758134       0.30846230 </v>
    <v>       0.44171485       0.01731283       0.43647227 </v>
    <v>       0.99090931       0.46811837       0.05244236 </v>
    <v>       0.00994000       0.11575434       0.41150025 </v>
    <v>       0.55913447       0.56655988       0.02747034 </v>
    <v>       0.70940298       0.41629137       0.15548031 </v>
    <v>       0.85967149       0.26602286       0.28349028 </v>
    <v>       0.09282582       0.69953520       0.19815030 </v>
    <v>       0.24309433       0.54926668       0.32616027 </v>
    <v>       0.39336284       0.39899817       0.45417024 </v>
    <v>       0.94255730       0.84980371       0.07014033 </v>
    <v>       0.32598014       0.13304754       0.11281032 </v>
    <v>       0.47624865       0.98277903       0.24082029 </v>
    <v>       0.62651717       0.83251052       0.36883026 </v>
    <v>       0.77678568       0.68224200       0.49684023 </v>
    <v>       0.04964185       0.34025850       0.44532126 </v>
    <v>       0.59883631       0.79106404       0.06129134 </v>
    <v>       0.74910482       0.64079553       0.18930132 </v>
    <v>       0.89937333       0.49052701       0.31731129 </v>
    <v>       0.98225915       0.07430787       0.10396133 </v>
    <v>       0.13252766       0.92403935       0.23197131 </v>
    <v>       0.28279617       0.77377084       0.35998128 </v>
    <v>       0.43306468       0.62350233       0.48799125 </v>
    <v>       0.21541347       0.50782021       0.01862135 </v>
    <v>       0.36568198       0.35755170       0.14663132 </v>
    <v>       0.51595050       0.20728318       0.27464130 </v>
    <v>       0.66621901       0.05701467       0.40265127 </v>
    <v>       0.06382158       0.26208477       0.34135992 </v>
    <v>       0.76328455       0.56262179       0.08533998 </v>
    <v>       0.91355307       0.41235328       0.21334995 </v>
    <v>       0.14670739       0.84586562       0.12800997 </v>
    <v>       0.29697590       0.69559711       0.25601994 </v>
    <v>       0.44724442       0.54532860       0.38402991 </v>
    <v>       0.59751293       0.39506009       0.51203988 </v>
    <v>       0.99643888       0.99613414       0.00000000 </v>
    <v>       0.37986171       0.27937797       0.04266999 </v>
    <v>       0.53013023       0.12910945       0.17067996 </v>
    <v>       0.68039874       0.97884094       0.29868993 </v>
    <v>       0.83066725       0.82857243       0.42669990 </v>
    <v>       0.37769571       0.94821064       0.04346280 </v>
    <v>       0.52796422       0.79794212       0.17147277 </v>
    <v>       0.67823274       0.64767361       0.29948274 </v>
    <v>       0.82850125       0.49740510       0.42749271 </v>
    <v>       0.91138706       0.08118595       0.21414276 </v>
    <v>       0.06165557       0.93091744       0.34215273 </v>
    <v>       0.21192409       0.78064893       0.47016270 </v>
    <v>       0.14454139       0.51469829       0.12880278 </v>
    <v>       0.29480990       0.36442978       0.25681275 </v>
    <v>       0.44507841       0.21416127       0.38482272 </v>
    <v>       0.99427287       0.66496681       0.00079281 </v>
    <v>       0.32714088       0.66233547       0.00039640 </v>
    <v>       0.47740939       0.51206696       0.12840637 </v>
    <v>       0.62767790       0.36179845       0.25641634 </v>
    <v>       0.77794641       0.21152993       0.38442631 </v>
    <v>       0.92821492       0.06126142       0.51243628 </v>
    <v>       0.01110074       0.64504228       0.29908633 </v>
    <v>       0.16136925       0.49477376       0.42709630 </v>
    <v>       0.71056371       0.94557930       0.04306639 </v>
    <v>       0.86083223       0.79531079       0.17107636 </v>
    <v>       0.09398655       0.22882313       0.08573638 </v>
    <v>       0.24425506       0.07855462       0.21374635 </v>
    <v>       0.39452358       0.92828610       0.34175632 </v>
    <v>       0.54479209       0.77801759       0.46976629 </v>
   </varray>
  </structure>
  <varray name="forces" >
   <v>      -0.20442812       0.36835563      -0.20865518 </v>
   <v>       0.00974478       0.25753799       0.17251924 </v>
   <v>       0.01180161       0.05546088      -0.05131323 </v>
   <v>      -0.31685895      -0.99205956      -0.28815661 </v>
   <v>      -0.60526075      -1.13505836       1.21579089 </v>
   <v>      -0.36658243      -0.25535333      -0.03505405 </v>
   <v>       0.35792871      -0.05933335       0.40157927 </v>
   <v>       0.11483313       0.04121816      -0.10955712 </v>
   <v>      -0.10596927       0.03907885      -0.13778234 </v>
   <v>       0.06043427      -0.02488390       0.23348693 </v>
   <v>       0.40938892      -0.35816554      -0.83964749 </v>
   <v>       0.20521344       0.72593952       0.55437043 </v>
   <v>      -0.81912256      -0.30724938       0.42749044 </v>
   <v>      -0.55108542      -0.10903342       1.17296722 </v>
   <v>      -0.26685141       0.50520628       0.27940152 </v>
   <v>       0.06178883       0.13197242       0.11071399 </v>
   <v>       0.03262472      -0.09466574      -0.10243222 </v>
   <v>      -0.05325470      -0.12856272       0.02586550 </v>
   <v>       0.45134613       0.66238900      -0.61328761 </v>
   <v>      -0.06465932       0.28489795      -0.66854502 </v>
   <v>      -0.11816981      -0.11698545      -0.37698654 </v>
   <v>      -0.05691834      -0.01705863      -0.02106318 </v>
   <v>       0.27862249       0.03518817       0.18354435 </v>
   <v>      -0.76823803       0.18389864      -1.94877320 </v>
   <v>      -0.34020106       0.92706800      -1.37991615 </v>
   <v>      -0.36808967       0.80636118       0.37577041 </v>
   <v>      -0.15711022       0.16248134       0.02829048 </v>
   <v>       0.09953756      -0.19539555       0.14713522 </v>
   <v>       0.58056353      -0.21064887      -0.62316982 </v>
   <v>      -0.02571269       0.02869177      -0.06349664 </v>
   <v>      -0.11322871      -0.04492867       0.42549040 </v>
   <v>       0.28265672      -0.42140777      -0.82403963 </v>
   <v>      -0.27651187       0.64873146       0.67198815 </v>
   <v>      -0.05960640       0.03412684      -0.21416251 </v>
   <v>       0.08432764      -0.16494482       0.01608725 </v>
   <v>       0.55226202       0.13871910      -0.52840826 </v>
   <v>       0.22654869      -0.30950706       0.82620996 </v>
   <v>      -0.24892471      -0.59511352      -1.54809429 </v>
   <v>      -0.15935141      -0.03975323      -0.09764906 </v>
   <v>      -0.00380770      -0.12722188      -0.00158348 </v>
   <v>       0.06996576      -0.20956534       0.06704633 </v>
   <v>      -0.37066720      -0.10721515       0.35170300 </v>
   <v>      -1.37300213       0.19953173       0.14676608 </v>
   <v>      -0.41889635       0.16432752       1.33871980 </v>
   <v>       0.96891201       0.74696972      -1.03625456 </v>
   <v>       0.35352775       0.14275557      -0.33937554 </v>
   <v>      -0.23562374      -0.27962594      -0.01960226 </v>
   <v>      -0.72739277      -0.26276989       1.03199455 </v>
   <v>       0.72175572      -0.41469725       0.27147459 </v>
   <v>      -0.07248274      -0.34532878       0.11204352 </v>
   <v>       0.04480915      -0.03640454      -0.10959297 </v>
   <v>       0.47941187       0.03102482       1.19135009 </v>
   <v>      -0.49661966       0.28186961      -0.98348543 </v>
   <v>      -0.01823956      -0.13606276       0.10054336 </v>
   <v>       0.37613615       0.13762762      -0.62985909 </v>
   <v>       0.27444908      -0.58816319      -0.15405353 </v>
   <v>      -0.02510144      -0.09081994      -0.10219542 </v>
   <v>       0.08985106      -0.68034536       1.31912967 </v>
   <v>       0.92260626      -1.04741229       0.50282515 </v>
   <v>       1.04164122      -0.65939143      -0.02096178 </v>
   <v>       0.52458510      -0.00016306      -0.15735820 </v>
   <v>       0.08003277      -0.20670659      -0.13568045 </v>
   <v>      -0.00749772      -0.01500699       0.25623236 </v>
   <v>       0.02651734       1.83822928      -1.43066825 </v>
   <v>       0.01036073       0.05314897       0.26747461 </v>
   <v>       0.46998371      -0.50684882       0.58775669 </v>
   <v>      -0.43687487       0.70615245      -0.13344265 </v>
   <v>       0.33120137       0.03491413       0.10028265 </v>
   <v>      -1.01372594       0.07249252       0.03841436 </v>
   <v>       0.22489437      -0.06081081       0.08595676 </v>
   <v>       0.00655301       0.23015054       0.38852566 </v>
   <v>       0.40925004       0.67815122       0.50736288 </v>
  </varray>
  <varray name="stress" >
   <v>     -26.30980504       3.75234948      -5.99431501 </v>
   <v>       3.75234924     -25.01072453       7.69828666 </v>
   <v>      -5.99431494       7.69828715     -20.69566854 </v>
  </varray>
  <energy>
   <i name="e_fr_energy">   -357.33096085 </i>
   <i name="e_wo_entrp">   -356.25616241 </i>
   <i name="e_0_energy">   -356.79356163 </i>
  </energy>
  <time name="totalsc">   78.90   79.19</time>
  <eigenvalues>
   <array>
    <dimension dim="1">band</dimension>
    <dimension dim="2">kpoint</dimension>
    <dimension dim="3">spin</dimension>
    <field>eigene</field>
    <field>occ</field>
    <set>
     <set comment="spin 1">
      <set comment="kpoint 1">
       <r>  -62.8209    1.0000 </r>
       <r>  -62.8178    1.0000 </r>
       <r>  -62.8117    1.0000 </r>
       <r>  -62.8091    1.0000 </r>
       <r>  -62.8078    1.0000 </r>
       <r>  -62.8048    1.0000 </r>
       <r>  -62.7907    1.0000 </r>
       <r>  -62.7871    1.0000 </r>
       <r>  -62.7854    1.0000 </r>
       <r>  -62.7742    1.0000 </r>
       <r>  -62.7742    1.0000 </r>
       <r>  -62.7734    1.0000 </r>
       <r>  -62.7721    1.0000 </r>
       <r>  -62.7718    1.0000 </r>
       <r>  -62.7675    1.0000 </r>
       <r>  -62.7619    1.0000 </r>
       <r>  -62.7603    1.0000 </r>
       <r>  -62.7585    1.0000 </r>
       <r>  -62.7582    1.0000 </r>
       <r>  -62.7518    1.0000 </r>
       <r>  -62.7474    1.0000 </r>
       <r>  -62.7470    1.0000 </r>
       <r>  -62.7455    1.0000 </r>
       <r>  -62.7445    1.0000 </r>
       <r>  -62.7399    1.0000 </r>
       <r>  -62.7399    1.0000 </r>
       <r>  -62.7392    1.0000 </r>
       <r>  -62.7360    1.0000 </r>
       <r>  -62.7321    1.0000 </r>
       <r>  -62.7297    1.0000 </r>
       <r>  -62.7177    1.0000 </r>
       <r>  -62.7157    1.0000 </r>
       <r>  -62.7144    1.0000 </r>
       <r>  -62.7102    1.0000 </r>
       <r>  -62.7082    1.0000 </r>
       <r>  -62.7052    1.0000 </r>
       <r>  -62.6925    1.0000 </r>
       <r>  -62.6867    1.0000 </r>
       <r>  -62.6848    1.0000 </r>
       <r>  -62.6572    1.0000 </r>
       <r>  -62.6571    1.0000 </r>
       <r>  -62.6334    1.0000 </r>
       <r>  -62.6171    1.0000 </r>
       <r>  -62.6108    1.0000 </r>
       <r>  -62.6085    1.0000 </r>
       <r>  -62.6045    1.0000 </r>
       <r>  -62.5964    1.0000 </r>
       <r>  -62.5955    1.0000 </r>
       <r>  -62.5734    1.0000 </r>
       <r>  -62.5714    1.0000 </r>
       <r>  -62.5639    1.0000 </r>
       <r>  -62.5544    1.0000 </r>
       <r>  -62.5534    1.0000 </r>
       <r>  -62.5487    1.0000 </r>
       <r>  -62.5443    1.0000 </r>
       <r>  -62.5344    1.0000 </r>
       <r>  -62.5339    1.0000 </r>
       <r>  -62.5285    1.0000 </r>
       <r>  -62.5211    1.0000 </r>
       <r>  -62.5164    1.0000 </r>
       <r>  -62.5066    1.0000 </r>
       <r>  -62.5005    1.0000 </r>
       <r>  -62.4966    1.0000 </r>
       <r>  -62.4764    1.0000 </r>
       <r>  -62.4762    1.0000 </r>
       <r>  -62.4704    1.0000 </r>
       <r>  -62.4637    1.0000 </r>
       <r>  -62.4472    1.0000 </r>
       <r>  -62.4430    1.0000 </r>
       <r>  -62.4425    1.0000 </r>
       <r>  -62.4399    1.0000 </r>
       <r>  -62.4030    1.0000 </r>
       <r>  -62.3953    1.0000 </r>
       <r>  -62.3888    1.0000 </r>
       <r>  -62.3767    1.0000 </r>
       <r>  -62.3643    1.0000 </r>
       <r>  -62.3541    1.0000 </r>
       <r>  -62.3524    1.0000 </r>
       <r>  -62.3390    1.0000 </r>
       <r>  -62.3368    1.0000 </r>
       <r>  -62.3366    1.0000 </r>
       <r>  -62.3112    1.0000 </r>
       <r>  -62.2745    1.0000 </r>
       <r>  -62.2503    1.0000 </r>
       <r>  -62.2350    1.0000 </r>
       <r>  -62.2114    1.0000 </r>
       <r>  -62.1823    1.0000 </r>
       <r>  -62.1279    1.0000 </r>
       <r>  -62.1122    1.0000 </r>
       <r>  -62.0509    1.0000 </r>
       <r>  -62.0434    1.0000 </r>
       <r>  -62.0402    1.0000 </r>
       <r>  -62.0144    1.0000 </r>
       <r>  -62.0100    1.0000 </r>
       <r>  -61.9716    1.0000 </r>
       <r>  -61.9616    1.0000 </r>
       <r>  -61.9553    1.0000 </r>
       <r>  -61.9187    1.0000 </r>
       <r>  -61.8931    1.0000 </r>
       <r>  -61.8905    1.0000 </r>
       <r>  -61.8385    1.0000 </r>
       <r>  -61.7508    1.0000 </r>
       <r>  -61.7296    1.0000 </r>
       <r>  -61.6090    1.0000 </r>
       <r>  -61.5890    1.0000 </r>
       <r>  -61.5356    1.0000 </r>
       <r>  -61.3232    1.0000 </r>
       <r>  -61.0472    1.0000 </r>
       <r>  -14.1196    1.0000 </r>
       <r>  -13.4686    1.0000 </r>
       <r>  -13.3112    1.0000 </r>
       <r>  -13.3003    1.0000 </r>
       <r>  -13.1385    1.0000 </r>
       <r>  -13.1161    1.0000 </r>
       <r>  -12.8987    1.0000 </r>
       <r>  -12.8794    1.0000 </r>
       <r>  -12.7897    1.0000 </r>
       <r>  -12.7490    1.0000 </r>
       <r>  -12.7273    1.0000 </r>
       <r>  -12.6394    1.0000 </r>
       <r>  -12.5808    1.0000 </r>
       <r>  -12.4210    1.0000 </r>
       <r>  -12.3420    1.0000 </r>
       <r>  -12.2827    1.0000 </r>
       <r>  -12.2558    1.0000 </r>
       <r>  -12.2330    1.0000 </r>
       <r>  -12.1963    1.0000 </r>
       <r>  -12.1072    1.0000 </r>
       <r>  -12.0272    1.0000 </r>
       <r>  -11.9800    1.0000 </r>
       <r>  -11.9699    1.0000 </r>
       <r>  -11.9452    1.0000 </r>
       <r>  -11.8382    1.0000 </r>
       <r>  -11.7662    1.0000 </r>
       <r>  -11.6385    1.0000 </r>
       <r>  -11.6193    1.0000 </r>
       <r>  -11.4207    1.0000 </r>
       <r>  -11.4102    1.0000 </r>
       <r>  -11.3443    1.0000 </r>
       <r>  -11.0065    1.0000 </r>
       <r>  -10.9867    1.0000 </r>
       <r>  -10.8815    1.0000 </r>
       <r>  -10.6406    1.0000 </r>
       <r>  -10.2356    1.0000 </r>
       <r>   -5.8623    1.0000 </r>
       <r>   -5.8249    1.0000 </r>
       <r>   -5.7655    1.0000 </r>
       <r>   -5.5293    1.0000 </r>
       <r>   -5.5242    1.0000 </r>
       <r>   -5.3276    1.0000 </r>
       <r>   -5.2864    1.0000 </r>
       <r>   -5.2556    1.0000 </r>
       <r>   -5.2118    1.0000 </r>
       <r>   -5.1004    1.0000 </r>
       <r>   -5.0328    1.0000 </r>
       <r>   -4.9994    1.0000 </r>
       <r>   -4.9709    1.0000 </r>
       <r>   -4.9628    1.0000 </r>
       <r>   -4.9382    1.0000 </r>
       <r>   -4.9104    1.0000 </r>
       <r>   -4.8708    1.0000 </r>
       <r>   -4.8037    1.0000 </r>
       <r>   -4.7490    1.0000 </r>
       <r>   -4.7011    1.0000 </r>
       <r>   -4.6974    1.0000 </r>
       <r>   -4.6565    1.0000 </r>
       <r>   -4.6349    1.0000 </r>
       <r>   -4.5668    1.0000 </r>
       <r>   -4.5172    1.0000 </r>
       <r>   -4.4861    1.0000 </r>
       <r>   -4.4135    1.0000 </r>
       <r>   -4.3930    1.0000 </r>
       <r>   -4.3340    1.0000 </r>
       <r>   -4.1954    1.0000 </r>
       <r>   -4.1638    1.0000 </r>
       <r>   -4.0931    1.0000 </r>
       <r>   -4.0565    1.0000 </r>
       <r>   -4.0344    1.0000 </r>
       <r>   -3.9975    1.0000 </r>
       <r>   -3.9199    1.0000 </r>
       <r>   -3.9059    1.0000 </r>
       <r>   -3.8048    1.0000 </r>
       <r>   -3.7279    1.0000 </r>
       <r>   -3.6790    1.0000 </r>
       <r>   -3.6336    1.0000 </r>
       <r>   -3.6141    1.0000 </r>
       <r>   -3.5465    1.0000 </r>
       <r>   -3.4739    1.0000 </r>
       <r>   -3.4478    1.0000 </r>
       <r>   -3.4304    1.0000 </r>
       <r>   -3.3494    1.0000 </r>
       <r>   -3.3196    1.0000 </r>
       <r>   -3.2881    1.0000 </r>
       <r>   -3.2700    1.0000 </r>
       <r>   -3.2529    1.0000 </r>
       <r>   -3.2345    1.0000 </r>
       <r>   -3.2268    1.0000 </r>
       <r>   -3.1847    1.0000 </r>
       <r>   -3.1274    1.0000 </r>
       <r>   -3.1139    1.0000 </r>
       <r>   -3.0648    1.0000 </r>
       <r>   -3.0449    1.0000 </r>
       <r>   -3.0225    1.0000 </r>
       <r>   -3.0050    1.0000 </r>
       <r>   -2.9753    1.0000 </r>
       <r>   -2.9609    1.0000 </r>
       <r>   -2.9247    1.0000 </r>
       <r>   -2.8785    1.0000 </r>
       <r>   -2.8525    1.0000 </r>
       <r>   -2.8263    1.0000 </r>
       <r>   -2.8157    1.0000 </r>
       <r>   -2.7906    1.0000 </r>
       <r>   -2.7675    1.0000 </r>
       <r>   -2.7496    1.0000 </r>
       <r>   -2.7310    1.0000 </r>
       <r>   -2.6987    1.0000 </r>
       <r>   -2.6835    1.0000 </r>
       <r>   -2.6506    1.0000 </r>
       <r>   -2.6227    1.0000 </r>
       <r>   -2.6084    1.0000 </r>
       <r>   -2.5685    1.0000 </r>
       <r>   -2.5199    1.0000 </r>
       <r>   -2.5081    1.0000 </r>
       <r>   -2.4702    1.0000 </r>
       <r>   -2.4578    1.0000 </r>
       <r>   -2.4105    1.0000 </r>
       <r>   -2.3852    1.0000 </r>
       <r>   -2.3554    1.0000 </r>
       <r>   -2.3228    1.0000 </r>
       <r>   -2.2764    1.0000 </r>
       <r>   -2.2276    1.0000 </r>
       <r>   -2.1978    1.0000 </r>
       <r>   -2.1642    1.0000 </r>
       <r>   -2.0937    1.0000 </r>
       <r>   -2.0619    1.0000 </r>
       <r>   -2.0238    1.0000 </r>
       <r>   -1.9403    1.0000 </r>
       <r>   -1.9159    1.0000 </r>
       <r>   -1.8598    1.0000 </r>
       <r>   -1.8259    1.0000 </r>
       <r>   -1.7794    1.0000 </r>
       <r>   -1.7318    1.0000 </r>
       <r>   -1.6903    1.0000 </r>
       <r>   -1.6598    1.0000 </r>
       <r>   -1.6078    1.0000 </r>
       <r>   -1.5379    1.0000 </r>
       <r>   -1.5286    1.0000 </r>
       <r>   -1.5047    1.0000 </r>
       <r>   -1.4883    1.0000 </r>
       <r>   -1.4204    1.0000 </r>
       <r>   -1.4010    1.0000 </r>
       <r>   -1.3714    1.0000 </r>
       <r>   -1.3483    1.0000 </r>
       <r>   -1.3283    1.0000 </r>
       <r>   -1.3004    1.0000 </r>
       <r>   -1.2900    1.0000 </r>
       <r>   -1.2440    1.0000 </r>
       <r>   -1.1885    1.0000 </r>
       <r>   -1.1639    1.0000 </r>
       <r>   -1.1334    1.0000 </r>
       <r>   -1.1182    1.0000 </r>
       <r>   -1.0912    1.0000 </r>
       <r>   -1.0761    1.0000 </r>
       <r>   -1.0409    1.0000 </r>
       <r>   -1.0379    1.0000 </r>
       <r>   -1.0066    1.0000 </r>
       <r>   -0.9925    1.0000 </r>
       <r>   -0.9609    1.0000 </r>
       <r>   -0.9272    1.0000 </r>
       <r>   -0.9202    1.0000 </r>
       <r>   -0.8924    1.0000 </r>
       <r>   -0.8795    1.0000 </r>
       <r>   -0.8657    1.0000 </r>
       <r>   -0.8369    1.0000 </r>
       <r>   -0.8320    1.0000 </r>
       <r>   -0.8158    1.0000 </r>
       <r>   -0.7795    1.0000 </r>
       <r>   -0.7625    1.0000 </r>
       <r>   -0.7426    1.0000 </r>
       <r>   -0.7251    1.0000 </r>
       <r>   -0.7150    1.0000 </r>
       <r>   -0.7074    1.0000 </r>
       <r>   -0.6770    1.0000 </r>
       <r>   -0.6684    1.0000 </r>
       <r>   -0.6512    1.0000 </r>
       <r>   -0.6338    1.0000 </r>
       <r>   -0.6169    1.0000 </r>
       <r>   -0.6137    1.0000 </r>
       <r>   -0.5931    1.0000 </r>
       <r>   -0.5849    1.0000 </r>
       <r>   -0.5476    1.0000 </r>
       <r>   -0.5357    1.0000 </r>
       <r>   -0.5230    1.0000 </r>
       <r>   -0.5012    1.0000 </r>
       <r>   -0.4932    1.0000 </r>
       <r>   -0.4761    1.0000 </r>
       <r>   -0.4709    1.0000 </r>
       <r>   -0.4597    1.0000 </r>
       <r>   -0.4523    1.0000 </r>
       <r>   -0.4415    1.0000 </r>
       <r>   -0.4298    1.0000 </r>
       <r>   -0.4161    1.0000 </r>
       <r>   -0.4075    1.0000 </r>
       <r>   -0.3938    1.0000 </r>
       <r>   -0.3924    1.0000 </r>
       <r>   -0.3661    1.0000 </r>
       <r>   -0.3548    1.0000 </r>
       <r>   -0.3496    1.0000 </r>
       <r>   -0.3351    1.0000 </r>
       <r>   -0.3319    1.0000 </r>
       <r>   -0.3220    1.0000 </r>
       <r>   -0.3030    1.0000 </r>
       <r>   -0.2957    1.0000 </r>
       <r>   -0.2787    1.0000 </r>
       <r>   -0.2724    1.0000 </r>
       <r>   -0.2567    1.0000 </r>
       <r>   -0.2461    1.0000 </r>
       <r>   -0.2404    1.0000 </r>
       <r>   -0.2266    1.0000 </r>
       <r>   -0.2211    1.0000 </r>
       <r>   -0.2042    1.0000 </r>
       <r>   -0.1958    1.0000 </r>
       <r>   -0.1814    1.0000 </r>
       <r>   -0.1704    1.0000 </r>
       <r>   -0.1565    1.0000 </r>
       <r>   -0.1530    1.0000 </r>
       <r>   -0.1447    1.0000 </r>
       <r>   -0.1377    1.0000 </r>
       <r>   -0.1313    1.0000 </r>
       <r>   -0.1156    1.0000 </r>
       <r>   -0.0915    1.0000 </r>
       <r>   -0.0889    1.0000 </r>
       <r>   -0.0807    1.0000 </r>
       <r>   -0.0580    1.0000 </r>
       <r>   -0.0473    1.0000 </r>
       <r>   -0.0449    1.0000 </r>
       <r>   -0.0238    1.0000 </r>
       <r>   -0.0120    1.0000 </r>
       <r>   -0.0023    1.0000 </r>
       <r>    0.0098    1.0000 </r>
       <r>    0.0224    1.0000 </r>
       <r>    0.0352    1.0000 </r>
       <r>    0.0475    1.0000 </r>
       <r>    0.0635    1.0000 </r>
       <r>    0.0722    1.0000 </r>
       <r>    0.0841    1.0000 </r>
       <r>    0.0970    1.0000 </r>
       <r>    0.1166    1.0000 </r>
       <r>    0.1536    1.0000 </r>
       <r>    0.1605    1.0000 </r>
       <r>    0.1728    1.0000 </r>
       <r>    0.1805    1.0000 </r>
       <r>    0.1918    1.0000 </r>
       <r>    0.2297    1.0000 </r>
       <r>    0.2397    1.0000 </r>
       <r>    0.2545    1.0000 </r>
       <r>    0.2733    1.0000 </r>
       <r>    0.2922    1.0000 </r>
       <r>    0.3117    1.0000 </r>
       <r>    0.3393    1.0000 </r>
       <r>    0.3514    1.0000 </r>
       <r>    0.3594    1.0000 </r>
       <r>    0.3871    1.0000 </r>
       <r>    0.3940    1.0000 </r>
       <r>    0.4152    1.0000 </r>
       <r>    0.4441    1.0000 </r>
       <r>    0.4566    1.0000 </r>
       <r>    0.4891    1.0000 </r>
       <r>    0.5057    1.0000 </r>
       <r>    0.5409    1.0000 </r>
       <r>    0.5757    1.0000 </r>
       <r>    0.5926    1.0000 </r>
       <r>    0.6049    1.0000 </r>
       <r>    0.6224    1.0000 </r>
       <r>    0.6415    1.0000 </r>
       <r>    0.6685    1.0000 </r>
       <r>    0.6898    1.0000 </r>
       <r>    0.7169    1.0000 </r>
       <r>    0.7536    1.0000 </r>
       <r>    0.7666    0.9999 </r>
       <r>    0.7973    0.9999 </r>
       <r>    0.8089    0.9998 </r>
       <r>    0.8296    0.9997 </r>
       <r>    0.8821    0.9987 </r>
       <r>    0.9302    0.9963 </r>
       <r>    0.9570    0.9936 </r>
       <r>    0.9974    0.9862 </r>
       <r>    1.0000    0.9856 </r>
       <r>    1.0555    0.9635 </r>
       <r>    1.0774    0.9493 </r>
       <r>    1.1280    0.8998 </r>
       <r>    1.1452    0.8766 </r>
       <r>    1.1518    0.8669 </r>
       <r>    1.2188    0.7384 </r>
       <r>    1.2501    0.6617 </r>
       <r>    1.2633    0.6270 </r>
       <r>    1.3480    0.3914 </r>
       <r>    1.3580    0.3645 </r>
       <r>    1.4016    0.2564 </r>
       <r>    1.4181    0.2203 </r>
       <r>    1.5067    0.0811 </r>
       <r>    1.5330    0.0566 </r>
       <r>    1.5547    0.0412 </r>
       <r>    1.5725    0.0312 </r>
       <r>    1.6417    0.0093 </r>
       <r>    1.7099    0.0023 </r>
       <r>    1.7388    0.0012 </r>
       <r>    1.7602    0.0007 </r>
       <r>    1.7669    0.0006 </r>
       <r>    1.8053    0.0002 </r>
       <r>    1.8340    0.0001 </r>
       <r>    1.8683    0.0000 </r>
       <r>    1.8960    0.0000 </r>
       <r>    1.9484    0.0000 </r>
       <r>    1.9592    0.0000 </r>
       <r>    1.9989    0.0000 </r>
       <r>    2.0488    0.0000 </r>
       <r>    2.0773    0.0000 </r>
       <r>    2.0949    0.0000 </r>
       <r>    2.1162    0.0000 </r>
       <r>    2.1581    0.0000 </r>
       <r>    2.1907    0.0000 </r>
       <r>    2.2294    0.0000 </r>
       <r>    2.2829    0.0000 </r>
       <r>    2.2967    0.0000 </r>
       <r>    2.3328    0.0000 </r>
       <r>    2.3352    0.0000 </r>
       <r>    2.3878    0.0000 </r>
       <r>    2.4204    0.0000 </r>
       <r>    2.4569    0.0000 </r>
       <r>    2.4908    0.0000 </r>
       <r>    2.5271    0.0000 </r>
       <r>    3.3277    0.0000 </r>
       <r>    3.5540    0.0000 </r>
       <r>    3.9224    0.0000 </r>
       <r>    4.1624    0.0000 </r>
       <r>    4.5004    0.0000 </r>
       <r>    4.5475    0.0000 </r>
       <r>    4.6469    0.0000 </r>
       <r>    4.6974    0.0000 </r>
       <r>    4.7971    0.0000 </r>
       <r>    4.8568    0.0000 </r>
       <r>    5.0324    0.0000 </r>
       <r>    5.1566    0.0000 </r>
       <r>    5.4277    0.0000 </r>
       <r>    5.4369    0.0000 </r>
       <r>    5.5735    0.0000 </r>
       <r>    5.6554    0.0000 </r>
       <r>    5.7155    0.0000 </r>
       <r>    5.7575    0.0000 </r>
       <r>    5.9359    0.0000 </r>
       <r>    5.9923    0.0000 </r>
       <r>    6.0229    0.0000 </r>
       <r>    6.0755    0.0000 </r>
       <r>    6.1578    0.0000 </r>
       <r>    6.2191    0.0000 </r>
       <r>    6.2792    0.0000 </r>
       <r>    6.4489    0.0000 </r>
       <r>    6.4672    0.0000 </r>
       <r>    6.5664    0.0000 </r>
       <r>    6.6031    0.0000 </r>
       <r>    6.6595    0.0000 </r>
       <r>    6.7008    0.0000 </r>
       <r>    6.7127    0.0000 </r>
       <r>    6.7619    0.0000 </r>
       <r>    6.8294    0.0000 </r>
       <r>    6.9486    0.0000 </r>
       <r>    7.0579    0.0000 </r>
       <r>    7.1209    0.0000 </r>
       <r>    7.1544    0.0000 </r>
       <r>    7.1799    0.0000 </r>
       <r>    7.2069    0.0000 </r>
       <r>    7.2546    0.0000 </r>
       <r>    7.2785    0.0000 </r>
       <r>    7.3103    0.0000 </r>
       <r>    7.4116    0.0000 </r>
       <r>    7.4366    0.0000 </r>
       <r>    7.4663    0.0000 </r>
       <r>    7.5047    0.0000 </r>
       <r>    7.5548    0.0000 </r>
      </set>
     </set>
    </set>
   </array>
  </eigenvalues>
  <separator name="orbital magnetization" >
   <v name="MAGDIPOLOUT">      0.00000000      0.00000000      0.00000000</v>
  </separator>
  <dos>
   <i name="efermi">      1.30904845 </i>
   <total>
    <array>
     <dimension dim="1">gridpoints</dimension>
     <dimension dim="2">spin</dimension>
     <field>energy</field>
     <field>total</field>
     <field>integrated</field>
     <set>
      <set comment="spin 1">
       <r>   -66.3397     0.0000     0.0000 </r>
       <r>   -66.0816     0.0000     0.0000 </r>
       <r>   -65.8236     0.0000     0.0000 </r>
       <r>   -65.5656     0.0000     0.0000 </r>
       <r>   -65.3075     0.0000     0.0000 </r>
       <r>   -65.0495     0.0000     0.0000 </r>
       <r>   -64.7914     0.0000     0.0000 </r>
       <r>   -64.5334     0.0000     0.0000 </r>
       <r>   -64.2753     0.0000     0.0000 </r>
       <r>   -64.0173     0.0000     0.0000 </r>
       <r>   -63.7592     0.0000     0.0000 </r>
       <r>   -63.5012     0.0000     0.0000 </r>
       <r>   -63.2432     0.1210     0.0312 </r>
       <r>   -62.9851    17.4792     4.5416 </r>
       <r>   -62.7271   184.2452    52.0851 </r>
       <r>   -62.4690   281.6343   124.7592 </r>
       <r>   -62.2110   165.9667   167.5860 </r>
       <r>   -61.9529    88.0785   190.3142 </r>
       <r>   -61.6949    55.9229   204.7448 </r>
       <r>   -61.4368    25.6494   211.3634 </r>
       <r>   -61.1788    10.3212   214.0268 </r>
       <r>   -60.9208     6.1905   215.6242 </r>
       <r>   -60.6627     1.4310   215.9934 </r>
       <r>   -60.4047     0.0254   216.0000 </r>
       <r>   -60.1466     0.0000   216.0000 </r>
       <r>   -59.8886     0.0000   216.0000 </r>
       <r>   -59.6305     0.0000   216.0000 </r>
       <r>   -59.3725     0.0000   216.0000 </r>
       <r>   -59.1144     0.0000   216.0000 </r>
       <r>   -58.8564     0.0000   216.0000 </r>
       <r>   -58.5984     0.0000   216.0000 </r>
       <r>   -58.3403     0.0000   216.0000 </r>
       <r>   -58.0823     0.0000   216.0000 </r>
       <r>   -57.8242     0.0000   216.0000 </r>
       <r>   -57.5662     0.0000   216.0000 </r>
       <r>   -57.3081     0.0000   216.0000 </r>
       <r>   -57.0501     0.0000   216.0000 </r>
       <r>   -56.7920     0.0000   216.0000 </r>
       <r>   -56.5340     0.0000   216.0000 </r>
       <r>   -56.2760     0.0000   216.0000 </r>
       <r>   -56.0179     0.0000   216.0000 </r>
       <r>   -55.7599     0.0000   216.0000 </r>
       <r>   -55.5018     0.0000   216.0000 </r>
       <r>   -55.2438     0.0000   216.0000 </r>
       <r>   -54.9857     0.0000   216.0000 </r>
       <r>   -54.7277     0.0000   216.0000 </r>
       <r>   -54.4696     0.0000   216.0000 </r>
       <r>   -54.2116     0.0000   216.0000 </r>
       <r>   -53.9536     0.0000   216.0000 </r>
       <r>   -53.6955     0.0000   216.0000 </r>
       <r>   -53.4375     0.0000   216.0000 </r>
       <r>   -53.1794     0.0000   216.0000 </r>
       <r>   -52.9214     0.0000   216.0000 </r>
       <r>   -52.6633     0.0000   216.0000 </r>
       <r>   -52.4053     0.0000   216.0000 </r>
       <r>   -52.1472     0.0000   216.0000 </r>
       <r>   -51.8892     0.0000   216.0000 </r>
       <r>   -51.6312     0.0000   216.0000 </r>
       <r>   -51.3731     0.0000   216.0000 </r>
       <r>   -51.1151     0.0000   216.0000 </r>
       <r>   -50.8570     0.0000   216.0000 </r>
       <r>   -50.5990     0.0000   216.0000 </r>
       <r>   -50.3409     0.0000   216.0000 </r>
       <r>   -50.0829     0.0000   216.0000 </r>
       <r>   -49.8249     0.0000   216.0000 </r>
       <r>   -49.5668     0.0000   216.0000 </r>
       <r>   -49.3088     0.0000   216.0000 </r>
       <r>   -49.0507     0.0000   216.0000 </r>
       <r>   -48.7927     0.0000   216.0000 </r>
       <r>   -48.5346     0.0000   216.0000 </r>
       <r>   -48.2766     0.0000   216.0000 </r>
       <r>   -48.0185     0.0000   216.0000 </r>
       <r>   -47.7605     0.0000   216.0000 </r>
       <r>   -47.5025     0.0000   216.0000 </r>
       <r>   -47.2444     0.0000   216.0000 </r>
       <r>   -46.9864     0.0000   216.0000 </r>
       <r>   -46.7283     0.0000   216.0000 </r>
       <r>   -46.4703     0.0000   216.0000 </r>
       <r>   -46.2122     0.0000   216.0000 </r>
       <r>   -45.9542     0.0000   216.0000 </r>
       <r>   -45.6961     0.0000   216.0000 </r>
       <r>   -45.4381     0.0000   216.0000 </r>
       <r>   -45.1801     0.0000   216.0000 </r>
       <r>   -44.9220     0.0000   216.0000 </r>
       <r>   -44.6640     0.0000   216.0000 </r>
       <r>   -44.4059     0.0000   216.0000 </r>
       <r>   -44.1479     0.0000   216.0000 </r>
       <r>   -43.8898     0.0000   216.0000 </r>
       <r>   -43.6318     0.0000   216.0000 </r>
       <r>   -43.3737     0.0000   216.0000 </r>
       <r>   -43.1157     0.0000   216.0000 </r>
       <r>   -42.8577     0.0000   216.0000 </r>
       <r>   -42.5996     0.0000   216.0000 </r>
       <r>   -42.3416     0.0000   216.0000 </r>
       <r>   -42.0835     0.0000   216.0000 </r>
       <r>   -41.8255     0.0000   216.0000 </r>
       <r>   -41.5674     0.0000   216.0000 </r>
       <r>   -41.3094     0.0000   216.0000 </r>
       <r>   -41.0513     0.0000   216.0000 </r>
       <r>   -40.7933     0.0000   216.0000 </r>
       <r>   -40.5353     0.0000   216.0000 </r>
       <r>   -40.2772     0.0000   216.0000 </r>
       <r>   -40.0192     0.0000   216.0000 </r>
       <r>   -39.7611     0.0000   216.0000 </r>
       <r>   -39.5031     0.0000   216.0000 </r>
       <r>   -39.2450     0.0000   216.0000 </r>
       <r>   -38.9870     0.0000   216.0000 </r>
       <r>   -38.7289     0.0000   216.0000 </r>
       <r>   -38.4709     0.0000   216.0000 </r>
       <r>   -38.2129     0.0000   216.0000 </r>
       <r>   -37.9548     0.0000   216.0000 </r>
       <r>   -37.6968     0.0000   216.0000 </r>
       <r>   -37.4387     0.0000   216.0000 </r>
       <r>   -37.1807     0.0000   216.0000 </r>
       <r>   -36.9226     0.0000   216.0000 </r>
       <r>   -36.6646     0.0000   216.0000 </r>
       <r>   -36.4065     0.0000   216.0000 </r>
       <r>   -36.1485     0.0000   216.0000 </r>
       <r>   -35.8905     0.0000   216.0000 </r>
       <r>   -35.6324     0.0000   216.0000 </r>
       <r>   -35.3744     0.0000   216.0000 </r>
       <r>   -35.1163     0.0000   216.0000 </r>
       <r>   -34.8583     0.0000   216.0000 </r>
       <r>   -34.6002     0.0000   216.0000 </r>
       <r>   -34.3422     0.0000   216.0000 </r>
       <r>   -34.0841     0.0000   216.0000 </r>
       <r>   -33.8261     0.0000   216.0000 </r>
       <r>   -33.5681     0.0000   216.0000 </r>
       <r>   -33.3100     0.0000   216.0000 </r>
       <r>   -33.0520     0.0000   216.0000 </r>
       <r>   -32.7939     0.0000   216.0000 </r>
       <r>   -32.5359     0.0000   216.0000 </r>
       <r>   -32.2778     0.0000   216.0000 </r>
       <r>   -32.0198     0.0000   216.0000 </r>
       <r>   -31.7617     0.0000   216.0000 </r>
       <r>   -31.5037     0.0000   216.0000 </r>
       <r>   -31.2457     0.0000   216.0000 </r>
       <r>   -30.9876     0.0000   216.0000 </r>
       <r>   -30.7296     0.0000   216.0000 </r>
       <r>   -30.4715     0.0000   216.0000 </r>
       <r>   -30.2135     0.0000   216.0000 </r>
       <r>   -29.9554     0.0000   216.0000 </r>
       <r>   -29.6974     0.0000   216.0000 </r>
       <r>   -29.4393     0.0000   216.0000 </r>
       <r>   -29.1813     0.0000   216.0000 </r>
       <r>   -28.9233     0.0000   216.0000 </r>
       <r>   -28.6652     0.0000   216.0000 </r>
       <r>   -28.4072     0.0000   216.0000 </r>
       <r>   -28.1491     0.0000   216.0000 </r>
       <r>   -27.8911     0.0000   216.0000 </r>
       <r>   -27.6330     0.0000   216.0000 </r>
       <r>   -27.3750     0.0000   216.0000 </r>
       <r>   -27.1169     0.0000   216.0000 </r>
       <r>   -26.8589     0.0000   216.0000 </r>
       <r>   -26.6009     0.0000   216.0000 </r>
       <r>   -26.3428     0.0000   216.0000 </r>
       <r>   -26.0848     0.0000   216.0000 </r>
       <r>   -25.8267     0.0000   216.0000 </r>
       <r>   -25.5687     0.0000   216.0000 </r>
       <r>   -25.3106     0.0000   216.0000 </r>
       <r>   -25.0526     0.0000   216.0000 </r>
       <r>   -24.7945     0.0000   216.0000 </r>
       <r>   -24.5365     0.0000   216.0000 </r>
       <r>   -24.2785     0.0000   216.0000 </r>
       <r>   -24.0204     0.0000   216.0000 </r>
       <r>   -23.7624     0.0000   216.0000 </r>
       <r>   -23.5043     0.0000   216.0000 </r>
       <r>   -23.2463     0.0000   216.0000 </r>
       <r>   -22.9882     0.0000   216.0000 </r>
       <r>   -22.7302     0.0000   216.0000 </r>
       <r>   -22.4721     0.0000   216.0000 </r>
       <r>   -22.2141     0.0000   216.0000 </r>
       <r>   -21.9561     0.0000   216.0000 </r>
       <r>   -21.6980     0.0000   216.0000 </r>
       <r>   -21.4400     0.0000   216.0000 </r>
       <r>   -21.1819     0.0000   216.0000 </r>
       <r>   -20.9239     0.0000   216.0000 </r>
       <r>   -20.6658     0.0000   216.0000 </r>
       <r>   -20.4078     0.0000   216.0000 </r>
       <r>   -20.1497     0.0000   216.0000 </r>
       <r>   -19.8917     0.0000   216.0000 </r>
       <r>   -19.6337     0.0000   216.0000 </r>
       <r>   -19.3756     0.0000   216.0000 </r>
       <r>   -19.1176     0.0000   216.0000 </r>
       <r>   -18.8595     0.0000   216.0000 </r>
       <r>   -18.6015     0.0000   216.0000 </r>
       <r>   -18.3434     0.0000   216.0000 </r>
       <r>   -18.0854     0.0000   216.0000 </r>
       <r>   -17.8273     0.0000   216.0000 </r>
       <r>   -17.5693     0.0000   216.0000 </r>
       <r>   -17.3113     0.0000   216.0000 </r>
       <r>   -17.0532     0.0000   216.0000 </r>
       <r>   -16.7952     0.0000   216.0000 </r>
       <r>   -16.5371     0.0000   216.0000 </r>
       <r>   -16.2791     0.0000   216.0000 </r>
       <r>   -16.0210     0.0000   216.0000 </r>
       <r>   -15.7630     0.0000   216.0000 </r>
       <r>   -15.5050     0.0000   216.0000 </r>
       <r>   -15.2469     0.0000   216.0000 </r>
       <r>   -14.9889     0.0000   216.0000 </r>
       <r>   -14.7308     0.0001   216.0000 </r>
       <r>   -14.4728     0.0484   216.0125 </r>
       <r>   -14.2147     1.8937   216.5012 </r>
       <r>   -13.9567     4.8444   217.7512 </r>
       <r>   -13.6986     1.3980   218.1120 </r>
       <r>   -13.4406     6.9012   219.8928 </r>
       <r>   -13.1826    18.5072   224.6685 </r>
       <r>   -12.9245    20.9033   230.0625 </r>
       <r>   -12.6665    29.4648   237.6657 </r>
       <r>   -12.4084    26.0379   244.3846 </r>
       <r>   -12.1504    34.9833   253.4119 </r>
       <r>   -11.8923    36.5391   262.8406 </r>
       <r>   -11.6343    26.4146   269.6567 </r>
       <r>   -11.3762    21.1602   275.1170 </r>
       <r>   -11.1182    13.8675   278.6954 </r>
       <r>   -10.8602    15.0092   282.5684 </r>
       <r>   -10.6021    10.0627   285.1651 </r>
       <r>   -10.3441     4.8125   286.4069 </r>
       <r>   -10.0860     5.0487   287.7097 </r>
       <r>    -9.8280     1.1097   287.9961 </r>
       <r>    -9.5699     0.0153   288.0000 </r>
       <r>    -9.3119     0.0000   288.0000 </r>
       <r>    -9.0538     0.0000   288.0000 </r>
       <r>    -8.7958     0.0000   288.0000 </r>
       <r>    -8.5378     0.0000   288.0000 </r>
       <r>    -8.2797     0.0000   288.0000 </r>
       <r>    -8.0217     0.0000   288.0000 </r>
       <r>    -7.7636     0.0000   288.0000 </r>
       <r>    -7.5056     0.0000   288.0000 </r>
       <r>    -7.2475     0.0000   288.0000 </r>
       <r>    -6.9895     0.0000   288.0000 </r>
       <r>    -6.7314     0.0000   288.0000 </r>
       <r>    -6.4734     0.0001   288.0000 </r>
       <r>    -6.2154     0.0766   288.0198 </r>
       <r>    -5.9573     3.9178   289.0307 </r>
       <r>    -5.6993    16.1457   293.1971 </r>
       <r>    -5.4412    18.1911   297.8912 </r>
       <r>    -5.1832    28.3884   305.2166 </r>
       <r>    -4.9251    44.7211   316.7567 </r>
       <r>    -4.6671    51.1196   329.9478 </r>
       <r>    -4.4090    43.6267   341.2054 </r>
       <r>    -4.1510    34.1480   350.0171 </r>
       <r>    -3.8930    38.6637   359.9941 </r>
       <r>    -3.6349    36.8116   369.4931 </r>
       <r>    -3.3769    47.0410   381.6318 </r>
       <r>    -3.1188    65.6752   398.5789 </r>
       <r>    -2.8608    74.2486   417.7383 </r>
       <r>    -2.6027    77.7868   437.8108 </r>
       <r>    -2.3447    65.2494   454.6480 </r>
       <r>    -2.0866    50.0604   467.5658 </r>
       <r>    -1.8286    43.7431   478.8535 </r>
       <r>    -1.5706    49.2355   491.5584 </r>
       <r>    -1.3125    63.0786   507.8355 </r>
       <r>    -1.0545    75.9537   527.4349 </r>
       <r>    -0.7964    98.2333   552.7835 </r>
       <r>    -0.5384   126.3659   585.3915 </r>
       <r>    -0.2803   164.1389   627.7466 </r>
       <r>    -0.0223   171.9951   672.1290 </r>
       <r>     0.2358   137.5885   707.6329 </r>
       <r>     0.4938   105.0544   734.7416 </r>
       <r>     0.7518    85.7824   756.8773 </r>
       <r>     1.0099    68.3311   774.5097 </r>
       <r>     1.2679    59.1162   789.7643 </r>
       <r>     1.5260    52.2534   803.2480 </r>
       <r>     1.7840    55.2846   817.5139 </r>
       <r>     2.0421    61.9247   833.4932 </r>
       <r>     2.3001    61.0546   849.2480 </r>
       <r>     2.5582    46.0345   861.1270 </r>
       <r>     2.8162    10.8144   863.9176 </r>
       <r>     3.0742     0.6049   864.0736 </r>
       <r>     3.3323     4.1436   865.1429 </r>
       <r>     3.5903     7.8101   867.1582 </r>
       <r>     3.8484     5.5465   868.5895 </r>
       <r>     4.1064     7.4277   870.5061 </r>
       <r>     4.3645     7.5119   872.4446 </r>
       <r>     4.6225    16.8546   876.7938 </r>
       <r>     4.8806    22.4736   882.5930 </r>
       <r>     5.1386    14.9857   886.4599 </r>
       <r>     5.3966    13.0046   889.8157 </r>
       <r>     5.6547    21.6724   895.4082 </r>
       <r>     5.9127    24.5009   901.7305 </r>
       <r>     6.1708    29.0918   909.2375 </r>
       <r>     6.4288    25.9942   915.9451 </r>
       <r>     6.6869    34.1250   924.7509 </r>
       <r>     6.9449    32.3993   933.1114 </r>
       <r>     7.2030    36.4912   942.5277 </r>
       <r>     7.4610    43.8613   953.8459 </r>
       <r>     7.7190    21.7877   959.4681 </r>
       <r>     7.9771     2.0452   959.9958 </r>
       <r>     8.2351     0.0162   960.0000 </r>
       <r>     8.4932     0.0000   960.0000 </r>
       <r>     8.7512     0.0000   960.0000 </r>
       <r>     9.0093     0.0000   960.0000 </r>
       <r>     9.2673     0.0000   960.0000 </r>
       <r>     9.5254     0.0000   960.0000 </r>
       <r>     9.7834     0.0000   960.0000 </r>
       <r>    10.0414     0.0000   960.0000 </r>
       <r>    10.2995     0.0000   960.0000 </r>
       <r>    10.5575     0.0000   960.0000 </r>
       <r>    10.8156     0.0000   960.0000 </r>
       <r>    11.0736     0.0000   960.0000 </r>
      </set>
     </set>
    </array>
   </total>
  </dos>
 </calculation>
 <structure name="finalpos" >
  <crystal>
   <varray name="basis" >
    <v>       9.42510255       3.57329804       0.00000000 </v>
    <v>       0.00000000      10.07973298       0.00000000 </v>
    <v>       0.00000000       0.00000000      20.51013988 </v>
   </varray>
   <i name="volume">   1948.51491473 </i>
   <varray name="rec_basis" >
    <v>       0.10609964       0.00000000       0.00000000 </v>
    <v>      -0.03761267       0.09920898       0.00000000 </v>
    <v>       0.00000000       0.00000000       0.04875637 </v>
   </varray>
  </crystal>
  <varray name="positions" >
   <v>       0.37433215       0.75136220       0.09511235 </v>
   <v>       0.52460066       0.60109368       0.22312232 </v>
   <v>       0.67486918       0.45082517       0.35113229 </v>
   <v>       0.82513769       0.30055666       0.47914226 </v>
   <v>       0.60748648       0.18487454       0.00977237 </v>
   <v>       0.75775499       0.03460603       0.13778234 </v>
   <v>       0.05829201       0.73406900       0.39380228 </v>
   <v>       0.90802350       0.88433751       0.26579231 </v>
   <v>       0.14117783       0.31784985       0.18045233 </v>
   <v>       0.29144634       0.16758134       0.30846230 </v>
   <v>       0.44171485       0.01731283       0.43647227 </v>
   <v>       0.99090931       0.46811837       0.05244236 </v>
   <v>       0.00994000       0.11575434       0.41150025 </v>
   <v>       0.55913447       0.56655988       0.02747034 </v>
   <v>       0.70940298       0.41629137       0.15548031 </v>
   <v>       0.85967149       0.26602286       0.28349028 </v>
   <v>       0.09282582       0.69953520       0.19815030 </v>
   <v>       0.24309433       0.54926668       0.32616027 </v>
   <v>       0.39336284       0.39899817       0.45417024 </v>
   <v>       0.94255730       0.84980371       0.07014033 </v>
   <v>       0.32598014       0.13304754       0.11281032 </v>
   <v>       0.47624865       0.98277903       0.24082029 </v>
   <v>       0.62651717       0.83251052       0.36883026 </v>
   <v>       0.77678568       0.68224200       0.49684023 </v>
   <v>       0.04964185       0.34025850       0.44532126 </v>
   <v>       0.59883631       0.79106404       0.06129134 </v>
   <v>       0.74910482       0.64079553       0.18930132 </v>
   <v>       0.89937333       0.49052701       0.31731129 </v>
   <v>       0.98225915       0.07430787       0.10396133 </v>
   <v>       0.13252766       0.92403935       0.23197131 </v>
   <v>       0.28279617       0.77377084       0.35998128 </v>
   <v>       0.43306468       0.62350233       0.48799125 </v>
   <v>       0.21541347       0.50782021       0.01862135 </v>
   <v>       0.36568198       0.35755170       0.14663132 </v>
   <v>       0.51595050       0.20728318       0.27464130 </v>
   <v>       0.66621901       0.05701467       0.40265127 </v>
   <v>       0.06382158       0.26208477       0.34135992 </v>
   <v>       0.76328455       0.56262179       0.08533998 </v>
   <v>       0.91355307       0.41235328       0.21334995 </v>
   <v>       0.14670739       0.84586562       0.12800997 </v>
   <v>       0.29697590       0.69559711       0.25601994 </v>
   <v>       0.44724442       0.54532860       0.38402991 </v>
   <v>       0.59751293       0.39506009       0.51203988 </v>
   <v>       0.99643888       0.99613414       0.00000000 </v>
   <v>       0.37986171       0.27937797       0.04266999 </v>
   <v>       0.53013023       0.12910945       0.17067996 </v>
   <v>       0.68039874       0.97884094       0.29868993 </v>
   <v>       0.83066725       0.82857243       0.42669990 </v>
   <v>       0.37769571       0.94821064       0.04346280 </v>
   <v>       0.52796422       0.79794212       0.17147277 </v>
   <v>       0.67823274       0.64767361       0.29948274 </v>
   <v>       0.82850125       0.49740510       0.42749271 </v>
   <v>       0.91138706       0.08118595       0.21414276 </v>
   <v>       0.06165557       0.93091744       0.34215273 </v>
   <v>       0.21192409       0.78064893       0.47016270 </v>
   <v>       0.14454139       0.51469829       0.12880278 </v>
   <v>       0.29480990       0.36442978       0.25681275 </v>
   <v>       0.44507841       0.21416127       0.38482272 </v>
   <v>       0.99427287       0.66496681       0.00079281 </v>
   <v>       0.32714088       0.66233547       0.00039640 </v>
   <v>       0.47740939       0.51206696       0.12840637 </v>
   <v>       0.62767790       0.36179845       0.25641634 </v>
   <v>       0.77794641       0.21152993       0.38442631 </v>
   <v>       0.92821492       0.06126142       0.51243628 </v>
   <v>       0.01110074       0.64504228       0.29908633 </v>
   <v>       0.16136925       0.49477376       0.42709630 </v>
   <v>       0.71056371       0.94557930       0.04306639 </v>
   <v>       0.86083223       0.79531079       0.17107636 </v>
   <v>       0.09398655       0.22882313       0.08573638 </v>
   <v>       0.24425506       0.07855462       0.21374635 </v>
   <v>       0.39452358       0.92828610       0.34175632 </v>
   <v>       0.54479209       0.77801759       0.46976629 </v>
  </varray>
 </structure>
</modeling>
