<?xml version="1.0" encoding="ISO-8859-1"?>
<modeling>
 <generator>
  <i name="program" type="string">vasp </i>
  <i name="version" type="string">6.1.0  </i>
  <i name="subversion" type="string">28Jan20 (build Mar 31 2020 17:42:31) gamma-only                       parallel </i>
  <i name="platform" type="string">LinuxIFC </i>
  <i name="date" type="string">2020 04 12 </i>
  <i name="time" type="string">00:20:10 </i>
 </generator>
 <incar>
  <i type="string" name="SYSTEM">"Millerite NiS"</i>
  <i type="int" name="NSIM">     4</i>
  <i type="int" name="NELM">   100</i>
  <i name="ENCUT">    450.00000000</i>
  <i type="string" name="LREAL">A</i>
  <i type="int" name="ISMEAR">     0</i>
  <i type="int" name="NWRITE">     2</i>
  <i type="logical" name="LWAVE"> F  </i>
  <i type="logical" name="LCHARG"> F  </i>
  <i type="int" name="NCORE">     6</i>
  <i type="int" name="NELM">   100</i>
 </incar>
 <structure name="primitive_cell" >
  <crystal>
   <varray name="basis" >
    <v>      10.06282034       5.04456212       0.00000000 </v>
    <v>       0.00000000      11.25646304       0.00000000 </v>
    <v>       0.00000000       0.00000000      21.74423184 </v>
   </varray>
   <i name="volume">   2463.00752351 </i>
   <varray name="rec_basis" >
    <v>       0.09937572       0.00000000       0.00000000 </v>
    <v>      -0.04453504       0.08883785       0.00000000 </v>
    <v>       0.00000000       0.00000000       0.04598921 </v>
   </varray>
  </crystal>
  <varray name="positions" >
   <v>       0.26092070       0.47878036       0.25332799 </v>
   <v>       0.35488056       0.38482049       0.38835497 </v>
   <v>       0.44884043       0.29086063       0.52338195 </v>
   <v>       0.16696083       0.07274024       0.11830101 </v>
   <v>       0.05611868       0.05147940       0.48770701 </v>
   <v>       0.27423907       0.33335899       0.08262607 </v>
   <v>       0.36819893       0.23939913       0.21765305 </v>
   <v>       0.46215880       0.14543926       0.35268003 </v>
   <v>       0.00030194       0.37150212       0.21765305 </v>
   <v>       0.09426181       0.27754226       0.35268003 </v>
   <v>       0.18822168       0.18358239       0.48770701 </v>
   <v>       0.40634206       0.46546199       0.08262607 </v>
   <v>       0.76092070       0.47878036       0.25332799 </v>
   <v>       0.85488056       0.38482049       0.38835497 </v>
   <v>       0.94884043       0.29086063       0.52338195 </v>
   <v>       0.66696083       0.07274024       0.11830101 </v>
   <v>       0.55611868       0.05147940       0.48770701 </v>
   <v>       0.77423907       0.33335899       0.08262607 </v>
   <v>       0.86819893       0.23939913       0.21765305 </v>
   <v>       0.96215880       0.14543926       0.35268003 </v>
   <v>       0.50030194       0.37150212       0.21765305 </v>
   <v>       0.59426181       0.27754226       0.35268003 </v>
   <v>       0.68822168       0.18358239       0.48770701 </v>
   <v>       0.90634206       0.46546199       0.08262607 </v>
   <v>       0.26092070       0.97878036       0.25332799 </v>
   <v>       0.35488056       0.88482049       0.38835497 </v>
   <v>       0.44884043       0.79086063       0.52338195 </v>
   <v>       0.16696083       0.57274024       0.11830101 </v>
   <v>       0.05611868       0.55147940       0.48770701 </v>
   <v>       0.27423907       0.83335899       0.08262607 </v>
   <v>       0.36819893       0.73939913       0.21765305 </v>
   <v>       0.46215880       0.64543926       0.35268003 </v>
   <v>       0.00030194       0.87150212       0.21765305 </v>
   <v>       0.09426181       0.77754226       0.35268003 </v>
   <v>       0.18822168       0.68358239       0.48770701 </v>
   <v>       0.40634206       0.96546199       0.08262607 </v>
   <v>       0.76092070       0.97878036       0.25332799 </v>
   <v>       0.85488056       0.88482049       0.38835497 </v>
   <v>       0.94884043       0.79086063       0.52338195 </v>
   <v>       0.66696083       0.57274024       0.11830101 </v>
   <v>       0.55611868       0.55147940       0.48770701 </v>
   <v>       0.77423907       0.83335899       0.08262607 </v>
   <v>       0.86819893       0.73939913       0.21765305 </v>
   <v>       0.96215880       0.64543926       0.35268003 </v>
   <v>       0.50030194       0.87150212       0.21765305 </v>
   <v>       0.59426181       0.77754226       0.35268003 </v>
   <v>       0.68822168       0.68358239       0.48770701 </v>
   <v>       0.90634206       0.96546199       0.08262607 </v>
   <v>       0.07287763       0.16682343       0.27005396 </v>
   <v>       0.16683750       0.07286357       0.40508094 </v>
   <v>       0.47891775       0.26078330       0.13502698 </v>
   <v>       0.26079737       0.47890369       0.54010792 </v>
   <v>       0.03023342       0.37768264       0.45050807 </v>
   <v>       0.43627354       0.47164251       0.31548109 </v>
   <v>       0.24835381       0.15956225       0.04542713 </v>
   <v>       0.34231368       0.06560239       0.18045411 </v>
   <v>       0.08013882       0.49134724       0.04542713 </v>
   <v>       0.17409868       0.39738738       0.18045411 </v>
   <v>       0.26805855       0.30342751       0.31548109 </v>
   <v>       0.36201842       0.20946764       0.45050807 </v>
   <v>       0.57287763       0.16682343       0.27005396 </v>
   <v>       0.66683750       0.07286357       0.40508094 </v>
   <v>       0.88495789       0.35474317       0.00000000 </v>
   <v>       0.97891775       0.26078330       0.13502698 </v>
   <v>       0.76079737       0.47890369       0.54010792 </v>
   <v>       0.53023342       0.37768264       0.45050807 </v>
   <v>       0.93627354       0.47164251       0.31548109 </v>
   <v>       0.84231368       0.06560239       0.18045411 </v>
   <v>       0.58013882       0.49134724       0.04542713 </v>
   <v>       0.67409868       0.39738738       0.18045411 </v>
   <v>       0.76805855       0.30342751       0.31548109 </v>
   <v>       0.86201842       0.20946764       0.45050807 </v>
   <v>       0.07287763       0.66682343       0.27005396 </v>
   <v>       0.16683750       0.57286357       0.40508094 </v>
   <v>       0.38495789       0.85474317       0.00000000 </v>
   <v>       0.47891775       0.76078330       0.13502698 </v>
   <v>       0.26079737       0.97890369       0.54010792 </v>
   <v>       0.03023342       0.87768264       0.45050807 </v>
   <v>       0.43627354       0.97164251       0.31548109 </v>
   <v>       0.34231368       0.56560239       0.18045411 </v>
   <v>       0.08013882       0.99134724       0.04542713 </v>
   <v>       0.17409868       0.89738738       0.18045411 </v>
   <v>       0.26805855       0.80342751       0.31548109 </v>
   <v>       0.36201842       0.70946764       0.45050807 </v>
   <v>       0.57287763       0.66682343       0.27005396 </v>
   <v>       0.66683750       0.57286357       0.40508094 </v>
   <v>       0.88495789       0.85474317       0.00000000 </v>
   <v>       0.97891775       0.76078330       0.13502698 </v>
   <v>       0.76079737       0.97890369       0.54010792 </v>
   <v>       0.53023342       0.87768264       0.45050807 </v>
   <v>       0.93627354       0.97164251       0.31548109 </v>
   <v>       0.84231368       0.56560239       0.18045411 </v>
   <v>       0.58013882       0.99134724       0.04542713 </v>
   <v>       0.67409868       0.89738738       0.18045411 </v>
   <v>       0.76805855       0.80342751       0.31548109 </v>
   <v>       0.86201842       0.70946764       0.45050807 </v>
  </varray>
 </structure>
 <varray name="primitive_index" >
  <v type="int" >        1 </v>
  <v type="int" >        2 </v>
  <v type="int" >        3 </v>
  <v type="int" >        4 </v>
  <v type="int" >        5 </v>
  <v type="int" >        6 </v>
  <v type="int" >        7 </v>
  <v type="int" >        8 </v>
  <v type="int" >        9 </v>
  <v type="int" >       10 </v>
  <v type="int" >       11 </v>
  <v type="int" >       12 </v>
  <v type="int" >       13 </v>
  <v type="int" >       14 </v>
  <v type="int" >       15 </v>
  <v type="int" >       16 </v>
  <v type="int" >       17 </v>
  <v type="int" >       18 </v>
  <v type="int" >       19 </v>
  <v type="int" >       20 </v>
  <v type="int" >       21 </v>
  <v type="int" >       22 </v>
  <v type="int" >       23 </v>
  <v type="int" >       24 </v>
  <v type="int" >       25 </v>
  <v type="int" >       26 </v>
  <v type="int" >       27 </v>
  <v type="int" >       28 </v>
  <v type="int" >       29 </v>
  <v type="int" >       30 </v>
  <v type="int" >       31 </v>
  <v type="int" >       32 </v>
  <v type="int" >       33 </v>
  <v type="int" >       34 </v>
  <v type="int" >       35 </v>
  <v type="int" >       36 </v>
  <v type="int" >       37 </v>
  <v type="int" >       38 </v>
  <v type="int" >       39 </v>
  <v type="int" >       40 </v>
  <v type="int" >       41 </v>
  <v type="int" >       42 </v>
  <v type="int" >       43 </v>
  <v type="int" >       44 </v>
  <v type="int" >       45 </v>
  <v type="int" >       46 </v>
  <v type="int" >       47 </v>
  <v type="int" >       48 </v>
  <v type="int" >       49 </v>
  <v type="int" >       50 </v>
  <v type="int" >       51 </v>
  <v type="int" >       52 </v>
  <v type="int" >       53 </v>
  <v type="int" >       54 </v>
  <v type="int" >       55 </v>
  <v type="int" >       56 </v>
  <v type="int" >       57 </v>
  <v type="int" >       58 </v>
  <v type="int" >       59 </v>
  <v type="int" >       60 </v>
  <v type="int" >       61 </v>
  <v type="int" >       62 </v>
  <v type="int" >       63 </v>
  <v type="int" >       64 </v>
  <v type="int" >       65 </v>
  <v type="int" >       66 </v>
  <v type="int" >       67 </v>
  <v type="int" >       68 </v>
  <v type="int" >       69 </v>
  <v type="int" >       70 </v>
  <v type="int" >       71 </v>
  <v type="int" >       72 </v>
  <v type="int" >       73 </v>
  <v type="int" >       74 </v>
  <v type="int" >       75 </v>
  <v type="int" >       76 </v>
  <v type="int" >       77 </v>
  <v type="int" >       78 </v>
  <v type="int" >       79 </v>
  <v type="int" >       80 </v>
  <v type="int" >       81 </v>
  <v type="int" >       82 </v>
  <v type="int" >       83 </v>
  <v type="int" >       84 </v>
  <v type="int" >       85 </v>
  <v type="int" >       86 </v>
  <v type="int" >       87 </v>
  <v type="int" >       88 </v>
  <v type="int" >       89 </v>
  <v type="int" >       90 </v>
  <v type="int" >       91 </v>
  <v type="int" >       92 </v>
  <v type="int" >       93 </v>
  <v type="int" >       94 </v>
  <v type="int" >       95 </v>
  <v type="int" >       96 </v>
 </varray>
 <kpoints>
  <generation param="Gamma">
   <v type="int" name="divisions">       1        1        1 </v>
   <v name="usershift">      0.00000000       0.00000000       0.00000000 </v>
   <v name="genvec1">      1.00000000       0.00000000       0.00000000 </v>
   <v name="genvec2">     -0.00000000       1.00000000       0.00000000 </v>
   <v name="genvec3">      0.00000000       0.00000000       1.00000000 </v>
   <v name="shift">      0.00000000       0.00000000       0.00000000 </v>
  </generation>
  <varray name="kpointlist" >
   <v>       0.00000000       0.00000000       0.00000000 </v>
  </varray>
  <varray name="weights" >
   <v>       1.00000000 </v>
  </varray>
 </kpoints>
 <parameters>
  <separator name="general" >
   <i type="string" name="SYSTEM">"Millerite NiS"</i>
   <i type="logical" name="LCOMPAT"> F  </i>
  </separator>
  <separator name="electronic" >
   <i type="string" name="PREC">normal</i>
   <i name="ENMAX">    450.00000000</i>
   <i name="ENAUG">    703.44300000</i>
   <i name="EDIFF">      0.00010000</i>
   <i type="int" name="IALGO">    38</i>
   <i type="int" name="IWAVPR">    10</i>
   <i type="int" name="NBANDS">   640</i>
   <i type="int" name="NBANDSLOW">    -1</i>
   <i type="int" name="NBANDSHIGH">    -1</i>
   <i name="NELECT">   1056.00000000</i>
   <i type="int" name="TURBO">     0</i>
   <i type="int" name="IRESTART">     0</i>
   <i type="int" name="NREBOOT">     0</i>
   <i type="int" name="NMIN">     0</i>
   <i name="EREF">      0.00000000</i>
   <separator name="electronic smearing" >
    <i type="int" name="ISMEAR">     0</i>
    <i name="SIGMA">      0.20000000</i>
    <i name="KSPACING">      0.50000000</i>
    <i type="logical" name="KGAMMA"> T  </i>
    <i type="logical" name="KBLOWUP"> T  </i>
   </separator>
   <separator name="electronic projectors" >
    <i type="logical" name="LREAL"> T  </i>
    <v name="ROPT">     -0.00050000     -0.00050000</v>
    <i type="int" name="LMAXPAW">  -100</i>
    <i type="int" name="LMAXMIX">     2</i>
    <i type="logical" name="NLSPLINE"> F  </i>
   </separator>
   <separator name="electronic startup" >
    <i type="int" name="ISTART">     0</i>
    <i type="int" name="ICHARG">     2</i>
    <i type="int" name="INIWAV">     1</i>
   </separator>
   <separator name="electronic spin" >
    <i type="int" name="ISPIN">     1</i>
    <i type="logical" name="LNONCOLLINEAR"> F  </i>
    <v name="MAGMOM">      1.00000000      1.00000000      1.00000000      1.00000000      1.00000000      1.00000000      1.00000000      1.00000000      1.00000000      1.00000000      1.00000000      1.00000000      1.00000000      1.00000000      1.00000000      1.00000000      1.00000000      1.00000000      1.00000000      1.00000000
      1.00000000      1.00000000      1.00000000      1.00000000      1.00000000      1.00000000      1.00000000      1.00000000      1.00000000      1.00000000      1.00000000      1.00000000      1.00000000      1.00000000      1.00000000      1.00000000      1.00000000      1.00000000      1.00000000      1.00000000
      1.00000000      1.00000000      1.00000000      1.00000000      1.00000000      1.00000000      1.00000000      1.00000000      1.00000000      1.00000000      1.00000000      1.00000000      1.00000000      1.00000000      1.00000000      1.00000000      1.00000000      1.00000000      1.00000000      1.00000000
      1.00000000      1.00000000      1.00000000      1.00000000      1.00000000      1.00000000      1.00000000      1.00000000      1.00000000      1.00000000      1.00000000      1.00000000      1.00000000      1.00000000      1.00000000      1.00000000      1.00000000      1.00000000      1.00000000      1.00000000
      1.00000000      1.00000000      1.00000000      1.00000000      1.00000000      1.00000000      1.00000000      1.00000000      1.00000000      1.00000000      1.00000000      1.00000000      1.00000000      1.00000000      1.00000000      1.00000000</v>
    <i name="NUPDOWN">     -1.00000000</i>
    <i type="logical" name="LSORBIT"> F  </i>
    <v name="SAXIS">      0.00000000      0.00000000      1.00000000</v>
    <i type="logical" name="LSPIRAL"> F  </i>
    <v name="QSPIRAL">      0.00000000      0.00000000      0.00000000</v>
    <i type="logical" name="LZEROZ"> F  </i>
   </separator>
   <separator name="electronic exchange-correlation" >
    <i type="logical" name="LASPH"> F  </i>
    <i type="logical" name="LMETAGGA"> F  </i>
   </separator>
   <separator name="electronic convergence" >
    <i type="int" name="NELM">   100</i>
    <i type="int" name="NELMDL">    -5</i>
    <i type="int" name="NELMIN">     2</i>
    <i name="ENINI">    450.00000000</i>
    <separator name="electronic convergence detail" >
     <i type="logical" name="LDIAG"> T  </i>
     <i type="logical" name="LSUBROT"> F  </i>
     <i name="WEIMIN">      0.00000000</i>
     <i name="EBREAK">      0.00000004</i>
     <i name="DEPER">      0.30000000</i>
     <i type="int" name="NRMM">     4</i>
     <i name="TIME">      0.40000000</i>
    </separator>
   </separator>
   <separator name="electronic mixer" >
    <i name="AMIX">      0.40000000</i>
    <i name="BMIX">      1.00000000</i>
    <i name="AMIN">      0.10000000</i>
    <i name="AMIX_MAG">      1.60000000</i>
    <i name="BMIX_MAG">      1.00000000</i>
    <separator name="electronic mixer details" >
     <i type="int" name="IMIX">     4</i>
     <i type="logical" name="MIXFIRST"> F  </i>
     <i type="int" name="MAXMIX">   -45</i>
     <i name="WC">    100.00000000</i>
     <i type="int" name="INIMIX">     1</i>
     <i type="int" name="MIXPRE">     1</i>
     <i type="int" name="MREMOVE">     5</i>
    </separator>
   </separator>
   <separator name="electronic dipolcorrection" >
    <i type="logical" name="LDIPOL"> F  </i>
    <i type="logical" name="LMONO"> F  </i>
    <i type="int" name="IDIPOL">     0</i>
    <i name="EPSILON">      1.00000000</i>
    <v name="DIPOL">   -100.00000000   -100.00000000   -100.00000000</v>
    <i name="EFIELD">      0.00000000</i>
   </separator>
  </separator>
  <separator name="grids" >
   <i type="int" name="NGX">    60</i>
   <i type="int" name="NGY">    60</i>
   <i type="int" name="NGZ">   120</i>
   <i type="int" name="NGXF">   120</i>
   <i type="int" name="NGYF">   120</i>
   <i type="int" name="NGZF">   240</i>
   <i type="logical" name="ADDGRID"> F  </i>
  </separator>
  <separator name="ionic" >
   <i type="int" name="NSW">     0</i>
   <i type="int" name="IBRION">    -1</i>
   <i type="int" name="MDALGO">     0</i>
   <i type="int" name="ISIF">     2</i>
   <i name="PSTRESS">      0.00000000</i>
   <i name="EDIFFG">      0.00100000</i>
   <i type="int" name="NFREE">     0</i>
   <i name="POTIM">      0.50000000</i>
   <i name="SMASS">     -3.00000000</i>
   <i name="SCALEE">      1.00000000</i>
  </separator>
  <separator name="ionic md" >
   <i name="TEBEG">      0.00010000</i>
   <i name="TEEND">      0.00010000</i>
   <i type="int" name="NBLOCK">     1</i>
   <i type="int" name="KBLOCK">     1</i>
   <i type="int" name="NPACO">   256</i>
   <i name="APACO">     16.00000000</i>
  </separator>
  <separator name="symmetry" >
   <i type="int" name="ISYM">     2</i>
   <i name="SYMPREC">      0.00001000</i>
  </separator>
  <separator name="dos" >
   <i type="int" name="LORBIT">     0</i>
   <v name="RWIGS">     -1.00000000     -1.00000000</v>
   <i type="int" name="NEDOS">   301</i>
   <i name="EMIN">     10.00000000</i>
   <i name="EMAX">    -10.00000000</i>
   <i name="EFERMI">      0.00000000</i>
  </separator>
  <separator name="writing" >
   <i type="int" name="NWRITE">     2</i>
   <i type="logical" name="LWAVE"> F  </i>
   <i type="logical" name="LDOWNSAMPLE"> F  </i>
   <i type="logical" name="LCHARG"> F  </i>
   <i type="logical" name="LPARD"> F  </i>
   <i type="logical" name="LVTOT"> F  </i>
   <i type="logical" name="LVHAR"> F  </i>
   <i type="logical" name="LELF"> F  </i>
   <i type="logical" name="LOPTICS"> F  </i>
   <v name="STM">      0.00000000      0.00000000      0.00000000      0.00000000      0.00000000      0.00000000      0.00000000</v>
  </separator>
  <separator name="performance" >
   <i type="int" name="NPAR">     8</i>
   <i type="int" name="NSIM">     4</i>
   <i type="int" name="NBLK">    -1</i>
   <i type="logical" name="LPLANE"> T  </i>
   <i type="logical" name="LSCALAPACK"> T  </i>
   <i type="logical" name="LSCAAWARE"> F  </i>
   <i type="logical" name="LSCALU"> F  </i>
   <i type="logical" name="LASYNC"> F  </i>
   <i type="logical" name="LORBITALREAL"> F  </i>
  </separator>
  <separator name="miscellaneous" >
   <i type="int" name="IDIOT">     3</i>
   <i type="int" name="PHON_NSTRUCT">    -1</i>
   <i type="logical" name="LMUSIC"> F  </i>
   <v name="POMASS">     58.69000000     32.06600000</v>
   <v name="DARWINR">      0.00000000      0.00000000</v>
   <v name="DARWINV">      1.00000000      1.00000000</v>
   <i type="logical" name="LCORR"> T  </i>
  </separator>
  <i type="logical" name="GGA_COMPAT"> T  </i>
  <i type="logical" name="LBERRY"> F  </i>
  <i type="int" name="ICORELEVEL">     0</i>
  <i type="logical" name="LDAU"> F  </i>
  <i type="int" name="I_CONSTRAINED_M">     0</i>
  <separator name="electronic exchange-correlation" >
   <i type="string" name="GGA">--</i>
   <i type="int" name="VOSKOWN">     0</i>
   <i type="logical" name="LHFCALC"> F  </i>
   <i type="string" name="PRECFOCK"></i>
   <i type="logical" name="LSYMGRAD"> F  </i>
   <i type="logical" name="LHFONE"> F  </i>
   <i type="logical" name="LRHFCALC"> F  </i>
   <i type="logical" name="LTHOMAS"> F  </i>
   <i type="logical" name="LMODELHF"> F  </i>
   <i type="logical" name="LFOCKACE"> F  </i>
   <i name="ENCUT4O">     -1.00000000</i>
   <i type="int" name="EXXOEP">     0</i>
   <i type="int" name="FOURORBIT">     0</i>
   <i name="AEXX">      0.00000000</i>
   <i name="HFALPHA">      0.00000000</i>
   <i name="MCALPHA">      0.00000000</i>
   <i name="ALDAX">      1.00000000</i>
   <i name="AGGAX">      1.00000000</i>
   <i name="ALDAC">      1.00000000</i>
   <i name="AGGAC">      1.00000000</i>
   <i type="int" name="NKREDX">     1</i>
   <i type="int" name="NKREDY">     1</i>
   <i type="int" name="NKREDZ">     1</i>
   <i type="logical" name="SHIFTRED"> F  </i>
   <i type="logical" name="ODDONLY"> F  </i>
   <i type="logical" name="EVENONLY"> F  </i>
   <i type="int" name="LMAXFOCK">     0</i>
   <i type="int" name="NMAXFOCKAE">     0</i>
   <i type="logical" name="LFOCKAEDFT"> F  </i>
   <i name="HFSCREEN">      0.00000000</i>
   <i name="HFSCREENC">      0.00000000</i>
   <i type="int" name="NBANDSGWLOW">     0</i>
  </separator>
  <separator name="vdW DFT" >
   <i type="logical" name="LUSE_VDW"> F  </i>
   <i name="Zab_VDW">     -0.84910000</i>
   <i name="PARAM1">      0.12340000</i>
   <i name="PARAM2">      1.00000000</i>
   <i name="PARAM3">      0.00000000</i>
  </separator>
  <separator name="model GW" >
   <i type="int" name="MODEL_GW">     0</i>
   <i name="MODEL_EPS0">     15.39379702</i>
   <i name="MODEL_ALPHA">      1.00000000</i>
  </separator>
  <separator name="linear response parameters" >
   <i type="logical" name="LEPSILON"> F  </i>
   <i type="logical" name="LRPA"> F  </i>
   <i type="logical" name="LNABLA"> F  </i>
   <i type="logical" name="LVEL"> F  </i>
   <i type="int" name="KINTER">     0</i>
   <i name="CSHIFT">      0.10000000</i>
   <i name="OMEGAMAX">     -1.00000000</i>
   <i name="DEG_THRESHOLD">      0.00200000</i>
   <i name="RTIME">     -0.10000000</i>
   <i name="WPLASMAI">      0.00000000</i>
   <v name="DFIELD">      0.00000000      0.00000000      0.00000000</v>
   <v name="WPLASMA">      0.00000000      0.00000000      0.00000000      0.00000000      0.00000000      0.00000000      0.00000000      0.00000000      0.00000000</v>
  </separator>
  <separator name="orbital magnetization" >
   <i type="logical" name="NUCIND"> F  </i>
   <v name="MAGPOS">      0.00000000      0.00000000      0.00000000</v>
   <i type="logical" name="LNICSALL"> T  </i>
   <i type="logical" name="ORBITALMAG"> F  </i>
   <i type="logical" name="LMAGBLOCH"> F  </i>
   <i type="logical" name="LCHIMAG"> F  </i>
   <i type="logical" name="LGAUGE"> T  </i>
   <i type="int" name="MAGATOM">     0</i>
   <v name="MAGDIPOL">      0.00000000      0.00000000      0.00000000</v>
   <v name="AVECCONST">      0.00000000      0.00000000      0.00000000</v>
  </separator>
  <separator name="response functions" >
   <i type="logical" name="LFINITE_TEMPERATURE"> F  </i>
   <i type="logical" name="LADDER"> F  </i>
   <i type="logical" name="LRPAFORCE"> F  </i>
   <i type="logical" name="LFXC"> F  </i>
   <i type="logical" name="LHARTREE"> T  </i>
   <i type="int" name="IBSE">     0</i>
   <v type="int" name="KPOINT">    -1     0     0     0</v>
   <i type="logical" name="LTCTC"> F  </i>
   <i type="logical" name="LTCTE"> F  </i>
   <i type="logical" name="LTETE"> F  </i>
   <i type="logical" name="LTRIPLET"> F  </i>
   <i type="logical" name="LFXCEPS"> F  </i>
   <i type="logical" name="LFXHEG"> F  </i>
   <i type="int" name="NATURALO">     2</i>
   <i type="logical" name="LHOLEGF"> F  </i>
   <i type="logical" name="L2ORDER"> F  </i>
   <i type="logical" name="LDMP1"> F  </i>
   <i type="logical" name="LMP2LT"> F  </i>
   <i type="logical" name="LSMP2LT"> F  </i>
   <i type="logical" name="LGWLF"> F  </i>
   <i name="ENCUTGW">     -2.00000000</i>
   <i name="ENCUTGWSOFT">     -2.00000000</i>
   <i name="ENCUTLF">     -1.00000000</i>
   <i type="logical" name="LESF_SPLINES"> F  </i>
   <i type="int" name="LMAXMP2">    -1</i>
   <i name="SCISSOR">      0.00000000</i>
   <i type="int" name="NOMEGA">     0</i>
   <i type="int" name="NOMEGAR">     0</i>
   <i type="int" name="NBANDSGW">    -1</i>
   <i type="int" name="NBANDSO">    -1</i>
   <i type="int" name="NBANDSV">    -1</i>
   <i type="int" name="NELM">   100</i>
   <i type="int" name="NELMHF">     1</i>
   <i type="int" name="DIM">     3</i>
   <i type="int" name="IESPILON">     4</i>
   <i type="int" name="ANTIRES">     0</i>
   <i name="OMEGAMAX">    -30.00000000</i>
   <i name="OMEGAMIN">    -30.00000000</i>
   <i name="OMEGATL">   -200.00000000</i>
   <i type="int" name="OMEGAGRID">     0</i>
   <i name="CSHIFT">     -0.10000000</i>
   <i type="logical" name="LSELFENERGY"> F  </i>
   <i type="logical" name="LSPECTRAL"> F  </i>
   <i type="logical" name="LSPECTRALGW"> F  </i>
   <i type="logical" name="LSINGLES"> F  </i>
   <i type="logical" name="LFERMIGW"> F  </i>
   <i type="logical" name="ODDONLYGW"> F  </i>
   <i type="logical" name="EVENONLYGW"> F  </i>
   <i type="int" name="NKREDLFX">     1</i>
   <i type="int" name="NKREDLFY">     1</i>
   <i type="int" name="NKREDLFZ">     1</i>
   <i type="int" name="MAXMEM">  2800</i>
   <i type="int" name="TELESCOPE">     0</i>
   <i type="int" name="NTAUPAR">    -1</i>
   <i type="int" name="NOMEGAPAR">    -1</i>
   <i name="LAMBDA">      1.00000000</i>
  </separator>
  <separator name="External order field" >
   <i name="OFIELD_KAPPA">      0.00000000</i>
   <v name="OFIELD_K">      0.00000000      0.00000000      0.00000000</v>
   <i name="OFIELD_Q6_NEAR">      0.00000000</i>
   <i name="OFIELD_Q6_FAR">      0.00000000</i>
   <i name="OFIELD_A">      0.00000000</i>
  </separator>
 </parameters>
 <atominfo>
  <atoms>      96 </atoms>
  <types>       2 </types>
  <array name="atoms" >
   <dimension dim="1">ion</dimension>
   <field type="string">element</field>
   <field type="int">atomtype</field>
   <set>
    <rc><c>Ni</c><c>   1</c></rc>
    <rc><c>Ni</c><c>   1</c></rc>
    <rc><c>Ni</c><c>   1</c></rc>
    <rc><c>Ni</c><c>   1</c></rc>
    <rc><c>Ni</c><c>   1</c></rc>
    <rc><c>Ni</c><c>   1</c></rc>
    <rc><c>Ni</c><c>   1</c></rc>
    <rc><c>Ni</c><c>   1</c></rc>
    <rc><c>Ni</c><c>   1</c></rc>
    <rc><c>Ni</c><c>   1</c></rc>
    <rc><c>Ni</c><c>   1</c></rc>
    <rc><c>Ni</c><c>   1</c></rc>
    <rc><c>Ni</c><c>   1</c></rc>
    <rc><c>Ni</c><c>   1</c></rc>
    <rc><c>Ni</c><c>   1</c></rc>
    <rc><c>Ni</c><c>   1</c></rc>
    <rc><c>Ni</c><c>   1</c></rc>
    <rc><c>Ni</c><c>   1</c></rc>
    <rc><c>Ni</c><c>   1</c></rc>
    <rc><c>Ni</c><c>   1</c></rc>
    <rc><c>Ni</c><c>   1</c></rc>
    <rc><c>Ni</c><c>   1</c></rc>
    <rc><c>Ni</c><c>   1</c></rc>
    <rc><c>Ni</c><c>   1</c></rc>
    <rc><c>Ni</c><c>   1</c></rc>
    <rc><c>Ni</c><c>   1</c></rc>
    <rc><c>Ni</c><c>   1</c></rc>
    <rc><c>Ni</c><c>   1</c></rc>
    <rc><c>Ni</c><c>   1</c></rc>
    <rc><c>Ni</c><c>   1</c></rc>
    <rc><c>Ni</c><c>   1</c></rc>
    <rc><c>Ni</c><c>   1</c></rc>
    <rc><c>Ni</c><c>   1</c></rc>
    <rc><c>Ni</c><c>   1</c></rc>
    <rc><c>Ni</c><c>   1</c></rc>
    <rc><c>Ni</c><c>   1</c></rc>
    <rc><c>Ni</c><c>   1</c></rc>
    <rc><c>Ni</c><c>   1</c></rc>
    <rc><c>Ni</c><c>   1</c></rc>
    <rc><c>Ni</c><c>   1</c></rc>
    <rc><c>Ni</c><c>   1</c></rc>
    <rc><c>Ni</c><c>   1</c></rc>
    <rc><c>Ni</c><c>   1</c></rc>
    <rc><c>Ni</c><c>   1</c></rc>
    <rc><c>Ni</c><c>   1</c></rc>
    <rc><c>Ni</c><c>   1</c></rc>
    <rc><c>Ni</c><c>   1</c></rc>
    <rc><c>Ni</c><c>   1</c></rc>
    <rc><c>S </c><c>   2</c></rc>
    <rc><c>S </c><c>   2</c></rc>
    <rc><c>S </c><c>   2</c></rc>
    <rc><c>S </c><c>   2</c></rc>
    <rc><c>S </c><c>   2</c></rc>
    <rc><c>S </c><c>   2</c></rc>
    <rc><c>S </c><c>   2</c></rc>
    <rc><c>S </c><c>   2</c></rc>
    <rc><c>S </c><c>   2</c></rc>
    <rc><c>S </c><c>   2</c></rc>
    <rc><c>S </c><c>   2</c></rc>
    <rc><c>S </c><c>   2</c></rc>
    <rc><c>S </c><c>   2</c></rc>
    <rc><c>S </c><c>   2</c></rc>
    <rc><c>S </c><c>   2</c></rc>
    <rc><c>S </c><c>   2</c></rc>
    <rc><c>S </c><c>   2</c></rc>
    <rc><c>S </c><c>   2</c></rc>
    <rc><c>S </c><c>   2</c></rc>
    <rc><c>S </c><c>   2</c></rc>
    <rc><c>S </c><c>   2</c></rc>
    <rc><c>S </c><c>   2</c></rc>
    <rc><c>S </c><c>   2</c></rc>
    <rc><c>S </c><c>   2</c></rc>
    <rc><c>S </c><c>   2</c></rc>
    <rc><c>S </c><c>   2</c></rc>
    <rc><c>S </c><c>   2</c></rc>
    <rc><c>S </c><c>   2</c></rc>
    <rc><c>S </c><c>   2</c></rc>
    <rc><c>S </c><c>   2</c></rc>
    <rc><c>S </c><c>   2</c></rc>
    <rc><c>S </c><c>   2</c></rc>
    <rc><c>S </c><c>   2</c></rc>
    <rc><c>S </c><c>   2</c></rc>
    <rc><c>S </c><c>   2</c></rc>
    <rc><c>S </c><c>   2</c></rc>
    <rc><c>S </c><c>   2</c></rc>
    <rc><c>S </c><c>   2</c></rc>
    <rc><c>S </c><c>   2</c></rc>
    <rc><c>S </c><c>   2</c></rc>
    <rc><c>S </c><c>   2</c></rc>
    <rc><c>S </c><c>   2</c></rc>
    <rc><c>S </c><c>   2</c></rc>
    <rc><c>S </c><c>   2</c></rc>
    <rc><c>S </c><c>   2</c></rc>
    <rc><c>S </c><c>   2</c></rc>
    <rc><c>S </c><c>   2</c></rc>
    <rc><c>S </c><c>   2</c></rc>
   </set>
  </array>
  <array name="atomtypes" >
   <dimension dim="1">type</dimension>
   <field type="int">atomspertype</field>
   <field type="string">element</field>
   <field>mass</field>
   <field>valence</field>
   <field type="string">pseudopotential</field>
   <set>
    <rc><c>  48</c><c>Ni</c><c>     58.69000000</c><c>     16.00000000</c><c>  PAW_PBE Ni_pv 06Sep2000               </c></rc>
    <rc><c>  48</c><c>S </c><c>     32.06600000</c><c>      6.00000000</c><c>  PAW_PBE S 06Sep2000                   </c></rc>
   </set>
  </array>
 </atominfo>
 <structure name="initialpos" >
  <crystal>
   <varray name="basis" >
    <v>      10.06282034       5.04456212       0.00000000 </v>
    <v>       0.00000000      11.25646304       0.00000000 </v>
    <v>       0.00000000       0.00000000      21.74423184 </v>
   </varray>
   <i name="volume">   2463.00752351 </i>
   <varray name="rec_basis" >
    <v>       0.09937572       0.00000000       0.00000000 </v>
    <v>      -0.04453504       0.08883785       0.00000000 </v>
    <v>       0.00000000       0.00000000       0.04598921 </v>
   </varray>
  </crystal>
  <varray name="positions" >
   <v>       0.26092070       0.47878036       0.25332799 </v>
   <v>       0.35488056       0.38482049       0.38835497 </v>
   <v>       0.44884043       0.29086063       0.52338195 </v>
   <v>       0.16696083       0.07274024       0.11830101 </v>
   <v>       0.05611868       0.05147940       0.48770701 </v>
   <v>       0.27423907       0.33335899       0.08262607 </v>
   <v>       0.36819893       0.23939913       0.21765305 </v>
   <v>       0.46215880       0.14543926       0.35268003 </v>
   <v>       0.00030194       0.37150212       0.21765305 </v>
   <v>       0.09426181       0.27754226       0.35268003 </v>
   <v>       0.18822168       0.18358239       0.48770701 </v>
   <v>       0.40634206       0.46546199       0.08262607 </v>
   <v>       0.76092070       0.47878036       0.25332799 </v>
   <v>       0.85488056       0.38482049       0.38835497 </v>
   <v>       0.94884043       0.29086063       0.52338195 </v>
   <v>       0.66696083       0.07274024       0.11830101 </v>
   <v>       0.55611868       0.05147940       0.48770701 </v>
   <v>       0.77423907       0.33335899       0.08262607 </v>
   <v>       0.86819893       0.23939913       0.21765305 </v>
   <v>       0.96215880       0.14543926       0.35268003 </v>
   <v>       0.50030194       0.37150212       0.21765305 </v>
   <v>       0.59426181       0.27754226       0.35268003 </v>
   <v>       0.68822168       0.18358239       0.48770701 </v>
   <v>       0.90634206       0.46546199       0.08262607 </v>
   <v>       0.26092070       0.97878036       0.25332799 </v>
   <v>       0.35488056       0.88482049       0.38835497 </v>
   <v>       0.44884043       0.79086063       0.52338195 </v>
   <v>       0.16696083       0.57274024       0.11830101 </v>
   <v>       0.05611868       0.55147940       0.48770701 </v>
   <v>       0.27423907       0.83335899       0.08262607 </v>
   <v>       0.36819893       0.73939913       0.21765305 </v>
   <v>       0.46215880       0.64543926       0.35268003 </v>
   <v>       0.00030194       0.87150212       0.21765305 </v>
   <v>       0.09426181       0.77754226       0.35268003 </v>
   <v>       0.18822168       0.68358239       0.48770701 </v>
   <v>       0.40634206       0.96546199       0.08262607 </v>
   <v>       0.76092070       0.97878036       0.25332799 </v>
   <v>       0.85488056       0.88482049       0.38835497 </v>
   <v>       0.94884043       0.79086063       0.52338195 </v>
   <v>       0.66696083       0.57274024       0.11830101 </v>
   <v>       0.55611868       0.55147940       0.48770701 </v>
   <v>       0.77423907       0.83335899       0.08262607 </v>
   <v>       0.86819893       0.73939913       0.21765305 </v>
   <v>       0.96215880       0.64543926       0.35268003 </v>
   <v>       0.50030194       0.87150212       0.21765305 </v>
   <v>       0.59426181       0.77754226       0.35268003 </v>
   <v>       0.68822168       0.68358239       0.48770701 </v>
   <v>       0.90634206       0.96546199       0.08262607 </v>
   <v>       0.07287763       0.16682343       0.27005396 </v>
   <v>       0.16683750       0.07286357       0.40508094 </v>
   <v>       0.47891775       0.26078330       0.13502698 </v>
   <v>       0.26079737       0.47890369       0.54010792 </v>
   <v>       0.03023342       0.37768264       0.45050807 </v>
   <v>       0.43627354       0.47164251       0.31548109 </v>
   <v>       0.24835381       0.15956225       0.04542713 </v>
   <v>       0.34231368       0.06560239       0.18045411 </v>
   <v>       0.08013882       0.49134725       0.04542713 </v>
   <v>       0.17409868       0.39738738       0.18045411 </v>
   <v>       0.26805855       0.30342751       0.31548109 </v>
   <v>       0.36201842       0.20946764       0.45050807 </v>
   <v>       0.57287763       0.16682343       0.27005396 </v>
   <v>       0.66683750       0.07286357       0.40508094 </v>
   <v>       0.88495789       0.35474317       0.00000000 </v>
   <v>       0.97891775       0.26078330       0.13502698 </v>
   <v>       0.76079737       0.47890369       0.54010792 </v>
   <v>       0.53023342       0.37768264       0.45050807 </v>
   <v>       0.93627354       0.47164251       0.31548109 </v>
   <v>       0.84231368       0.06560239       0.18045411 </v>
   <v>       0.58013882       0.49134725       0.04542713 </v>
   <v>       0.67409868       0.39738738       0.18045411 </v>
   <v>       0.76805855       0.30342751       0.31548109 </v>
   <v>       0.86201842       0.20946764       0.45050807 </v>
   <v>       0.07287763       0.66682343       0.27005396 </v>
   <v>       0.16683750       0.57286357       0.40508094 </v>
   <v>       0.38495789       0.85474317       0.00000000 </v>
   <v>       0.47891775       0.76078330       0.13502698 </v>
   <v>       0.26079737       0.97890369       0.54010792 </v>
   <v>       0.03023342       0.87768264       0.45050807 </v>
   <v>       0.43627354       0.97164251       0.31548109 </v>
   <v>       0.34231368       0.56560239       0.18045411 </v>
   <v>       0.08013882       0.99134725       0.04542713 </v>
   <v>       0.17409868       0.89738738       0.18045411 </v>
   <v>       0.26805855       0.80342751       0.31548109 </v>
   <v>       0.36201842       0.70946764       0.45050807 </v>
   <v>       0.57287763       0.66682343       0.27005396 </v>
   <v>       0.66683750       0.57286357       0.40508094 </v>
   <v>       0.88495789       0.85474317       0.00000000 </v>
   <v>       0.97891775       0.76078330       0.13502698 </v>
   <v>       0.76079737       0.97890369       0.54010792 </v>
   <v>       0.53023342       0.87768264       0.45050807 </v>
   <v>       0.93627354       0.97164251       0.31548109 </v>
   <v>       0.84231368       0.56560239       0.18045411 </v>
   <v>       0.58013882       0.99134725       0.04542713 </v>
   <v>       0.67409868       0.89738738       0.18045411 </v>
   <v>       0.76805855       0.80342751       0.31548109 </v>
   <v>       0.86201842       0.70946764       0.45050807 </v>
  </varray>
 </structure>
 <calculation>
  <scstep>
   <time name="dav">    6.58    6.60</time>
   <time name="total">    6.68    6.70</time>
   <energy>
    <i name="alphaZ">   2684.99175279 </i>
    <i name="ewald"> 243077.07030535 </i>
    <i name="hartreedc">-407086.16614788 </i>
    <i name="XCdc">   4872.96720979 </i>
    <i name="pawpsdc"> 150306.04444553 </i>
    <i name="pawaedc">-156855.34918313 </i>
    <i name="eentropy">     -0.53093677 </i>
    <i name="bandstr">  -4981.81946490 </i>
    <i name="atom"> 181336.80673834 </i>
    <i name="e_fr_energy">  13354.01471914 </i>
    <i name="e_wo_entrp">  13354.54565590 </i>
    <i name="e_0_energy">  13354.28018752 </i>
   </energy>
  </scstep>
  <scstep>
   <time name="dav">    5.84    5.86</time>
   <time name="total">    5.85    5.86</time>
   <energy>
    <i name="e_fr_energy">    868.72394995 </i>
    <i name="e_wo_entrp">    869.79951877 </i>
    <i name="e_0_energy">    869.26173436 </i>
   </energy>
  </scstep>
  <scstep>
   <time name="dav">    6.22    6.24</time>
   <time name="total">    6.22    6.24</time>
   <energy>
    <i name="e_fr_energy">   -455.39351257 </i>
    <i name="e_wo_entrp">   -453.89643566 </i>
    <i name="e_0_energy">   -454.64497412 </i>
   </energy>
  </scstep>
  <scstep>
   <time name="dav">    6.14    6.16</time>
   <time name="total">    6.14    6.16</time>
   <energy>
    <i name="e_fr_energy">   -544.50239746 </i>
    <i name="e_wo_entrp">   -542.91961699 </i>
    <i name="e_0_energy">   -543.71100722 </i>
   </energy>
  </scstep>
  <scstep>
   <time name="dav">    7.10    7.12</time>
   <time name="total">    7.23    7.24</time>
   <energy>
    <i name="e_fr_energy">   -548.61110285 </i>
    <i name="e_wo_entrp">   -547.05505056 </i>
    <i name="e_0_energy">   -547.83307671 </i>
   </energy>
  </scstep>
  <scstep>
   <time name="dav">    6.55    6.56</time>
   <time name="total">    6.77    6.79</time>
   <energy>
    <i name="e_fr_energy">   -683.30134200 </i>
    <i name="e_wo_entrp">   -682.05169924 </i>
    <i name="e_0_energy">   -682.67652062 </i>
   </energy>
  </scstep>
  <scstep>
   <time name="dav">    6.39    6.40</time>
   <time name="total">    6.61    6.63</time>
   <energy>
    <i name="e_fr_energy">   -517.81884217 </i>
    <i name="e_wo_entrp">   -516.69893603 </i>
    <i name="e_0_energy">   -517.25888910 </i>
   </energy>
  </scstep>
  <scstep>
   <time name="dav">    6.68    6.70</time>
   <time name="total">    6.90    6.92</time>
   <energy>
    <i name="e_fr_energy">   -740.06271833 </i>
    <i name="e_wo_entrp">   -739.05887385 </i>
    <i name="e_0_energy">   -739.56079609 </i>
   </energy>
  </scstep>
  <scstep>
   <time name="dav">    7.17    7.19</time>
   <time name="total">    7.39    7.42</time>
   <energy>
    <i name="e_fr_energy">   -550.69505108 </i>
    <i name="e_wo_entrp">   -548.75940305 </i>
    <i name="e_0_energy">   -549.72722707 </i>
   </energy>
  </scstep>
  <scstep>
   <time name="dav">    7.55    7.57</time>
   <time name="total">    7.78    7.80</time>
   <energy>
    <i name="e_fr_energy">   -518.09183175 </i>
    <i name="e_wo_entrp">   -516.14362293 </i>
    <i name="e_0_energy">   -517.11772734 </i>
   </energy>
  </scstep>
  <scstep>
   <time name="dav">    7.33    7.35</time>
   <time name="total">    7.55    7.57</time>
   <energy>
    <i name="e_fr_energy">   -518.57426774 </i>
    <i name="e_wo_entrp">   -516.80661340 </i>
    <i name="e_0_energy">   -517.69044057 </i>
   </energy>
  </scstep>
  <scstep>
   <time name="dav">    7.24    7.25</time>
   <time name="total">    7.46    7.48</time>
   <energy>
    <i name="e_fr_energy">   -501.90124464 </i>
    <i name="e_wo_entrp">   -500.68279381 </i>
    <i name="e_0_energy">   -501.29201923 </i>
   </energy>
  </scstep>
  <scstep>
   <time name="dav">    6.70    6.72</time>
   <time name="total">    6.93    6.94</time>
   <energy>
    <i name="e_fr_energy">   -492.80817797 </i>
    <i name="e_wo_entrp">   -491.46988851 </i>
    <i name="e_0_energy">   -492.13903324 </i>
   </energy>
  </scstep>
  <scstep>
   <time name="dav">    6.93    6.95</time>
   <time name="total">    7.15    7.17</time>
   <energy>
    <i name="e_fr_energy">   -487.45966826 </i>
    <i name="e_wo_entrp">   -486.04460066 </i>
    <i name="e_0_energy">   -486.75213446 </i>
   </energy>
  </scstep>
  <scstep>
   <time name="dav">    7.13    7.14</time>
   <time name="total">    7.35    7.37</time>
   <energy>
    <i name="e_fr_energy">   -484.10077932 </i>
    <i name="e_wo_entrp">   -482.61349336 </i>
    <i name="e_0_energy">   -483.35713634 </i>
   </energy>
  </scstep>
  <scstep>
   <time name="dav">    6.62    6.63</time>
   <time name="total">    6.84    6.86</time>
   <energy>
    <i name="e_fr_energy">   -482.46277601 </i>
    <i name="e_wo_entrp">   -481.02962910 </i>
    <i name="e_0_energy">   -481.74620256 </i>
   </energy>
  </scstep>
  <scstep>
   <time name="dav">    7.05    7.06</time>
   <time name="total">    7.27    7.29</time>
   <energy>
    <i name="e_fr_energy">   -482.04396181 </i>
    <i name="e_wo_entrp">   -480.61966867 </i>
    <i name="e_0_energy">   -481.33181524 </i>
   </energy>
  </scstep>
  <scstep>
   <time name="dav">    6.87    6.89</time>
   <time name="total">    7.09    7.11</time>
   <energy>
    <i name="e_fr_energy">   -480.92166758 </i>
    <i name="e_wo_entrp">   -479.49561239 </i>
    <i name="e_0_energy">   -480.20863999 </i>
   </energy>
  </scstep>
  <scstep>
   <time name="dav">    7.14    7.16</time>
   <time name="total">    7.36    7.38</time>
   <energy>
    <i name="e_fr_energy">   -480.95332302 </i>
    <i name="e_wo_entrp">   -479.55125604 </i>
    <i name="e_0_energy">   -480.25228953 </i>
   </energy>
  </scstep>
  <scstep>
   <time name="dav">    7.07    7.09</time>
   <time name="total">    7.30    7.32</time>
   <energy>
    <i name="e_fr_energy">   -480.26836494 </i>
    <i name="e_wo_entrp">   -478.83870830 </i>
    <i name="e_0_energy">   -479.55353662 </i>
   </energy>
  </scstep>
  <scstep>
   <time name="dav">    7.23    7.25</time>
   <time name="total">    7.45    7.47</time>
   <energy>
    <i name="e_fr_energy">   -480.24652759 </i>
    <i name="e_wo_entrp">   -478.82258773 </i>
    <i name="e_0_energy">   -479.53455766 </i>
   </energy>
  </scstep>
  <scstep>
   <time name="dav">    7.00    7.02</time>
   <time name="total">    7.22    7.24</time>
   <energy>
    <i name="e_fr_energy">   -480.08804837 </i>
    <i name="e_wo_entrp">   -478.64927660 </i>
    <i name="e_0_energy">   -479.36866248 </i>
   </energy>
  </scstep>
  <scstep>
   <time name="dav">    6.81    6.83</time>
   <time name="total">    7.03    7.05</time>
   <energy>
    <i name="e_fr_energy">   -480.07247315 </i>
    <i name="e_wo_entrp">   -478.63510451 </i>
    <i name="e_0_energy">   -479.35378883 </i>
   </energy>
  </scstep>
  <scstep>
   <time name="dav">    6.73    6.74</time>
   <time name="total">    6.95    6.97</time>
   <energy>
    <i name="e_fr_energy">   -480.04433515 </i>
    <i name="e_wo_entrp">   -478.60087623 </i>
    <i name="e_0_energy">   -479.32260569 </i>
   </energy>
  </scstep>
  <scstep>
   <time name="dav">    7.00    7.02</time>
   <time name="total">    7.23    7.24</time>
   <energy>
    <i name="e_fr_energy">   -480.04095079 </i>
    <i name="e_wo_entrp">   -478.61016937 </i>
    <i name="e_0_energy">   -479.32556008 </i>
   </energy>
  </scstep>
  <scstep>
   <time name="dav">    7.18    7.19</time>
   <time name="total">    7.40    7.42</time>
   <energy>
    <i name="e_fr_energy">   -480.03266356 </i>
    <i name="e_wo_entrp">   -478.60718406 </i>
    <i name="e_0_energy">   -479.31992381 </i>
   </energy>
  </scstep>
  <scstep>
   <time name="dav">    6.53    6.55</time>
   <time name="total">    6.76    6.77</time>
   <energy>
    <i name="e_fr_energy">   -480.02443016 </i>
    <i name="e_wo_entrp">   -478.59579292 </i>
    <i name="e_0_energy">   -479.31011154 </i>
   </energy>
  </scstep>
  <scstep>
   <time name="dav">    6.74    6.76</time>
   <time name="total">    6.96    6.98</time>
   <energy>
    <i name="e_fr_energy">   -480.02104864 </i>
    <i name="e_wo_entrp">   -478.59464984 </i>
    <i name="e_0_energy">   -479.30784924 </i>
   </energy>
  </scstep>
  <scstep>
   <time name="dav">    6.71    6.72</time>
   <time name="total">    6.93    6.95</time>
   <energy>
    <i name="e_fr_energy">   -480.01464548 </i>
    <i name="e_wo_entrp">   -478.58533989 </i>
    <i name="e_0_energy">   -479.29999268 </i>
   </energy>
  </scstep>
  <scstep>
   <time name="dav">    7.08    7.10</time>
   <time name="total">    7.31    7.33</time>
   <energy>
    <i name="e_fr_energy">   -480.01436754 </i>
    <i name="e_wo_entrp">   -478.58421245 </i>
    <i name="e_0_energy">   -479.29928999 </i>
   </energy>
  </scstep>
  <scstep>
   <time name="dav">    6.69    6.71</time>
   <time name="total">    6.92    6.94</time>
   <energy>
    <i name="e_fr_energy">   -480.01343636 </i>
    <i name="e_wo_entrp">   -478.58372772 </i>
    <i name="e_0_energy">   -479.29858204 </i>
   </energy>
  </scstep>
  <scstep>
   <time name="dav">    6.64    6.66</time>
   <time name="total">    6.87    6.89</time>
   <energy>
    <i name="e_fr_energy">   -480.01378735 </i>
    <i name="e_wo_entrp">   -478.58393650 </i>
    <i name="e_0_energy">   -479.29886192 </i>
   </energy>
  </scstep>
  <scstep>
   <time name="dav">    6.13    6.15</time>
   <time name="total">    6.36    6.38</time>
   <energy>
    <i name="e_fr_energy">   -480.01340138 </i>
    <i name="e_wo_entrp">   -478.58371466 </i>
    <i name="e_0_energy">   -479.29855802 </i>
   </energy>
  </scstep>
  <scstep>
   <time name="dav">    5.56    5.58</time>
   <time name="total">    5.79    5.80</time>
   <energy>
    <i name="e_fr_energy">   -480.01378460 </i>
    <i name="e_wo_entrp">   -478.58264638 </i>
    <i name="e_0_energy">   -479.29821549 </i>
   </energy>
  </scstep>
  <scstep>
   <time name="dav">    5.25    5.26</time>
   <time name="total">    5.35    5.37</time>
   <energy>
    <i name="alphaZ">   2684.99175279 </i>
    <i name="ewald"> 243077.07030535 </i>
    <i name="hartreedc">-405768.43702437 </i>
    <i name="XCdc">   4831.08442757 </i>
    <i name="pawpsdc"> 174600.45322153 </i>
    <i name="pawaedc">-181233.24827619 </i>
    <i name="eentropy">     -1.43061888 </i>
    <i name="bandstr"> -20007.30422833 </i>
    <i name="atom"> 181336.80673834 </i>
    <i name="e_fr_energy">   -480.01370220 </i>
    <i name="e_wo_entrp">   -478.58308331 </i>
    <i name="e_0_energy">   -479.29839275 </i>
   </energy>
  </scstep>
  <structure>
   <crystal>
    <varray name="basis" >
     <v>      10.06282034       5.04456212       0.00000000 </v>
     <v>       0.00000000      11.25646304       0.00000000 </v>
     <v>       0.00000000       0.00000000      21.74423184 </v>
    </varray>
    <i name="volume">   2463.00752351 </i>
    <varray name="rec_basis" >
     <v>       0.09937572       0.00000000       0.00000000 </v>
     <v>      -0.04453504       0.08883785       0.00000000 </v>
     <v>       0.00000000       0.00000000       0.04598921 </v>
    </varray>
   </crystal>
   <varray name="positions" >
    <v>       0.26092070       0.47878036       0.25332799 </v>
    <v>       0.35488056       0.38482049       0.38835497 </v>
    <v>       0.44884043       0.29086063       0.52338195 </v>
    <v>       0.16696083       0.07274024       0.11830101 </v>
    <v>       0.05611868       0.05147940       0.48770701 </v>
    <v>       0.27423907       0.33335899       0.08262607 </v>
    <v>       0.36819893       0.23939913       0.21765305 </v>
    <v>       0.46215880       0.14543926       0.35268003 </v>
    <v>       0.00030194       0.37150212       0.21765305 </v>
    <v>       0.09426181       0.27754226       0.35268003 </v>
    <v>       0.18822168       0.18358239       0.48770701 </v>
    <v>       0.40634206       0.46546199       0.08262607 </v>
    <v>       0.76092070       0.47878036       0.25332799 </v>
    <v>       0.85488056       0.38482049       0.38835497 </v>
    <v>       0.94884043       0.29086063       0.52338195 </v>
    <v>       0.66696083       0.07274024       0.11830101 </v>
    <v>       0.55611868       0.05147940       0.48770701 </v>
    <v>       0.77423907       0.33335899       0.08262607 </v>
    <v>       0.86819893       0.23939913       0.21765305 </v>
    <v>       0.96215880       0.14543926       0.35268003 </v>
    <v>       0.50030194       0.37150212       0.21765305 </v>
    <v>       0.59426181       0.27754226       0.35268003 </v>
    <v>       0.68822168       0.18358239       0.48770701 </v>
    <v>       0.90634206       0.46546199       0.08262607 </v>
    <v>       0.26092070       0.97878036       0.25332799 </v>
    <v>       0.35488056       0.88482049       0.38835497 </v>
    <v>       0.44884043       0.79086063       0.52338195 </v>
    <v>       0.16696083       0.57274024       0.11830101 </v>
    <v>       0.05611868       0.55147940       0.48770701 </v>
    <v>       0.27423907       0.83335899       0.08262607 </v>
    <v>       0.36819893       0.73939913       0.21765305 </v>
    <v>       0.46215880       0.64543926       0.35268003 </v>
    <v>       0.00030194       0.87150212       0.21765305 </v>
    <v>       0.09426181       0.77754226       0.35268003 </v>
    <v>       0.18822168       0.68358239       0.48770701 </v>
    <v>       0.40634206       0.96546199       0.08262607 </v>
    <v>       0.76092070       0.97878036       0.25332799 </v>
    <v>       0.85488056       0.88482049       0.38835497 </v>
    <v>       0.94884043       0.79086063       0.52338195 </v>
    <v>       0.66696083       0.57274024       0.11830101 </v>
    <v>       0.55611868       0.55147940       0.48770701 </v>
    <v>       0.77423907       0.83335899       0.08262607 </v>
    <v>       0.86819893       0.73939913       0.21765305 </v>
    <v>       0.96215880       0.64543926       0.35268003 </v>
    <v>       0.50030194       0.87150212       0.21765305 </v>
    <v>       0.59426181       0.77754226       0.35268003 </v>
    <v>       0.68822168       0.68358239       0.48770701 </v>
    <v>       0.90634206       0.96546199       0.08262607 </v>
    <v>       0.07287763       0.16682343       0.27005396 </v>
    <v>       0.16683750       0.07286357       0.40508094 </v>
    <v>       0.47891775       0.26078330       0.13502698 </v>
    <v>       0.26079737       0.47890369       0.54010792 </v>
    <v>       0.03023342       0.37768264       0.45050807 </v>
    <v>       0.43627354       0.47164251       0.31548109 </v>
    <v>       0.24835381       0.15956225       0.04542713 </v>
    <v>       0.34231368       0.06560239       0.18045411 </v>
    <v>       0.08013882       0.49134725       0.04542713 </v>
    <v>       0.17409868       0.39738738       0.18045411 </v>
    <v>       0.26805855       0.30342751       0.31548109 </v>
    <v>       0.36201842       0.20946764       0.45050807 </v>
    <v>       0.57287763       0.16682343       0.27005396 </v>
    <v>       0.66683750       0.07286357       0.40508094 </v>
    <v>       0.88495789       0.35474317       0.00000000 </v>
    <v>       0.97891775       0.26078330       0.13502698 </v>
    <v>       0.76079737       0.47890369       0.54010792 </v>
    <v>       0.53023342       0.37768264       0.45050807 </v>
    <v>       0.93627354       0.47164251       0.31548109 </v>
    <v>       0.84231368       0.06560239       0.18045411 </v>
    <v>       0.58013882       0.49134725       0.04542713 </v>
    <v>       0.67409868       0.39738738       0.18045411 </v>
    <v>       0.76805855       0.30342751       0.31548109 </v>
    <v>       0.86201842       0.20946764       0.45050807 </v>
    <v>       0.07287763       0.66682343       0.27005396 </v>
    <v>       0.16683750       0.57286357       0.40508094 </v>
    <v>       0.38495789       0.85474317       0.00000000 </v>
    <v>       0.47891775       0.76078330       0.13502698 </v>
    <v>       0.26079737       0.97890369       0.54010792 </v>
    <v>       0.03023342       0.87768264       0.45050807 </v>
    <v>       0.43627354       0.97164251       0.31548109 </v>
    <v>       0.34231368       0.56560239       0.18045411 </v>
    <v>       0.08013882       0.99134725       0.04542713 </v>
    <v>       0.17409868       0.89738738       0.18045411 </v>
    <v>       0.26805855       0.80342751       0.31548109 </v>
    <v>       0.36201842       0.70946764       0.45050807 </v>
    <v>       0.57287763       0.66682343       0.27005396 </v>
    <v>       0.66683750       0.57286357       0.40508094 </v>
    <v>       0.88495789       0.85474317       0.00000000 </v>
    <v>       0.97891775       0.76078330       0.13502698 </v>
    <v>       0.76079737       0.97890369       0.54010792 </v>
    <v>       0.53023342       0.87768264       0.45050807 </v>
    <v>       0.93627354       0.97164251       0.31548109 </v>
    <v>       0.84231368       0.56560239       0.18045411 </v>
    <v>       0.58013882       0.99134725       0.04542713 </v>
    <v>       0.67409868       0.89738738       0.18045411 </v>
    <v>       0.76805855       0.80342751       0.31548109 </v>
    <v>       0.86201842       0.70946764       0.45050807 </v>
   </varray>
  </structure>
  <varray name="forces" >
   <v>      -0.10940464      -0.02284966      -0.09719252 </v>
   <v>       0.12669071      -0.07743256      -0.02642807 </v>
   <v>      -1.02530768       0.62206434      -1.31111815 </v>
   <v>      -0.21217792       0.07520848      -0.30368638 </v>
   <v>       0.74726345       0.02630110      -0.56133973 </v>
   <v>      -0.82549164      -0.59510568       0.34031780 </v>
   <v>      -0.10196757      -0.02066698      -0.08762275 </v>
   <v>       0.11105871      -0.12580535       0.01753310 </v>
   <v>      -0.04260542      -0.04290536      -0.15382173 </v>
   <v>       0.13127960      -0.06523382       0.06689558 </v>
   <v>       0.30682219      -0.65669207      -0.55665697 </v>
   <v>       1.03237149       0.19586755       0.93417417 </v>
   <v>       0.01529395      -0.10854300      -0.16598699 </v>
   <v>       0.09774864      -0.09357381       0.02328838 </v>
   <v>      -1.03451490       0.63000567      -1.29728055 </v>
   <v>      -0.59593945      -0.43248537       0.02581509 </v>
   <v>       0.72275320       0.03098586      -0.57646704 </v>
   <v>       0.07099286       1.01282244      -0.28820901 </v>
   <v>      -0.06567133       0.04813916      -0.00645013 </v>
   <v>       0.06793870      -0.13156915      -0.00754526 </v>
   <v>      -0.17301097      -0.02539941      -0.18102139 </v>
   <v>       0.13471974      -0.07414202       0.04226183 </v>
   <v>       0.28826661      -0.65614526      -0.55705707 </v>
   <v>       0.75083835      -0.48460508      -0.56394036 </v>
   <v>       0.16221640      -0.07428847      -0.06583047 </v>
   <v>       0.08881091      -0.09410994       0.02209897 </v>
   <v>      -1.03099404       0.63258241      -1.30361504 </v>
   <v>      -0.41615943      -0.66463463      -0.01515749 </v>
   <v>       0.75368376       0.02812324      -0.55937208 </v>
   <v>       0.00426303       0.66505798      -0.24085628 </v>
   <v>      -0.05854449       0.05919946       0.03070832 </v>
   <v>       0.07070103      -0.16462771       0.02563455 </v>
   <v>      -0.21478758      -0.07899439      -0.05509841 </v>
   <v>       0.17578460      -0.03598233       0.03778716 </v>
   <v>       0.29705512      -0.67187679      -0.54494991 </v>
   <v>       0.29050469       0.29635533      -0.65072061 </v>
   <v>       0.05298309      -0.10880348      -0.15917627 </v>
   <v>       0.09019861      -0.10505223       0.03520982 </v>
   <v>      -1.03605623       0.63179189      -1.32604411 </v>
   <v>      -0.43836834      -0.46859241       0.10460065 </v>
   <v>       0.75564317       0.01387111      -0.57407882 </v>
   <v>       0.12502459       0.97308194      -0.13485755 </v>
   <v>      -0.04774218       0.01910172      -0.01253599 </v>
   <v>       0.10340819      -0.14690008       0.01912809 </v>
   <v>      -0.09921051      -0.08437383       0.04391559 </v>
   <v>       0.19313171      -0.03529199       0.01235573 </v>
   <v>       0.28418615      -0.66870421      -0.54066746 </v>
   <v>       0.74160852      -0.47706934      -0.59180280 </v>
   <v>       0.09451640       0.04135653      -0.00399804 </v>
   <v>      -0.17131896       0.10484225       0.04103920 </v>
   <v>      -0.09126729       0.34026084      -1.23410445 </v>
   <v>      -0.80432873       0.50685149      -0.02125983 </v>
   <v>       0.32048515      -0.18244607       1.06243909 </v>
   <v>       0.03687365       0.06892822       0.07734123 </v>
   <v>       0.46627335       0.54220318       0.43271385 </v>
   <v>       0.02210486       0.06397414      -0.11780522 </v>
   <v>       0.48811727       0.34537126       0.87796247 </v>
   <v>       0.36511335      -0.00001989       0.17117086 </v>
   <v>      -0.11761184      -0.04706967       0.14512748 </v>
   <v>       0.27574270      -0.16515428       1.14221193 </v>
   <v>       0.05861568       0.01129775      -0.00407854 </v>
   <v>      -0.17480489       0.12322561       0.05028193 </v>
   <v>      -0.43321511       0.14487363       1.61445906 </v>
   <v>      -0.29937547      -0.08267911      -0.16876349 </v>
   <v>      -0.79215521       0.50085209       0.00897955 </v>
   <v>       0.30628714      -0.18076651       1.11923712 </v>
   <v>      -0.01610453       0.00222615       0.00330574 </v>
   <v>      -0.17910311       0.32231234      -0.89676645 </v>
   <v>      -0.20362554      -0.36190917       0.68990165 </v>
   <v>       0.26139791      -0.24452954      -0.10277685 </v>
   <v>      -0.04018609      -0.00671043       0.20719392 </v>
   <v>       0.28858676      -0.18144601       1.10600126 </v>
   <v>       0.09684313      -0.05546630       0.04270681 </v>
   <v>      -0.20655537       0.08480659       0.04220496 </v>
   <v>      -0.57399969      -0.25654890       1.28720945 </v>
   <v>       0.36449475      -0.09294590      -0.61605070 </v>
   <v>      -0.80287109       0.49507809       0.00994338 </v>
   <v>       0.28118452      -0.18624985       1.08886547 </v>
   <v>       0.01063802       0.00649141       0.11125667 </v>
   <v>      -0.24374565       0.08028677      -0.96965242 </v>
   <v>      -0.03632015      -0.44527100       0.54426164 </v>
   <v>       0.05247200      -0.08439436      -0.25849528 </v>
   <v>      -0.00737235      -0.00444185       0.07724780 </v>
   <v>       0.28143385      -0.14863377       1.07254268 </v>
   <v>       0.00483086       0.01814019       0.05126841 </v>
   <v>      -0.18402139       0.12329484      -0.00705096 </v>
   <v>      -0.56374370       0.20654323       1.55665759 </v>
   <v>       0.24463304      -0.15792818      -0.46897324 </v>
   <v>      -0.77882537       0.49984394       0.01565705 </v>
   <v>       0.29422884      -0.16966379       1.08355475 </v>
   <v>      -0.02777359       0.00011710      -0.01215734 </v>
   <v>      -0.25368380       0.33368345      -0.93963473 </v>
   <v>       0.65246062      -0.03866954       0.66175510 </v>
   <v>       0.23627502      -0.21129486      -0.06877149 </v>
   <v>      -0.04876520       0.02678955       0.13909180 </v>
   <v>       0.28187779      -0.15751498       1.09161169 </v>
  </varray>
  <varray name="stress" >
   <v>     -27.92394602       3.54276501      -8.94496032 </v>
   <v>       3.54276491     -17.61585995       3.32450362 </v>
   <v>      -8.94496069       3.32450342     -25.90449369 </v>
  </varray>
  <energy>
   <i name="e_fr_energy">   -480.01370220 </i>
   <i name="e_wo_entrp">   -478.58308331 </i>
   <i name="e_0_energy">   -479.29839275 </i>
  </energy>
  <time name="totalsc">  247.32  248.02</time>
  <eigenvalues>
   <array>
    <dimension dim="1">band</dimension>
    <dimension dim="2">kpoint</dimension>
    <dimension dim="3">spin</dimension>
    <field>eigene</field>
    <field>occ</field>
    <set>
     <set comment="spin 1">
      <set comment="kpoint 1">
       <r>  -62.6115    1.0000 </r>
       <r>  -62.5990    1.0000 </r>
       <r>  -62.5967    1.0000 </r>
       <r>  -62.5939    1.0000 </r>
       <r>  -62.5925    1.0000 </r>
       <r>  -62.5874    1.0000 </r>
       <r>  -62.5847    1.0000 </r>
       <r>  -62.5845    1.0000 </r>
       <r>  -62.5827    1.0000 </r>
       <r>  -62.5824    1.0000 </r>
       <r>  -62.5776    1.0000 </r>
       <r>  -62.5771    1.0000 </r>
       <r>  -62.5753    1.0000 </r>
       <r>  -62.5745    1.0000 </r>
       <r>  -62.5700    1.0000 </r>
       <r>  -62.5696    1.0000 </r>
       <r>  -62.5681    1.0000 </r>
       <r>  -62.5678    1.0000 </r>
       <r>  -62.5640    1.0000 </r>
       <r>  -62.5622    1.0000 </r>
       <r>  -62.5622    1.0000 </r>
       <r>  -62.5611    1.0000 </r>
       <r>  -62.5596    1.0000 </r>
       <r>  -62.5575    1.0000 </r>
       <r>  -62.5565    1.0000 </r>
       <r>  -62.5542    1.0000 </r>
       <r>  -62.5508    1.0000 </r>
       <r>  -62.5503    1.0000 </r>
       <r>  -62.5498    1.0000 </r>
       <r>  -62.5495    1.0000 </r>
       <r>  -62.5481    1.0000 </r>
       <r>  -62.5470    1.0000 </r>
       <r>  -62.5464    1.0000 </r>
       <r>  -62.5416    1.0000 </r>
       <r>  -62.5415    1.0000 </r>
       <r>  -62.5356    1.0000 </r>
       <r>  -62.5330    1.0000 </r>
       <r>  -62.5330    1.0000 </r>
       <r>  -62.5329    1.0000 </r>
       <r>  -62.5318    1.0000 </r>
       <r>  -62.5265    1.0000 </r>
       <r>  -62.5260    1.0000 </r>
       <r>  -62.5212    1.0000 </r>
       <r>  -62.5208    1.0000 </r>
       <r>  -62.5195    1.0000 </r>
       <r>  -62.5194    1.0000 </r>
       <r>  -62.5188    1.0000 </r>
       <r>  -62.5161    1.0000 </r>
       <r>  -62.5152    1.0000 </r>
       <r>  -62.5104    1.0000 </r>
       <r>  -62.5069    1.0000 </r>
       <r>  -62.5023    1.0000 </r>
       <r>  -62.4882    1.0000 </r>
       <r>  -62.4143    1.0000 </r>
       <r>  -62.3877    1.0000 </r>
       <r>  -62.3857    1.0000 </r>
       <r>  -62.3811    1.0000 </r>
       <r>  -62.3775    1.0000 </r>
       <r>  -62.3754    1.0000 </r>
       <r>  -62.3747    1.0000 </r>
       <r>  -62.3731    1.0000 </r>
       <r>  -62.3708    1.0000 </r>
       <r>  -62.3705    1.0000 </r>
       <r>  -62.3676    1.0000 </r>
       <r>  -62.3618    1.0000 </r>
       <r>  -62.3542    1.0000 </r>
       <r>  -62.3536    1.0000 </r>
       <r>  -62.3518    1.0000 </r>
       <r>  -62.3501    1.0000 </r>
       <r>  -62.3457    1.0000 </r>
       <r>  -62.3417    1.0000 </r>
       <r>  -62.3347    1.0000 </r>
       <r>  -62.3309    1.0000 </r>
       <r>  -62.3269    1.0000 </r>
       <r>  -62.3233    1.0000 </r>
       <r>  -62.3213    1.0000 </r>
       <r>  -62.3210    1.0000 </r>
       <r>  -62.3203    1.0000 </r>
       <r>  -62.3194    1.0000 </r>
       <r>  -62.3146    1.0000 </r>
       <r>  -62.3102    1.0000 </r>
       <r>  -62.3095    1.0000 </r>
       <r>  -62.3091    1.0000 </r>
       <r>  -62.3087    1.0000 </r>
       <r>  -62.3077    1.0000 </r>
       <r>  -62.3068    1.0000 </r>
       <r>  -62.3062    1.0000 </r>
       <r>  -62.3009    1.0000 </r>
       <r>  -62.2982    1.0000 </r>
       <r>  -62.2895    1.0000 </r>
       <r>  -62.2886    1.0000 </r>
       <r>  -62.2823    1.0000 </r>
       <r>  -62.2779    1.0000 </r>
       <r>  -62.2763    1.0000 </r>
       <r>  -62.2761    1.0000 </r>
       <r>  -62.2607    1.0000 </r>
       <r>  -62.2533    1.0000 </r>
       <r>  -62.2498    1.0000 </r>
       <r>  -62.2495    1.0000 </r>
       <r>  -62.2488    1.0000 </r>
       <r>  -62.2472    1.0000 </r>
       <r>  -62.2469    1.0000 </r>
       <r>  -62.2291    1.0000 </r>
       <r>  -62.2145    1.0000 </r>
       <r>  -62.2122    1.0000 </r>
       <r>  -62.2111    1.0000 </r>
       <r>  -62.1817    1.0000 </r>
       <r>  -62.1803    1.0000 </r>
       <r>  -62.1761    1.0000 </r>
       <r>  -62.1731    1.0000 </r>
       <r>  -62.1725    1.0000 </r>
       <r>  -62.1723    1.0000 </r>
       <r>  -62.1713    1.0000 </r>
       <r>  -62.1661    1.0000 </r>
       <r>  -62.1599    1.0000 </r>
       <r>  -62.1567    1.0000 </r>
       <r>  -62.1560    1.0000 </r>
       <r>  -62.1383    1.0000 </r>
       <r>  -62.0590    1.0000 </r>
       <r>  -62.0562    1.0000 </r>
       <r>  -62.0493    1.0000 </r>
       <r>  -62.0455    1.0000 </r>
       <r>  -62.0441    1.0000 </r>
       <r>  -62.0426    1.0000 </r>
       <r>  -61.9417    1.0000 </r>
       <r>  -61.9288    1.0000 </r>
       <r>  -61.9271    1.0000 </r>
       <r>  -61.9155    1.0000 </r>
       <r>  -61.8900    1.0000 </r>
       <r>  -61.8799    1.0000 </r>
       <r>  -61.8749    1.0000 </r>
       <r>  -61.8746    1.0000 </r>
       <r>  -61.8555    1.0000 </r>
       <r>  -61.8399    1.0000 </r>
       <r>  -61.8304    1.0000 </r>
       <r>  -61.8238    1.0000 </r>
       <r>  -61.8195    1.0000 </r>
       <r>  -61.8148    1.0000 </r>
       <r>  -61.8110    1.0000 </r>
       <r>  -61.7951    1.0000 </r>
       <r>  -61.7720    1.0000 </r>
       <r>  -61.7283    1.0000 </r>
       <r>  -61.5885    1.0000 </r>
       <r>  -61.4917    1.0000 </r>
       <r>  -13.9824    1.0000 </r>
       <r>  -13.4441    1.0000 </r>
       <r>  -13.2499    1.0000 </r>
       <r>  -13.2409    1.0000 </r>
       <r>  -13.2050    1.0000 </r>
       <r>  -13.0378    1.0000 </r>
       <r>  -13.0368    1.0000 </r>
       <r>  -12.8802    1.0000 </r>
       <r>  -12.7702    1.0000 </r>
       <r>  -12.7487    1.0000 </r>
       <r>  -12.7429    1.0000 </r>
       <r>  -12.7315    1.0000 </r>
       <r>  -12.6385    1.0000 </r>
       <r>  -12.6287    1.0000 </r>
       <r>  -12.4748    1.0000 </r>
       <r>  -12.3080    1.0000 </r>
       <r>  -12.2957    1.0000 </r>
       <r>  -12.2872    1.0000 </r>
       <r>  -12.2477    1.0000 </r>
       <r>  -12.2435    1.0000 </r>
       <r>  -12.1894    1.0000 </r>
       <r>  -12.0945    1.0000 </r>
       <r>  -12.0564    1.0000 </r>
       <r>  -12.0399    1.0000 </r>
       <r>  -12.0093    1.0000 </r>
       <r>  -11.9719    1.0000 </r>
       <r>  -11.9595    1.0000 </r>
       <r>  -11.9507    1.0000 </r>
       <r>  -11.9164    1.0000 </r>
       <r>  -11.9101    1.0000 </r>
       <r>  -11.8894    1.0000 </r>
       <r>  -11.8028    1.0000 </r>
       <r>  -11.7670    1.0000 </r>
       <r>  -11.6517    1.0000 </r>
       <r>  -11.6256    1.0000 </r>
       <r>  -11.5435    1.0000 </r>
       <r>  -11.4337    1.0000 </r>
       <r>  -11.1577    1.0000 </r>
       <r>  -11.1060    1.0000 </r>
       <r>  -11.0256    1.0000 </r>
       <r>  -10.8793    1.0000 </r>
       <r>  -10.7507    1.0000 </r>
       <r>  -10.7337    1.0000 </r>
       <r>  -10.7251    1.0000 </r>
       <r>  -10.7197    1.0000 </r>
       <r>  -10.3568    1.0000 </r>
       <r>  -10.2652    1.0000 </r>
       <r>  -10.2090    1.0000 </r>
       <r>   -5.7629    1.0000 </r>
       <r>   -5.7565    1.0000 </r>
       <r>   -5.7542    1.0000 </r>
       <r>   -5.7498    1.0000 </r>
       <r>   -5.7219    1.0000 </r>
       <r>   -5.6673    1.0000 </r>
       <r>   -5.3485    1.0000 </r>
       <r>   -5.2802    1.0000 </r>
       <r>   -5.2673    1.0000 </r>
       <r>   -5.1265    1.0000 </r>
       <r>   -5.0315    1.0000 </r>
       <r>   -5.0192    1.0000 </r>
       <r>   -5.0025    1.0000 </r>
       <r>   -4.9635    1.0000 </r>
       <r>   -4.9386    1.0000 </r>
       <r>   -4.9222    1.0000 </r>
       <r>   -4.9102    1.0000 </r>
       <r>   -4.8163    1.0000 </r>
       <r>   -4.7286    1.0000 </r>
       <r>   -4.7175    1.0000 </r>
       <r>   -4.6306    1.0000 </r>
       <r>   -4.6267    1.0000 </r>
       <r>   -4.6235    1.0000 </r>
       <r>   -4.6145    1.0000 </r>
       <r>   -4.6138    1.0000 </r>
       <r>   -4.5790    1.0000 </r>
       <r>   -4.5478    1.0000 </r>
       <r>   -4.5144    1.0000 </r>
       <r>   -4.4939    1.0000 </r>
       <r>   -4.4859    1.0000 </r>
       <r>   -4.3802    1.0000 </r>
       <r>   -4.3705    1.0000 </r>
       <r>   -4.3547    1.0000 </r>
       <r>   -4.3217    1.0000 </r>
       <r>   -4.3087    1.0000 </r>
       <r>   -4.2817    1.0000 </r>
       <r>   -4.2688    1.0000 </r>
       <r>   -4.0872    1.0000 </r>
       <r>   -3.8948    1.0000 </r>
       <r>   -3.8652    1.0000 </r>
       <r>   -3.8600    1.0000 </r>
       <r>   -3.8348    1.0000 </r>
       <r>   -3.8132    1.0000 </r>
       <r>   -3.7961    1.0000 </r>
       <r>   -3.7849    1.0000 </r>
       <r>   -3.7688    1.0000 </r>
       <r>   -3.7417    1.0000 </r>
       <r>   -3.7234    1.0000 </r>
       <r>   -3.6872    1.0000 </r>
       <r>   -3.6777    1.0000 </r>
       <r>   -3.5684    1.0000 </r>
       <r>   -3.5558    1.0000 </r>
       <r>   -3.5326    1.0000 </r>
       <r>   -3.5281    1.0000 </r>
       <r>   -3.5182    1.0000 </r>
       <r>   -3.4437    1.0000 </r>
       <r>   -3.3856    1.0000 </r>
       <r>   -3.3625    1.0000 </r>
       <r>   -3.3492    1.0000 </r>
       <r>   -3.3217    1.0000 </r>
       <r>   -3.2795    1.0000 </r>
       <r>   -3.2411    1.0000 </r>
       <r>   -3.2268    1.0000 </r>
       <r>   -3.2193    1.0000 </r>
       <r>   -3.1849    1.0000 </r>
       <r>   -3.1816    1.0000 </r>
       <r>   -3.1532    1.0000 </r>
       <r>   -3.1262    1.0000 </r>
       <r>   -3.1105    1.0000 </r>
       <r>   -3.0802    1.0000 </r>
       <r>   -3.0629    1.0000 </r>
       <r>   -3.0576    1.0000 </r>
       <r>   -3.0444    1.0000 </r>
       <r>   -3.0021    1.0000 </r>
       <r>   -2.9891    1.0000 </r>
       <r>   -2.9846    1.0000 </r>
       <r>   -2.9665    1.0000 </r>
       <r>   -2.9428    1.0000 </r>
       <r>   -2.9214    1.0000 </r>
       <r>   -2.9043    1.0000 </r>
       <r>   -2.8739    1.0000 </r>
       <r>   -2.8501    1.0000 </r>
       <r>   -2.8153    1.0000 </r>
       <r>   -2.7751    1.0000 </r>
       <r>   -2.7292    1.0000 </r>
       <r>   -2.7218    1.0000 </r>
       <r>   -2.6951    1.0000 </r>
       <r>   -2.6629    1.0000 </r>
       <r>   -2.6534    1.0000 </r>
       <r>   -2.6202    1.0000 </r>
       <r>   -2.5905    1.0000 </r>
       <r>   -2.5796    1.0000 </r>
       <r>   -2.5690    1.0000 </r>
       <r>   -2.5224    1.0000 </r>
       <r>   -2.4868    1.0000 </r>
       <r>   -2.4685    1.0000 </r>
       <r>   -2.4447    1.0000 </r>
       <r>   -2.4369    1.0000 </r>
       <r>   -2.4297    1.0000 </r>
       <r>   -2.4280    1.0000 </r>
       <r>   -2.4089    1.0000 </r>
       <r>   -2.3975    1.0000 </r>
       <r>   -2.3871    1.0000 </r>
       <r>   -2.3840    1.0000 </r>
       <r>   -2.3637    1.0000 </r>
       <r>   -2.3226    1.0000 </r>
       <r>   -2.3033    1.0000 </r>
       <r>   -2.2939    1.0000 </r>
       <r>   -2.2728    1.0000 </r>
       <r>   -2.2656    1.0000 </r>
       <r>   -2.2579    1.0000 </r>
       <r>   -2.2217    1.0000 </r>
       <r>   -2.1933    1.0000 </r>
       <r>   -2.1689    1.0000 </r>
       <r>   -2.1160    1.0000 </r>
       <r>   -2.0721    1.0000 </r>
       <r>   -2.0503    1.0000 </r>
       <r>   -1.9378    1.0000 </r>
       <r>   -1.9108    1.0000 </r>
       <r>   -1.8695    1.0000 </r>
       <r>   -1.8471    1.0000 </r>
       <r>   -1.8160    1.0000 </r>
       <r>   -1.7610    1.0000 </r>
       <r>   -1.7277    1.0000 </r>
       <r>   -1.7069    1.0000 </r>
       <r>   -1.6490    1.0000 </r>
       <r>   -1.6259    1.0000 </r>
       <r>   -1.5868    1.0000 </r>
       <r>   -1.5823    1.0000 </r>
       <r>   -1.5684    1.0000 </r>
       <r>   -1.5455    1.0000 </r>
       <r>   -1.5287    1.0000 </r>
       <r>   -1.4903    1.0000 </r>
       <r>   -1.4194    1.0000 </r>
       <r>   -1.3898    1.0000 </r>
       <r>   -1.3710    1.0000 </r>
       <r>   -1.3531    1.0000 </r>
       <r>   -1.3346    1.0000 </r>
       <r>   -1.2903    1.0000 </r>
       <r>   -1.2718    1.0000 </r>
       <r>   -1.2573    1.0000 </r>
       <r>   -1.2472    1.0000 </r>
       <r>   -1.2364    1.0000 </r>
       <r>   -1.2164    1.0000 </r>
       <r>   -1.2027    1.0000 </r>
       <r>   -1.1644    1.0000 </r>
       <r>   -1.1440    1.0000 </r>
       <r>   -1.1321    1.0000 </r>
       <r>   -1.1127    1.0000 </r>
       <r>   -1.0967    1.0000 </r>
       <r>   -1.0870    1.0000 </r>
       <r>   -1.0720    1.0000 </r>
       <r>   -1.0613    1.0000 </r>
       <r>   -1.0428    1.0000 </r>
       <r>   -1.0071    1.0000 </r>
       <r>   -0.9730    1.0000 </r>
       <r>   -0.9400    1.0000 </r>
       <r>   -0.9072    1.0000 </r>
       <r>   -0.8939    1.0000 </r>
       <r>   -0.8908    1.0000 </r>
       <r>   -0.8521    1.0000 </r>
       <r>   -0.8302    1.0000 </r>
       <r>   -0.8213    1.0000 </r>
       <r>   -0.8159    1.0000 </r>
       <r>   -0.8016    1.0000 </r>
       <r>   -0.7970    1.0000 </r>
       <r>   -0.7862    1.0000 </r>
       <r>   -0.7723    1.0000 </r>
       <r>   -0.7538    1.0000 </r>
       <r>   -0.7477    1.0000 </r>
       <r>   -0.7458    1.0000 </r>
       <r>   -0.7344    1.0000 </r>
       <r>   -0.7209    1.0000 </r>
       <r>   -0.7074    1.0000 </r>
       <r>   -0.7036    1.0000 </r>
       <r>   -0.6899    1.0000 </r>
       <r>   -0.6854    1.0000 </r>
       <r>   -0.6555    1.0000 </r>
       <r>   -0.6287    1.0000 </r>
       <r>   -0.6270    1.0000 </r>
       <r>   -0.6191    1.0000 </r>
       <r>   -0.6035    1.0000 </r>
       <r>   -0.5896    1.0000 </r>
       <r>   -0.5782    1.0000 </r>
       <r>   -0.5638    1.0000 </r>
       <r>   -0.5528    1.0000 </r>
       <r>   -0.5271    1.0000 </r>
       <r>   -0.5239    1.0000 </r>
       <r>   -0.5102    1.0000 </r>
       <r>   -0.5019    1.0000 </r>
       <r>   -0.4972    1.0000 </r>
       <r>   -0.4884    1.0000 </r>
       <r>   -0.4814    1.0000 </r>
       <r>   -0.4625    1.0000 </r>
       <r>   -0.4478    1.0000 </r>
       <r>   -0.4382    1.0000 </r>
       <r>   -0.4237    1.0000 </r>
       <r>   -0.4220    1.0000 </r>
       <r>   -0.3914    1.0000 </r>
       <r>   -0.3738    1.0000 </r>
       <r>   -0.3646    1.0000 </r>
       <r>   -0.3572    1.0000 </r>
       <r>   -0.3408    1.0000 </r>
       <r>   -0.3347    1.0000 </r>
       <r>   -0.3235    1.0000 </r>
       <r>   -0.3211    1.0000 </r>
       <r>   -0.3063    1.0000 </r>
       <r>   -0.2991    1.0000 </r>
       <r>   -0.2869    1.0000 </r>
       <r>   -0.2853    1.0000 </r>
       <r>   -0.2782    1.0000 </r>
       <r>   -0.2601    1.0000 </r>
       <r>   -0.2502    1.0000 </r>
       <r>   -0.2313    1.0000 </r>
       <r>   -0.2282    1.0000 </r>
       <r>   -0.2203    1.0000 </r>
       <r>   -0.2146    1.0000 </r>
       <r>   -0.1995    1.0000 </r>
       <r>   -0.1854    1.0000 </r>
       <r>   -0.1791    1.0000 </r>
       <r>   -0.1759    1.0000 </r>
       <r>   -0.1686    1.0000 </r>
       <r>   -0.1545    1.0000 </r>
       <r>   -0.1531    1.0000 </r>
       <r>   -0.1378    1.0000 </r>
       <r>   -0.1329    1.0000 </r>
       <r>   -0.1259    1.0000 </r>
       <r>   -0.1160    1.0000 </r>
       <r>   -0.1105    1.0000 </r>
       <r>   -0.1066    1.0000 </r>
       <r>   -0.0964    1.0000 </r>
       <r>   -0.0875    1.0000 </r>
       <r>   -0.0797    1.0000 </r>
       <r>   -0.0754    1.0000 </r>
       <r>   -0.0698    1.0000 </r>
       <r>   -0.0561    1.0000 </r>
       <r>   -0.0469    1.0000 </r>
       <r>   -0.0348    1.0000 </r>
       <r>   -0.0284    1.0000 </r>
       <r>   -0.0245    1.0000 </r>
       <r>   -0.0152    1.0000 </r>
       <r>   -0.0115    1.0000 </r>
       <r>    0.0040    1.0000 </r>
       <r>    0.0053    1.0000 </r>
       <r>    0.0088    1.0000 </r>
       <r>    0.0267    1.0000 </r>
       <r>    0.0350    1.0000 </r>
       <r>    0.0562    1.0000 </r>
       <r>    0.0761    1.0000 </r>
       <r>    0.0852    1.0000 </r>
       <r>    0.0965    1.0000 </r>
       <r>    0.1078    1.0000 </r>
       <r>    0.1116    1.0000 </r>
       <r>    0.1134    1.0000 </r>
       <r>    0.1315    1.0000 </r>
       <r>    0.1387    1.0000 </r>
       <r>    0.1497    1.0000 </r>
       <r>    0.1564    1.0000 </r>
       <r>    0.1578    1.0000 </r>
       <r>    0.1586    1.0000 </r>
       <r>    0.1640    1.0000 </r>
       <r>    0.1697    1.0000 </r>
       <r>    0.1781    1.0000 </r>
       <r>    0.1879    1.0000 </r>
       <r>    0.1941    1.0000 </r>
       <r>    0.2006    1.0000 </r>
       <r>    0.2026    1.0000 </r>
       <r>    0.2172    1.0000 </r>
       <r>    0.2356    1.0000 </r>
       <r>    0.2373    1.0000 </r>
       <r>    0.2472    1.0000 </r>
       <r>    0.2576    1.0000 </r>
       <r>    0.2665    1.0000 </r>
       <r>    0.2715    1.0000 </r>
       <r>    0.2835    1.0000 </r>
       <r>    0.2887    1.0000 </r>
       <r>    0.2968    1.0000 </r>
       <r>    0.3077    1.0000 </r>
       <r>    0.3198    1.0000 </r>
       <r>    0.3213    1.0000 </r>
       <r>    0.3358    1.0000 </r>
       <r>    0.3492    1.0000 </r>
       <r>    0.3683    1.0000 </r>
       <r>    0.3898    1.0000 </r>
       <r>    0.3939    1.0000 </r>
       <r>    0.4214    1.0000 </r>
       <r>    0.4285    1.0000 </r>
       <r>    0.4528    1.0000 </r>
       <r>    0.4631    1.0000 </r>
       <r>    0.4659    1.0000 </r>
       <r>    0.4839    1.0000 </r>
       <r>    0.4923    1.0000 </r>
       <r>    0.5166    1.0000 </r>
       <r>    0.5335    1.0000 </r>
       <r>    0.5710    1.0000 </r>
       <r>    0.5820    1.0000 </r>
       <r>    0.5950    1.0000 </r>
       <r>    0.6147    1.0000 </r>
       <r>    0.6167    1.0000 </r>
       <r>    0.6282    1.0000 </r>
       <r>    0.6397    1.0000 </r>
       <r>    0.6556    1.0000 </r>
       <r>    0.6709    1.0000 </r>
       <r>    0.6813    1.0000 </r>
       <r>    0.6879    1.0000 </r>
       <r>    0.6923    1.0000 </r>
       <r>    0.7281    1.0000 </r>
       <r>    0.7489    1.0000 </r>
       <r>    0.7745    1.0000 </r>
       <r>    0.8134    1.0000 </r>
       <r>    0.8255    1.0000 </r>
       <r>    0.8470    1.0000 </r>
       <r>    0.8590    1.0000 </r>
       <r>    0.8789    1.0000 </r>
       <r>    0.9016    1.0000 </r>
       <r>    0.9265    0.9999 </r>
       <r>    0.9370    0.9999 </r>
       <r>    0.9597    0.9998 </r>
       <r>    0.9652    0.9998 </r>
       <r>    1.0026    0.9995 </r>
       <r>    1.0347    0.9989 </r>
       <r>    1.0592    0.9980 </r>
       <r>    1.1021    0.9950 </r>
       <r>    1.1149    0.9935 </r>
       <r>    1.1322    0.9909 </r>
       <r>    1.1646    0.9835 </r>
       <r>    1.1887    0.9752 </r>
       <r>    1.2239    0.9568 </r>
       <r>    1.2537    0.9336 </r>
       <r>    1.2834    0.9021 </r>
       <r>    1.3157    0.8566 </r>
       <r>    1.3659    0.7612 </r>
       <r>    1.3743    0.7424 </r>
       <r>    1.3980    0.6854 </r>
       <r>    1.4103    0.6539 </r>
       <r>    1.4430    0.5655 </r>
       <r>    1.4837    0.4511 </r>
       <r>    1.5144    0.3670 </r>
[...]
       <r>   -58.1207     0.0000   288.0000 </r>
       <r>   -57.8621     0.0000   288.0000 </r>
       <r>   -57.6035     0.0000   288.0000 </r>
       <r>   -57.3448     0.0000   288.0000 </r>
       <r>   -57.0862     0.0000   288.0000 </r>
       <r>   -56.8276     0.0000   288.0000 </r>
       <r>   -56.5689     0.0000   288.0000 </r>
       <r>   -56.3103     0.0000   288.0000 </r>
       <r>   -56.0517     0.0000   288.0000 </r>
       <r>   -55.7931     0.0000   288.0000 </r>
       <r>   -55.5344     0.0000   288.0000 </r>
       <r>   -55.2758     0.0000   288.0000 </r>
       <r>   -55.0172     0.0000   288.0000 </r>
       <r>   -54.7585     0.0000   288.0000 </r>
       <r>   -54.4999     0.0000   288.0000 </r>
       <r>   -54.2413     0.0000   288.0000 </r>
       <r>   -53.9826     0.0000   288.0000 </r>
       <r>   -53.7240     0.0000   288.0000 </r>
       <r>   -53.4654     0.0000   288.0000 </r>
       <r>   -53.2068     0.0000   288.0000 </r>
       <r>   -52.9481     0.0000   288.0000 </r>
       <r>   -52.6895     0.0000   288.0000 </r>
       <r>   -52.4309     0.0000   288.0000 </r>
       <r>   -52.1722     0.0000   288.0000 </r>
       <r>   -51.9136     0.0000   288.0000 </r>
       <r>   -51.6550     0.0000   288.0000 </r>
       <r>   -51.3963     0.0000   288.0000 </r>
       <r>   -51.1377     0.0000   288.0000 </r>
       <r>   -50.8791     0.0000   288.0000 </r>
       <r>   -50.6205     0.0000   288.0000 </r>
       <r>   -50.3618     0.0000   288.0000 </r>
       <r>   -50.1032     0.0000   288.0000 </r>
       <r>   -49.8446     0.0000   288.0000 </r>
       <r>   -49.5859     0.0000   288.0000 </r>
       <r>   -49.3273     0.0000   288.0000 </r>
       <r>   -49.0687     0.0000   288.0000 </r>
       <r>   -48.8100     0.0000   288.0000 </r>
       <r>   -48.5514     0.0000   288.0000 </r>
       <r>   -48.2928     0.0000   288.0000 </r>
       <r>   -48.0342     0.0000   288.0000 </r>
       <r>   -47.7755     0.0000   288.0000 </r>
       <r>   -47.5169     0.0000   288.0000 </r>
       <r>   -47.2583     0.0000   288.0000 </r>
       <r>   -46.9996     0.0000   288.0000 </r>
       <r>   -46.7410     0.0000   288.0000 </r>
       <r>   -46.4824     0.0000   288.0000 </r>
       <r>   -46.2237     0.0000   288.0000 </r>
       <r>   -45.9651     0.0000   288.0000 </r>
       <r>   -45.7065     0.0000   288.0000 </r>
       <r>   -45.4479     0.0000   288.0000 </r>
       <r>   -45.1892     0.0000   288.0000 </r>
       <r>   -44.9306     0.0000   288.0000 </r>
       <r>   -44.6720     0.0000   288.0000 </r>
       <r>   -44.4133     0.0000   288.0000 </r>
       <r>   -44.1547     0.0000   288.0000 </r>
       <r>   -43.8961     0.0000   288.0000 </r>
       <r>   -43.6374     0.0000   288.0000 </r>
       <r>   -43.3788     0.0000   288.0000 </r>
       <r>   -43.1202     0.0000   288.0000 </r>
       <r>   -42.8616     0.0000   288.0000 </r>
       <r>   -42.6029     0.0000   288.0000 </r>
       <r>   -42.3443     0.0000   288.0000 </r>
       <r>   -42.0857     0.0000   288.0000 </r>
       <r>   -41.8270     0.0000   288.0000 </r>
       <r>   -41.5684     0.0000   288.0000 </r>
       <r>   -41.3098     0.0000   288.0000 </r>
       <r>   -41.0511     0.0000   288.0000 </r>
       <r>   -40.7925     0.0000   288.0000 </r>
       <r>   -40.5339     0.0000   288.0000 </r>
       <r>   -40.2753     0.0000   288.0000 </r>
       <r>   -40.0166     0.0000   288.0000 </r>
       <r>   -39.7580     0.0000   288.0000 </r>
       <r>   -39.4994     0.0000   288.0000 </r>
       <r>   -39.2407     0.0000   288.0000 </r>
       <r>   -38.9821     0.0000   288.0000 </r>
       <r>   -38.7235     0.0000   288.0000 </r>
       <r>   -38.4648     0.0000   288.0000 </r>
       <r>   -38.2062     0.0000   288.0000 </r>
       <r>   -37.9476     0.0000   288.0000 </r>
       <r>   -37.6890     0.0000   288.0000 </r>
       <r>   -37.4303     0.0000   288.0000 </r>
       <r>   -37.1717     0.0000   288.0000 </r>
       <r>   -36.9131     0.0000   288.0000 </r>
       <r>   -36.6544     0.0000   288.0000 </r>
       <r>   -36.3958     0.0000   288.0000 </r>
       <r>   -36.1372     0.0000   288.0000 </r>
       <r>   -35.8785     0.0000   288.0000 </r>
       <r>   -35.6199     0.0000   288.0000 </r>
       <r>   -35.3613     0.0000   288.0000 </r>
       <r>   -35.1027     0.0000   288.0000 </r>
       <r>   -34.8440     0.0000   288.0000 </r>
       <r>   -34.5854     0.0000   288.0000 </r>
       <r>   -34.3268     0.0000   288.0000 </r>
       <r>   -34.0681     0.0000   288.0000 </r>
       <r>   -33.8095     0.0000   288.0000 </r>
       <r>   -33.5509     0.0000   288.0000 </r>
       <r>   -33.2922     0.0000   288.0000 </r>
       <r>   -33.0336     0.0000   288.0000 </r>
       <r>   -32.7750     0.0000   288.0000 </r>
       <r>   -32.5164     0.0000   288.0000 </r>
       <r>   -32.2577     0.0000   288.0000 </r>
       <r>   -31.9991     0.0000   288.0000 </r>
       <r>   -31.7405     0.0000   288.0000 </r>
       <r>   -31.4818     0.0000   288.0000 </r>
       <r>   -31.2232     0.0000   288.0000 </r>
       <r>   -30.9646     0.0000   288.0000 </r>
       <r>   -30.7059     0.0000   288.0000 </r>
       <r>   -30.4473     0.0000   288.0000 </r>
       <r>   -30.1887     0.0000   288.0000 </r>
       <r>   -29.9301     0.0000   288.0000 </r>
       <r>   -29.6714     0.0000   288.0000 </r>
       <r>   -29.4128     0.0000   288.0000 </r>
       <r>   -29.1542     0.0000   288.0000 </r>
       <r>   -28.8955     0.0000   288.0000 </r>
       <r>   -28.6369     0.0000   288.0000 </r>
       <r>   -28.3783     0.0000   288.0000 </r>
       <r>   -28.1196     0.0000   288.0000 </r>
       <r>   -27.8610     0.0000   288.0000 </r>
       <r>   -27.6024     0.0000   288.0000 </r>
       <r>   -27.3438     0.0000   288.0000 </r>
       <r>   -27.0851     0.0000   288.0000 </r>
       <r>   -26.8265     0.0000   288.0000 </r>
       <r>   -26.5679     0.0000   288.0000 </r>
       <r>   -26.3092     0.0000   288.0000 </r>
       <r>   -26.0506     0.0000   288.0000 </r>
       <r>   -25.7920     0.0000   288.0000 </r>
       <r>   -25.5333     0.0000   288.0000 </r>
       <r>   -25.2747     0.0000   288.0000 </r>
       <r>   -25.0161     0.0000   288.0000 </r>
       <r>   -24.7575     0.0000   288.0000 </r>
       <r>   -24.4988     0.0000   288.0000 </r>
       <r>   -24.2402     0.0000   288.0000 </r>
       <r>   -23.9816     0.0000   288.0000 </r>
       <r>   -23.7229     0.0000   288.0000 </r>
       <r>   -23.4643     0.0000   288.0000 </r>
       <r>   -23.2057     0.0000   288.0000 </r>
       <r>   -22.9470     0.0000   288.0000 </r>
       <r>   -22.6884     0.0000   288.0000 </r>
       <r>   -22.4298     0.0000   288.0000 </r>
       <r>   -22.1712     0.0000   288.0000 </r>
       <r>   -21.9125     0.0000   288.0000 </r>
       <r>   -21.6539     0.0000   288.0000 </r>
       <r>   -21.3953     0.0000   288.0000 </r>
       <r>   -21.1366     0.0000   288.0000 </r>
       <r>   -20.8780     0.0000   288.0000 </r>
       <r>   -20.6194     0.0000   288.0000 </r>
       <r>   -20.3607     0.0000   288.0000 </r>
       <r>   -20.1021     0.0000   288.0000 </r>
       <r>   -19.8435     0.0000   288.0000 </r>
       <r>   -19.5849     0.0000   288.0000 </r>
       <r>   -19.3262     0.0000   288.0000 </r>
       <r>   -19.0676     0.0000   288.0000 </r>
       <r>   -18.8090     0.0000   288.0000 </r>
       <r>   -18.5503     0.0000   288.0000 </r>
       <r>   -18.2917     0.0000   288.0000 </r>
       <r>   -18.0331     0.0000   288.0000 </r>
       <r>   -17.7744     0.0000   288.0000 </r>
       <r>   -17.5158     0.0000   288.0000 </r>
       <r>   -17.2572     0.0000   288.0000 </r>
       <r>   -16.9986     0.0000   288.0000 </r>
       <r>   -16.7399     0.0000   288.0000 </r>
       <r>   -16.4813     0.0000   288.0000 </r>
       <r>   -16.2227     0.0000   288.0000 </r>
       <r>   -15.9640     0.0000   288.0000 </r>
       <r>   -15.7054     0.0000   288.0000 </r>
       <r>   -15.4468     0.0000   288.0000 </r>
       <r>   -15.1881     0.0000   288.0000 </r>
       <r>   -14.9295     0.0000   288.0000 </r>
       <r>   -14.6709     0.0000   288.0000 </r>
       <r>   -14.4123     0.0092   288.0024 </r>
       <r>   -14.1536     0.8645   288.2260 </r>
       <r>   -13.8950     4.7901   289.4648 </r>
       <r>   -13.6364     2.7395   290.1733 </r>
       <r>   -13.3777     8.2806   292.3150 </r>
       <r>   -13.1191    21.7702   297.9454 </r>
       <r>   -12.8605    25.7507   304.6053 </r>
       <r>   -12.6018    34.7102   313.5824 </r>
       <r>   -12.3432    29.5985   321.2375 </r>
       <r>   -12.0846    48.2178   333.7080 </r>
       <r>   -11.8260    58.0257   348.7152 </r>
       <r>   -11.5673    34.5834   357.6595 </r>
       <r>   -11.3087    16.6653   361.9697 </r>
       <r>   -11.0501    15.7539   366.0441 </r>
       <r>   -10.7914    23.1897   372.0417 </r>
       <r>   -10.5328    21.6458   377.6399 </r>
       <r>   -10.2742    13.1092   381.0303 </r>
       <r>   -10.0155    10.4588   383.7353 </r>
       <r>    -9.7569     1.0168   383.9983 </r>
       <r>    -9.4983     0.0067   384.0000 </r>
       <r>    -9.2397     0.0000   384.0000 </r>
       <r>    -8.9810     0.0000   384.0000 </r>
       <r>    -8.7224     0.0000   384.0000 </r>
       <r>    -8.4638     0.0000   384.0000 </r>
       <r>    -8.2051     0.0000   384.0000 </r>
       <r>    -7.9465     0.0000   384.0000 </r>
       <r>    -7.6879     0.0000   384.0000 </r>
       <r>    -7.4292     0.0000   384.0000 </r>
       <r>    -7.1706     0.0000   384.0000 </r>
       <r>    -6.9120     0.0000   384.0000 </r>
       <r>    -6.6534     0.0000   384.0000 </r>
       <r>    -6.3947     0.0001   384.0000 </r>
       <r>    -6.1361     0.1281   384.0331 </r>
       <r>    -5.8775     7.4865   385.9694 </r>
       <r>    -5.6188    29.3369   393.5568 </r>
       <r>    -5.3602    17.6182   398.1134 </r>
       <r>    -5.1016    27.7758   405.2971 </r>
       <r>    -4.8429    47.4797   417.5767 </r>
       <r>    -4.5843    60.3256   433.1787 </r>
       <r>    -4.3257    65.3381   450.0771 </r>
       <r>    -4.0671    36.2087   459.4418 </r>
       <r>    -3.8084    44.7142   471.0062 </r>
       <r>    -3.5498    67.5717   488.4823 </r>
       <r>    -3.2912    67.1041   505.8374 </r>
       <r>    -3.0325    89.3422   528.9440 </r>
       <r>    -2.7739    86.9268   551.4259 </r>
       <r>    -2.5153    86.6785   573.8435 </r>
       <r>    -2.2566   103.7615   600.6794 </r>
       <r>    -1.9980    65.9988   617.7486 </r>
       <r>    -1.7394    52.0129   631.2007 </r>
       <r>    -1.4808    66.8847   648.4991 </r>
       <r>    -1.2221    84.4455   670.3392 </r>
       <r>    -0.9635   102.3161   696.8013 </r>
       <r>    -0.7049   132.8811   731.1683 </r>
       <r>    -0.4462   164.4893   773.7102 </r>
       <r>    -0.1876   195.7596   824.3395 </r>
       <r>     0.0710   226.2843   882.8634 </r>
       <r>     0.3297   213.1232   937.9835 </r>
       <r>     0.5883   151.7468   977.2297 </r>
       <r>     0.8469   115.4332  1007.0842 </r>
       <r>     1.1055    88.1454  1029.8813 </r>
       <r>     1.3642    72.7214  1048.6892 </r>
       <r>     1.6228    70.4526  1066.9104 </r>
       <r>     1.8814    65.2863  1083.7953 </r>
       <r>     2.1401    77.0118  1103.7129 </r>
       <r>     2.3987    77.9056  1123.8617 </r>
       <r>     2.6573    69.8978  1141.9393 </r>
       <r>     2.9160    34.5746  1150.8814 </r>
       <r>     3.1746     5.0341  1152.1833 </r>
       <r>     3.4332     5.7822  1153.6788 </r>
       <r>     3.6918     7.2523  1155.5545 </r>
       <r>     3.9505     4.6284  1156.7515 </r>
       <r>     4.2091     4.7867  1157.9895 </r>
       <r>     4.4677     8.8072  1160.2673 </r>
       <r>     4.7264    18.4513  1165.0393 </r>
       <r>     4.9850    19.6214  1170.1140 </r>
       <r>     5.2436    17.7582  1174.7068 </r>
       <r>     5.5023    18.0888  1179.3851 </r>
       <r>     5.7609    20.6002  1184.7130 </r>
       <r>     6.0195    25.9959  1191.4363 </r>
       <r>     6.2781    39.0219  1201.5285 </r>
       <r>     6.5368    31.6071  1209.7030 </r>
       <r>     6.7954    37.0577  1219.2873 </r>
       <r>     7.0540    44.3754  1230.7641 </r>
       <r>     7.3127    50.4405  1243.8095 </r>
       <r>     7.5713    48.2278  1256.2827 </r>
       <r>     7.8299    56.6270  1270.9281 </r>
       <r>     8.0886    32.1436  1279.2414 </r>
       <r>     8.3472     2.9111  1279.9943 </r>
       <r>     8.6058     0.0219  1280.0000 </r>
       <r>     8.8644     0.0000  1280.0000 </r>
       <r>     9.1231     0.0000  1280.0000 </r>
       <r>     9.3817     0.0000  1280.0000 </r>
       <r>     9.6403     0.0000  1280.0000 </r>
       <r>     9.8990     0.0000  1280.0000 </r>
       <r>    10.1576     0.0000  1280.0000 </r>
       <r>    10.4162     0.0000  1280.0000 </r>
       <r>    10.6749     0.0000  1280.0000 </r>
       <r>    10.9335     0.0000  1280.0000 </r>
       <r>    11.1921     0.0000  1280.0000 </r>
       <r>    11.4507     0.0000  1280.0000 </r>
      </set>
     </set>
    </array>
   </total>
  </dos>
 </calculation>
 <structure name="finalpos" >
  <crystal>
   <varray name="basis" >
    <v>      10.06282034       5.04456212       0.00000000 </v>
    <v>       0.00000000      11.25646304       0.00000000 </v>
    <v>       0.00000000       0.00000000      21.74423184 </v>
   </varray>
   <i name="volume">   2463.00752351 </i>
   <varray name="rec_basis" >
    <v>       0.09937572       0.00000000       0.00000000 </v>
    <v>      -0.04453504       0.08883785       0.00000000 </v>
    <v>       0.00000000       0.00000000       0.04598921 </v>
   </varray>
  </crystal>
  <varray name="positions" >
   <v>       0.26092070       0.47878036       0.25332799 </v>
   <v>       0.35488056       0.38482049       0.38835497 </v>
   <v>       0.44884043       0.29086063       0.52338195 </v>
   <v>       0.16696083       0.07274024       0.11830101 </v>
   <v>       0.05611868       0.05147940       0.48770701 </v>
   <v>       0.27423907       0.33335899       0.08262607 </v>
   <v>       0.36819893       0.23939913       0.21765305 </v>
   <v>       0.46215880       0.14543926       0.35268003 </v>
   <v>       0.00030194       0.37150212       0.21765305 </v>
   <v>       0.09426181       0.27754226       0.35268003 </v>
   <v>       0.18822168       0.18358239       0.48770701 </v>
   <v>       0.40634206       0.46546199       0.08262607 </v>
   <v>       0.76092070       0.47878036       0.25332799 </v>
   <v>       0.85488056       0.38482049       0.38835497 </v>
   <v>       0.94884043       0.29086063       0.52338195 </v>
   <v>       0.66696083       0.07274024       0.11830101 </v>
   <v>       0.55611868       0.05147940       0.48770701 </v>
   <v>       0.77423907       0.33335899       0.08262607 </v>
   <v>       0.86819893       0.23939913       0.21765305 </v>
   <v>       0.96215880       0.14543926       0.35268003 </v>
   <v>       0.50030194       0.37150212       0.21765305 </v>
   <v>       0.59426181       0.27754226       0.35268003 </v>
   <v>       0.68822168       0.18358239       0.48770701 </v>
   <v>       0.90634206       0.46546199       0.08262607 </v>
   <v>       0.26092070       0.97878036       0.25332799 </v>
   <v>       0.35488056       0.88482049       0.38835497 </v>
   <v>       0.44884043       0.79086063       0.52338195 </v>
   <v>       0.16696083       0.57274024       0.11830101 </v>
   <v>       0.05611868       0.55147940       0.48770701 </v>
   <v>       0.27423907       0.83335899       0.08262607 </v>
   <v>       0.36819893       0.73939913       0.21765305 </v>
   <v>       0.46215880       0.64543926       0.35268003 </v>
   <v>       0.00030194       0.87150212       0.21765305 </v>
   <v>       0.09426181       0.77754226       0.35268003 </v>
   <v>       0.18822168       0.68358239       0.48770701 </v>
   <v>       0.40634206       0.96546199       0.08262607 </v>
   <v>       0.76092070       0.97878036       0.25332799 </v>
   <v>       0.85488056       0.88482049       0.38835497 </v>
   <v>       0.94884043       0.79086063       0.52338195 </v>
   <v>       0.66696083       0.57274024       0.11830101 </v>
   <v>       0.55611868       0.55147940       0.48770701 </v>
   <v>       0.77423907       0.83335899       0.08262607 </v>
   <v>       0.86819893       0.73939913       0.21765305 </v>
   <v>       0.96215880       0.64543926       0.35268003 </v>
   <v>       0.50030194       0.87150212       0.21765305 </v>
   <v>       0.59426181       0.77754226       0.35268003 </v>
   <v>       0.68822168       0.68358239       0.48770701 </v>
   <v>       0.90634206       0.96546199       0.08262607 </v>
   <v>       0.07287763       0.16682343       0.27005396 </v>
   <v>       0.16683750       0.07286357       0.40508094 </v>
   <v>       0.47891775       0.26078330       0.13502698 </v>
   <v>       0.26079737       0.47890369       0.54010792 </v>
   <v>       0.03023342       0.37768264       0.45050807 </v>
   <v>       0.43627354       0.47164251       0.31548109 </v>
   <v>       0.24835381       0.15956225       0.04542713 </v>
   <v>       0.34231368       0.06560239       0.18045411 </v>
   <v>       0.08013882       0.49134725       0.04542713 </v>
   <v>       0.17409868       0.39738738       0.18045411 </v>
   <v>       0.26805855       0.30342751       0.31548109 </v>
   <v>       0.36201842       0.20946764       0.45050807 </v>
   <v>       0.57287763       0.16682343       0.27005396 </v>
   <v>       0.66683750       0.07286357       0.40508094 </v>
   <v>       0.88495789       0.35474317       0.00000000 </v>
   <v>       0.97891775       0.26078330       0.13502698 </v>
   <v>       0.76079737       0.47890369       0.54010792 </v>
   <v>       0.53023342       0.37768264       0.45050807 </v>
   <v>       0.93627354       0.47164251       0.31548109 </v>
   <v>       0.84231368       0.06560239       0.18045411 </v>
   <v>       0.58013882       0.49134725       0.04542713 </v>
   <v>       0.67409868       0.39738738       0.18045411 </v>
   <v>       0.76805855       0.30342751       0.31548109 </v>
   <v>       0.86201842       0.20946764       0.45050807 </v>
   <v>       0.07287763       0.66682343       0.27005396 </v>
   <v>       0.16683750       0.57286357       0.40508094 </v>
   <v>       0.38495789       0.85474317       0.00000000 </v>
   <v>       0.47891775       0.76078330       0.13502698 </v>
   <v>       0.26079737       0.97890369       0.54010792 </v>
   <v>       0.03023342       0.87768264       0.45050807 </v>
   <v>       0.43627354       0.97164251       0.31548109 </v>
   <v>       0.34231368       0.56560239       0.18045411 </v>
   <v>       0.08013882       0.99134725       0.04542713 </v>
   <v>       0.17409868       0.89738738       0.18045411 </v>
   <v>       0.26805855       0.80342751       0.31548109 </v>
   <v>       0.36201842       0.70946764       0.45050807 </v>
   <v>       0.57287763       0.66682343       0.27005396 </v>
   <v>       0.66683750       0.57286357       0.40508094 </v>
   <v>       0.88495789       0.85474317       0.00000000 </v>
   <v>       0.97891775       0.76078330       0.13502698 </v>
   <v>       0.76079737       0.97890369       0.54010792 </v>
   <v>       0.53023342       0.87768264       0.45050807 </v>
   <v>       0.93627354       0.97164251       0.31548109 </v>
   <v>       0.84231368       0.56560239       0.18045411 </v>
   <v>       0.58013882       0.99134725       0.04542713 </v>
   <v>       0.67409868       0.89738738       0.18045411 </v>
   <v>       0.76805855       0.80342751       0.31548109 </v>
   <v>       0.86201842       0.70946764       0.45050807 </v>
  </varray>
 </structure>
</modeling>
