<?xml version="1.0" encoding="ISO-8859-1"?>
<modeling>
 <generator>
  <i name="program" type="string">vasp </i>
  <i name="version" type="string">6.1.0  </i>
  <i name="subversion" type="string">28Jan20 (build Mar 31 2020 17:42:31) gamma-only                       parallel </i>
  <i name="platform" type="string">LinuxIFC </i>
  <i name="date" type="string">2020 04 11 </i>
  <i name="time" type="string">23:19:29 </i>
 </generator>
 <incar>
  <i type="string" name="SYSTEM">"Millerite NiS"</i>
  <i type="int" name="NSIM">     4</i>
  <i type="int" name="NELM">   100</i>
  <i name="ENCUT">    450.00000000</i>
  <i type="string" name="LREAL">A</i>
  <i type="int" name="ISMEAR">     0</i>
  <i type="int" name="NWRITE">     2</i>
  <i type="logical" name="LWAVE"> F  </i>
  <i type="logical" name="LCHARG"> F  </i>
  <i type="int" name="NCORE">     6</i>
  <i type="int" name="NELM">   100</i>
 </incar>
 <structure name="primitive_cell" >
  <crystal>
   <varray name="basis" >
    <v>      10.06282034       5.04456212       0.00000000 </v>
    <v>       0.00000000      11.25646304       0.00000000 </v>
    <v>       0.00000000       0.00000000      21.74423184 </v>
   </varray>
   <i name="volume">   2463.00752351 </i>
   <varray name="rec_basis" >
    <v>       0.09937572       0.00000000       0.00000000 </v>
    <v>      -0.04453504       0.08883785       0.00000000 </v>
    <v>       0.00000000       0.00000000       0.04598921 </v>
   </varray>
  </crystal>
  <varray name="positions" >
   <v>       0.26092070       0.47878036       0.25332799 </v>
   <v>       0.35488056       0.38482049       0.38835497 </v>
   <v>       0.44884043       0.29086063       0.52338195 </v>
   <v>       0.16696083       0.07274024       0.11830101 </v>
   <v>       0.05611868       0.05147940       0.48770701 </v>
   <v>       0.27423907       0.33335899       0.08262607 </v>
   <v>       0.36819893       0.23939913       0.21765305 </v>
   <v>       0.46215880       0.14543926       0.35268003 </v>
   <v>       0.00030194       0.37150212       0.21765305 </v>
   <v>       0.09426181       0.27754226       0.35268003 </v>
   <v>       0.18822168       0.18358239       0.48770701 </v>
   <v>       0.40634206       0.46546199       0.08262607 </v>
   <v>       0.76092070       0.47878036       0.25332799 </v>
   <v>       0.85488056       0.38482049       0.38835497 </v>
   <v>       0.94884043       0.29086063       0.52338195 </v>
   <v>       0.66696083       0.07274024       0.11830101 </v>
   <v>       0.55611868       0.05147940       0.48770701 </v>
   <v>       0.77423907       0.33335899       0.08262607 </v>
   <v>       0.86819893       0.23939913       0.21765305 </v>
   <v>       0.96215880       0.14543926       0.35268003 </v>
   <v>       0.50030194       0.37150212       0.21765305 </v>
   <v>       0.59426181       0.27754226       0.35268003 </v>
   <v>       0.68822168       0.18358239       0.48770701 </v>
   <v>       0.90634206       0.46546199       0.08262607 </v>
   <v>       0.26092070       0.97878036       0.25332799 </v>
   <v>       0.35488056       0.88482049       0.38835497 </v>
   <v>       0.44884043       0.79086063       0.52338195 </v>
   <v>       0.16696083       0.57274024       0.11830101 </v>
   <v>       0.05611868       0.55147940       0.48770701 </v>
   <v>       0.27423907       0.83335899       0.08262607 </v>
   <v>       0.36819893       0.73939913       0.21765305 </v>
   <v>       0.46215880       0.64543926       0.35268003 </v>
   <v>       0.00030194       0.87150212       0.21765305 </v>
   <v>       0.09426181       0.77754226       0.35268003 </v>
   <v>       0.18822168       0.68358239       0.48770701 </v>
   <v>       0.40634206       0.96546199       0.08262607 </v>
   <v>       0.76092070       0.97878036       0.25332799 </v>
   <v>       0.85488056       0.88482049       0.38835497 </v>
   <v>       0.94884043       0.79086063       0.52338195 </v>
   <v>       0.66696083       0.57274024       0.11830101 </v>
   <v>       0.55611868       0.55147940       0.48770701 </v>
   <v>       0.77423907       0.83335899       0.08262607 </v>
   <v>       0.86819893       0.73939913       0.21765305 </v>
   <v>       0.96215880       0.64543926       0.35268003 </v>
   <v>       0.50030194       0.87150212       0.21765305 </v>
   <v>       0.59426181       0.77754226       0.35268003 </v>
   <v>       0.68822168       0.68358239       0.48770701 </v>
   <v>       0.90634206       0.96546199       0.08262607 </v>
   <v>       0.07287763       0.16682343       0.27005396 </v>
   <v>       0.16683750       0.07286357       0.40508094 </v>
   <v>       0.47891775       0.26078330       0.13502698 </v>
   <v>       0.03023342       0.37768264       0.45050807 </v>
   <v>       0.43627354       0.47164251       0.31548109 </v>
   <v>       0.24835381       0.15956225       0.04542713 </v>
   <v>       0.34231368       0.06560239       0.18045411 </v>
   <v>       0.08013882       0.49134724       0.04542713 </v>
   <v>       0.17409868       0.39738738       0.18045411 </v>
   <v>       0.26805855       0.30342751       0.31548109 </v>
   <v>       0.36201842       0.20946764       0.45050807 </v>
   <v>       0.57287763       0.16682343       0.27005396 </v>
   <v>       0.66683750       0.07286357       0.40508094 </v>
   <v>       0.88495789       0.35474317       0.00000000 </v>
   <v>       0.97891775       0.26078330       0.13502698 </v>
   <v>       0.76079737       0.47890369       0.54010792 </v>
   <v>       0.53023342       0.37768264       0.45050807 </v>
   <v>       0.93627354       0.47164251       0.31548109 </v>
   <v>       0.74835381       0.15956225       0.04542713 </v>
   <v>       0.84231368       0.06560239       0.18045411 </v>
   <v>       0.58013882       0.49134724       0.04542713 </v>
   <v>       0.67409868       0.39738738       0.18045411 </v>
   <v>       0.76805855       0.30342751       0.31548109 </v>
   <v>       0.86201842       0.20946764       0.45050807 </v>
   <v>       0.07287763       0.66682343       0.27005396 </v>
   <v>       0.16683750       0.57286357       0.40508094 </v>
   <v>       0.47891775       0.76078330       0.13502698 </v>
   <v>       0.26079737       0.97890369       0.54010792 </v>
   <v>       0.03023342       0.87768264       0.45050807 </v>
   <v>       0.43627354       0.97164251       0.31548109 </v>
   <v>       0.24835381       0.65956225       0.04542713 </v>
   <v>       0.34231368       0.56560239       0.18045411 </v>
   <v>       0.08013882       0.99134724       0.04542713 </v>
   <v>       0.17409868       0.89738738       0.18045411 </v>
   <v>       0.26805855       0.80342751       0.31548109 </v>
   <v>       0.36201842       0.70946764       0.45050807 </v>
   <v>       0.57287763       0.66682343       0.27005396 </v>
   <v>       0.66683750       0.57286357       0.40508094 </v>
   <v>       0.88495789       0.85474317       0.00000000 </v>
   <v>       0.97891775       0.76078330       0.13502698 </v>
   <v>       0.76079737       0.97890369       0.54010792 </v>
   <v>       0.53023342       0.87768264       0.45050807 </v>
   <v>       0.93627354       0.97164251       0.31548109 </v>
   <v>       0.84231368       0.56560239       0.18045411 </v>
   <v>       0.58013882       0.99134724       0.04542713 </v>
   <v>       0.67409868       0.89738738       0.18045411 </v>
   <v>       0.76805855       0.80342751       0.31548109 </v>
   <v>       0.86201842       0.70946764       0.45050807 </v>
  </varray>
 </structure>
 <varray name="primitive_index" >
  <v type="int" >        1 </v>
  <v type="int" >        2 </v>
  <v type="int" >        3 </v>
  <v type="int" >        4 </v>
  <v type="int" >        5 </v>
  <v type="int" >        6 </v>
  <v type="int" >        7 </v>
  <v type="int" >        8 </v>
  <v type="int" >        9 </v>
  <v type="int" >       10 </v>
  <v type="int" >       11 </v>
  <v type="int" >       12 </v>
  <v type="int" >       13 </v>
  <v type="int" >       14 </v>
  <v type="int" >       15 </v>
  <v type="int" >       16 </v>
  <v type="int" >       17 </v>
  <v type="int" >       18 </v>
  <v type="int" >       19 </v>
  <v type="int" >       20 </v>
  <v type="int" >       21 </v>
  <v type="int" >       22 </v>
  <v type="int" >       23 </v>
  <v type="int" >       24 </v>
  <v type="int" >       25 </v>
  <v type="int" >       26 </v>
  <v type="int" >       27 </v>
  <v type="int" >       28 </v>
  <v type="int" >       29 </v>
  <v type="int" >       30 </v>
  <v type="int" >       31 </v>
  <v type="int" >       32 </v>
  <v type="int" >       33 </v>
  <v type="int" >       34 </v>
  <v type="int" >       35 </v>
  <v type="int" >       36 </v>
  <v type="int" >       37 </v>
  <v type="int" >       38 </v>
  <v type="int" >       39 </v>
  <v type="int" >       40 </v>
  <v type="int" >       41 </v>
  <v type="int" >       42 </v>
  <v type="int" >       43 </v>
  <v type="int" >       44 </v>
  <v type="int" >       45 </v>
  <v type="int" >       46 </v>
  <v type="int" >       47 </v>
  <v type="int" >       48 </v>
  <v type="int" >       49 </v>
  <v type="int" >       50 </v>
  <v type="int" >       51 </v>
  <v type="int" >       52 </v>
  <v type="int" >       53 </v>
  <v type="int" >       54 </v>
  <v type="int" >       55 </v>
  <v type="int" >       56 </v>
  <v type="int" >       57 </v>
  <v type="int" >       58 </v>
  <v type="int" >       59 </v>
  <v type="int" >       60 </v>
  <v type="int" >       61 </v>
  <v type="int" >       62 </v>
  <v type="int" >       63 </v>
  <v type="int" >       64 </v>
  <v type="int" >       65 </v>
  <v type="int" >       66 </v>
  <v type="int" >       67 </v>
  <v type="int" >       68 </v>
  <v type="int" >       69 </v>
  <v type="int" >       70 </v>
  <v type="int" >       71 </v>
  <v type="int" >       72 </v>
  <v type="int" >       73 </v>
  <v type="int" >       74 </v>
  <v type="int" >       75 </v>
  <v type="int" >       76 </v>
  <v type="int" >       77 </v>
  <v type="int" >       78 </v>
  <v type="int" >       79 </v>
  <v type="int" >       80 </v>
  <v type="int" >       81 </v>
  <v type="int" >       82 </v>
  <v type="int" >       83 </v>
  <v type="int" >       84 </v>
  <v type="int" >       85 </v>
  <v type="int" >       86 </v>
  <v type="int" >       87 </v>
  <v type="int" >       88 </v>
  <v type="int" >       89 </v>
  <v type="int" >       90 </v>
  <v type="int" >       91 </v>
  <v type="int" >       92 </v>
  <v type="int" >       93 </v>
  <v type="int" >       94 </v>
  <v type="int" >       95 </v>
  <v type="int" >       96 </v>
 </varray>
 <kpoints>
  <generation param="Gamma">
   <v type="int" name="divisions">       1        1        1 </v>
   <v name="usershift">      0.00000000       0.00000000       0.00000000 </v>
   <v name="genvec1">      1.00000000       0.00000000       0.00000000 </v>
   <v name="genvec2">     -0.00000000       1.00000000       0.00000000 </v>
   <v name="genvec3">      0.00000000       0.00000000       1.00000000 </v>
   <v name="shift">      0.00000000       0.00000000       0.00000000 </v>
  </generation>
  <varray name="kpointlist" >
   <v>       0.00000000       0.00000000       0.00000000 </v>
  </varray>
  <varray name="weights" >
   <v>       1.00000000 </v>
  </varray>
 </kpoints>
 <parameters>
  <separator name="general" >
   <i type="string" name="SYSTEM">"Millerite NiS"</i>
   <i type="logical" name="LCOMPAT"> F  </i>
  </separator>
  <separator name="electronic" >
   <i type="string" name="PREC">normal</i>
   <i name="ENMAX">    450.00000000</i>
   <i name="ENAUG">    703.44300000</i>
   <i name="EDIFF">      0.00010000</i>
   <i type="int" name="IALGO">    38</i>
   <i type="int" name="IWAVPR">    10</i>
   <i type="int" name="NBANDS">   640</i>
   <i type="int" name="NBANDSLOW">    -1</i>
   <i type="int" name="NBANDSHIGH">    -1</i>
   <i name="NELECT">   1056.00000000</i>
   <i type="int" name="TURBO">     0</i>
   <i type="int" name="IRESTART">     0</i>
   <i type="int" name="NREBOOT">     0</i>
   <i type="int" name="NMIN">     0</i>
   <i name="EREF">      0.00000000</i>
   <separator name="electronic smearing" >
    <i type="int" name="ISMEAR">     0</i>
    <i name="SIGMA">      0.20000000</i>
    <i name="KSPACING">      0.50000000</i>
    <i type="logical" name="KGAMMA"> T  </i>
    <i type="logical" name="KBLOWUP"> T  </i>
   </separator>
   <separator name="electronic projectors" >
    <i type="logical" name="LREAL"> T  </i>
    <v name="ROPT">     -0.00050000     -0.00050000</v>
    <i type="int" name="LMAXPAW">  -100</i>
    <i type="int" name="LMAXMIX">     2</i>
    <i type="logical" name="NLSPLINE"> F  </i>
   </separator>
   <separator name="electronic startup" >
    <i type="int" name="ISTART">     0</i>
    <i type="int" name="ICHARG">     2</i>
    <i type="int" name="INIWAV">     1</i>
   </separator>
   <separator name="electronic spin" >
    <i type="int" name="ISPIN">     1</i>
    <i type="logical" name="LNONCOLLINEAR"> F  </i>
    <v name="MAGMOM">      1.00000000      1.00000000      1.00000000      1.00000000      1.00000000      1.00000000      1.00000000      1.00000000      1.00000000      1.00000000      1.00000000      1.00000000      1.00000000      1.00000000      1.00000000      1.00000000      1.00000000      1.00000000      1.00000000      1.00000000
      1.00000000      1.00000000      1.00000000      1.00000000      1.00000000      1.00000000      1.00000000      1.00000000      1.00000000      1.00000000      1.00000000      1.00000000      1.00000000      1.00000000      1.00000000      1.00000000      1.00000000      1.00000000      1.00000000      1.00000000
      1.00000000      1.00000000      1.00000000      1.00000000      1.00000000      1.00000000      1.00000000      1.00000000      1.00000000      1.00000000      1.00000000      1.00000000      1.00000000      1.00000000      1.00000000      1.00000000      1.00000000      1.00000000      1.00000000      1.00000000
      1.00000000      1.00000000      1.00000000      1.00000000      1.00000000      1.00000000      1.00000000      1.00000000      1.00000000      1.00000000      1.00000000      1.00000000      1.00000000      1.00000000      1.00000000      1.00000000      1.00000000      1.00000000      1.00000000      1.00000000
      1.00000000      1.00000000      1.00000000      1.00000000      1.00000000      1.00000000      1.00000000      1.00000000      1.00000000      1.00000000      1.00000000      1.00000000      1.00000000      1.00000000      1.00000000      1.00000000</v>
    <i name="NUPDOWN">     -1.00000000</i>
    <i type="logical" name="LSORBIT"> F  </i>
    <v name="SAXIS">      0.00000000      0.00000000      1.00000000</v>
    <i type="logical" name="LSPIRAL"> F  </i>
    <v name="QSPIRAL">      0.00000000      0.00000000      0.00000000</v>
    <i type="logical" name="LZEROZ"> F  </i>
   </separator>
   <separator name="electronic exchange-correlation" >
    <i type="logical" name="LASPH"> F  </i>
    <i type="logical" name="LMETAGGA"> F  </i>
   </separator>
   <separator name="electronic convergence" >
    <i type="int" name="NELM">   100</i>
    <i type="int" name="NELMDL">    -5</i>
    <i type="int" name="NELMIN">     2</i>
    <i name="ENINI">    450.00000000</i>
    <separator name="electronic convergence detail" >
     <i type="logical" name="LDIAG"> T  </i>
     <i type="logical" name="LSUBROT"> F  </i>
     <i name="WEIMIN">      0.00000000</i>
     <i name="EBREAK">      0.00000004</i>
     <i name="DEPER">      0.30000000</i>
     <i type="int" name="NRMM">     4</i>
     <i name="TIME">      0.40000000</i>
    </separator>
   </separator>
   <separator name="electronic mixer" >
    <i name="AMIX">      0.40000000</i>
    <i name="BMIX">      1.00000000</i>
    <i name="AMIN">      0.10000000</i>
    <i name="AMIX_MAG">      1.60000000</i>
    <i name="BMIX_MAG">      1.00000000</i>
    <separator name="electronic mixer details" >
     <i type="int" name="IMIX">     4</i>
     <i type="logical" name="MIXFIRST"> F  </i>
     <i type="int" name="MAXMIX">   -45</i>
     <i name="WC">    100.00000000</i>
     <i type="int" name="INIMIX">     1</i>
     <i type="int" name="MIXPRE">     1</i>
     <i type="int" name="MREMOVE">     5</i>
    </separator>
   </separator>
   <separator name="electronic dipolcorrection" >
    <i type="logical" name="LDIPOL"> F  </i>
    <i type="logical" name="LMONO"> F  </i>
    <i type="int" name="IDIPOL">     0</i>
    <i name="EPSILON">      1.00000000</i>
    <v name="DIPOL">   -100.00000000   -100.00000000   -100.00000000</v>
    <i name="EFIELD">      0.00000000</i>
   </separator>
  </separator>
  <separator name="grids" >
   <i type="int" name="NGX">    60</i>
   <i type="int" name="NGY">    60</i>
   <i type="int" name="NGZ">   120</i>
   <i type="int" name="NGXF">   120</i>
   <i type="int" name="NGYF">   120</i>
   <i type="int" name="NGZF">   240</i>
   <i type="logical" name="ADDGRID"> F  </i>
  </separator>
  <separator name="ionic" >
   <i type="int" name="NSW">     0</i>
   <i type="int" name="IBRION">    -1</i>
   <i type="int" name="MDALGO">     0</i>
   <i type="int" name="ISIF">     2</i>
   <i name="PSTRESS">      0.00000000</i>
   <i name="EDIFFG">      0.00100000</i>
   <i type="int" name="NFREE">     0</i>
   <i name="POTIM">      0.50000000</i>
   <i name="SMASS">     -3.00000000</i>
   <i name="SCALEE">      1.00000000</i>
  </separator>
  <separator name="ionic md" >
   <i name="TEBEG">      0.00010000</i>
   <i name="TEEND">      0.00010000</i>
   <i type="int" name="NBLOCK">     1</i>
   <i type="int" name="KBLOCK">     1</i>
   <i type="int" name="NPACO">   256</i>
   <i name="APACO">     16.00000000</i>
  </separator>
  <separator name="symmetry" >
   <i type="int" name="ISYM">     2</i>
   <i name="SYMPREC">      0.00001000</i>
  </separator>
  <separator name="dos" >
   <i type="int" name="LORBIT">     0</i>
   <v name="RWIGS">     -1.00000000     -1.00000000</v>
   <i type="int" name="NEDOS">   301</i>
   <i name="EMIN">     10.00000000</i>
   <i name="EMAX">    -10.00000000</i>
   <i name="EFERMI">      0.00000000</i>
  </separator>
  <separator name="writing" >
   <i type="int" name="NWRITE">     2</i>
   <i type="logical" name="LWAVE"> F  </i>
   <i type="logical" name="LDOWNSAMPLE"> F  </i>
   <i type="logical" name="LCHARG"> F  </i>
   <i type="logical" name="LPARD"> F  </i>
   <i type="logical" name="LVTOT"> F  </i>
   <i type="logical" name="LVHAR"> F  </i>
   <i type="logical" name="LELF"> F  </i>
   <i type="logical" name="LOPTICS"> F  </i>
   <v name="STM">      0.00000000      0.00000000      0.00000000      0.00000000      0.00000000      0.00000000      0.00000000</v>
  </separator>
  <separator name="performance" >
   <i type="int" name="NPAR">     8</i>
   <i type="int" name="NSIM">     4</i>
   <i type="int" name="NBLK">    -1</i>
   <i type="logical" name="LPLANE"> T  </i>
   <i type="logical" name="LSCALAPACK"> T  </i>
   <i type="logical" name="LSCAAWARE"> F  </i>
   <i type="logical" name="LSCALU"> F  </i>
   <i type="logical" name="LASYNC"> F  </i>
   <i type="logical" name="LORBITALREAL"> F  </i>
  </separator>
  <separator name="miscellaneous" >
   <i type="int" name="IDIOT">     3</i>
   <i type="int" name="PHON_NSTRUCT">    -1</i>
   <i type="logical" name="LMUSIC"> F  </i>
   <v name="POMASS">     58.69000000     32.06600000</v>
   <v name="DARWINR">      0.00000000      0.00000000</v>
   <v name="DARWINV">      1.00000000      1.00000000</v>
   <i type="logical" name="LCORR"> T  </i>
  </separator>
  <i type="logical" name="GGA_COMPAT"> T  </i>
  <i type="logical" name="LBERRY"> F  </i>
  <i type="int" name="ICORELEVEL">     0</i>
  <i type="logical" name="LDAU"> F  </i>
  <i type="int" name="I_CONSTRAINED_M">     0</i>
  <separator name="electronic exchange-correlation" >
   <i type="string" name="GGA">--</i>
   <i type="int" name="VOSKOWN">     0</i>
   <i type="logical" name="LHFCALC"> F  </i>
   <i type="string" name="PRECFOCK"></i>
   <i type="logical" name="LSYMGRAD"> F  </i>
   <i type="logical" name="LHFONE"> F  </i>
   <i type="logical" name="LRHFCALC"> F  </i>
   <i type="logical" name="LTHOMAS"> F  </i>
   <i type="logical" name="LMODELHF"> F  </i>
   <i type="logical" name="LFOCKACE"> F  </i>
   <i name="ENCUT4O">     -1.00000000</i>
   <i type="int" name="EXXOEP">     0</i>
   <i type="int" name="FOURORBIT">     0</i>
   <i name="AEXX">      0.00000000</i>
   <i name="HFALPHA">      0.00000000</i>
   <i name="MCALPHA">      0.00000000</i>
   <i name="ALDAX">      1.00000000</i>
   <i name="AGGAX">      1.00000000</i>
   <i name="ALDAC">      1.00000000</i>
   <i name="AGGAC">      1.00000000</i>
   <i type="int" name="NKREDX">     1</i>
   <i type="int" name="NKREDY">     1</i>
   <i type="int" name="NKREDZ">     1</i>
   <i type="logical" name="SHIFTRED"> F  </i>
   <i type="logical" name="ODDONLY"> F  </i>
   <i type="logical" name="EVENONLY"> F  </i>
   <i type="int" name="LMAXFOCK">     0</i>
   <i type="int" name="NMAXFOCKAE">     0</i>
   <i type="logical" name="LFOCKAEDFT"> F  </i>
   <i name="HFSCREEN">      0.00000000</i>
   <i name="HFSCREENC">      0.00000000</i>
   <i type="int" name="NBANDSGWLOW">     0</i>
  </separator>
  <separator name="vdW DFT" >
   <i type="logical" name="LUSE_VDW"> F  </i>
   <i name="Zab_VDW">     -0.84910000</i>
   <i name="PARAM1">      0.12340000</i>
   <i name="PARAM2">      1.00000000</i>
   <i name="PARAM3">      0.00000000</i>
  </separator>
  <separator name="model GW" >
   <i type="int" name="MODEL_GW">     0</i>
   <i name="MODEL_EPS0">     15.39379702</i>
   <i name="MODEL_ALPHA">      1.00000000</i>
  </separator>
  <separator name="linear response parameters" >
   <i type="logical" name="LEPSILON"> F  </i>
   <i type="logical" name="LRPA"> F  </i>
   <i type="logical" name="LNABLA"> F  </i>
   <i type="logical" name="LVEL"> F  </i>
   <i type="int" name="KINTER">     0</i>
   <i name="CSHIFT">      0.10000000</i>
   <i name="OMEGAMAX">     -1.00000000</i>
   <i name="DEG_THRESHOLD">      0.00200000</i>
   <i name="RTIME">     -0.10000000</i>
   <i name="WPLASMAI">      0.00000000</i>
   <v name="DFIELD">      0.00000000      0.00000000      0.00000000</v>
   <v name="WPLASMA">      0.00000000      0.00000000      0.00000000      0.00000000      0.00000000      0.00000000      0.00000000      0.00000000      0.00000000</v>
  </separator>
  <separator name="orbital magnetization" >
   <i type="logical" name="NUCIND"> F  </i>
   <v name="MAGPOS">      0.00000000      0.00000000      0.00000000</v>
   <i type="logical" name="LNICSALL"> T  </i>
   <i type="logical" name="ORBITALMAG"> F  </i>
   <i type="logical" name="LMAGBLOCH"> F  </i>
   <i type="logical" name="LCHIMAG"> F  </i>
   <i type="logical" name="LGAUGE"> T  </i>
   <i type="int" name="MAGATOM">     0</i>
   <v name="MAGDIPOL">      0.00000000      0.00000000      0.00000000</v>
   <v name="AVECCONST">      0.00000000      0.00000000      0.00000000</v>
  </separator>
  <separator name="response functions" >
   <i type="logical" name="LFINITE_TEMPERATURE"> F  </i>
   <i type="logical" name="LADDER"> F  </i>
   <i type="logical" name="LRPAFORCE"> F  </i>
   <i type="logical" name="LFXC"> F  </i>
   <i type="logical" name="LHARTREE"> T  </i>
   <i type="int" name="IBSE">     0</i>
   <v type="int" name="KPOINT">    -1     0     0     0</v>
   <i type="logical" name="LTCTC"> F  </i>
   <i type="logical" name="LTCTE"> F  </i>
   <i type="logical" name="LTETE"> F  </i>
   <i type="logical" name="LTRIPLET"> F  </i>
   <i type="logical" name="LFXCEPS"> F  </i>
   <i type="logical" name="LFXHEG"> F  </i>
   <i type="int" name="NATURALO">     2</i>
   <i type="logical" name="LHOLEGF"> F  </i>
   <i type="logical" name="L2ORDER"> F  </i>
   <i type="logical" name="LDMP1"> F  </i>
   <i type="logical" name="LMP2LT"> F  </i>
   <i type="logical" name="LSMP2LT"> F  </i>
   <i type="logical" name="LGWLF"> F  </i>
   <i name="ENCUTGW">     -2.00000000</i>
   <i name="ENCUTGWSOFT">     -2.00000000</i>
   <i name="ENCUTLF">     -1.00000000</i>
   <i type="logical" name="LESF_SPLINES"> F  </i>
   <i type="int" name="LMAXMP2">    -1</i>
   <i name="SCISSOR">      0.00000000</i>
   <i type="int" name="NOMEGA">     0</i>
   <i type="int" name="NOMEGAR">     0</i>
   <i type="int" name="NBANDSGW">    -1</i>
   <i type="int" name="NBANDSO">    -1</i>
   <i type="int" name="NBANDSV">    -1</i>
   <i type="int" name="NELM">   100</i>
   <i type="int" name="NELMHF">     1</i>
   <i type="int" name="DIM">     3</i>
   <i type="int" name="IESPILON">     4</i>
   <i type="int" name="ANTIRES">     0</i>
   <i name="OMEGAMAX">    -30.00000000</i>
   <i name="OMEGAMIN">    -30.00000000</i>
   <i name="OMEGATL">   -200.00000000</i>
   <i type="int" name="OMEGAGRID">     0</i>
   <i name="CSHIFT">     -0.10000000</i>
   <i type="logical" name="LSELFENERGY"> F  </i>
   <i type="logical" name="LSPECTRAL"> F  </i>
   <i type="logical" name="LSPECTRALGW"> F  </i>
   <i type="logical" name="LSINGLES"> F  </i>
   <i type="logical" name="LFERMIGW"> F  </i>
   <i type="logical" name="ODDONLYGW"> F  </i>
   <i type="logical" name="EVENONLYGW"> F  </i>
   <i type="int" name="NKREDLFX">     1</i>
   <i type="int" name="NKREDLFY">     1</i>
   <i type="int" name="NKREDLFZ">     1</i>
   <i type="int" name="MAXMEM">  2800</i>
   <i type="int" name="TELESCOPE">     0</i>
   <i type="int" name="NTAUPAR">    -1</i>
   <i type="int" name="NOMEGAPAR">    -1</i>
   <i name="LAMBDA">      1.00000000</i>
  </separator>
  <separator name="External order field" >
   <i name="OFIELD_KAPPA">      0.00000000</i>
   <v name="OFIELD_K">      0.00000000      0.00000000      0.00000000</v>
   <i name="OFIELD_Q6_NEAR">      0.00000000</i>
   <i name="OFIELD_Q6_FAR">      0.00000000</i>
   <i name="OFIELD_A">      0.00000000</i>
  </separator>
 </parameters>
 <atominfo>
  <atoms>      96 </atoms>
  <types>       2 </types>
  <array name="atoms" >
   <dimension dim="1">ion</dimension>
   <field type="string">element</field>
   <field type="int">atomtype</field>
   <set>
    <rc><c>Ni</c><c>   1</c></rc>
    <rc><c>Ni</c><c>   1</c></rc>
    <rc><c>Ni</c><c>   1</c></rc>
    <rc><c>Ni</c><c>   1</c></rc>
    <rc><c>Ni</c><c>   1</c></rc>
    <rc><c>Ni</c><c>   1</c></rc>
    <rc><c>Ni</c><c>   1</c></rc>
    <rc><c>Ni</c><c>   1</c></rc>
    <rc><c>Ni</c><c>   1</c></rc>
    <rc><c>Ni</c><c>   1</c></rc>
    <rc><c>Ni</c><c>   1</c></rc>
    <rc><c>Ni</c><c>   1</c></rc>
    <rc><c>Ni</c><c>   1</c></rc>
    <rc><c>Ni</c><c>   1</c></rc>
    <rc><c>Ni</c><c>   1</c></rc>
    <rc><c>Ni</c><c>   1</c></rc>
    <rc><c>Ni</c><c>   1</c></rc>
    <rc><c>Ni</c><c>   1</c></rc>
    <rc><c>Ni</c><c>   1</c></rc>
    <rc><c>Ni</c><c>   1</c></rc>
    <rc><c>Ni</c><c>   1</c></rc>
    <rc><c>Ni</c><c>   1</c></rc>
    <rc><c>Ni</c><c>   1</c></rc>
    <rc><c>Ni</c><c>   1</c></rc>
    <rc><c>Ni</c><c>   1</c></rc>
    <rc><c>Ni</c><c>   1</c></rc>
    <rc><c>Ni</c><c>   1</c></rc>
    <rc><c>Ni</c><c>   1</c></rc>
    <rc><c>Ni</c><c>   1</c></rc>
    <rc><c>Ni</c><c>   1</c></rc>
    <rc><c>Ni</c><c>   1</c></rc>
    <rc><c>Ni</c><c>   1</c></rc>
    <rc><c>Ni</c><c>   1</c></rc>
    <rc><c>Ni</c><c>   1</c></rc>
    <rc><c>Ni</c><c>   1</c></rc>
    <rc><c>Ni</c><c>   1</c></rc>
    <rc><c>Ni</c><c>   1</c></rc>
    <rc><c>Ni</c><c>   1</c></rc>
    <rc><c>Ni</c><c>   1</c></rc>
    <rc><c>Ni</c><c>   1</c></rc>
    <rc><c>Ni</c><c>   1</c></rc>
    <rc><c>Ni</c><c>   1</c></rc>
    <rc><c>Ni</c><c>   1</c></rc>
    <rc><c>Ni</c><c>   1</c></rc>
    <rc><c>Ni</c><c>   1</c></rc>
    <rc><c>Ni</c><c>   1</c></rc>
    <rc><c>Ni</c><c>   1</c></rc>
    <rc><c>Ni</c><c>   1</c></rc>
    <rc><c>S </c><c>   2</c></rc>
    <rc><c>S </c><c>   2</c></rc>
    <rc><c>S </c><c>   2</c></rc>
    <rc><c>S </c><c>   2</c></rc>
    <rc><c>S </c><c>   2</c></rc>
    <rc><c>S </c><c>   2</c></rc>
    <rc><c>S </c><c>   2</c></rc>
    <rc><c>S </c><c>   2</c></rc>
    <rc><c>S </c><c>   2</c></rc>
    <rc><c>S </c><c>   2</c></rc>
    <rc><c>S </c><c>   2</c></rc>
    <rc><c>S </c><c>   2</c></rc>
    <rc><c>S </c><c>   2</c></rc>
    <rc><c>S </c><c>   2</c></rc>
    <rc><c>S </c><c>   2</c></rc>
    <rc><c>S </c><c>   2</c></rc>
    <rc><c>S </c><c>   2</c></rc>
    <rc><c>S </c><c>   2</c></rc>
    <rc><c>S </c><c>   2</c></rc>
    <rc><c>S </c><c>   2</c></rc>
    <rc><c>S </c><c>   2</c></rc>
    <rc><c>S </c><c>   2</c></rc>
    <rc><c>S </c><c>   2</c></rc>
    <rc><c>S </c><c>   2</c></rc>
    <rc><c>S </c><c>   2</c></rc>
    <rc><c>S </c><c>   2</c></rc>
    <rc><c>S </c><c>   2</c></rc>
    <rc><c>S </c><c>   2</c></rc>
    <rc><c>S </c><c>   2</c></rc>
    <rc><c>S </c><c>   2</c></rc>
    <rc><c>S </c><c>   2</c></rc>
    <rc><c>S </c><c>   2</c></rc>
    <rc><c>S </c><c>   2</c></rc>
    <rc><c>S </c><c>   2</c></rc>
    <rc><c>S </c><c>   2</c></rc>
    <rc><c>S </c><c>   2</c></rc>
    <rc><c>S </c><c>   2</c></rc>
    <rc><c>S </c><c>   2</c></rc>
    <rc><c>S </c><c>   2</c></rc>
    <rc><c>S </c><c>   2</c></rc>
    <rc><c>S </c><c>   2</c></rc>
    <rc><c>S </c><c>   2</c></rc>
    <rc><c>S </c><c>   2</c></rc>
    <rc><c>S </c><c>   2</c></rc>
    <rc><c>S </c><c>   2</c></rc>
    <rc><c>S </c><c>   2</c></rc>
    <rc><c>S </c><c>   2</c></rc>
    <rc><c>S </c><c>   2</c></rc>
   </set>
  </array>
  <array name="atomtypes" >
   <dimension dim="1">type</dimension>
   <field type="int">atomspertype</field>
   <field type="string">element</field>
   <field>mass</field>
   <field>valence</field>
   <field type="string">pseudopotential</field>
   <set>
    <rc><c>  48</c><c>Ni</c><c>     58.69000000</c><c>     16.00000000</c><c>  PAW_PBE Ni_pv 06Sep2000               </c></rc>
    <rc><c>  48</c><c>S </c><c>     32.06600000</c><c>      6.00000000</c><c>  PAW_PBE S 06Sep2000                   </c></rc>
   </set>
  </array>
 </atominfo>
 <structure name="initialpos" >
  <crystal>
   <varray name="basis" >
    <v>      10.06282034       5.04456212       0.00000000 </v>
    <v>       0.00000000      11.25646304       0.00000000 </v>
    <v>       0.00000000       0.00000000      21.74423184 </v>
   </varray>
   <i name="volume">   2463.00752351 </i>
   <varray name="rec_basis" >
    <v>       0.09937572       0.00000000       0.00000000 </v>
    <v>      -0.04453504       0.08883785       0.00000000 </v>
    <v>       0.00000000       0.00000000       0.04598921 </v>
   </varray>
  </crystal>
  <varray name="positions" >
   <v>       0.26092070       0.47878036       0.25332799 </v>
   <v>       0.35488056       0.38482049       0.38835497 </v>
   <v>       0.44884043       0.29086063       0.52338195 </v>
   <v>       0.16696083       0.07274024       0.11830101 </v>
   <v>       0.05611868       0.05147940       0.48770701 </v>
   <v>       0.27423907       0.33335899       0.08262607 </v>
   <v>       0.36819893       0.23939913       0.21765305 </v>
   <v>       0.46215880       0.14543926       0.35268003 </v>
   <v>       0.00030194       0.37150212       0.21765305 </v>
   <v>       0.09426181       0.27754226       0.35268003 </v>
   <v>       0.18822168       0.18358239       0.48770701 </v>
   <v>       0.40634206       0.46546199       0.08262607 </v>
   <v>       0.76092070       0.47878036       0.25332799 </v>
   <v>       0.85488056       0.38482049       0.38835497 </v>
   <v>       0.94884043       0.29086063       0.52338195 </v>
   <v>       0.66696083       0.07274024       0.11830101 </v>
   <v>       0.55611868       0.05147940       0.48770701 </v>
   <v>       0.77423907       0.33335899       0.08262607 </v>
   <v>       0.86819893       0.23939913       0.21765305 </v>
   <v>       0.96215880       0.14543926       0.35268003 </v>
   <v>       0.50030194       0.37150212       0.21765305 </v>
   <v>       0.59426181       0.27754226       0.35268003 </v>
   <v>       0.68822168       0.18358239       0.48770701 </v>
   <v>       0.90634206       0.46546199       0.08262607 </v>
   <v>       0.26092070       0.97878036       0.25332799 </v>
   <v>       0.35488056       0.88482049       0.38835497 </v>
   <v>       0.44884043       0.79086063       0.52338195 </v>
   <v>       0.16696083       0.57274024       0.11830101 </v>
   <v>       0.05611868       0.55147940       0.48770701 </v>
   <v>       0.27423907       0.83335899       0.08262607 </v>
   <v>       0.36819893       0.73939913       0.21765305 </v>
   <v>       0.46215880       0.64543926       0.35268003 </v>
   <v>       0.00030194       0.87150212       0.21765305 </v>
   <v>       0.09426181       0.77754226       0.35268003 </v>
   <v>       0.18822168       0.68358239       0.48770701 </v>
   <v>       0.40634206       0.96546199       0.08262607 </v>
   <v>       0.76092070       0.97878036       0.25332799 </v>
   <v>       0.85488056       0.88482049       0.38835497 </v>
   <v>       0.94884043       0.79086063       0.52338195 </v>
   <v>       0.66696083       0.57274024       0.11830101 </v>
   <v>       0.55611868       0.55147940       0.48770701 </v>
   <v>       0.77423907       0.83335899       0.08262607 </v>
   <v>       0.86819893       0.73939913       0.21765305 </v>
   <v>       0.96215880       0.64543926       0.35268003 </v>
   <v>       0.50030194       0.87150212       0.21765305 </v>
   <v>       0.59426181       0.77754226       0.35268003 </v>
   <v>       0.68822168       0.68358239       0.48770701 </v>
   <v>       0.90634206       0.96546199       0.08262607 </v>
   <v>       0.07287763       0.16682343       0.27005396 </v>
   <v>       0.16683750       0.07286357       0.40508094 </v>
   <v>       0.47891775       0.26078330       0.13502698 </v>
   <v>       0.03023342       0.37768264       0.45050807 </v>
   <v>       0.43627354       0.47164251       0.31548109 </v>
   <v>       0.24835381       0.15956225       0.04542713 </v>
   <v>       0.34231368       0.06560239       0.18045411 </v>
   <v>       0.08013882       0.49134725       0.04542713 </v>
   <v>       0.17409868       0.39738738       0.18045411 </v>
   <v>       0.26805855       0.30342751       0.31548109 </v>
   <v>       0.36201842       0.20946764       0.45050807 </v>
   <v>       0.57287763       0.16682343       0.27005396 </v>
   <v>       0.66683750       0.07286357       0.40508094 </v>
   <v>       0.88495789       0.35474317       0.00000000 </v>
   <v>       0.97891775       0.26078330       0.13502698 </v>
   <v>       0.76079737       0.47890369       0.54010792 </v>
   <v>       0.53023342       0.37768264       0.45050807 </v>
   <v>       0.93627354       0.47164251       0.31548109 </v>
   <v>       0.74835381       0.15956225       0.04542713 </v>
   <v>       0.84231368       0.06560239       0.18045411 </v>
   <v>       0.58013882       0.49134725       0.04542713 </v>
   <v>       0.67409868       0.39738738       0.18045411 </v>
   <v>       0.76805855       0.30342751       0.31548109 </v>
   <v>       0.86201842       0.20946764       0.45050807 </v>
   <v>       0.07287763       0.66682343       0.27005396 </v>
   <v>       0.16683750       0.57286357       0.40508094 </v>
   <v>       0.47891775       0.76078330       0.13502698 </v>
   <v>       0.26079737       0.97890369       0.54010792 </v>
   <v>       0.03023342       0.87768264       0.45050807 </v>
   <v>       0.43627354       0.97164251       0.31548109 </v>
   <v>       0.24835381       0.65956225       0.04542713 </v>
   <v>       0.34231368       0.56560239       0.18045411 </v>
   <v>       0.08013882       0.99134725       0.04542713 </v>
   <v>       0.17409868       0.89738738       0.18045411 </v>
   <v>       0.26805855       0.80342751       0.31548109 </v>
   <v>       0.36201842       0.70946764       0.45050807 </v>
   <v>       0.57287763       0.66682343       0.27005396 </v>
   <v>       0.66683750       0.57286357       0.40508094 </v>
   <v>       0.88495789       0.85474317       0.00000000 </v>
   <v>       0.97891775       0.76078330       0.13502698 </v>
   <v>       0.76079737       0.97890369       0.54010792 </v>
   <v>       0.53023342       0.87768264       0.45050807 </v>
   <v>       0.93627354       0.97164251       0.31548109 </v>
   <v>       0.84231368       0.56560239       0.18045411 </v>
   <v>       0.58013882       0.99134725       0.04542713 </v>
   <v>       0.67409868       0.89738738       0.18045411 </v>
   <v>       0.76805855       0.80342751       0.31548109 </v>
   <v>       0.86201842       0.70946764       0.45050807 </v>
  </varray>
 </structure>
 <calculation>
  <scstep>
   <time name="dav">    6.50    6.52</time>
   <time name="total">    6.60    6.62</time>
   <energy>
    <i name="alphaZ">   2684.99175279 </i>
    <i name="ewald"> 245176.85638110 </i>
    <i name="hartreedc">-409176.82074183 </i>
    <i name="XCdc">   4874.15917055 </i>
    <i name="pawpsdc"> 150306.04444553 </i>
    <i name="pawaedc">-156855.34918313 </i>
    <i name="eentropy">     -0.52344200 </i>
    <i name="bandstr">  -4982.95742350 </i>
    <i name="atom"> 181336.80673834 </i>
    <i name="e_fr_energy">  13363.20769786 </i>
    <i name="e_wo_entrp">  13363.73113986 </i>
    <i name="e_0_energy">  13363.46941886 </i>
   </energy>
  </scstep>
  <scstep>
   <time name="dav">    5.79    5.80</time>
   <time name="total">    5.79    5.80</time>
   <energy>
    <i name="e_fr_energy">    873.16945394 </i>
    <i name="e_wo_entrp">    874.24449865 </i>
    <i name="e_0_energy">    873.70697629 </i>
   </energy>
  </scstep>
  <scstep>
   <time name="dav">    6.20    6.22</time>
   <time name="total">    6.21    6.22</time>
   <energy>
    <i name="e_fr_energy">   -455.82072832 </i>
    <i name="e_wo_entrp">   -454.46189611 </i>
    <i name="e_0_energy">   -455.14131222 </i>
   </energy>
  </scstep>
  <scstep>
   <time name="dav">    6.33    6.35</time>
   <time name="total">    6.34    6.35</time>
   <energy>
    <i name="e_fr_energy">   -545.79605771 </i>
    <i name="e_wo_entrp">   -544.35592653 </i>
    <i name="e_0_energy">   -545.07599212 </i>
   </energy>
  </scstep>
  <scstep>
   <time name="dav">    6.79    6.81</time>
   <time name="total">    6.91    6.93</time>
   <energy>
    <i name="e_fr_energy">   -549.15211966 </i>
    <i name="e_wo_entrp">   -547.70870782 </i>
    <i name="e_0_energy">   -548.43041374 </i>
   </energy>
  </scstep>
  <scstep>
   <time name="dav">    6.49    6.51</time>
   <time name="total">    6.71    6.73</time>
   <energy>
    <i name="e_fr_energy">   -674.47838923 </i>
    <i name="e_wo_entrp">   -673.26548997 </i>
    <i name="e_0_energy">   -673.87193960 </i>
   </energy>
  </scstep>
  <scstep>
   <time name="dav">    6.46    6.48</time>
   <time name="total">    6.68    6.70</time>
   <energy>
    <i name="e_fr_energy">   -514.37158845 </i>
    <i name="e_wo_entrp">   -513.20772978 </i>
    <i name="e_0_energy">   -513.78965911 </i>
   </energy>
  </scstep>
  <scstep>
   <time name="dav">    6.53    6.55</time>
   <time name="total">    6.76    6.77</time>
   <energy>
    <i name="e_fr_energy">   -752.39965851 </i>
    <i name="e_wo_entrp">   -751.49993829 </i>
    <i name="e_0_energy">   -751.94979840 </i>
   </energy>
  </scstep>
  <scstep>
   <time name="dav">    7.17    7.19</time>
   <time name="total">    7.40    7.42</time>
   <energy>
    <i name="e_fr_energy">   -577.77425898 </i>
    <i name="e_wo_entrp">   -576.10822384 </i>
    <i name="e_0_energy">   -576.94124141 </i>
   </energy>
  </scstep>
  <scstep>
   <time name="dav">    7.44    7.46</time>
   <time name="total">    7.67    7.69</time>
   <energy>
    <i name="e_fr_energy">   -520.04251798 </i>
    <i name="e_wo_entrp">   -518.63362803 </i>
    <i name="e_0_energy">   -519.33807300 </i>
   </energy>
  </scstep>
  <scstep>
   <time name="dav">    7.20    7.22</time>
   <time name="total">    7.42    7.44</time>
   <energy>
    <i name="e_fr_energy">   -507.11963503 </i>
    <i name="e_wo_entrp">   -505.75109727 </i>
    <i name="e_0_energy">   -506.43536615 </i>
   </energy>
  </scstep>
  <scstep>
   <time name="dav">    6.92    6.94</time>
   <time name="total">    7.14    7.16</time>
   <energy>
    <i name="e_fr_energy">   -503.69604268 </i>
    <i name="e_wo_entrp">   -502.34248963 </i>
    <i name="e_0_energy">   -503.01926616 </i>
   </energy>
  </scstep>
  <scstep>
   <time name="dav">    6.89    6.91</time>
   <time name="total">    7.11    7.13</time>
   <energy>
    <i name="e_fr_energy">   -509.39955608 </i>
    <i name="e_wo_entrp">   -508.09554109 </i>
    <i name="e_0_energy">   -508.74754859 </i>
   </energy>
  </scstep>
  <scstep>
   <time name="dav">    6.90    6.91</time>
   <time name="total">    7.12    7.14</time>
   <energy>
    <i name="e_fr_energy">   -499.25279251 </i>
    <i name="e_wo_entrp">   -497.88684892 </i>
    <i name="e_0_energy">   -498.56982072 </i>
   </energy>
  </scstep>
  <scstep>
   <time name="dav">    6.91    6.93</time>
   <time name="total">    7.13    7.15</time>
   <energy>
    <i name="e_fr_energy">   -492.27300703 </i>
    <i name="e_wo_entrp">   -490.88458419 </i>
    <i name="e_0_energy">   -491.57879561 </i>
   </energy>
  </scstep>
  <scstep>
   <time name="dav">    6.87    6.89</time>
   <time name="total">    7.10    7.12</time>
   <energy>
    <i name="e_fr_energy">   -487.25763639 </i>
    <i name="e_wo_entrp">   -485.95377781 </i>
    <i name="e_0_energy">   -486.60570710 </i>
   </energy>
  </scstep>
  <scstep>
   <time name="dav">    7.05    7.07</time>
   <time name="total">    7.28    7.29</time>
   <energy>
    <i name="e_fr_energy">   -485.02279861 </i>
    <i name="e_wo_entrp">   -483.78100720 </i>
    <i name="e_0_energy">   -484.40190291 </i>
   </energy>
  </scstep>
  <scstep>
   <time name="dav">    6.96    6.98</time>
   <time name="total">    7.19    7.20</time>
   <energy>
    <i name="e_fr_energy">   -482.96221584 </i>
    <i name="e_wo_entrp">   -481.65586701 </i>
    <i name="e_0_energy">   -482.30904142 </i>
   </energy>
  </scstep>
  <scstep>
   <time name="dav">    7.09    7.11</time>
   <time name="total">    7.32    7.34</time>
   <energy>
    <i name="e_fr_energy">   -482.24201757 </i>
    <i name="e_wo_entrp">   -480.93675439 </i>
    <i name="e_0_energy">   -481.58938598 </i>
   </energy>
  </scstep>
  <scstep>
   <time name="dav">    7.04    7.06</time>
   <time name="total">    7.27    7.29</time>
   <energy>
    <i name="e_fr_energy">   -481.76910919 </i>
    <i name="e_wo_entrp">   -480.48487672 </i>
    <i name="e_0_energy">   -481.12699295 </i>
   </energy>
  </scstep>
  <scstep>
   <time name="dav">    7.12    7.14</time>
   <time name="total">    7.34    7.37</time>
   <energy>
    <i name="e_fr_energy">   -481.64915728 </i>
    <i name="e_wo_entrp">   -480.37584607 </i>
    <i name="e_0_energy">   -481.01250167 </i>
   </energy>
  </scstep>
  <scstep>
   <time name="dav">    7.22    7.24</time>
   <time name="total">    7.44    7.47</time>
   <energy>
    <i name="e_fr_energy">   -481.40720720 </i>
    <i name="e_wo_entrp">   -480.11214113 </i>
    <i name="e_0_energy">   -480.75967416 </i>
   </energy>
  </scstep>
  <scstep>
   <time name="dav">    7.02    7.04</time>
   <time name="total">    7.24    7.26</time>
   <energy>
    <i name="e_fr_energy">   -481.57858733 </i>
    <i name="e_wo_entrp">   -480.27049910 </i>
    <i name="e_0_energy">   -480.92454321 </i>
   </energy>
  </scstep>
  <scstep>
   <time name="dav">    6.83    6.85</time>
   <time name="total">    7.06    7.08</time>
   <energy>
    <i name="e_fr_energy">   -481.02962832 </i>
    <i name="e_wo_entrp">   -479.72847648 </i>
    <i name="e_0_energy">   -480.37905240 </i>
   </energy>
  </scstep>
  <scstep>
   <time name="dav">    7.12    7.13</time>
   <time name="total">    7.34    7.36</time>
   <energy>
    <i name="e_fr_energy">   -481.03640075 </i>
    <i name="e_wo_entrp">   -479.73583363 </i>
    <i name="e_0_energy">   -480.38611719 </i>
   </energy>
  </scstep>
  <scstep>
   <time name="dav">    7.09    7.10</time>
   <time name="total">    7.32    7.33</time>
   <energy>
    <i name="e_fr_energy">   -481.03593656 </i>
    <i name="e_wo_entrp">   -479.73090728 </i>
    <i name="e_0_energy">   -480.38342192 </i>
   </energy>
  </scstep>
  <scstep>
   <time name="dav">    6.97    6.99</time>
   <time name="total">    7.20    7.22</time>
   <energy>
    <i name="e_fr_energy">   -481.00880976 </i>
    <i name="e_wo_entrp">   -479.70507753 </i>
    <i name="e_0_energy">   -480.35694365 </i>
   </energy>
  </scstep>
  <scstep>
   <time name="dav">    7.25    7.26</time>
   <time name="total">    7.47    7.49</time>
   <energy>
    <i name="e_fr_energy">   -480.97115667 </i>
    <i name="e_wo_entrp">   -479.68055948 </i>
    <i name="e_0_energy">   -480.32585808 </i>
   </energy>
  </scstep>
  <scstep>
   <time name="dav">    7.55    7.56</time>
   <time name="total">    7.77    7.79</time>
   <energy>
    <i name="e_fr_energy">   -480.92501560 </i>
    <i name="e_wo_entrp">   -479.63950884 </i>
    <i name="e_0_energy">   -480.28226222 </i>
   </energy>
  </scstep>
  <scstep>
   <time name="dav">    7.06    7.07</time>
   <time name="total">    7.29    7.31</time>
   <energy>
    <i name="e_fr_energy">   -480.92153032 </i>
    <i name="e_wo_entrp">   -479.63991044 </i>
    <i name="e_0_energy">   -480.28072038 </i>
   </energy>
  </scstep>
  <scstep>
   <time name="dav">    6.82    6.84</time>
   <time name="total">    7.05    7.07</time>
   <energy>
    <i name="e_fr_energy">   -480.90977241 </i>
    <i name="e_wo_entrp">   -479.62743606 </i>
    <i name="e_0_energy">   -480.26860424 </i>
   </energy>
  </scstep>
  <scstep>
   <time name="dav">    6.95    6.97</time>
   <time name="total">    7.18    7.20</time>
   <energy>
    <i name="e_fr_energy">   -480.90348034 </i>
    <i name="e_wo_entrp">   -479.62127918 </i>
    <i name="e_0_energy">   -480.26237976 </i>
   </energy>
  </scstep>
  <scstep>
   <time name="dav">    6.77    6.78</time>
   <time name="total">    6.99    7.01</time>
   <energy>
    <i name="e_fr_energy">   -480.90108805 </i>
    <i name="e_wo_entrp">   -479.61906931 </i>
    <i name="e_0_energy">   -480.26007868 </i>
   </energy>
  </scstep>
  <scstep>
   <time name="dav">    7.11    7.13</time>
   <time name="total">    7.34    7.36</time>
   <energy>
    <i name="e_fr_energy">   -480.89801232 </i>
    <i name="e_wo_entrp">   -479.61504178 </i>
    <i name="e_0_energy">   -480.25652705 </i>
   </energy>
  </scstep>
  <scstep>
   <time name="dav">    7.11    7.12</time>
   <time name="total">    7.33    7.35</time>
   <energy>
    <i name="e_fr_energy">   -480.89687230 </i>
    <i name="e_wo_entrp">   -479.61302049 </i>
    <i name="e_0_energy">   -480.25494640 </i>
   </energy>
  </scstep>
  <scstep>
   <time name="dav">    6.80    6.82</time>
   <time name="total">    7.03    7.05</time>
   <energy>
    <i name="e_fr_energy">   -480.89632672 </i>
    <i name="e_wo_entrp">   -479.61185430 </i>
    <i name="e_0_energy">   -480.25409051 </i>
   </energy>
  </scstep>
  <scstep>
   <time name="dav">    6.36    6.38</time>
   <time name="total">    6.59    6.61</time>
   <energy>
    <i name="e_fr_energy">   -480.89624163 </i>
    <i name="e_wo_entrp">   -479.61186001 </i>
    <i name="e_0_energy">   -480.25405082 </i>
   </energy>
  </scstep>
  <scstep>
   <time name="dav">    5.47    5.49</time>
   <time name="total">    5.70    5.71</time>
   <energy>
    <i name="e_fr_energy">   -480.89651752 </i>
    <i name="e_wo_entrp">   -479.61257434 </i>
    <i name="e_0_energy">   -480.25454593 </i>
   </energy>
  </scstep>
  <scstep>
   <time name="dav">    5.04    5.06</time>
   <time name="total">    5.15    5.16</time>
   <energy>
    <i name="alphaZ">   2684.99175279 </i>
    <i name="ewald"> 245176.85638110 </i>
    <i name="hartreedc">-407933.09582851 </i>
    <i name="XCdc">   4832.11336355 </i>
    <i name="pawpsdc"> 174763.21619227 </i>
    <i name="pawaedc">-181396.18487046 </i>
    <i name="eentropy">     -1.28373429 </i>
    <i name="bandstr"> -19944.31656880 </i>
    <i name="atom"> 181336.80673834 </i>
    <i name="e_fr_energy">   -480.89657400 </i>
    <i name="e_wo_entrp">   -479.61283972 </i>
    <i name="e_0_energy">   -480.25470686 </i>
   </energy>
  </scstep>
  <structure>
   <crystal>
    <varray name="basis" >
     <v>      10.06282034       5.04456212       0.00000000 </v>
     <v>       0.00000000      11.25646304       0.00000000 </v>
     <v>       0.00000000       0.00000000      21.74423184 </v>
    </varray>
    <i name="volume">   2463.00752351 </i>
    <varray name="rec_basis" >
     <v>       0.09937572       0.00000000       0.00000000 </v>
     <v>      -0.04453504       0.08883785       0.00000000 </v>
     <v>       0.00000000       0.00000000       0.04598921 </v>
    </varray>
   </crystal>
   <varray name="positions" >
    <v>       0.26092070       0.47878036       0.25332799 </v>
    <v>       0.35488056       0.38482049       0.38835497 </v>
    <v>       0.44884043       0.29086063       0.52338195 </v>
    <v>       0.16696083       0.07274024       0.11830101 </v>
    <v>       0.05611868       0.05147940       0.48770701 </v>
    <v>       0.27423907       0.33335899       0.08262607 </v>
    <v>       0.36819893       0.23939913       0.21765305 </v>
    <v>       0.46215880       0.14543926       0.35268003 </v>
    <v>       0.00030194       0.37150212       0.21765305 </v>
    <v>       0.09426181       0.27754226       0.35268003 </v>
    <v>       0.18822168       0.18358239       0.48770701 </v>
    <v>       0.40634206       0.46546199       0.08262607 </v>
    <v>       0.76092070       0.47878036       0.25332799 </v>
    <v>       0.85488056       0.38482049       0.38835497 </v>
    <v>       0.94884043       0.29086063       0.52338195 </v>
    <v>       0.66696083       0.07274024       0.11830101 </v>
    <v>       0.55611868       0.05147940       0.48770701 </v>
    <v>       0.77423907       0.33335899       0.08262607 </v>
    <v>       0.86819893       0.23939913       0.21765305 </v>
    <v>       0.96215880       0.14543926       0.35268003 </v>
    <v>       0.50030194       0.37150212       0.21765305 </v>
    <v>       0.59426181       0.27754226       0.35268003 </v>
    <v>       0.68822168       0.18358239       0.48770701 </v>
    <v>       0.90634206       0.46546199       0.08262607 </v>
    <v>       0.26092070       0.97878036       0.25332799 </v>
    <v>       0.35488056       0.88482049       0.38835497 </v>
    <v>       0.44884043       0.79086063       0.52338195 </v>
    <v>       0.16696083       0.57274024       0.11830101 </v>
    <v>       0.05611868       0.55147940       0.48770701 </v>
    <v>       0.27423907       0.83335899       0.08262607 </v>
    <v>       0.36819893       0.73939913       0.21765305 </v>
    <v>       0.46215880       0.64543926       0.35268003 </v>
    <v>       0.00030194       0.87150212       0.21765305 </v>
    <v>       0.09426181       0.77754226       0.35268003 </v>
    <v>       0.18822168       0.68358239       0.48770701 </v>
    <v>       0.40634206       0.96546199       0.08262607 </v>
    <v>       0.76092070       0.97878036       0.25332799 </v>
    <v>       0.85488056       0.88482049       0.38835497 </v>
    <v>       0.94884043       0.79086063       0.52338195 </v>
    <v>       0.66696083       0.57274024       0.11830101 </v>
    <v>       0.55611868       0.55147940       0.48770701 </v>
    <v>       0.77423907       0.83335899       0.08262607 </v>
    <v>       0.86819893       0.73939913       0.21765305 </v>
    <v>       0.96215880       0.64543926       0.35268003 </v>
    <v>       0.50030194       0.87150212       0.21765305 </v>
    <v>       0.59426181       0.77754226       0.35268003 </v>
    <v>       0.68822168       0.68358239       0.48770701 </v>
    <v>       0.90634206       0.96546199       0.08262607 </v>
    <v>       0.07287763       0.16682343       0.27005396 </v>
    <v>       0.16683750       0.07286357       0.40508094 </v>
    <v>       0.47891775       0.26078330       0.13502698 </v>
    <v>       0.03023342       0.37768264       0.45050807 </v>
    <v>       0.43627354       0.47164251       0.31548109 </v>
    <v>       0.24835381       0.15956225       0.04542713 </v>
    <v>       0.34231368       0.06560239       0.18045411 </v>
    <v>       0.08013882       0.49134725       0.04542713 </v>
    <v>       0.17409868       0.39738738       0.18045411 </v>
    <v>       0.26805855       0.30342751       0.31548109 </v>
    <v>       0.36201842       0.20946764       0.45050807 </v>
    <v>       0.57287763       0.16682343       0.27005396 </v>
    <v>       0.66683750       0.07286357       0.40508094 </v>
    <v>       0.88495789       0.35474317       0.00000000 </v>
    <v>       0.97891775       0.26078330       0.13502698 </v>
    <v>       0.76079737       0.47890369       0.54010792 </v>
    <v>       0.53023342       0.37768264       0.45050807 </v>
    <v>       0.93627354       0.47164251       0.31548109 </v>
    <v>       0.74835381       0.15956225       0.04542713 </v>
    <v>       0.84231368       0.06560239       0.18045411 </v>
    <v>       0.58013882       0.49134725       0.04542713 </v>
    <v>       0.67409868       0.39738738       0.18045411 </v>
    <v>       0.76805855       0.30342751       0.31548109 </v>
    <v>       0.86201842       0.20946764       0.45050807 </v>
    <v>       0.07287763       0.66682343       0.27005396 </v>
    <v>       0.16683750       0.57286357       0.40508094 </v>
    <v>       0.47891775       0.76078330       0.13502698 </v>
    <v>       0.26079737       0.97890369       0.54010792 </v>
    <v>       0.03023342       0.87768264       0.45050807 </v>
    <v>       0.43627354       0.97164251       0.31548109 </v>
    <v>       0.24835381       0.65956225       0.04542713 </v>
    <v>       0.34231368       0.56560239       0.18045411 </v>
    <v>       0.08013882       0.99134725       0.04542713 </v>
    <v>       0.17409868       0.89738738       0.18045411 </v>
    <v>       0.26805855       0.80342751       0.31548109 </v>
    <v>       0.36201842       0.70946764       0.45050807 </v>
    <v>       0.57287763       0.66682343       0.27005396 </v>
    <v>       0.66683750       0.57286357       0.40508094 </v>
    <v>       0.88495789       0.85474317       0.00000000 </v>
    <v>       0.97891775       0.76078330       0.13502698 </v>
    <v>       0.76079737       0.97890369       0.54010792 </v>
    <v>       0.53023342       0.87768264       0.45050807 </v>
    <v>       0.93627354       0.97164251       0.31548109 </v>
    <v>       0.84231368       0.56560239       0.18045411 </v>
    <v>       0.58013882       0.99134725       0.04542713 </v>
    <v>       0.67409868       0.89738738       0.18045411 </v>
    <v>       0.76805855       0.80342751       0.31548109 </v>
    <v>       0.86201842       0.70946764       0.45050807 </v>
   </varray>
  </structure>
  <varray name="forces" >
   <v>       0.00465546       0.02577947      -0.02903597 </v>
   <v>      -0.03054563       0.00952540       0.15493014 </v>
   <v>       0.17070010      -0.11230208      -1.73538026 </v>
   <v>      -0.11655734      -0.12139967      -0.60458891 </v>
   <v>       0.72816173       0.01199488      -0.50039014 </v>
   <v>      -0.74730171      -0.68270115       0.23204996 </v>
   <v>      -0.16698370       0.04585534      -0.09695825 </v>
   <v>       0.14260397      -0.02754813       0.02268581 </v>
   <v>      -0.09783084      -0.00057039      -0.12898198 </v>
   <v>       0.08407709      -0.04811993       0.07258330 </v>
   <v>       0.29898441      -0.53297155      -0.49679312 </v>
   <v>       0.20462694       0.94334914       0.35810468 </v>
   <v>       0.02877103      -0.12295227      -0.15604702 </v>
   <v>       0.10281604      -0.13104389       0.01884852 </v>
   <v>      -1.02860984       0.63406969      -1.30536643 </v>
   <v>      -0.16921524       0.25259149      -0.35838409 </v>
   <v>       0.69531215      -0.04521518      -0.59048335 </v>
   <v>      -0.17037771      -0.09395489      -0.57876911 </v>
   <v>       0.00319017       0.04034694       0.01945418 </v>
   <v>       0.11322628      -0.10346668      -0.01753782 </v>
   <v>      -0.09831505       0.00095852      -0.14910426 </v>
   <v>       0.08058969      -0.15503854       0.02571911 </v>
   <v>       0.33597109      -0.58184371      -0.56503348 </v>
   <v>       0.69561890      -0.38272409      -0.49022834 </v>
   <v>       0.03458189       0.03014022       0.00422608 </v>
   <v>       0.15300606      -0.03405059      -0.00246142 </v>
   <v>      -1.02791214       0.61847642      -1.29967570 </v>
   <v>      -0.01637918      -0.03684812      -0.57520366 </v>
   <v>      -0.44506412       0.08146158      -1.49258487 </v>
   <v>      -0.82079747      -0.62205196       0.29834101 </v>
   <v>      -0.11344106       0.04443096      -0.05787380 </v>
   <v>       0.11584636      -0.08350852       0.05874468 </v>
   <v>      -0.12140160      -0.01210359       0.05771424 </v>
   <v>       0.19661060      -0.01118146       0.15937853 </v>
   <v>      -0.28974351       0.34978121      -1.47247626 </v>
   <v>       0.22739723       0.93911811       0.29779186 </v>
   <v>       0.10717903      -0.08848311      -0.08932567 </v>
   <v>       0.03130405      -0.03794393       0.07461512 </v>
   <v>      -0.81384042       0.50948034      -1.44463557 </v>
   <v>      -0.44001820      -0.45645558       0.06654535 </v>
   <v>       0.60760692      -0.02982090      -0.52567277 </v>
   <v>       0.04622297       0.72670750      -0.19612878 </v>
   <v>       0.03006125       0.21254470      -0.01002344 </v>
   <v>       0.11200222      -0.21583479       0.15022800 </v>
   <v>      -0.26153262       0.01603954      -0.06788240 </v>
   <v>       0.10682290      -0.10332814       0.02493456 </v>
   <v>       0.32049590      -0.64212463      -0.52698166 </v>
   <v>       0.25090260       0.38046328      -0.63646226 </v>
   <v>       0.12832722      -0.03750575       0.00434390 </v>
   <v>      -0.16815099       0.06418048       0.03288746 </v>
   <v>      -0.31277361       0.22934729      -1.06294918 </v>
   <v>       0.36710366       0.01705591       1.15414160 </v>
   <v>       0.02804308       0.07016183       0.15224542 </v>
   <v>       0.76327887       0.05872480       0.49279001 </v>
   <v>      -0.09680763      -0.14874366       0.11152086 </v>
   <v>       0.02274723      -0.22015697       0.62131512 </v>
   <v>       0.19200982       0.10531400       0.09943030 </v>
   <v>      -0.07408108      -0.03777037       0.13595284 </v>
   <v>       0.14218194       0.05930558       1.44466098 </v>
   <v>      -0.02949898       0.07278619       0.04271368 </v>
   <v>      -0.14292146       0.11889872       0.07855901 </v>
   <v>      -0.14337537       0.49072816       1.45316150 </v>
   <v>      -0.08782199      -0.08517978      -0.05252683 </v>
   <v>      -0.75171702       0.51159008       0.03119269 </v>
   <v>       0.02655347      -0.14217965       1.44203815 </v>
   <v>       0.00772684      -0.00133191      -0.06450654 </v>
   <v>       0.24331332       0.01469051       0.61158318 </v>
   <v>       0.03746687       0.03393939      -0.18663281 </v>
   <v>      -0.00535671      -0.15854918       0.62296486 </v>
   <v>       0.28336238      -0.05893832      -0.03234469 </v>
   <v>      -0.06922681       0.01948096       0.14742113 </v>
   <v>       0.28719595      -0.19497914       1.10722158 </v>
   <v>       0.03088685      -0.02684355       0.01693633 </v>
   <v>       0.18979149      -0.10373069       0.95934627 </v>
   <v>       0.13875764       0.12082089      -1.34378628 </v>
   <v>      -0.80054494       0.46042332      -0.00289880 </v>
   <v>       0.23752095      -0.19678540       1.02454879 </v>
   <v>       0.01174887       0.03785671       0.08837937 </v>
   <v>       0.80594129       0.07072227       0.48710115 </v>
   <v>      -0.10046140      -0.17330826       0.07012108 </v>
   <v>       0.55739404      -0.18645147       0.65665120 </v>
   <v>       0.12147832       0.15635929       0.09099675 </v>
   <v>      -0.04393840      -0.06926702       0.05757574 </v>
   <v>       0.13498403      -0.33420763       1.19314861 </v>
   <v>      -0.01410094       0.00260363      -0.02120048 </v>
   <v>      -0.16187445       0.16032632       0.01144901 </v>
   <v>      -0.33074912      -0.30189746       1.27306926 </v>
   <v>      -0.12671058      -0.09986052      -0.44984041 </v>
   <v>      -0.81749357       0.50709746       0.12060001 </v>
   <v>       0.31340604      -0.15776986       1.12166716 </v>
   <v>       0.01700948      -0.00414482       0.12912146 </v>
   <v>      -0.27239687       0.18786184      -1.02008966 </v>
   <v>       0.11508688      -0.95675533       0.35675268 </v>
   <v>       0.04541375      -0.08489470      -0.33557428 </v>
   <v>      -0.02305779      -0.03738049       0.16194100 </v>
   <v>       0.27085180      -0.10917091       1.07037549 </v>
  </varray>
  <varray name="stress" >
   <v>     -24.18506049       2.01811332      -9.31888088 </v>
   <v>       2.01811317     -19.26804933       4.90975579 </v>
   <v>      -9.31888083       4.90975561     -24.06273990 </v>
  </varray>
  <energy>
   <i name="e_fr_energy">   -480.89657400 </i>
   <i name="e_wo_entrp">   -479.61283972 </i>
   <i name="e_0_energy">   -480.25470686 </i>
  </energy>
  <time name="totalsc">  277.93  278.69</time>
  <eigenvalues>
   <array>
    <dimension dim="1">band</dimension>
    <dimension dim="2">kpoint</dimension>
    <dimension dim="3">spin</dimension>
    <field>eigene</field>
    <field>occ</field>
    <set>
     <set comment="spin 1">
      <set comment="kpoint 1">
       <r>  -62.5930    1.0000 </r>
       <r>  -62.5605    1.0000 </r>
       <r>  -62.5598    1.0000 </r>
       <r>  -62.5583    1.0000 </r>
       <r>  -62.5344    1.0000 </r>
       <r>  -62.5313    1.0000 </r>
       <r>  -62.5306    1.0000 </r>
       <r>  -62.5298    1.0000 </r>
       <r>  -62.5238    1.0000 </r>
       <r>  -62.5179    1.0000 </r>
       <r>  -62.5144    1.0000 </r>
       <r>  -62.5134    1.0000 </r>
       <r>  -62.5098    1.0000 </r>
       <r>  -62.5092    1.0000 </r>
       <r>  -62.5074    1.0000 </r>
       <r>  -62.5064    1.0000 </r>
       <r>  -62.5046    1.0000 </r>
       <r>  -62.5038    1.0000 </r>
       <r>  -62.5030    1.0000 </r>
       <r>  -62.5024    1.0000 </r>
       <r>  -62.5011    1.0000 </r>
       <r>  -62.4963    1.0000 </r>
       <r>  -62.4959    1.0000 </r>
       <r>  -62.4943    1.0000 </r>
       <r>  -62.4939    1.0000 </r>
       <r>  -62.4924    1.0000 </r>
       <r>  -62.4905    1.0000 </r>
       <r>  -62.4889    1.0000 </r>
       <r>  -62.4867    1.0000 </r>
       <r>  -62.4864    1.0000 </r>
       <r>  -62.4810    1.0000 </r>
       <r>  -62.4797    1.0000 </r>
       <r>  -62.4791    1.0000 </r>
       <r>  -62.4758    1.0000 </r>
       <r>  -62.4751    1.0000 </r>
       <r>  -62.4741    1.0000 </r>
       <r>  -62.4713    1.0000 </r>
       <r>  -62.4677    1.0000 </r>
       <r>  -62.4664    1.0000 </r>
       <r>  -62.4644    1.0000 </r>
       <r>  -62.4629    1.0000 </r>
       <r>  -62.4620    1.0000 </r>
       <r>  -62.4607    1.0000 </r>
       <r>  -62.4583    1.0000 </r>
       <r>  -62.4562    1.0000 </r>
       <r>  -62.4535    1.0000 </r>
       <r>  -62.4503    1.0000 </r>
       <r>  -62.4490    1.0000 </r>
       <r>  -62.4421    1.0000 </r>
       <r>  -62.4412    1.0000 </r>
       <r>  -62.4394    1.0000 </r>
       <r>  -62.4390    1.0000 </r>
       <r>  -62.4387    1.0000 </r>
       <r>  -62.4361    1.0000 </r>
       <r>  -62.4360    1.0000 </r>
       <r>  -62.4357    1.0000 </r>
       <r>  -62.4305    1.0000 </r>
       <r>  -62.4149    1.0000 </r>
       <r>  -62.4088    1.0000 </r>
       <r>  -62.4067    1.0000 </r>
       <r>  -62.4043    1.0000 </r>
       <r>  -62.3913    1.0000 </r>
       <r>  -62.3409    1.0000 </r>
       <r>  -62.3164    1.0000 </r>
       <r>  -62.3119    1.0000 </r>
       <r>  -62.3084    1.0000 </r>
       <r>  -62.3068    1.0000 </r>
       <r>  -62.3065    1.0000 </r>
       <r>  -62.2993    1.0000 </r>
       <r>  -62.2946    1.0000 </r>
       <r>  -62.2893    1.0000 </r>
       <r>  -62.2813    1.0000 </r>
       <r>  -62.2807    1.0000 </r>
       <r>  -62.2796    1.0000 </r>
       <r>  -62.2773    1.0000 </r>
       <r>  -62.2668    1.0000 </r>
       <r>  -62.2627    1.0000 </r>
       <r>  -62.2607    1.0000 </r>
       <r>  -62.2576    1.0000 </r>
       <r>  -62.2569    1.0000 </r>
       <r>  -62.2521    1.0000 </r>
       <r>  -62.2520    1.0000 </r>
       <r>  -62.2513    1.0000 </r>
       <r>  -62.2502    1.0000 </r>
       <r>  -62.2485    1.0000 </r>
       <r>  -62.2470    1.0000 </r>
       <r>  -62.2432    1.0000 </r>
       <r>  -62.2353    1.0000 </r>
       <r>  -62.2297    1.0000 </r>
       <r>  -62.2277    1.0000 </r>
       <r>  -62.2271    1.0000 </r>
       <r>  -62.2270    1.0000 </r>
       <r>  -62.2267    1.0000 </r>
       <r>  -62.2197    1.0000 </r>
       <r>  -62.2106    1.0000 </r>
       <r>  -62.2073    1.0000 </r>
       <r>  -62.1867    1.0000 </r>
       <r>  -62.1699    1.0000 </r>
       <r>  -62.1678    1.0000 </r>
       <r>  -62.1643    1.0000 </r>
       <r>  -62.1573    1.0000 </r>
       <r>  -62.1505    1.0000 </r>
       <r>  -62.1414    1.0000 </r>
       <r>  -62.1362    1.0000 </r>
       <r>  -62.1278    1.0000 </r>
       <r>  -62.1184    1.0000 </r>
       <r>  -62.1127    1.0000 </r>
       <r>  -62.1001    1.0000 </r>
       <r>  -62.0967    1.0000 </r>
       <r>  -62.0958    1.0000 </r>
       <r>  -62.0950    1.0000 </r>
       <r>  -62.0934    1.0000 </r>
       <r>  -62.0836    1.0000 </r>
       <r>  -62.0771    1.0000 </r>
       <r>  -62.0757    1.0000 </r>
       <r>  -62.0740    1.0000 </r>
       <r>  -62.0693    1.0000 </r>
       <r>  -62.0544    1.0000 </r>
       <r>  -62.0529    1.0000 </r>
       <r>  -61.9989    1.0000 </r>
       <r>  -61.9955    1.0000 </r>
       <r>  -61.9874    1.0000 </r>
       <r>  -61.9480    1.0000 </r>
       <r>  -61.9437    1.0000 </r>
       <r>  -61.8589    1.0000 </r>
       <r>  -61.8428    1.0000 </r>
       <r>  -61.8411    1.0000 </r>
       <r>  -61.8251    1.0000 </r>
       <r>  -61.8008    1.0000 </r>
       <r>  -61.7796    1.0000 </r>
       <r>  -61.7777    1.0000 </r>
       <r>  -61.7768    1.0000 </r>
       <r>  -61.7732    1.0000 </r>
       <r>  -61.7517    1.0000 </r>
       <r>  -61.7515    1.0000 </r>
       <r>  -61.7504    1.0000 </r>
       <r>  -61.7404    1.0000 </r>
       <r>  -61.7347    1.0000 </r>
       <r>  -61.7258    1.0000 </r>
       <r>  -61.6935    1.0000 </r>
       <r>  -61.5950    1.0000 </r>
       <r>  -61.5689    1.0000 </r>
       <r>  -61.4478    1.0000 </r>
       <r>  -61.2511    1.0000 </r>
       <r>  -13.9048    1.0000 </r>
       <r>  -13.3701    1.0000 </r>
       <r>  -13.1685    1.0000 </r>
       <r>  -13.1646    1.0000 </r>
       <r>  -13.1229    1.0000 </r>
       <r>  -12.9607    1.0000 </r>
       <r>  -12.9578    1.0000 </r>
       <r>  -12.8053    1.0000 </r>
       <r>  -12.6912    1.0000 </r>
       <r>  -12.6812    1.0000 </r>
       <r>  -12.6536    1.0000 </r>
       <r>  -12.6370    1.0000 </r>
       <r>  -12.5617    1.0000 </r>
       <r>  -12.5556    1.0000 </r>
       <r>  -12.4096    1.0000 </r>
       <r>  -12.2219    1.0000 </r>
       <r>  -12.2153    1.0000 </r>
       <r>  -12.2079    1.0000 </r>
       <r>  -12.1726    1.0000 </r>
       <r>  -12.1641    1.0000 </r>
       <r>  -12.0980    1.0000 </r>
       <r>  -12.0114    1.0000 </r>
       <r>  -11.9755    1.0000 </r>
       <r>  -11.9692    1.0000 </r>
       <r>  -11.9339    1.0000 </r>
       <r>  -11.8891    1.0000 </r>
       <r>  -11.8885    1.0000 </r>
       <r>  -11.8724    1.0000 </r>
       <r>  -11.8563    1.0000 </r>
       <r>  -11.8254    1.0000 </r>
       <r>  -11.7930    1.0000 </r>
       <r>  -11.7336    1.0000 </r>
       <r>  -11.6962    1.0000 </r>
       <r>  -11.5677    1.0000 </r>
       <r>  -11.5594    1.0000 </r>
       <r>  -11.4665    1.0000 </r>
       <r>  -11.4183    1.0000 </r>
       <r>  -11.2070    1.0000 </r>
       <r>  -11.1592    1.0000 </r>
       <r>  -11.0426    1.0000 </r>
       <r>  -10.9162    1.0000 </r>
       <r>  -10.8467    1.0000 </r>
       <r>  -10.6746    1.0000 </r>
       <r>  -10.6529    1.0000 </r>
       <r>  -10.6255    1.0000 </r>
       <r>  -10.5939    1.0000 </r>
       <r>  -10.2745    1.0000 </r>
       <r>  -10.1949    1.0000 </r>
       <r>   -5.6907    1.0000 </r>
       <r>   -5.6799    1.0000 </r>
       <r>   -5.6743    1.0000 </r>
       <r>   -5.6696    1.0000 </r>
       <r>   -5.6419    1.0000 </r>
       <r>   -5.5960    1.0000 </r>
       <r>   -5.2764    1.0000 </r>
       <r>   -5.2152    1.0000 </r>
       <r>   -5.1954    1.0000 </r>
       <r>   -5.0424    1.0000 </r>
       <r>   -4.9478    1.0000 </r>
       <r>   -4.9376    1.0000 </r>
       <r>   -4.9257    1.0000 </r>
       <r>   -4.8809    1.0000 </r>
       <r>   -4.8626    1.0000 </r>
       <r>   -4.8460    1.0000 </r>
       <r>   -4.8322    1.0000 </r>
       <r>   -4.7371    1.0000 </r>
       <r>   -4.6482    1.0000 </r>
       <r>   -4.6450    1.0000 </r>
       <r>   -4.5519    1.0000 </r>
       <r>   -4.5497    1.0000 </r>
       <r>   -4.5451    1.0000 </r>
       <r>   -4.5379    1.0000 </r>
       <r>   -4.5300    1.0000 </r>
       <r>   -4.4934    1.0000 </r>
       <r>   -4.4765    1.0000 </r>
       <r>   -4.4299    1.0000 </r>
       <r>   -4.4219    1.0000 </r>
       <r>   -4.4011    1.0000 </r>
       <r>   -4.3441    1.0000 </r>
       <r>   -4.3017    1.0000 </r>
       <r>   -4.2984    1.0000 </r>
       <r>   -4.2730    1.0000 </r>
       <r>   -4.2534    1.0000 </r>
       <r>   -4.2094    1.0000 </r>
       <r>   -4.1937    1.0000 </r>
       <r>   -4.0344    1.0000 </r>
       <r>   -3.8472    1.0000 </r>
       <r>   -3.8114    1.0000 </r>
       <r>   -3.7934    1.0000 </r>
       <r>   -3.7848    1.0000 </r>
       <r>   -3.7738    1.0000 </r>
       <r>   -3.7432    1.0000 </r>
       <r>   -3.7349    1.0000 </r>
       <r>   -3.6712    1.0000 </r>
       <r>   -3.6367    1.0000 </r>
       <r>   -3.6227    1.0000 </r>
       <r>   -3.5998    1.0000 </r>
       <r>   -3.5881    1.0000 </r>
       <r>   -3.5001    1.0000 </r>
       <r>   -3.4840    1.0000 </r>
       <r>   -3.4696    1.0000 </r>
       <r>   -3.4535    1.0000 </r>
       <r>   -3.4381    1.0000 </r>
       <r>   -3.3834    1.0000 </r>
       <r>   -3.3661    1.0000 </r>
       <r>   -3.3193    1.0000 </r>
       <r>   -3.2770    1.0000 </r>
       <r>   -3.2685    1.0000 </r>
       <r>   -3.2474    1.0000 </r>
       <r>   -3.2382    1.0000 </r>
       <r>   -3.1639    1.0000 </r>
       <r>   -3.1550    1.0000 </r>
       <r>   -3.1513    1.0000 </r>
       <r>   -3.1276    1.0000 </r>
       <r>   -3.1022    1.0000 </r>
       <r>   -3.0856    1.0000 </r>
       <r>   -3.0625    1.0000 </r>
       <r>   -3.0380    1.0000 </r>
       <r>   -3.0191    1.0000 </r>
       <r>   -2.9876    1.0000 </r>
       <r>   -2.9761    1.0000 </r>
       <r>   -2.9494    1.0000 </r>
       <r>   -2.9242    1.0000 </r>
       <r>   -2.9090    1.0000 </r>
       <r>   -2.9027    1.0000 </r>
       <r>   -2.8718    1.0000 </r>
       <r>   -2.8515    1.0000 </r>
       <r>   -2.8282    1.0000 </r>
       <r>   -2.8122    1.0000 </r>
       <r>   -2.7992    1.0000 </r>
       <r>   -2.7717    1.0000 </r>
       <r>   -2.7305    1.0000 </r>
       <r>   -2.6666    1.0000 </r>
       <r>   -2.6525    1.0000 </r>
       <r>   -2.6352    1.0000 </r>
       <r>   -2.6230    1.0000 </r>
       <r>   -2.6021    1.0000 </r>
       <r>   -2.5802    1.0000 </r>
       <r>   -2.5600    1.0000 </r>
       <r>   -2.5264    1.0000 </r>
       <r>   -2.5154    1.0000 </r>
       <r>   -2.5118    1.0000 </r>
       <r>   -2.4737    1.0000 </r>
       <r>   -2.4303    1.0000 </r>
       <r>   -2.4148    1.0000 </r>
       <r>   -2.3799    1.0000 </r>
       <r>   -2.3637    1.0000 </r>
       <r>   -2.3568    1.0000 </r>
       <r>   -2.3500    1.0000 </r>
       <r>   -2.3300    1.0000 </r>
       <r>   -2.3270    1.0000 </r>
       <r>   -2.3184    1.0000 </r>
       <r>   -2.3108    1.0000 </r>
       <r>   -2.3049    1.0000 </r>
       <r>   -2.2791    1.0000 </r>
       <r>   -2.2565    1.0000 </r>
       <r>   -2.2338    1.0000 </r>
       <r>   -2.2279    1.0000 </r>
       <r>   -2.1892    1.0000 </r>
       <r>   -2.1782    1.0000 </r>
       <r>   -2.1568    1.0000 </r>
       <r>   -2.1239    1.0000 </r>
       <r>   -2.0976    1.0000 </r>
       <r>   -2.0784    1.0000 </r>
       <r>   -2.0051    1.0000 </r>
       <r>   -1.9960    1.0000 </r>
       <r>   -1.9509    1.0000 </r>
       <r>   -1.8514    1.0000 </r>
       <r>   -1.8303    1.0000 </r>
       <r>   -1.7756    1.0000 </r>
       <r>   -1.7587    1.0000 </r>
       <r>   -1.7128    1.0000 </r>
       <r>   -1.6488    1.0000 </r>
       <r>   -1.6210    1.0000 </r>
       <r>   -1.6092    1.0000 </r>
       <r>   -1.5728    1.0000 </r>
       <r>   -1.5561    1.0000 </r>
       <r>   -1.5176    1.0000 </r>
       <r>   -1.5006    1.0000 </r>
       <r>   -1.4620    1.0000 </r>
       <r>   -1.4480    1.0000 </r>
       <r>   -1.4217    1.0000 </r>
       <r>   -1.3553    1.0000 </r>
       <r>   -1.3467    1.0000 </r>
       <r>   -1.3093    1.0000 </r>
       <r>   -1.2742    1.0000 </r>
       <r>   -1.2541    1.0000 </r>
       <r>   -1.2322    1.0000 </r>
       <r>   -1.2145    1.0000 </r>
       <r>   -1.1993    1.0000 </r>
       <r>   -1.1892    1.0000 </r>
       <r>   -1.1611    1.0000 </r>
       <r>   -1.1590    1.0000 </r>
       <r>   -1.1331    1.0000 </r>
       <r>   -1.1145    1.0000 </r>
       <r>   -1.0797    1.0000 </r>
       <r>   -1.0766    1.0000 </r>
       <r>   -1.0649    1.0000 </r>
       <r>   -1.0412    1.0000 </r>
       <r>   -1.0165    1.0000 </r>
       <r>   -1.0004    1.0000 </r>
       <r>   -0.9688    1.0000 </r>
       <r>   -0.9360    1.0000 </r>
       <r>   -0.9305    1.0000 </r>
       <r>   -0.9153    1.0000 </r>
       <r>   -0.8840    1.0000 </r>
       <r>   -0.8331    1.0000 </r>
       <r>   -0.8149    1.0000 </r>
       <r>   -0.7941    1.0000 </r>
       <r>   -0.7751    1.0000 </r>
       <r>   -0.7589    1.0000 </r>
       <r>   -0.7289    1.0000 </r>
       <r>   -0.7184    1.0000 </r>
       <r>   -0.7170    1.0000 </r>
       <r>   -0.7097    1.0000 </r>
       <r>   -0.6969    1.0000 </r>
       <r>   -0.6947    1.0000 </r>
       <r>   -0.6778    1.0000 </r>
       <r>   -0.6669    1.0000 </r>
       <r>   -0.6605    1.0000 </r>
       <r>   -0.6481    1.0000 </r>
       <r>   -0.6338    1.0000 </r>
       <r>   -0.6246    1.0000 </r>
       <r>   -0.6143    1.0000 </r>
       <r>   -0.5952    1.0000 </r>
       <r>   -0.5874    1.0000 </r>
       <r>   -0.5763    1.0000 </r>
       <r>   -0.5678    1.0000 </r>
       <r>   -0.5600    1.0000 </r>
       <r>   -0.5331    1.0000 </r>
       <r>   -0.5300    1.0000 </r>
       <r>   -0.5201    1.0000 </r>
       <r>   -0.5148    1.0000 </r>
       <r>   -0.4963    1.0000 </r>
       <r>   -0.4815    1.0000 </r>
       <r>   -0.4667    1.0000 </r>
       <r>   -0.4562    1.0000 </r>
       <r>   -0.4452    1.0000 </r>
       <r>   -0.4395    1.0000 </r>
       <r>   -0.4253    1.0000 </r>
       <r>   -0.4141    1.0000 </r>
       <r>   -0.3993    1.0000 </r>
       <r>   -0.3877    1.0000 </r>
       <r>   -0.3737    1.0000 </r>
       <r>   -0.3636    1.0000 </r>
       <r>   -0.3539    1.0000 </r>
       <r>   -0.3348    1.0000 </r>
       <r>   -0.3308    1.0000 </r>
       <r>   -0.3141    1.0000 </r>
       <r>   -0.2975    1.0000 </r>
       <r>   -0.2836    1.0000 </r>
       <r>   -0.2687    1.0000 </r>
       <r>   -0.2610    1.0000 </r>
       <r>   -0.2493    1.0000 </r>
       <r>   -0.2329    1.0000 </r>
       <r>   -0.2292    1.0000 </r>
       <r>   -0.2223    1.0000 </r>
       <r>   -0.2059    1.0000 </r>
       <r>   -0.1988    1.0000 </r>
       <r>   -0.1948    1.0000 </r>
       <r>   -0.1845    1.0000 </r>
       <r>   -0.1831    1.0000 </r>
       <r>   -0.1600    1.0000 </r>
       <r>   -0.1565    1.0000 </r>
       <r>   -0.1476    1.0000 </r>
       <r>   -0.1382    1.0000 </r>
       <r>   -0.1350    1.0000 </r>
       <r>   -0.1279    1.0000 </r>
       <r>   -0.1166    1.0000 </r>
       <r>   -0.1029    1.0000 </r>
       <r>   -0.0953    1.0000 </r>
       <r>   -0.0884    1.0000 </r>
       <r>   -0.0777    1.0000 </r>
       <r>   -0.0703    1.0000 </r>
       <r>   -0.0594    1.0000 </r>
       <r>   -0.0521    1.0000 </r>
       <r>   -0.0461    1.0000 </r>
       <r>   -0.0435    1.0000 </r>
       <r>   -0.0364    1.0000 </r>
       <r>   -0.0298    1.0000 </r>
       <r>   -0.0097    1.0000 </r>
       <r>   -0.0055    1.0000 </r>
       <r>   -0.0048    1.0000 </r>
       <r>    0.0085    1.0000 </r>
       <r>    0.0207    1.0000 </r>
       <r>    0.0235    1.0000 </r>
       <r>    0.0368    1.0000 </r>
       <r>    0.0459    1.0000 </r>
       <r>    0.0543    1.0000 </r>
       <r>    0.0660    1.0000 </r>
       <r>    0.0694    1.0000 </r>
       <r>    0.0803    1.0000 </r>
       <r>    0.0849    1.0000 </r>
       <r>    0.0907    1.0000 </r>
       <r>    0.0996    1.0000 </r>
       <r>    0.1048    1.0000 </r>
       <r>    0.1256    1.0000 </r>
       <r>    0.1345    1.0000 </r>
       <r>    0.1449    1.0000 </r>
       <r>    0.1475    1.0000 </r>
       <r>    0.1603    1.0000 </r>
       <r>    0.1644    1.0000 </r>
       <r>    0.1747    1.0000 </r>
       <r>    0.1810    1.0000 </r>
       <r>    0.1881    1.0000 </r>
       <r>    0.1978    1.0000 </r>
       <r>    0.2062    1.0000 </r>
       <r>    0.2157    1.0000 </r>
       <r>    0.2216    1.0000 </r>
       <r>    0.2240    1.0000 </r>
       <r>    0.2323    1.0000 </r>
       <r>    0.2438    1.0000 </r>
       <r>    0.2503    1.0000 </r>
       <r>    0.2640    1.0000 </r>
       <r>    0.2748    1.0000 </r>
       <r>    0.2863    1.0000 </r>
       <r>    0.3013    1.0000 </r>
       <r>    0.3108    1.0000 </r>
       <r>    0.3182    1.0000 </r>
       <r>    0.3190    1.0000 </r>
       <r>    0.3283    1.0000 </r>
       <r>    0.3427    1.0000 </r>
       <r>    0.3492    1.0000 </r>
       <r>    0.3705    1.0000 </r>
       <r>    0.3796    1.0000 </r>
       <r>    0.3954    1.0000 </r>
       <r>    0.4030    1.0000 </r>
       <r>    0.4187    1.0000 </r>
       <r>    0.4307    1.0000 </r>
       <r>    0.4401    1.0000 </r>
       <r>    0.4500    1.0000 </r>
       <r>    0.4856    1.0000 </r>
       <r>    0.4908    1.0000 </r>
       <r>    0.4978    1.0000 </r>
       <r>    0.5147    1.0000 </r>
       <r>    0.5232    1.0000 </r>
       <r>    0.5315    1.0000 </r>
       <r>    0.5341    1.0000 </r>
       <r>    0.5515    1.0000 </r>
       <r>    0.5609    1.0000 </r>
       <r>    0.5732    1.0000 </r>
       <r>    0.6144    1.0000 </r>
       <r>    0.6290    1.0000 </r>
       <r>    0.6419    1.0000 </r>
       <r>    0.6493    1.0000 </r>
       <r>    0.6550    1.0000 </r>
       <r>    0.6599    1.0000 </r>
       <r>    0.6879    1.0000 </r>
       <r>    0.7074    1.0000 </r>
       <r>    0.7205    1.0000 </r>
       <r>    0.7290    1.0000 </r>
       <r>    0.7482    1.0000 </r>
       <r>    0.7651    1.0000 </r>
       <r>    0.7847    1.0000 </r>
       <r>    0.8153    1.0000 </r>
[...]
       <r>   -58.0983     0.0000   288.0000 </r>
       <r>   -57.8395     0.0000   288.0000 </r>
       <r>   -57.5806     0.0000   288.0000 </r>
       <r>   -57.3217     0.0000   288.0000 </r>
       <r>   -57.0629     0.0000   288.0000 </r>
       <r>   -56.8040     0.0000   288.0000 </r>
       <r>   -56.5452     0.0000   288.0000 </r>
       <r>   -56.2863     0.0000   288.0000 </r>
       <r>   -56.0275     0.0000   288.0000 </r>
       <r>   -55.7686     0.0000   288.0000 </r>
       <r>   -55.5098     0.0000   288.0000 </r>
       <r>   -55.2509     0.0000   288.0000 </r>
       <r>   -54.9920     0.0000   288.0000 </r>
       <r>   -54.7332     0.0000   288.0000 </r>
       <r>   -54.4743     0.0000   288.0000 </r>
       <r>   -54.2155     0.0000   288.0000 </r>
       <r>   -53.9566     0.0000   288.0000 </r>
       <r>   -53.6978     0.0000   288.0000 </r>
       <r>   -53.4389     0.0000   288.0000 </r>
       <r>   -53.1801     0.0000   288.0000 </r>
       <r>   -52.9212     0.0000   288.0000 </r>
       <r>   -52.6624     0.0000   288.0000 </r>
       <r>   -52.4035     0.0000   288.0000 </r>
       <r>   -52.1446     0.0000   288.0000 </r>
       <r>   -51.8858     0.0000   288.0000 </r>
       <r>   -51.6269     0.0000   288.0000 </r>
       <r>   -51.3681     0.0000   288.0000 </r>
       <r>   -51.1092     0.0000   288.0000 </r>
       <r>   -50.8504     0.0000   288.0000 </r>
       <r>   -50.5915     0.0000   288.0000 </r>
       <r>   -50.3327     0.0000   288.0000 </r>
       <r>   -50.0738     0.0000   288.0000 </r>
       <r>   -49.8150     0.0000   288.0000 </r>
       <r>   -49.5561     0.0000   288.0000 </r>
       <r>   -49.2972     0.0000   288.0000 </r>
       <r>   -49.0384     0.0000   288.0000 </r>
       <r>   -48.7795     0.0000   288.0000 </r>
       <r>   -48.5207     0.0000   288.0000 </r>
       <r>   -48.2618     0.0000   288.0000 </r>
       <r>   -48.0030     0.0000   288.0000 </r>
       <r>   -47.7441     0.0000   288.0000 </r>
       <r>   -47.4853     0.0000   288.0000 </r>
       <r>   -47.2264     0.0000   288.0000 </r>
       <r>   -46.9676     0.0000   288.0000 </r>
       <r>   -46.7087     0.0000   288.0000 </r>
       <r>   -46.4498     0.0000   288.0000 </r>
       <r>   -46.1910     0.0000   288.0000 </r>
       <r>   -45.9321     0.0000   288.0000 </r>
       <r>   -45.6733     0.0000   288.0000 </r>
       <r>   -45.4144     0.0000   288.0000 </r>
       <r>   -45.1556     0.0000   288.0000 </r>
       <r>   -44.8967     0.0000   288.0000 </r>
       <r>   -44.6379     0.0000   288.0000 </r>
       <r>   -44.3790     0.0000   288.0000 </r>
       <r>   -44.1202     0.0000   288.0000 </r>
       <r>   -43.8613     0.0000   288.0000 </r>
       <r>   -43.6024     0.0000   288.0000 </r>
       <r>   -43.3436     0.0000   288.0000 </r>
       <r>   -43.0847     0.0000   288.0000 </r>
       <r>   -42.8259     0.0000   288.0000 </r>
       <r>   -42.5670     0.0000   288.0000 </r>
       <r>   -42.3082     0.0000   288.0000 </r>
       <r>   -42.0493     0.0000   288.0000 </r>
       <r>   -41.7905     0.0000   288.0000 </r>
       <r>   -41.5316     0.0000   288.0000 </r>
       <r>   -41.2727     0.0000   288.0000 </r>
       <r>   -41.0139     0.0000   288.0000 </r>
       <r>   -40.7550     0.0000   288.0000 </r>
       <r>   -40.4962     0.0000   288.0000 </r>
       <r>   -40.2373     0.0000   288.0000 </r>
       <r>   -39.9785     0.0000   288.0000 </r>
       <r>   -39.7196     0.0000   288.0000 </r>
       <r>   -39.4608     0.0000   288.0000 </r>
       <r>   -39.2019     0.0000   288.0000 </r>
       <r>   -38.9431     0.0000   288.0000 </r>
       <r>   -38.6842     0.0000   288.0000 </r>
       <r>   -38.4253     0.0000   288.0000 </r>
       <r>   -38.1665     0.0000   288.0000 </r>
       <r>   -37.9076     0.0000   288.0000 </r>
       <r>   -37.6488     0.0000   288.0000 </r>
       <r>   -37.3899     0.0000   288.0000 </r>
       <r>   -37.1311     0.0000   288.0000 </r>
       <r>   -36.8722     0.0000   288.0000 </r>
       <r>   -36.6134     0.0000   288.0000 </r>
       <r>   -36.3545     0.0000   288.0000 </r>
       <r>   -36.0957     0.0000   288.0000 </r>
       <r>   -35.8368     0.0000   288.0000 </r>
       <r>   -35.5779     0.0000   288.0000 </r>
       <r>   -35.3191     0.0000   288.0000 </r>
       <r>   -35.0602     0.0000   288.0000 </r>
       <r>   -34.8014     0.0000   288.0000 </r>
       <r>   -34.5425     0.0000   288.0000 </r>
       <r>   -34.2837     0.0000   288.0000 </r>
       <r>   -34.0248     0.0000   288.0000 </r>
       <r>   -33.7660     0.0000   288.0000 </r>
       <r>   -33.5071     0.0000   288.0000 </r>
       <r>   -33.2483     0.0000   288.0000 </r>
       <r>   -32.9894     0.0000   288.0000 </r>
       <r>   -32.7305     0.0000   288.0000 </r>
       <r>   -32.4717     0.0000   288.0000 </r>
       <r>   -32.2128     0.0000   288.0000 </r>
       <r>   -31.9540     0.0000   288.0000 </r>
       <r>   -31.6951     0.0000   288.0000 </r>
       <r>   -31.4363     0.0000   288.0000 </r>
       <r>   -31.1774     0.0000   288.0000 </r>
       <r>   -30.9186     0.0000   288.0000 </r>
       <r>   -30.6597     0.0000   288.0000 </r>
       <r>   -30.4009     0.0000   288.0000 </r>
       <r>   -30.1420     0.0000   288.0000 </r>
       <r>   -29.8831     0.0000   288.0000 </r>
       <r>   -29.6243     0.0000   288.0000 </r>
       <r>   -29.3654     0.0000   288.0000 </r>
       <r>   -29.1066     0.0000   288.0000 </r>
       <r>   -28.8477     0.0000   288.0000 </r>
       <r>   -28.5889     0.0000   288.0000 </r>
       <r>   -28.3300     0.0000   288.0000 </r>
       <r>   -28.0712     0.0000   288.0000 </r>
       <r>   -27.8123     0.0000   288.0000 </r>
       <r>   -27.5534     0.0000   288.0000 </r>
       <r>   -27.2946     0.0000   288.0000 </r>
       <r>   -27.0357     0.0000   288.0000 </r>
       <r>   -26.7769     0.0000   288.0000 </r>
       <r>   -26.5180     0.0000   288.0000 </r>
       <r>   -26.2592     0.0000   288.0000 </r>
       <r>   -26.0003     0.0000   288.0000 </r>
       <r>   -25.7415     0.0000   288.0000 </r>
       <r>   -25.4826     0.0000   288.0000 </r>
       <r>   -25.2238     0.0000   288.0000 </r>
       <r>   -24.9649     0.0000   288.0000 </r>
       <r>   -24.7060     0.0000   288.0000 </r>
       <r>   -24.4472     0.0000   288.0000 </r>
       <r>   -24.1883     0.0000   288.0000 </r>
       <r>   -23.9295     0.0000   288.0000 </r>
       <r>   -23.6706     0.0000   288.0000 </r>
       <r>   -23.4118     0.0000   288.0000 </r>
       <r>   -23.1529     0.0000   288.0000 </r>
       <r>   -22.8941     0.0000   288.0000 </r>
       <r>   -22.6352     0.0000   288.0000 </r>
       <r>   -22.3764     0.0000   288.0000 </r>
       <r>   -22.1175     0.0000   288.0000 </r>
       <r>   -21.8586     0.0000   288.0000 </r>
       <r>   -21.5998     0.0000   288.0000 </r>
       <r>   -21.3409     0.0000   288.0000 </r>
       <r>   -21.0821     0.0000   288.0000 </r>
       <r>   -20.8232     0.0000   288.0000 </r>
       <r>   -20.5644     0.0000   288.0000 </r>
       <r>   -20.3055     0.0000   288.0000 </r>
       <r>   -20.0467     0.0000   288.0000 </r>
       <r>   -19.7878     0.0000   288.0000 </r>
       <r>   -19.5290     0.0000   288.0000 </r>
       <r>   -19.2701     0.0000   288.0000 </r>
       <r>   -19.0112     0.0000   288.0000 </r>
       <r>   -18.7524     0.0000   288.0000 </r>
       <r>   -18.4935     0.0000   288.0000 </r>
       <r>   -18.2347     0.0000   288.0000 </r>
       <r>   -17.9758     0.0000   288.0000 </r>
       <r>   -17.7170     0.0000   288.0000 </r>
       <r>   -17.4581     0.0000   288.0000 </r>
       <r>   -17.1993     0.0000   288.0000 </r>
       <r>   -16.9404     0.0000   288.0000 </r>
       <r>   -16.6816     0.0000   288.0000 </r>
       <r>   -16.4227     0.0000   288.0000 </r>
       <r>   -16.1638     0.0000   288.0000 </r>
       <r>   -15.9050     0.0000   288.0000 </r>
       <r>   -15.6461     0.0000   288.0000 </r>
       <r>   -15.3873     0.0000   288.0000 </r>
       <r>   -15.1284     0.0000   288.0000 </r>
       <r>   -14.8696     0.0000   288.0000 </r>
       <r>   -14.6107     0.0000   288.0000 </r>
       <r>   -14.3519     0.0061   288.0016 </r>
       <r>   -14.0930     0.7021   288.1833 </r>
       <r>   -13.8341     4.6377   289.3838 </r>
       <r>   -13.5753     2.9063   290.1361 </r>
       <r>   -13.3164     7.4654   292.0686 </r>
       <r>   -13.0576    21.0596   297.5199 </r>
       <r>   -12.7987    25.3415   304.0797 </r>
       <r>   -12.5399    34.7309   313.0700 </r>
       <r>   -12.2810    29.1943   320.6270 </r>
       <r>   -12.0222    46.8606   332.7571 </r>
       <r>   -11.7633    58.9748   348.0230 </r>
       <r>   -11.5045    37.1703   357.6448 </r>
       <r>   -11.2456    21.1150   363.1105 </r>
       <r>   -10.9867    18.7490   367.9637 </r>
       <r>   -10.7279    21.4005   373.5034 </r>
       <r>   -10.4690    22.1103   379.2267 </r>
       <r>   -10.2102    11.6856   382.2516 </r>
       <r>    -9.9513     6.3396   383.8926 </r>
       <r>    -9.6925     0.4132   383.9996 </r>
       <r>    -9.4336     0.0016   384.0000 </r>
       <r>    -9.1748     0.0000   384.0000 </r>
       <r>    -8.9159     0.0000   384.0000 </r>
       <r>    -8.6571     0.0000   384.0000 </r>
       <r>    -8.3982     0.0000   384.0000 </r>
       <r>    -8.1393     0.0000   384.0000 </r>
       <r>    -7.8805     0.0000   384.0000 </r>
       <r>    -7.6216     0.0000   384.0000 </r>
       <r>    -7.3628     0.0000   384.0000 </r>
       <r>    -7.1039     0.0000   384.0000 </r>
       <r>    -6.8451     0.0000   384.0000 </r>
       <r>    -6.5862     0.0000   384.0000 </r>
       <r>    -6.3274     0.0001   384.0000 </r>
       <r>    -6.0685     0.1044   384.0270 </r>
       <r>    -5.8097     6.7957   385.7861 </r>
       <r>    -5.5508    29.2060   393.3463 </r>
       <r>    -5.2919    18.1619   398.0476 </r>
       <r>    -5.0331    26.5272   404.9143 </r>
       <r>    -4.7742    46.9609   417.0703 </r>
       <r>    -4.5154    60.3377   432.6890 </r>
       <r>    -4.2565    68.1581   450.3321 </r>
       <r>    -3.9977    36.3688   459.7463 </r>
       <r>    -3.7388    43.9109   471.1129 </r>
       <r>    -3.4800    67.4950   488.5843 </r>
       <r>    -3.2211    73.0467   507.4928 </r>
       <r>    -2.9623    87.6300   530.1762 </r>
       <r>    -2.7034    87.2267   552.7552 </r>
       <r>    -2.4445    91.2341   576.3716 </r>
       <r>    -2.1857   104.5824   603.4433 </r>
       <r>    -1.9268    66.8610   620.7506 </r>
       <r>    -1.6680    50.9146   633.9300 </r>
       <r>    -1.4091    66.1216   651.0459 </r>
       <r>    -1.1503    85.0154   673.0526 </r>
       <r>    -0.8914    97.8152   698.3725 </r>
       <r>    -0.6326   130.0420   732.0345 </r>
       <r>    -0.3737   168.3453   775.6114 </r>
       <r>    -0.1148   196.4040   826.4515 </r>
       <r>     0.1440   229.0256   885.7359 </r>
       <r>     0.4029   203.5090   938.4152 </r>
       <r>     0.6617   153.3776   978.1177 </r>
       <r>     0.9206   118.0004  1008.6626 </r>
       <r>     1.1794    85.0982  1030.6907 </r>
       <r>     1.4383    68.8936  1048.5241 </r>
       <r>     1.6971    64.5124  1065.2235 </r>
       <r>     1.9560    68.2259  1082.8841 </r>
       <r>     2.2148    72.8210  1101.7342 </r>
       <r>     2.4737    76.9630  1121.6564 </r>
       <r>     2.7326    81.0533  1142.6374 </r>
       <r>     2.9914    39.3110  1152.8133 </r>
       <r>     3.2503     5.0013  1154.1078 </r>
       <r>     3.5091     5.0668  1155.4194 </r>
       <r>     3.7680     7.5481  1157.3733 </r>
       <r>     4.0268     2.3760  1157.9883 </r>
       <r>     4.2857     2.0773  1158.5260 </r>
       <r>     4.5445    12.9437  1161.8766 </r>
       <r>     4.8034    13.1744  1165.2868 </r>
       <r>     5.0622    15.5168  1169.3034 </r>
       <r>     5.3211    15.1256  1173.2188 </r>
       <r>     5.5800    23.5802  1179.3226 </r>
       <r>     5.8388    26.1984  1186.1042 </r>
       <r>     6.0977    28.3704  1193.4480 </r>
       <r>     6.3565    31.2448  1201.5359 </r>
       <r>     6.6154    30.8070  1209.5104 </r>
       <r>     6.8742    36.8915  1219.0600 </r>
       <r>     7.1331    42.7919  1230.1368 </r>
       <r>     7.3919    53.4614  1243.9756 </r>
       <r>     7.6508    54.5476  1258.0955 </r>
       <r>     7.9096    54.9031  1272.3074 </r>
       <r>     8.1685    27.5426  1279.4369 </r>
       <r>     8.4274     2.1602  1279.9961 </r>
       <r>     8.6862     0.0151  1280.0000 </r>
       <r>     8.9451     0.0000  1280.0000 </r>
       <r>     9.2039     0.0000  1280.0000 </r>
       <r>     9.4628     0.0000  1280.0000 </r>
       <r>     9.7216     0.0000  1280.0000 </r>
       <r>     9.9805     0.0000  1280.0000 </r>
       <r>    10.2393     0.0000  1280.0000 </r>
       <r>    10.4982     0.0000  1280.0000 </r>
       <r>    10.7570     0.0000  1280.0000 </r>
       <r>    11.0159     0.0000  1280.0000 </r>
       <r>    11.2748     0.0000  1280.0000 </r>
       <r>    11.5336     0.0000  1280.0000 </r>
      </set>
     </set>
    </array>
   </total>
  </dos>
 </calculation>
 <structure name="finalpos" >
  <crystal>
   <varray name="basis" >
    <v>      10.06282034       5.04456212       0.00000000 </v>
    <v>       0.00000000      11.25646304       0.00000000 </v>
    <v>       0.00000000       0.00000000      21.74423184 </v>
   </varray>
   <i name="volume">   2463.00752351 </i>
   <varray name="rec_basis" >
    <v>       0.09937572       0.00000000       0.00000000 </v>
    <v>      -0.04453504       0.08883785       0.00000000 </v>
    <v>       0.00000000       0.00000000       0.04598921 </v>
   </varray>
  </crystal>
  <varray name="positions" >
   <v>       0.26092070       0.47878036       0.25332799 </v>
   <v>       0.35488056       0.38482049       0.38835497 </v>
   <v>       0.44884043       0.29086063       0.52338195 </v>
   <v>       0.16696083       0.07274024       0.11830101 </v>
   <v>       0.05611868       0.05147940       0.48770701 </v>
   <v>       0.27423907       0.33335899       0.08262607 </v>
   <v>       0.36819893       0.23939913       0.21765305 </v>
   <v>       0.46215880       0.14543926       0.35268003 </v>
   <v>       0.00030194       0.37150212       0.21765305 </v>
   <v>       0.09426181       0.27754226       0.35268003 </v>
   <v>       0.18822168       0.18358239       0.48770701 </v>
   <v>       0.40634206       0.46546199       0.08262607 </v>
   <v>       0.76092070       0.47878036       0.25332799 </v>
   <v>       0.85488056       0.38482049       0.38835497 </v>
   <v>       0.94884043       0.29086063       0.52338195 </v>
   <v>       0.66696083       0.07274024       0.11830101 </v>
   <v>       0.55611868       0.05147940       0.48770701 </v>
   <v>       0.77423907       0.33335899       0.08262607 </v>
   <v>       0.86819893       0.23939913       0.21765305 </v>
   <v>       0.96215880       0.14543926       0.35268003 </v>
   <v>       0.50030194       0.37150212       0.21765305 </v>
   <v>       0.59426181       0.27754226       0.35268003 </v>
   <v>       0.68822168       0.18358239       0.48770701 </v>
   <v>       0.90634206       0.46546199       0.08262607 </v>
   <v>       0.26092070       0.97878036       0.25332799 </v>
   <v>       0.35488056       0.88482049       0.38835497 </v>
   <v>       0.44884043       0.79086063       0.52338195 </v>
   <v>       0.16696083       0.57274024       0.11830101 </v>
   <v>       0.05611868       0.55147940       0.48770701 </v>
   <v>       0.27423907       0.83335899       0.08262607 </v>
   <v>       0.36819893       0.73939913       0.21765305 </v>
   <v>       0.46215880       0.64543926       0.35268003 </v>
   <v>       0.00030194       0.87150212       0.21765305 </v>
   <v>       0.09426181       0.77754226       0.35268003 </v>
   <v>       0.18822168       0.68358239       0.48770701 </v>
   <v>       0.40634206       0.96546199       0.08262607 </v>
   <v>       0.76092070       0.97878036       0.25332799 </v>
   <v>       0.85488056       0.88482049       0.38835497 </v>
   <v>       0.94884043       0.79086063       0.52338195 </v>
   <v>       0.66696083       0.57274024       0.11830101 </v>
   <v>       0.55611868       0.55147940       0.48770701 </v>
   <v>       0.77423907       0.83335899       0.08262607 </v>
   <v>       0.86819893       0.73939913       0.21765305 </v>
   <v>       0.96215880       0.64543926       0.35268003 </v>
   <v>       0.50030194       0.87150212       0.21765305 </v>
   <v>       0.59426181       0.77754226       0.35268003 </v>
   <v>       0.68822168       0.68358239       0.48770701 </v>
   <v>       0.90634206       0.96546199       0.08262607 </v>
   <v>       0.07287763       0.16682343       0.27005396 </v>
   <v>       0.16683750       0.07286357       0.40508094 </v>
   <v>       0.47891775       0.26078330       0.13502698 </v>
   <v>       0.03023342       0.37768264       0.45050807 </v>
   <v>       0.43627354       0.47164251       0.31548109 </v>
   <v>       0.24835381       0.15956225       0.04542713 </v>
   <v>       0.34231368       0.06560239       0.18045411 </v>
   <v>       0.08013882       0.49134725       0.04542713 </v>
   <v>       0.17409868       0.39738738       0.18045411 </v>
   <v>       0.26805855       0.30342751       0.31548109 </v>
   <v>       0.36201842       0.20946764       0.45050807 </v>
   <v>       0.57287763       0.16682343       0.27005396 </v>
   <v>       0.66683750       0.07286357       0.40508094 </v>
   <v>       0.88495789       0.35474317       0.00000000 </v>
   <v>       0.97891775       0.26078330       0.13502698 </v>
   <v>       0.76079737       0.47890369       0.54010792 </v>
   <v>       0.53023342       0.37768264       0.45050807 </v>
   <v>       0.93627354       0.47164251       0.31548109 </v>
   <v>       0.74835381       0.15956225       0.04542713 </v>
   <v>       0.84231368       0.06560239       0.18045411 </v>
   <v>       0.58013882       0.49134725       0.04542713 </v>
   <v>       0.67409868       0.39738738       0.18045411 </v>
   <v>       0.76805855       0.30342751       0.31548109 </v>
   <v>       0.86201842       0.20946764       0.45050807 </v>
   <v>       0.07287763       0.66682343       0.27005396 </v>
   <v>       0.16683750       0.57286357       0.40508094 </v>
   <v>       0.47891775       0.76078330       0.13502698 </v>
   <v>       0.26079737       0.97890369       0.54010792 </v>
   <v>       0.03023342       0.87768264       0.45050807 </v>
   <v>       0.43627354       0.97164251       0.31548109 </v>
   <v>       0.24835381       0.65956225       0.04542713 </v>
   <v>       0.34231368       0.56560239       0.18045411 </v>
   <v>       0.08013882       0.99134725       0.04542713 </v>
   <v>       0.17409868       0.89738738       0.18045411 </v>
   <v>       0.26805855       0.80342751       0.31548109 </v>
   <v>       0.36201842       0.70946764       0.45050807 </v>
   <v>       0.57287763       0.66682343       0.27005396 </v>
   <v>       0.66683750       0.57286357       0.40508094 </v>
   <v>       0.88495789       0.85474317       0.00000000 </v>
   <v>       0.97891775       0.76078330       0.13502698 </v>
   <v>       0.76079737       0.97890369       0.54010792 </v>
   <v>       0.53023342       0.87768264       0.45050807 </v>
   <v>       0.93627354       0.97164251       0.31548109 </v>
   <v>       0.84231368       0.56560239       0.18045411 </v>
   <v>       0.58013882       0.99134725       0.04542713 </v>
   <v>       0.67409868       0.89738738       0.18045411 </v>
   <v>       0.76805855       0.80342751       0.31548109 </v>
   <v>       0.86201842       0.70946764       0.45050807 </v>
  </varray>
 </structure>
</modeling>
