 vasp.5.4.4.18Apr17-6-g9f103f2a35 (build Aug 13 2019 17:33:20) gamma-only       
  
 executed on             LinuxIFC date 2020.05.11  03:05:36
 running on   12 total cores
 distrk:  each k-point on   12 cores,    1 groups
 distr:  one band on NCORES_PER_BAND=   6 cores,    2 groups


--------------------------------------------------------------------------------------------------------


 INCAR:
 POTCAR:    PAW_PBE Ni_pv 06Sep2000               
 POTCAR:    PAW_PBE S 06Sep2000                   
 POTCAR:    PAW_PBE Ni_pv 06Sep2000               
   VRHFIN =Ni:                                                                  
   LEXCH  = PE                                                                  
   EATOM  =  3501.1230 eV,  257.3253 Ry                                         
                                                                                
   TITEL  = PAW_PBE Ni_pv 06Sep2000                                             
   LULTRA =        F    use ultrasoft PP ?                                      
   IUNSCR =        1    unscreen: 0-lin 1-nonlin 2-no                           
   RPACOR =    1.500    partial core radius                                     
   POMASS =   58.690; ZVAL   =   16.000    mass and valenz                      
   RCORE  =    2.000    outmost cutoff radius                                   
   RWIGS  =    2.000; RWIGS  =    1.058    wigner-seitz radius (au A)           
   ENMAX  =  367.986; ENMIN  =  275.989 eV                                      
   RCLOC  =    1.301    cutoff for local pot                                    
   LCOR   =        T    correct aug charges                                     
   LPAW   =        T    paw PP                                                  
   EAUG   =  703.443                                                            
   DEXC   =    0.000                                                            
   RMAX   =    2.041    core radius for proj-oper                               
   RAUG   =    1.300    factor for augmentation sphere                          
   RDEP   =    2.103    radius for radial grids                                 
   RDEPT  =    1.618    core radius for aug-charge                              
                                                                                
   Atomic configuration                                                         
    8 entries                                                                   
     n  l   j            E        occ.                                          
     1  0  0.50     -8206.4253   2.0000                                         
     2  0  0.50      -976.1748   2.0000                                         
     2  1  1.50      -839.0571   6.0000                                         
     3  0  0.50      -105.9991   2.0000                                         
     3  1  1.50       -66.4603   6.0000                                         
     3  2  2.50        -4.6458   9.0000                                         
     4  0  0.50        -4.4926   1.0000                                         
     4  3  2.50        -1.3606   0.0000                                         
   Description                                                                  
     l       E           TYP  RCUT    TYP  RCUT                                 
     1    -66.4602962     23  1.700                                             
     1     -1.3605826     23  1.700                                             
     2     -4.6457867     23  2.000                                             
     2     -6.0063693     23  2.000                                             
     0     -4.4925576     23  1.900                                             
     0     16.3626226     23  1.900                                             
  local pseudopotential read in
  partial core-charges read in
  partial kinetic energy density read in
  atomic valenz-charges read in
  non local Contribution for L=           1  read in
    real space projection operators read in
  non local Contribution for L=           1  read in
    real space projection operators read in
  non local Contribution for L=           2  read in
    real space projection operators read in
  non local Contribution for L=           2  read in
    real space projection operators read in
  non local Contribution for L=           0  read in
    real space projection operators read in
  non local Contribution for L=           0  read in
    real space projection operators read in
    PAW grid and wavefunctions read in
 
   number of l-projection  operators is LMAX  =           6
   number of lm-projection operators is LMMAX =          18
 
 POTCAR:    PAW_PBE S 06Sep2000                   
   VRHFIN =S : s2p4                                                             
   LEXCH  = PE                                                                  
   EATOM  =   276.8230 eV,   20.3459 Ry                                         
                                                                                
   TITEL  = PAW_PBE S 06Sep2000                                                 
   LULTRA =        F    use ultrasoft PP ?                                      
   IUNSCR =        1    unscreen: 0-lin 1-nonlin 2-no                           
   RPACOR =    1.500    partial core radius                                     
   POMASS =   32.066; ZVAL   =    6.000    mass and valenz                      
   RCORE  =    1.900    outmost cutoff radius                                   
   RWIGS  =    2.200; RWIGS  =    1.164    wigner-seitz radius (au A)           
   ENMAX  =  258.689; ENMIN  =  194.016 eV                                      
   ICORE  =        2    local potential                                         
   LCOR   =        T    correct aug charges                                     
   LPAW   =        T    paw PP                                                  
   EAUG   =  335.092                                                            
   DEXC   =    0.000                                                            
   RMAX   =    1.942    core radius for proj-oper                               
   RAUG   =    1.300    factor for augmentation sphere                          
   RDEP   =    1.954    radius for radial grids                                 
   RDEPT  =    1.744    core radius for aug-charge                              
                                                                                
   Atomic configuration                                                         
    6 entries                                                                   
     n  l   j            E        occ.                                          
     1  0  0.50     -2405.8406   2.0000                                         
     2  0  0.50      -211.7007   2.0000                                         
     2  1  1.50      -156.4958   6.0000                                         
     3  0  0.50       -17.2562   2.0000                                         
     3  1  0.50        -7.0085   4.0000                                         
     3  2  1.50        -6.8029   0.0000                                         
   Description                                                                  
     l       E           TYP  RCUT    TYP  RCUT                                 
     0    -17.2561641     23  1.900                                             
     0    -15.8743224     23  1.900                                             
     1     -7.0085400     23  1.900                                             
     1     -2.7779785     23  1.900                                             
     2     -6.8029130     23  1.900                                             
  local pseudopotential read in
  partial core-charges read in
  partial kinetic energy density read in
  atomic valenz-charges read in
  non local Contribution for L=           0  read in
    real space projection operators read in
  non local Contribution for L=           0  read in
    real space projection operators read in
  non local Contribution for L=           1  read in
    real space projection operators read in
  non local Contribution for L=           1  read in
    real space projection operators read in
    PAW grid and wavefunctions read in
 
   number of l-projection  operators is LMAX  =           4
   number of lm-projection operators is LMMAX =           8
 
 Optimization of the real space projectors (new method)

 maximal supplied QI-value         = 18.90
 optimisation between [QCUT,QGAM] = [ 10.77, 21.73] = [ 32.49,132.25] Ry 
 Optimized for a Real-space Cutoff    1.38 Angstroem

   l    n(q)    QCUT    max X(q) W(low)/X(q) W(high)/X(q)  e(spline) 
   1      8    10.771     2.836    0.40E-04    0.29E-04    0.12E-06
   1      8    10.771     4.023    0.10E-03    0.48E-04    0.29E-06
   2      8    10.771    73.368    0.42E-03    0.97E-04    0.44E-06
   2      8    10.771    69.010    0.42E-03    0.99E-04    0.45E-06
   0      9    10.771    54.797    0.10E-03    0.56E-04    0.74E-07
   0      9    10.771    24.266    0.89E-04    0.49E-04    0.67E-07
 Optimization of the real space projectors (new method)

 maximal supplied QI-value         = 19.84
 optimisation between [QCUT,QGAM] = [ 10.71, 21.63] = [ 32.15,130.99] Ry 
 Optimized for a Real-space Cutoff    1.19 Angstroem

   l    n(q)    QCUT    max X(q) W(low)/X(q) W(high)/X(q)  e(spline) 
   0      8    10.715   187.594    0.41E-03    0.53E-04    0.66E-07
   0      8    10.715   164.243    0.41E-03    0.53E-04    0.65E-07
   1      7    10.715    67.533    0.19E-03    0.59E-03    0.68E-07
   1      7    10.715    50.729    0.19E-03    0.58E-03    0.67E-07
  PAW_PBE Ni_pv 06Sep2000               :
 energy of atom  1       EATOM=-3501.1230
 kinetic energy error for atom=    0.0925 (will be added to EATOM!!)
  PAW_PBE S 06Sep2000                   :
 energy of atom  2       EATOM= -276.8230
 kinetic energy error for atom=    0.0033 (will be added to EATOM!!)
 
 
 POSCAR: Type_052 Type_152                       
  positions in cartesian coordinates
  No initial velocities read in
 exchange correlation table for  LEXCH =        8
   RHO(1)=    0.500       N(1)  =     2000
   RHO(2)=  100.500       N(2)  =     4000
 


--------------------------------------------------------------------------------------------------------


 ion  position               nearest neighbor table
   1  0.261  0.479  0.291-  79 2.25  63 2.26  87 2.26  59 2.36  64 2.36   8 2.53  23 2.53
   2  0.355  0.385  0.419-  80 2.17  57 2.17  59 2.26  64 2.26  65 2.30  71 2.36   3 2.45   9 2.53
                            24 2.53
   3  0.448  0.264  0.510-  71 2.02  65 2.03  57 2.06   2 2.45
   4  0.037  0.203  0.088-  68 1.99  69 2.18  60 2.21  88 2.21   5 2.30  14 2.44
   5  0.167  0.073  0.162-  88 2.21  69 2.25  60 2.26   4 2.30  61 2.36  89 2.36  38 2.53  32 2.53

   6  0.162  0.333  0.041-  62 2.10  60 2.11  55 2.12   7 2.36
   7  0.274  0.333  0.128-  55 2.06  62 2.18  60 2.25   6 2.36  56 2.36  63 2.36  13 2.53  31 2.53

   8  0.368  0.239  0.257-  61 2.25  63 2.26  56 2.26  64 2.36  66 2.36   1 2.53  23 2.53
   9  0.462  0.145  0.385-  65 2.08  67 2.11  85 2.25  64 2.26  66 2.26   2 2.53  24 2.53
  10  0.000  0.372  0.257-  63 2.25  69 2.26 100 2.26  53 2.36  72 2.36  15 2.53  21 2.53
  11  0.094  0.278  0.385-  58 2.08  54 2.23  64 2.25  53 2.26  72 2.26  12 2.50  22 2.53  16 2.53

  12  0.186  0.157  0.479-  54 2.04  83 2.04  58 2.07  65 2.08  11 2.50
  13  0.406  0.465  0.128-  86 2.09  75 2.10  56 2.36  87 2.36  39 2.52  31 2.53   7 2.53  55 2.63

  14  0.228  0.007  0.051-  81 2.01  60 2.07  88 2.09   4 2.44  32 2.51
  15  0.761  0.479  0.291-  92 2.25  76 2.26 100 2.26  72 2.36  77 2.36  21 2.53  10 2.53
  16  0.855  0.385  0.419-  58 2.08  78 2.09  93 2.25  72 2.26  77 2.26  17 2.38  22 2.53  11 2.53

  17  0.777  0.465  0.514-  78 2.08  70 2.10  93 2.23  16 2.38  43 2.41  50 2.48
  18  0.667  0.073  0.162- 101 2.11  73 2.22  56 2.25  74 2.36 102 2.36  44 2.47  51 2.53  45 2.53

  19  0.687  0.423  0.033-  75 2.01  68 2.05  52 2.41  20 2.41
  20  0.774  0.333  0.128-  75 2.14  73 2.16  68 2.26  69 2.36  76 2.36  19 2.41  26 2.53  42 2.53

  21  0.868  0.239  0.257-  74 2.25  76 2.26  69 2.26  77 2.36  53 2.36  15 2.53  10 2.53
  22  0.962  0.145  0.385-  54 2.08  98 2.25  77 2.26  53 2.26  16 2.53  11 2.53
  23  0.500  0.372  0.257-  76 2.25  56 2.26  87 2.26  66 2.36  59 2.36   1 2.53   8 2.53
  24  0.594  0.278  0.385-  67 2.13  77 2.25  66 2.26  59 2.26  71 2.36  25 2.46   9 2.53   2 2.53

  25  0.695  0.184  0.480-  96 2.02  78 2.08  67 2.09  71 2.14  24 2.46
  26  0.906  0.465  0.128-  99 2.14  62 2.15  68 2.26  69 2.36 100 2.36  52 2.43  42 2.53  20 2.53

  27  0.913  0.051  0.038-  88 2.13  73 2.15  94 2.17  51 2.30  44 2.51
  28  0.261  0.979  0.291-  53 2.25  89 2.26  61 2.26  85 2.36  90 2.36  33 2.53  48 2.53
  29  0.355  0.885  0.419-  83 2.21  54 2.22  97 2.23  85 2.26  90 2.26  91 2.36  34 2.53  49 2.53

  30  0.462  0.794  0.524-  83 2.06  91 2.06  97 2.07  70 2.14  50 2.44  43 2.52
  31  0.167  0.573  0.162-  86 2.12  62 2.15  95 2.25  87 2.36  63 2.36  39 2.48  13 2.53   7 2.53

  32  0.274  0.833  0.128-  81 2.06  86 2.13  88 2.27  82 2.36  89 2.36  14 2.51  38 2.53   5 2.53

  33  0.368  0.739  0.257-  87 2.25  89 2.26  82 2.26  90 2.36  92 2.36  28 2.53  48 2.53
  34  0.462  0.645  0.385-  59 2.25  90 2.26  92 2.26  91 2.36  93 2.36  29 2.53  49 2.53
  35  0.000  0.872  0.257-  89 2.25  95 2.26  74 2.26  79 2.36  98 2.36  40 2.53  46 2.53
  36  0.094  0.778  0.385-  84 2.00  90 2.25  79 2.26  98 2.26  80 2.27  47 2.53  41 2.53
  37  0.230  0.629  0.471-  80 2.04  57 2.05  91 2.07  84 2.08
  38  0.406  0.965  0.128-  81 2.06 101 2.11  60 2.26  82 2.36  61 2.36   5 2.53  32 2.53
  39  0.217  0.527  0.057-  55 2.01  86 2.06  62 2.09  31 2.48  13 2.52
  40  0.761  0.979  0.291-  66 2.25 102 2.26  74 2.26  98 2.36 103 2.36  46 2.53  35 2.53
  41  0.855  0.885  0.419-  96 2.08 104 2.10  84 2.24  98 2.26 103 2.26  67 2.29  47 2.53  36 2.53

  42  0.667  0.573  0.162-  99 2.10  75 2.11  82 2.25 100 2.36  76 2.36  26 2.53  20 2.53
  43  0.542  0.554  0.497-  91 2.04  70 2.08  93 2.08  71 2.09  17 2.41  30 2.52
  44  0.705  0.028  0.056-  94 2.01 101 2.06  73 2.07  18 2.47  27 2.51
  45  0.774  0.833  0.128-  99 2.10 101 2.11  94 2.29  95 2.36 102 2.36  51 2.53  18 2.53
  46  0.868  0.739  0.257- 100 2.25 102 2.26  95 2.26 103 2.36  79 2.36  40 2.53  35 2.53
  47  0.962  0.645  0.385- 104 2.06  80 2.10  72 2.25 103 2.26  79 2.26  41 2.53  36 2.53
  48  0.500  0.872  0.257- 102 2.25  82 2.26  61 2.26  92 2.36  85 2.36  28 2.53  33 2.53
  49  0.594  0.778  0.385-  97 2.06 103 2.25  92 2.26  85 2.26  93 2.36  34 2.53  29 2.53
  50  0.692  0.704  0.491- 104 2.05  93 2.08  70 2.08  97 2.09  30 2.44  17 2.48
  51  0.906  0.965  0.128-  94 2.05  73 2.17  88 2.17  27 2.30  95 2.36  74 2.36  18 2.53  45 2.53

  52  0.808  0.553  0.034-  99 2.01  68 2.04  19 2.41  26 2.43
  53  0.073  0.167  0.306-  28 2.25  11 2.26  22 2.26  10 2.36  21 2.36  54 2.56
  54  0.162  0.064  0.406-  12 2.04  22 2.08  29 2.22  11 2.23  53 2.56  83 2.69
  55  0.348  0.336  0.046-  39 2.01   7 2.06   6 2.12  13 2.63
  56  0.479  0.261  0.178-  18 2.25   8 2.26  23 2.26   7 2.36  13 2.36
  57  0.281  0.445  0.507-  37 2.05   3 2.06   2 2.17  71 2.64  65 2.73  80 2.75
  58  0.023  0.341  0.469-  12 2.07  16 2.08  11 2.08  78 2.73
  59  0.436  0.472  0.350-  34 2.25   2 2.26  24 2.26   1 2.36  23 2.36
  60  0.248  0.160  0.093-  14 2.07   6 2.11   4 2.21   7 2.25   5 2.26  38 2.26
  61  0.342  0.066  0.221-   8 2.25  28 2.26  48 2.26   5 2.36  38 2.36
  62  0.079  0.487  0.102-  39 2.09   6 2.10  26 2.15  31 2.15   7 2.18
  63  0.174  0.397  0.221-  10 2.25   8 2.26   1 2.26   7 2.36  31 2.36
  64  0.268  0.303  0.350-  11 2.25   2 2.26   9 2.26   1 2.36   8 2.36  65 2.69
  65  0.340  0.204  0.458-   3 2.03   9 2.08  12 2.08   2 2.30  64 2.69  57 2.73
  66  0.573  0.167  0.306-  40 2.25  24 2.26   9 2.26  23 2.36   8 2.36  67 2.65
  67  0.661  0.077  0.413-  25 2.09   9 2.11  24 2.13  41 2.29  96 2.50  66 2.65
  68  0.885  0.355  0.050-   4 1.99  52 2.04  19 2.05  26 2.26  20 2.26
  69  0.979  0.261  0.178-   4 2.18   5 2.25  21 2.26  10 2.26  20 2.36  26 2.36
  70  0.629  0.625  0.559-  50 2.08  43 2.08  17 2.10  30 2.14
  71  0.530  0.378  0.478-   3 2.02  43 2.09  25 2.14  24 2.36   2 2.36  57 2.64
  72  0.936  0.472  0.350-  47 2.25  16 2.26  11 2.26  15 2.36  10 2.36
  73  0.758  0.158  0.099-  44 2.07  27 2.15  20 2.16  51 2.17  18 2.22
  74  0.842  0.066  0.221-  21 2.25  40 2.26  35 2.26  18 2.36  51 2.36
  75  0.580  0.483  0.107-  19 2.01  13 2.10  42 2.11  20 2.14
  76  0.674  0.397  0.221-  23 2.25  21 2.26  15 2.26  20 2.36  42 2.36
  77  0.768  0.303  0.350-  24 2.25  16 2.26  22 2.26  15 2.36  21 2.36
  78  0.819  0.276  0.484-  25 2.08  17 2.08  16 2.09  58 2.73
  79  0.073  0.667  0.306-   1 2.25  36 2.26  47 2.26  35 2.36  46 2.36  80 2.50
  80  0.167  0.558  0.402-  37 2.04  47 2.10   2 2.17  36 2.27  79 2.50  57 2.75
  81  0.398  0.842  0.064-  14 2.01  38 2.06  32 2.06  82 2.79
  82  0.479  0.761  0.178-  42 2.25  33 2.26  48 2.26  32 2.36  38 2.36  81 2.79
  83  0.291  0.966  0.507-  12 2.04  30 2.06  29 2.21  97 2.67  54 2.69  91 2.71
  84  0.046  0.796  0.470-  36 2.00  37 2.08  41 2.24  96 2.58 104 2.65
  85  0.436  0.972  0.350-   9 2.25  29 2.26  49 2.26  28 2.36  48 2.36
  86  0.261  0.656  0.107-  39 2.06  13 2.09  31 2.12  32 2.13
  87  0.342  0.566  0.221-  33 2.25   1 2.26  23 2.26  31 2.36  13 2.36
  88  0.075  0.993  0.098-  14 2.09  27 2.13  51 2.17   4 2.21   5 2.21  32 2.27
  89  0.174  0.897  0.221-  35 2.25  33 2.26  28 2.26  32 2.36   5 2.36
  90  0.268  0.803  0.350-  36 2.25  29 2.26  34 2.26  28 2.36  33 2.36
  91  0.362  0.709  0.478-  43 2.04  30 2.06  37 2.07  29 2.36  34 2.36  83 2.71
  92  0.573  0.667  0.306-  15 2.25  49 2.26  34 2.26  48 2.36  33 2.36
  93  0.667  0.573  0.435-  50 2.08  43 2.08  17 2.23  16 2.25  49 2.36  34 2.36
  94  0.888  0.873  0.054-  44 2.01  51 2.05  27 2.17  45 2.29
  95  0.979  0.761  0.178-  31 2.25  46 2.26  35 2.26  45 2.36  51 2.36
  96  0.820  0.992  0.496-  25 2.02  41 2.08  67 2.50  84 2.58
  97  0.534  0.881  0.462-  49 2.06  30 2.07  50 2.09  29 2.23  83 2.67
  98  0.936  0.972  0.350-  22 2.25  41 2.26  36 2.26  40 2.36  35 2.36
  99  0.755  0.661  0.108-  52 2.01  42 2.10  45 2.10  26 2.14
 100  0.842  0.566  0.221-  46 2.25  15 2.26  10 2.26  42 2.36  26 2.36
 101  0.582  0.980  0.107-  44 2.06  45 2.11  38 2.11  18 2.11
 102  0.674  0.897  0.221-  48 2.25  46 2.26  40 2.26  45 2.36  18 2.36
 103  0.768  0.803  0.350-  49 2.25  41 2.26  47 2.26  40 2.36  46 2.36 104 2.75
 104  0.857  0.718  0.461-  50 2.05  47 2.06  41 2.10  84 2.65 103 2.75
 
  LATTYP: Found a base centered orthorhombic cell.
 ALAT       =    11.8257374459
 B/A-ratio  =     1.6199260857
 C/A-ratio  =     1.9350716598
  
  Lattice vectors:
  
 A1 = (  11.2564630382,   0.0000000000,   0.0000000000)
 A2 = (  -5.0445621212, -10.0628203371,   0.0000000000)
 A3 = (   0.0000000000,   0.0000000000, -22.8836493875)


Analysis of symmetry for initial positions (statically):
=====================================================================
 Subroutine PRICEL returns:
 Original cell was already a primitive cell.
 

 Routine SETGRP: Setting up the symmetry group for a 
 base centered orthorhombic supercell.


 Subroutine GETGRP returns: Found  1 space group operations
 (whereof  1 operations were pure point group operations)
 out of a pool of  8 trial point group operations.


The static configuration has the point symmetry C_1 .


Analysis of symmetry for dynamics (positions and initial velocities):
=====================================================================
 Subroutine PRICEL returns:
 Original cell was already a primitive cell.
 

 Routine SETGRP: Setting up the symmetry group for a 
 base centered orthorhombic supercell.


 Subroutine GETGRP returns: Found  1 space group operations
 (whereof  1 operations were pure point group operations)
 out of a pool of  8 trial point group operations.


The dynamic configuration has the point symmetry C_1 .


 Subroutine INISYM returns: Found  1 space group operations
 (whereof  1 operations are pure point group operations),
 and found     1 'primitive' translations

 
 
 KPOINTS: gamma-point-only calculation. no periodi

Automatic generation of k-mesh.
Space group operators:
 irot       det(A)        alpha          n_x          n_y          n_z        tau_x        tau_y        tau_z
    1     1.000000     0.000001     1.000000     0.000000     0.000000     0.000000     0.000000     0.000000
 
 Subroutine IBZKPT returns following result:
 ===========================================
 
 Found      1 irreducible k-points:
 
 Following reciprocal coordinates:
            Coordinates               Weight
  0.000000  0.000000  0.000000      1.000000
 
 Following cartesian coordinates:
            Coordinates               Weight
  0.000000  0.000000  0.000000      1.000000
 


--------------------------------------------------------------------------------------------------------




 Dimension of arrays:
   k-points           NKPTS =      1   k-points in BZ     NKDIM =      1   number of bands    NBANDS=    686
   number of dos      NEDOS =    301   number of ions     NIONS =    104
   non local maximal  LDIM  =      6   non local SUM 2l+1 LMDIM =     18
   total plane-waves  NPLWV = 432000
   max r-space proj   IRMAX =   1888   max aug-charges    IRDMAX=   5450
   dimension x,y,z NGX =    60 NGY =   60 NGZ =  120
   dimension x,y,z NGXF=   120 NGYF=  120 NGZF=  240
   support grid    NGXF=   120 NGYF=  120 NGZF=  240
   ions per type =              52  52
   NGX,Y,Z   is equivalent  to a cutoff of   8.86,  8.86,  8.72 a.u.
   NGXF,Y,Z  is equivalent  to a cutoff of  17.72, 17.72, 17.44 a.u.

 SYSTEM =  "Millerite NiS"                         
 POSCAR =  Type_052 Type_152                       

 Startparameter for this run:
   NWRITE =      2    write-flag & timer
   PREC   = normal    normal or accurate (medium, high low for compatibility)
   ISTART =      0    job   : 0-new  1-cont  2-samecut
   ICHARG =      2    charge: 1-file 2-atom 10-const
   ISPIN  =      1    spin polarized calculation?
   LNONCOLLINEAR =      F non collinear calculations
   LSORBIT =      F    spin-orbit coupling
   INIWAV =      1    electr: 0-lowe 1-rand  2-diag
   LASPH  =      F    aspherical Exc in radial PAW
   METAGGA=      F    non-selfconsistent MetaGGA calc.

 Electronic Relaxation 1
   ENCUT  =  450.0 eV  33.07 Ry    5.75 a.u.  19.47 19.47 39.58*2*pi/ulx,y,z
   ENINI  =  450.0     initial cutoff
   ENAUG  =  703.4 eV  augmentation charge cutoff
   NELM   =    100;   NELMIN=  2; NELMDL= -5     # of ELM steps 
   EDIFF  = 0.1E-03   stopping-criterion for ELM
   LREAL  =      T    real-space projection
   NLSPLINE    = F    spline interpolate recip. space projectors
   LCOMPAT=      F    compatible to vasp.4.4
   GGA_COMPAT  = T    GGA compatible to vasp.4.4-vasp.4.6
   LMAXPAW     = -100 max onsite density
   LMAXMIX     =    2 max onsite mixed and CHGCAR
   VOSKOWN=      0    Vosko Wilk Nusair interpolation
   ROPT   =   -0.00050  -0.00050
 Ionic relaxation
   EDIFFG = 0.1E-02   stopping-criterion for IOM
   NSW    =      0    number of steps for IOM
   NBLOCK =      1;   KBLOCK =      1    inner block; outer block 
   IBRION =     -1    ionic relax: 0-MD 1-quasi-New 2-CG
   NFREE  =      0    steps in history (QN), initial steepest desc. (CG)
   ISIF   =      2    stress and relaxation
   IWAVPR =     10    prediction:  0-non 1-charg 2-wave 3-comb
   ISYM   =      2    0-nonsym 1-usesym 2-fastsym
   LCORR  =      T    Harris-Foulkes like correction to forces

   POTIM  = 0.5000    time-step for ionic-motion
   TEIN   =    0.0    initial temperature
   TEBEG  =    0.0;   TEEND  =   0.0 temperature during run
   SMASS  =  -3.00    Nose mass-parameter (am)
   estimated Nose-frequenzy (Omega)   =  0.10E-29 period in steps =****** mass=  -0.290E-26a.u.
   SCALEE = 1.0000    scale energy and forces
   NPACO  =    256;   APACO  = 16.0  distance and # of slots for P.C.
   PSTRESS=    0.0 pullay stress

  Mass of Ions in am
   POMASS =  58.69 32.07
  Ionic Valenz
   ZVAL   =  16.00  6.00
  Atomic Wigner-Seitz radii
   RWIGS  =  -1.00 -1.00
  virtual crystal weights 
   VCA    =   1.00  1.00
   NELECT =    1144.0000    total number of electrons
   NUPDOWN=      -1.0000    fix difference up-down

 DOS related values:
   EMIN   =  10.00;   EMAX   =-10.00  energy-range for DOS
   EFERMI =   0.00
   ISMEAR =     0;   SIGMA  =   0.20  broadening in eV -4-tet -1-fermi 0-gaus

 Electronic relaxation 2 (details)
   IALGO  =     38    algorithm
   LDIAG  =      T    sub-space diagonalisation (order eigenvalues)
   LSUBROT=      F    optimize rotation matrix (better conditioning)
   TURBO    =      0    0=normal 1=particle mesh
   IRESTART =      0    0=no restart 2=restart with 2 vectors
   NREBOOT  =      0    no. of reboots
   NMIN     =      0    reboot dimension
   EREF     =   0.00    reference energy to select bands
   IMIX   =      4    mixing-type and parameters
     AMIX     =   0.40;   BMIX     =  1.00
     AMIX_MAG =   1.60;   BMIX_MAG =  1.00
     AMIN     =   0.10
     WC   =   100.;   INIMIX=   1;  MIXPRE=   1;  MAXMIX= -45

 Intra band minimization:
   WEIMIN = 0.0000     energy-eigenvalue tresh-hold
   EBREAK =  0.36E-07  absolut break condition
   DEPER  =   0.30     relativ break condition  

   TIME   =   0.40     timestep for ELM

  volume/ion in A,a.u.               =      24.92       168.19
  Fermi-wavevector in a.u.,A,eV,Ry     =   1.246430  2.355411 21.137841  1.553587
  Thomas-Fermi vector in A             =   2.380608
 
 Write flags
   LWAVE        =      F    write WAVECAR
   LDOWNSAMPLE  =      F    k-point downsampling of WAVECAR
   LCHARG       =      F    write CHGCAR
   LVTOT        =      F    write LOCPOT, total local potential
   LVHAR        =      F    write LOCPOT, Hartree potential only
   LELF         =      F    write electronic localiz. function (ELF)
   LORBIT       =      0    0 simple, 1 ext, 2 COOP (PROOUT), +10 PAW based schemes


 Dipole corrections
   LMONO  =      F    monopole corrections only (constant potential shift)
   LDIPOL =      F    correct potential (dipole corrections)
   IDIPOL =      0    1-x, 2-y, 3-z, 4-all directions 
   EPSILON=  1.0000000 bulk dielectric constant

 Exchange correlation treatment:
   GGA     =    --    GGA type
   LEXCH   =     8    internal setting for exchange type
   VOSKOWN=      0    Vosko Wilk Nusair interpolation
   LHFCALC =     F    Hartree Fock is set to
   LHFONE  =     F    Hartree Fock one center treatment
   AEXX    =    0.0000 exact exchange contribution

 Linear response parameters
   LEPSILON=     F    determine dielectric tensor
   LRPA    =     F    only Hartree local field effects (RPA)
   LNABLA  =     F    use nabla operator in PAW spheres
   LVEL    =     F    velocity operator in full k-point grid
   LINTERFAST=   F  fast interpolation
   KINTER  =     0    interpolate to denser k-point grid
   CSHIFT  =0.1000    complex shift for real part using Kramers Kronig
   OMEGAMAX=  -1.0    maximum frequency
   DEG_THRESHOLD= 0.2000000E-02 threshold for treating states as degnerate
   RTIME   =   -0.100 relaxation time in fs
  (WPLASMAI=    0.000 imaginary part of plasma frequency in eV, 0.658/RTIME)
   DFIELD  = 0.0000000 0.0000000 0.0000000 field for delta impulse in time
 
 Orbital magnetization related:
   ORBITALMAG=     F  switch on orbital magnetization
   LCHIMAG   =     F  perturbation theory with respect to B field
   DQ        =  0.001000  dq finite difference perturbation B field
   LLRAUG    =     F  two centre corrections for induced B field



--------------------------------------------------------------------------------------------------------


 Static calculation
 charge density and potential will be updated during run
 non-spin polarized calculation
 Variant of blocked Davidson
 Davidson routine will perform the subspace rotation
 perform sub-space diagonalisation
    after iterative eigenvector-optimisation
 modified Broyden-mixing scheme, WC =      100.0
 initial mixing is a Kerker type mixing with AMIX =  0.4000 and BMIX =      1.0000
 Hartree-type preconditioning will be used
 using additional bands          114
 real space projection scheme for non local part
 use partial core corrections
 calculate Harris-corrections to forces 
   (improved forces if not selfconsistent)
 use gradient corrections 
 use of overlap-Matrix (Vanderbilt PP)
 Gauss-broadening in eV      SIGMA  =   0.20


--------------------------------------------------------------------------------------------------------


  energy-cutoff  :      450.00
  volume of cell :     2592.07
      direct lattice vectors                 reciprocal lattice vectors
    11.256463038  0.000000000  0.000000000     0.088837852 -0.044535036  0.000000000
     5.044562121 10.062820337  0.000000000     0.000000000  0.099375718  0.000000000
     0.000000000  0.000000000 22.883649388     0.000000000  0.000000000  0.043699324

  length of vectors
    11.256463038 11.256463038 22.883649388     0.099375718  0.099375718  0.043699324


 
 k-points in units of 2pi/SCALE and weight: gamma-point-only calculation. no periodi
   0.00000000  0.00000000  0.00000000       1.000
 
 k-points in reciprocal lattice and weights: gamma-point-only calculation. no periodi
   0.00000000  0.00000000  0.00000000       1.000
 
 position of ions in fractional coordinates (direct lattice) 
   0.26092070  0.47878036  0.29050611
   0.35488056  0.38482049  0.41880986
   0.44768778  0.26433572  0.51003578
   0.03684904  0.20279476  0.08768848
   0.16696083  0.07274024  0.16220237
   0.16210533  0.33309227  0.04108720
   0.27423906  0.33335899  0.12830375
   0.36819893  0.23939913  0.25660749
   0.46215880  0.14543926  0.38491124
   0.00030194  0.37150212  0.25660749
   0.09426181  0.27754226  0.38491124
   0.18596636  0.15718164  0.47885188
   0.40634206  0.46546199  0.12830375
   0.22751435  0.00709425  0.05083535
   0.76092070  0.47878036  0.29050611
   0.85488056  0.38482049  0.41880986
   0.77722655  0.46475871  0.51432248
   0.66696083  0.07274024  0.16220237
   0.68652329  0.42288419  0.03334550
   0.77423906  0.33335899  0.12830375
   0.86819893  0.23939913  0.25660749
   0.96215880  0.14543926  0.38491124
   0.50030194  0.37150212  0.25660749
   0.59426181  0.27754226  0.38491124
   0.69493477  0.18433436  0.47990565
   0.90634206  0.46546199  0.12830375
   0.91317773  0.05050214  0.03786457
   0.26092070  0.97878036  0.29050611
   0.35488056  0.88482049  0.41880986
   0.46232385  0.79407403  0.52394825
   0.16696083  0.57274024  0.16220237
   0.27423907  0.83335899  0.12830375
   0.36819893  0.73939913  0.25660749
   0.46215880  0.64543926  0.38491124
   0.00030194  0.87150212  0.25660749
   0.09426181  0.77754226  0.38491124
   0.22954793  0.62890809  0.47144033
   0.40634206  0.96546199  0.12830375
   0.21704079  0.52733520  0.05678614
   0.76092070  0.97878036  0.29050611
   0.85488056  0.88482049  0.41880986
   0.66696083  0.57274024  0.16220237
   0.54155914  0.55368635  0.49702267
   0.70481469  0.02765232  0.05646983
   0.77423907  0.83335899  0.12830375
   0.86819893  0.73939913  0.25660749
   0.96215880  0.64543926  0.38491124
   0.50030194  0.87150212  0.25660749
   0.59426181  0.77754226  0.38491124
   0.69216991  0.70431755  0.49095160
   0.90634206  0.96546199  0.12830375
   0.80761750  0.55324519  0.03374227
   0.07287763  0.16682343  0.30639927
   0.16237327  0.06393498  0.40628208
   0.34841811  0.33615515  0.04636024
   0.47891775  0.26078330  0.17809552
   0.28113517  0.44481617  0.50715390
   0.02296255  0.34131231  0.46898986
   0.43627354  0.47164251  0.34956450
   0.24835381  0.15956225  0.09295701
   0.34231368  0.06560239  0.22126075
   0.07879895  0.48720904  0.10248550
   0.17409868  0.39738738  0.22126075
   0.26805855  0.30342751  0.34956450
   0.33970255  0.20370265  0.45787726
   0.57287763  0.16682343  0.30639927
   0.66060197  0.07725641  0.41275552
   0.88495789  0.35474317  0.04979178
   0.97891775  0.26078330  0.17809552
   0.62884380  0.62469274  0.55931894
   0.53023343  0.37768264  0.47786825
   0.93627354  0.47164251  0.34956450
   0.75804166  0.15845614  0.09946296
   0.84231368  0.06560239  0.22126075
   0.57956712  0.48330867  0.10733545
   0.67409868  0.39738738  0.22126075
   0.76805855  0.30342751  0.34956450
   0.81878433  0.27603571  0.48421930
   0.07287764  0.66682343  0.30639927
   0.16715016  0.55757131  0.40213425
   0.39808333  0.84163895  0.06363531
   0.47891775  0.76078330  0.17809552
   0.29108666  0.96588936  0.50742409
   0.04574712  0.79637154  0.46953615
   0.43627354  0.97164251  0.34956450
   0.26060389  0.65582498  0.10652268
   0.34231368  0.56560239  0.22126075
   0.07484298  0.99336435  0.09754340
   0.17409868  0.89738738  0.22126075
   0.26805855  0.80342751  0.34956450
   0.36201842  0.70946764  0.47786825
   0.57287764  0.66682343  0.30639927
   0.66683750  0.57286357  0.43470302
   0.88774651  0.87349095  0.05385031
   0.97891775  0.76078330  0.17809552
   0.81983123  0.99229923  0.49636856
   0.53372218  0.88089385  0.46214311
   0.93627354  0.97164251  0.34956450
   0.75529894  0.66062114  0.10769361
   0.84231368  0.56560239  0.22126075
   0.58183749  0.98014519  0.10748684
   0.67409868  0.89738738  0.22126075
   0.76805855  0.80342751  0.34956450
   0.85701012  0.71778332  0.46101390
 
 position of ions in cartesian coordinates  (Angst):
   5.35228144  4.81788074  6.64784006
   5.93595081  3.87237948  9.58389802
   6.37283891  2.65996290 11.67148004
   1.43780062  2.04068723  2.00663253
   2.24633106  0.73197198  3.71178210
   3.50503729  3.35184770  0.94022499
   4.76861205  3.35453166  2.93605796
   5.35228143  2.40903041  5.87211592
   5.93595082  1.46352916  8.80817388
   1.87746434  3.73835913  5.87211592
   2.46113373  2.79285788  8.80817388
   2.88623604  1.58169065 10.95787855
   6.92202632  4.68386039  2.93605796
   2.59679423  0.07138817  1.16329842
  10.98051296  4.81788074  6.64784006
  11.56418233  3.87237948  9.58389802
  11.09332615  4.67678335 11.76957521
   7.87456258  0.73197198  3.71178210
   9.86108962  4.25540760  0.76306666
  10.39684357  3.35453166  2.93605796
  10.98051295  2.40903041  5.87211592
  11.56418234  1.46352916  8.80817388
   7.50569586  3.73835913  5.87211592
   8.08936525  2.79285788  8.80817388
   8.75239366  1.85492355 10.98199259
  12.55025784  4.68386039  2.93605796
  10.53391257  0.50819394  0.86647956
   7.87456250  9.84929091  6.64784006
   8.45823187  8.90378965  9.58389802
   9.20988710  7.99062428 11.98984807
   4.76861213  5.76338214  3.71178210
   7.29089311  8.38594183  2.93605796
   7.87456249  7.44044058  5.87211592
   8.45823188  6.49493933  8.80817388
   4.39974540  8.76976930  5.87211592
   4.98341479  7.82426805  8.80817388
   5.75646374  6.32858917 10.78827527
   9.44430738  9.71527056  2.93605796
   5.10328684  5.30647939  1.29947404
  13.50279402  9.84929091  6.64784006
  14.08646339  8.90378965  9.58389802
  10.39684364  5.76338214  3.71178210
   8.88914563  5.57164625 11.37369243
   8.07321441  0.27826036  1.29223573
  12.91912463  8.38594183  2.93605796
  13.50279401  7.44044058  5.87211592
  14.08646340  6.49493933  8.80817388
  10.02797692  8.76976930  5.87211592
  10.61164631  7.82426805  8.80817388
  11.34435859  7.08742097 11.23476438
  15.07253890  9.71527056  2.93605796
  11.88179620  5.56720691  0.77214638
   1.66189559  1.67871425  7.01153347
   2.15027270  0.64336618  9.29721661
   5.61771114  3.38266890  1.06089157
   6.70645756  2.62421550  4.07547551
   5.40849049  4.47610523 11.60553198
   1.98024821  3.43456443 10.73219954
   7.29012694  4.74605381  7.99931146
   3.60050720  1.60564630  2.12719553
   4.18417657  0.66014504  5.06325349
   3.34475371  4.90269704  2.34524222
   3.96438069  3.99883779  5.06325349
   4.54805007  3.05333654  7.99931146
   4.85143992  2.04982316 10.47790260
   7.29012710  1.67871425  7.01153347
   7.82576647  0.77741741  9.44535271
  11.75101970  3.56971677  1.13941754
  12.33468908  2.62421550  4.07547551
  10.22985837  6.28617079 12.79925842
   7.87379649  3.80055255 10.93536942
  12.91835846  4.74605381  7.99931146
   9.33220980  1.59451568  2.27607539
   9.81240809  0.66014504  5.06325349
   8.96195650  4.86344827  2.45622680
   9.59261221  3.99883779  5.06325349
  10.17628159  3.05333654  7.99931146
  10.60909487  2.77769778 11.08070479
   4.18417665  6.71012442  7.01153347
   4.69422267  5.61073993  9.20229918
   8.72671030  8.46926155  1.45620811
   9.22873862  7.65562567  4.07547551
   8.14909514  9.71957114 11.61171486
   4.53229646  8.01374373 10.74470064
   9.81240800  9.77746398  7.99931146
   6.24182791  6.59944897  2.43762763
   6.70645763  5.69155521  5.06325349
   5.85355541  9.99604696  2.23214894
   6.48666175  9.03024796  5.06325349
   7.07033113  8.08474671  7.99931146
   7.65400052  7.13924545 10.93536942
   9.81240817  6.71012442  7.01153347
  10.39607755  5.76462316  9.94759143
  14.39926512  8.78978252  1.23229168
  14.85697014  7.65562567  4.07547551
  14.23411508  9.98532890 11.35872401
  10.45154772  8.86427656 10.57552082
  15.44063952  9.77746398  7.99931146
  11.83453903  6.64771187  2.46442288
  12.33468915  5.69155521  5.06325349
  11.49383551  9.86302491  2.45969125
  12.11489327  9.03024796  5.06325349
  12.69856265  8.08474671  7.99931146
  13.26780525  7.22292456 10.54968045
 


--------------------------------------------------------------------------------------------------------


 use parallel FFT for orbitals z direction half grid
 k-point  1 :   0.0000 0.0000 0.0000  plane waves:   28140

 maximum and minimum number of plane-waves per node :      4692     4687

 maximum number of plane-waves:     28140
 maximum index in each direction: 
   IXMAX=   19   IYMAX=   19   IZMAX=   39
   IXMIN=  -19   IYMIN=  -19   IZMIN=    0


 real space projection operators:
  total allocation   :      16762.89 KBytes
  max/ min on nodes  :       2830.39       2759.27


 parallel 3D FFT for wavefunctions:
    minimum data exchange during FFTs selected (reduces bandwidth)
 parallel 3D FFT for charge:
    minimum data exchange during FFTs selected (reduces bandwidth)


 total amount of memory used by VASP MPI-rank0    90324. kBytes
=======================================================================

   base      :      30000. kBytes
   nonlr-proj:       3427. kBytes
   fftplans  :      11276. kBytes
   grid      :      19113. kBytes
   one-center:        139. kBytes
   wavefun   :      26369. kBytes
 
     INWAV:  cpu time    0.0000: real time    0.0000
 Broyden mixing: mesh for mixing (old mesh)
   NGX = 39   NGY = 39   NGZ = 79
  (NGX  =120   NGY  =120   NGZ  =240)
  gives a total of 120159 points

 initial charge density was supplied:
 charge density of overlapping atoms calculated
 number of electron    1144.0000000 magnetization 
 keeping initial charge density in first step


--------------------------------------------------------------------------------------------------------


 Maximum index for non-local projection operator          318
 Maximum index for augmentation-charges          485 (set IRDMAX)


--------------------------------------------------------------------------------------------------------


 First call to EWALD:  gamma=   0.129
 Maximum number of real-space cells 4x 4x 2
 Maximum number of reciprocal cells 2x 2x 4

    FEWALD:  cpu time    0.0104: real time    0.0104


--------------------------------------- Iteration      1(   1)  ---------------------------------------


    POTLOK:  cpu time    0.3710: real time    0.3757
    SETDIJ:  cpu time    0.0269: real time    0.0269
     EDDAV:  cpu time   15.2480: real time   15.2510
       DOS:  cpu time    0.0022: real time    0.0022
    --------------------------------------------
      LOOP:  cpu time   15.6481: real time   15.6558

 eigenvalue-minimisations  :  1644
 total energy-change (2. order) : 0.1489580E+05  (-0.7429004E+05)
 number of electron    1144.0000000 magnetization 
 augmentation part     1144.0000000 magnetization 

 Free energy of the ion-electron system (eV)
  ---------------------------------------------------
  alpha Z        PSCENC =      2994.23548884
  Ewald energy   TEWEN  =    342044.67801174
  -Hartree energ DENC   =   -519541.50116264
  -exchange      EXHF   =         0.00000000
  -V(xc)+E(xc)   XCENC  =      5318.14892054
  PAW double counting   =    162831.54814933  -169926.62828172
  entropy T*S    EENTRO =        -0.44935434
  eigenvalues    EBANDS =     -5272.43524423
  atomic energy  EATOM  =    196448.20729987
  Solvation  Ediel_sol  =         0.00000000
  ---------------------------------------------------
  free energy    TOTEN  =     14895.80382740 eV

  energy without entropy =    14896.25318173  energy(sigma->0) =    14896.02850457


--------------------------------------------------------------------------------------------------------




--------------------------------------- Iteration      1(   2)  ---------------------------------------


     EDDAV:  cpu time   13.9602: real time   13.9633
       DOS:  cpu time    0.0015: real time    0.0015
    --------------------------------------------
      LOOP:  cpu time   13.9617: real time   13.9648

 eigenvalue-minimisations  :  1420
 total energy-change (2. order) :-0.1387574E+05  (-0.1342032E+05)
 number of electron    1144.0000000 magnetization 
 augmentation part     1144.0000000 magnetization 

 Free energy of the ion-electron system (eV)
  ---------------------------------------------------
  alpha Z        PSCENC =      2994.23548884
  Ewald energy   TEWEN  =    342044.67801174
  -Hartree energ DENC   =   -519541.50116264
  -exchange      EXHF   =         0.00000000
  -V(xc)+E(xc)   XCENC  =      5318.14892054
  PAW double counting   =    162831.54814933  -169926.62828172
  entropy T*S    EENTRO =        -0.92847171
  eigenvalues    EBANDS =    -19147.69164116
  atomic energy  EATOM  =    196448.20729987
  Solvation  Ediel_sol  =         0.00000000
  ---------------------------------------------------
  free energy    TOTEN  =      1020.06831309 eV

  energy without entropy =     1020.99678480  energy(sigma->0) =     1020.53254894


--------------------------------------------------------------------------------------------------------




--------------------------------------- Iteration      1(   3)  ---------------------------------------


     EDDAV:  cpu time   15.3162: real time   15.3194
       DOS:  cpu time    0.0016: real time    0.0016
    --------------------------------------------
      LOOP:  cpu time   15.3178: real time   15.3210

 eigenvalue-minimisations  :  1562
 total energy-change (2. order) :-0.1488995E+04  (-0.1403344E+04)
 number of electron    1144.0000000 magnetization 
 augmentation part     1144.0000000 magnetization 

 Free energy of the ion-electron system (eV)
  ---------------------------------------------------
  alpha Z        PSCENC =      2994.23548884
  Ewald energy   TEWEN  =    342044.67801174
  -Hartree energ DENC   =   -519541.50116264
  -exchange      EXHF   =         0.00000000
  -V(xc)+E(xc)   XCENC  =      5318.14892054
  PAW double counting   =    162831.54814933  -169926.62828172
  entropy T*S    EENTRO =        -1.40304853
  eigenvalues    EBANDS =    -20636.21254548
  atomic energy  EATOM  =    196448.20729987
  Solvation  Ediel_sol  =         0.00000000
  ---------------------------------------------------
  free energy    TOTEN  =      -468.92716804 eV

  energy without entropy =     -467.52411952  energy(sigma->0) =     -468.22564378


--------------------------------------------------------------------------------------------------------




--------------------------------------- Iteration      1(   4)  ---------------------------------------


     EDDAV:  cpu time   14.7301: real time   14.7326
       DOS:  cpu time    0.0015: real time    0.0015
    --------------------------------------------
      LOOP:  cpu time   14.7316: real time   14.7341

 eigenvalue-minimisations  :  1560
 total energy-change (2. order) :-0.1006223E+03  (-0.9893139E+02)
 number of electron    1144.0000000 magnetization 
 augmentation part     1144.0000000 magnetization 

 Free energy of the ion-electron system (eV)
  ---------------------------------------------------
  alpha Z        PSCENC =      2994.23548884
  Ewald energy   TEWEN  =    342044.67801174
  -Hartree energ DENC   =   -519541.50116264
  -exchange      EXHF   =         0.00000000
  -V(xc)+E(xc)   XCENC  =      5318.14892054
  PAW double counting   =    162831.54814933  -169926.62828172
  entropy T*S    EENTRO =        -1.47081129
  eigenvalues    EBANDS =    -20736.76708106
  atomic energy  EATOM  =    196448.20729987
  Solvation  Ediel_sol  =         0.00000000
  ---------------------------------------------------
  free energy    TOTEN  =      -569.54946639 eV

  energy without entropy =     -568.07865510  energy(sigma->0) =     -568.81406075


--------------------------------------------------------------------------------------------------------




--------------------------------------- Iteration      1(   5)  ---------------------------------------


     EDDAV:  cpu time   16.3858: real time   16.3885
       DOS:  cpu time    0.0016: real time    0.0016
    CHARGE:  cpu time    0.5555: real time    0.5556
    MIXING:  cpu time    0.0110: real time    0.0110
    --------------------------------------------
      LOOP:  cpu time   16.9539: real time   16.9568

 eigenvalue-minimisations  :  1784
 total energy-change (2. order) :-0.4016671E+01  (-0.4009111E+01)
 number of electron    1143.9998879 magnetization 
 augmentation part      414.7944428 magnetization 

 Broyden mixing:
  rms(total) = 0.11701E+02    rms(broyden)= 0.11689E+02
  rms(prec ) = 0.12023E+02
  weight for this iteration     100.00

 Free energy of the ion-electron system (eV)
  ---------------------------------------------------
  alpha Z        PSCENC =      2994.23548884
  Ewald energy   TEWEN  =    342044.67801174
  -Hartree energ DENC   =   -519541.50116264
  -exchange      EXHF   =         0.00000000
  -V(xc)+E(xc)   XCENC  =      5318.14892054
  PAW double counting   =    162831.54814933  -169926.62828172
  entropy T*S    EENTRO =        -1.47376780
  eigenvalues    EBANDS =    -20740.78079548
  atomic energy  EATOM  =    196448.20729987
  Solvation  Ediel_sol  =         0.00000000
  ---------------------------------------------------
  free energy    TOTEN  =      -573.56613731 eV

  energy without entropy =     -572.09236952  energy(sigma->0) =     -572.82925341


--------------------------------------------------------------------------------------------------------




--------------------------------------- Iteration      1(   6)  ---------------------------------------


    POTLOK:  cpu time    0.3610: real time    0.3613
    SETDIJ:  cpu time    0.0260: real time    0.0260
     EDDAV:  cpu time   16.0178: real time   16.0208
       DOS:  cpu time    0.0016: real time    0.0016
    CHARGE:  cpu time    0.4208: real time    0.4208
    MIXING:  cpu time    0.0115: real time    0.0115
    --------------------------------------------
      LOOP:  cpu time   16.8386: real time   16.8420

 eigenvalue-minimisations  :  1712
 total energy-change (2. order) :-0.1005009E+03  (-0.1291391E+03)
 number of electron    1143.9998627 magnetization 
 augmentation part      494.8788419 magnetization 

 Broyden mixing:
  rms(total) = 0.19263E+02    rms(broyden)= 0.19259E+02
  rms(prec ) = 0.20006E+02
  weight for this iteration     100.00

 eigenvalues of (default mixing * dielectric matrix)
  average eigenvalue GAMMA=   0.2381
  0.2381

 Free energy of the ion-electron system (eV)
  ---------------------------------------------------
  alpha Z        PSCENC =      2994.23548884
  Ewald energy   TEWEN  =    342044.67801174
  -Hartree energ DENC   =   -515718.62838486
  -exchange      EXHF   =         0.00000000
  -V(xc)+E(xc)   XCENC  =      5212.73394045
  PAW double counting   =    170039.79299848  -176807.34383994
  entropy T*S    EENTRO =        -1.08590094
  eigenvalues    EBANDS =    -24886.65666344
  atomic energy  EATOM  =    196448.20729987
  Solvation  Ediel_sol  =         0.00000000
  ---------------------------------------------------
  free energy    TOTEN  =      -674.06704979 eV

  energy without entropy =     -672.98114885  energy(sigma->0) =     -673.52409932


--------------------------------------------------------------------------------------------------------




--------------------------------------- Iteration      1(   7)  ---------------------------------------


    POTLOK:  cpu time    0.3579: real time    0.3579
    SETDIJ:  cpu time    0.0261: real time    0.0261
     EDDAV:  cpu time   14.9183: real time   14.9212
       DOS:  cpu time    0.0016: real time    0.0016
    CHARGE:  cpu time    0.5040: real time    0.5040
    MIXING:  cpu time    0.0121: real time    0.0122
    --------------------------------------------
      LOOP:  cpu time   15.8200: real time   15.8230

 eigenvalue-minimisations  :  1584
 total energy-change (2. order) : 0.1274615E+03  (-0.3099110E+02)
 number of electron    1143.9998727 magnetization 
 augmentation part      480.5632728 magnetization 

 Broyden mixing:
  rms(total) = 0.92597E+01    rms(broyden)= 0.92574E+01
  rms(prec ) = 0.96557E+01
  weight for this iteration     100.00

 eigenvalues of (default mixing * dielectric matrix)
  average eigenvalue GAMMA=   0.4276
  0.4276  0.4276

 Free energy of the ion-electron system (eV)
  ---------------------------------------------------
  alpha Z        PSCENC =      2994.23548884
  Ewald energy   TEWEN  =    342044.67801174
  -Hartree energ DENC   =   -517362.58300244
  -exchange      EXHF   =         0.00000000
  -V(xc)+E(xc)   XCENC  =      5245.22462708
  PAW double counting   =    175923.73618818  -182869.40116379
  entropy T*S    EENTRO =        -0.94075580
  eigenvalues    EBANDS =    -22969.76223080
  atomic energy  EATOM  =    196448.20729987
  Solvation  Ediel_sol  =         0.00000000
  ---------------------------------------------------
  free energy    TOTEN  =      -546.60553712 eV

  energy without entropy =     -545.66478132  energy(sigma->0) =     -546.13515922


--------------------------------------------------------------------------------------------------------




--------------------------------------- Iteration      1(   8)  ---------------------------------------


    POTLOK:  cpu time    0.3701: real time    0.3704
    SETDIJ:  cpu time    0.0266: real time    0.0266
     EDDAV:  cpu time   16.9919: real time   16.9951
       DOS:  cpu time    0.0016: real time    0.0016
    CHARGE:  cpu time    0.4170: real time    0.4172
    MIXING:  cpu time    0.0124: real time    0.0125
    --------------------------------------------
      LOOP:  cpu time   17.8198: real time   17.8234

 eigenvalue-minimisations  :  1856
 total energy-change (2. order) :-0.1418388E+03  (-0.2935557E+02)
 number of electron    1143.9998525 magnetization 
 augmentation part      440.3004230 magnetization 

 Broyden mixing:
  rms(total) = 0.19609E+02    rms(broyden)= 0.19606E+02
  rms(prec ) = 0.24382E+02
  weight for this iteration     100.00

 eigenvalues of (default mixing * dielectric matrix)
  average eigenvalue GAMMA=   0.4196
  0.5580  0.5580  0.1430

 Free energy of the ion-electron system (eV)
  ---------------------------------------------------
  alpha Z        PSCENC =      2994.23548884
  Ewald energy   TEWEN  =    342044.67801174
  -Hartree energ DENC   =   -518218.97193621
  -exchange      EXHF   =         0.00000000
  -V(xc)+E(xc)   XCENC  =      5283.14649240
  PAW double counting   =    184488.67125740  -191633.94966006
  entropy T*S    EENTRO =        -0.99687950
  eigenvalues    EBANDS =    -22093.46438920
  atomic energy  EATOM  =    196448.20729987
  Solvation  Ediel_sol  =         0.00000000
  ---------------------------------------------------
  free energy    TOTEN  =      -688.44431472 eV

  energy without entropy =     -687.44743522  energy(sigma->0) =     -687.94587497


--------------------------------------------------------------------------------------------------------




--------------------------------------- Iteration      1(   9)  ---------------------------------------


    POTLOK:  cpu time    0.3570: real time    0.3574
    SETDIJ:  cpu time    0.0258: real time    0.0258
     EDDAV:  cpu time   16.9299: real time   16.9329
       DOS:  cpu time    0.0018: real time    0.0018
    CHARGE:  cpu time    0.4217: real time    0.4218
    MIXING:  cpu time    0.0136: real time    0.0136
    --------------------------------------------
      LOOP:  cpu time   17.7499: real time   17.7534

 eigenvalue-minimisations  :  1840
 total energy-change (2. order) : 0.5277557E+02  (-0.2688560E+02)
 number of electron    1143.9998985 magnetization 
 augmentation part      438.4351730 magnetization 

 Broyden mixing:
  rms(total) = 0.16020E+02    rms(broyden)= 0.16015E+02
  rms(prec ) = 0.20374E+02
  weight for this iteration     100.00

 eigenvalues of (default mixing * dielectric matrix)
  average eigenvalue GAMMA=   0.4292
  0.9985  0.4131  0.2213  0.0839

 Free energy of the ion-electron system (eV)
  ---------------------------------------------------
  alpha Z        PSCENC =      2994.23548884
  Ewald energy   TEWEN  =    342044.67801174
  -Hartree energ DENC   =   -518542.88247815
  -exchange      EXHF   =         0.00000000
  -V(xc)+E(xc)   XCENC  =      5283.73815516
  PAW double counting   =    188823.14122988  -196006.60255010
  entropy T*S    EENTRO =        -1.22123577
  eigenvalues    EBANDS =    -21678.96266208
  atomic energy  EATOM  =    196448.20729987
  Solvation  Ediel_sol  =         0.00000000
  ---------------------------------------------------
  free energy    TOTEN  =      -635.66874061 eV

  energy without entropy =     -634.44750484  energy(sigma->0) =     -635.05812273


--------------------------------------------------------------------------------------------------------




--------------------------------------- Iteration      1(  10)  ---------------------------------------


    POTLOK:  cpu time    0.3543: real time    0.3545
    SETDIJ:  cpu time    0.0260: real time    0.0260
     EDDAV:  cpu time   18.3630: real time   18.3668
       DOS:  cpu time    0.0017: real time    0.0016
    CHARGE:  cpu time    0.4245: real time    0.4245
    MIXING:  cpu time    0.0146: real time    0.0146
    --------------------------------------------
      LOOP:  cpu time   19.1841: real time   19.1881

 eigenvalue-minimisations  :  2000
 total energy-change (2. order) : 0.2633777E+02  (-0.2667603E+02)
 number of electron    1143.9998845 magnetization 
 augmentation part      434.6974848 magnetization 

 Broyden mixing:
  rms(total) = 0.14049E+02    rms(broyden)= 0.14044E+02
  rms(prec ) = 0.15936E+02
  weight for this iteration     100.00

 eigenvalues of (default mixing * dielectric matrix)
  average eigenvalue GAMMA=   0.4990
  1.6024  0.3498  0.3498  0.1059  0.0871

 Free energy of the ion-electron system (eV)
  ---------------------------------------------------
  alpha Z        PSCENC =      2994.23548884
  Ewald energy   TEWEN  =    342044.67801174
  -Hartree energ DENC   =   -518886.55199037
  -exchange      EXHF   =         0.00000000
  -V(xc)+E(xc)   XCENC  =      5280.00726416
  PAW double counting   =    193562.29243583  -200773.03950540
  entropy T*S    EENTRO =        -1.76450419
  eigenvalues    EBANDS =    -21277.39547424
  atomic energy  EATOM  =    196448.20729987
  Solvation  Ediel_sol  =         0.00000000
  ---------------------------------------------------
  free energy    TOTEN  =      -609.33097377 eV

  energy without entropy =     -607.56646958  energy(sigma->0) =     -608.44872167


--------------------------------------------------------------------------------------------------------




--------------------------------------- Iteration      1(  11)  ---------------------------------------


    POTLOK:  cpu time    0.3570: real time    0.3570
    SETDIJ:  cpu time    0.0259: real time    0.0259
     EDDAV:  cpu time   17.2869: real time   17.2904
       DOS:  cpu time    0.0017: real time    0.0017
    CHARGE:  cpu time    0.4267: real time    0.4268
    MIXING:  cpu time    0.0150: real time    0.0151
    --------------------------------------------
      LOOP:  cpu time   18.1133: real time   18.1169

 eigenvalue-minimisations  :  1888
 total energy-change (2. order) :-0.7601159E+00  (-0.1429526E+02)
 number of electron    1143.9998835 magnetization 
 augmentation part      439.5558955 magnetization 

 Broyden mixing:
  rms(total) = 0.12277E+02    rms(broyden)= 0.12273E+02
  rms(prec ) = 0.13325E+02
  weight for this iteration     100.00

 eigenvalues of (default mixing * dielectric matrix)
  average eigenvalue GAMMA=   0.5142
  2.0065  0.3653  0.3653  0.1335  0.1335  0.0812

 Free energy of the ion-electron system (eV)
  ---------------------------------------------------
  alpha Z        PSCENC =      2994.23548884
  Ewald energy   TEWEN  =    342044.67801174
  -Hartree energ DENC   =   -518544.36720746
  -exchange      EXHF   =         0.00000000
  -V(xc)+E(xc)   XCENC  =      5274.66099956
  PAW double counting   =    201093.62342346  -208353.21105268
  entropy T*S    EENTRO =        -1.28978742
  eigenvalues    EBANDS =    -21566.62826561
  atomic energy  EATOM  =    196448.20729987
  Solvation  Ediel_sol  =         0.00000000
  ---------------------------------------------------
  free energy    TOTEN  =      -610.09108969 eV

  energy without entropy =     -608.80130227  energy(sigma->0) =     -609.44619598


--------------------------------------------------------------------------------------------------------




--------------------------------------- Iteration      1(  12)  ---------------------------------------


    POTLOK:  cpu time    0.3566: real time    0.3566
    SETDIJ:  cpu time    0.0261: real time    0.0261
     EDDAV:  cpu time   17.0976: real time   17.1007
       DOS:  cpu time    0.0016: real time    0.0016
    CHARGE:  cpu time    0.4226: real time    0.4258
    MIXING:  cpu time    0.0146: real time    0.0146
    --------------------------------------------
      LOOP:  cpu time   17.9191: real time   17.9254

 eigenvalue-minimisations  :  1856
 total energy-change (2. order) : 0.5714933E+02  (-0.1105497E+02)
 number of electron    1143.9998819 magnetization 
 augmentation part      451.1420212 magnetization 

 Broyden mixing:
  rms(total) = 0.70438E+01    rms(broyden)= 0.70369E+01
  rms(prec ) = 0.79184E+01
  weight for this iteration     100.00

 eigenvalues of (default mixing * dielectric matrix)
  average eigenvalue GAMMA=   0.5126
  2.1407  0.3606  0.3606  0.3494  0.1882  0.1049  0.0841

 Free energy of the ion-electron system (eV)
  ---------------------------------------------------
  alpha Z        PSCENC =      2994.23548884
  Ewald energy   TEWEN  =    342044.67801174
  -Hartree energ DENC   =   -518319.28979173
  -exchange      EXHF   =         0.00000000
  -V(xc)+E(xc)   XCENC  =      5270.15374799
  PAW double counting   =    206231.74613554  -213520.04056554
  entropy T*S    EENTRO =        -1.23908552
  eigenvalues    EBANDS =    -21701.39299822
  atomic energy  EATOM  =    196448.20729987
  Solvation  Ediel_sol  =         0.00000000
  ---------------------------------------------------
  free energy    TOTEN  =      -552.94175702 eV

  energy without entropy =     -551.70267150  energy(sigma->0) =     -552.32221426


--------------------------------------------------------------------------------------------------------




--------------------------------------- Iteration      1(  13)  ---------------------------------------


    POTLOK:  cpu time    0.3579: real time    0.3579
    SETDIJ:  cpu time    0.0271: real time    0.0272
     EDDAV:  cpu time   17.1125: real time   17.1151
       DOS:  cpu time    0.0015: real time    0.0015
    CHARGE:  cpu time    0.6063: real time    0.6064
    MIXING:  cpu time    0.0165: real time    0.0165
    --------------------------------------------
      LOOP:  cpu time   18.1219: real time   18.1247

 eigenvalue-minimisations  :  1856
 total energy-change (2. order) :-0.2132540E+01  (-0.1025808E+02)
 number of electron    1143.9998828 magnetization 
 augmentation part      448.8951474 magnetization 

 Broyden mixing:
  rms(total) = 0.94388E+01    rms(broyden)= 0.94353E+01
  rms(prec ) = 0.10601E+02
  weight for this iteration     100.00

 eigenvalues of (default mixing * dielectric matrix)
  average eigenvalue GAMMA=   0.5116
  2.2399  0.5738  0.3800  0.3800  0.1952  0.1200  0.1200  0.0836

 Free energy of the ion-electron system (eV)
  ---------------------------------------------------
  alpha Z        PSCENC =      2994.23548884
  Ewald energy   TEWEN  =    342044.67801174
  -Hartree energ DENC   =   -518336.72347957
  -exchange      EXHF   =         0.00000000
  -V(xc)+E(xc)   XCENC  =      5270.04994565
  PAW double counting   =    207722.11431315  -215017.41408490
  entropy T*S    EENTRO =        -1.45840629
  eigenvalues    EBANDS =    -21678.76338544
  atomic energy  EATOM  =    196448.20729987
  Solvation  Ediel_sol  =         0.00000000
  ---------------------------------------------------
  free energy    TOTEN  =      -555.07429695 eV

  energy without entropy =     -553.61589066  energy(sigma->0) =     -554.34509380


--------------------------------------------------------------------------------------------------------




--------------------------------------- Iteration      1(  14)  ---------------------------------------


    POTLOK:  cpu time    0.3602: real time    0.3603
    SETDIJ:  cpu time    0.0260: real time    0.0260
     EDDAV:  cpu time   17.2537: real time   17.2572
       DOS:  cpu time    0.0017: real time    0.0017
    CHARGE:  cpu time    0.4185: real time    0.4185
    MIXING:  cpu time    0.0162: real time    0.0162
    --------------------------------------------
      LOOP:  cpu time   18.0764: real time   18.0800

 eigenvalue-minimisations  :  1880
 total energy-change (2. order) : 0.1928543E+02  (-0.6862214E+01)
 number of electron    1143.9998797 magnetization 
 augmentation part      451.5061129 magnetization 

 Broyden mixing:
  rms(total) = 0.67497E+01    rms(broyden)= 0.67471E+01
  rms(prec ) = 0.75390E+01
  weight for this iteration     100.00

 eigenvalues of (default mixing * dielectric matrix)
  average eigenvalue GAMMA=   0.4800
  2.2626  0.5513  0.3903  0.3903  0.2629  0.1355  0.1355  0.0839  0.1072

 Free energy of the ion-electron system (eV)
  ---------------------------------------------------
  alpha Z        PSCENC =      2994.23548884
  Ewald energy   TEWEN  =    342044.67801174
  -Hartree energ DENC   =   -518329.26427649
  -exchange      EXHF   =         0.00000000
  -V(xc)+E(xc)   XCENC  =      5270.19647664
  PAW double counting   =    208399.41170241  -215696.53238531
  entropy T*S    EENTRO =        -1.34391456
  eigenvalues    EBANDS =    -21665.37726992
  atomic energy  EATOM  =    196448.20729987
  Solvation  Ediel_sol  =         0.00000000
  ---------------------------------------------------
  free energy    TOTEN  =      -535.78886677 eV

  energy without entropy =     -534.44495221  energy(sigma->0) =     -535.11690949


--------------------------------------------------------------------------------------------------------




--------------------------------------- Iteration      1(  15)  ---------------------------------------


    POTLOK:  cpu time    0.3617: real time    0.3619
    SETDIJ:  cpu time    0.0258: real time    0.0258
     EDDAV:  cpu time   17.3935: real time   17.3965
       DOS:  cpu time    0.0016: real time    0.0016
    CHARGE:  cpu time    0.4194: real time    0.4194
    MIXING:  cpu time    0.0164: real time    0.0164
    --------------------------------------------
      LOOP:  cpu time   18.2183: real time   18.2216

 eigenvalue-minimisations  :  1904
 total energy-change (2. order) : 0.1512462E+02  (-0.3525305E+01)
 number of electron    1143.9998804 magnetization 
 augmentation part      453.7798357 magnetization 

 Broyden mixing:
  rms(total) = 0.43569E+01    rms(broyden)= 0.43549E+01
  rms(prec ) = 0.49615E+01
  weight for this iteration     100.00

 eigenvalues of (default mixing * dielectric matrix)
  average eigenvalue GAMMA=   0.4563
  2.2094  0.4516  0.4516  0.4142  0.4142  0.1534  0.1534  0.0835  0.1158  0.1158

 Free energy of the ion-electron system (eV)
  ---------------------------------------------------
  alpha Z        PSCENC =      2994.23548884
  Ewald energy   TEWEN  =    342044.67801174
  -Hartree energ DENC   =   -518311.35559377
  -exchange      EXHF   =         0.00000000
  -V(xc)+E(xc)   XCENC  =      5270.31689126
  PAW double counting   =    208420.99458029  -215716.64308124
  entropy T*S    EENTRO =        -1.15304083
  eigenvalues    EBANDS =    -21669.94480726
  atomic energy  EATOM  =    196448.20729987
  Solvation  Ediel_sol  =         0.00000000
  ---------------------------------------------------
  free energy    TOTEN  =      -520.66425111 eV

  energy without entropy =     -519.51121027  energy(sigma->0) =     -520.08773069


--------------------------------------------------------------------------------------------------------




--------------------------------------- Iteration      1(  16)  ---------------------------------------


    POTLOK:  cpu time    0.3586: real time    0.3588
    SETDIJ:  cpu time    0.0260: real time    0.0260
     EDDAV:  cpu time   18.3131: real time   18.3168
       DOS:  cpu time    0.0017: real time    0.0017
    CHARGE:  cpu time    0.4235: real time    0.4235
    MIXING:  cpu time    0.0175: real time    0.0175
    --------------------------------------------
      LOOP:  cpu time   19.1406: real time   19.1444

 eigenvalue-minimisations  :  1904
 total energy-change (2. order) : 0.4021391E+01  (-0.1803092E+01)
 number of electron    1143.9998796 magnetization 
 augmentation part      453.3199313 magnetization 

 Broyden mixing:
  rms(total) = 0.33665E+01    rms(broyden)= 0.33652E+01
  rms(prec ) = 0.38571E+01
  weight for this iteration     100.00

 eigenvalues of (default mixing * dielectric matrix)
  average eigenvalue GAMMA=   0.4414
  2.1106  0.5864  0.5864  0.3853  0.3853  0.1822  0.1822  0.0837  0.1227  0.1227
  0.1080

 Free energy of the ion-electron system (eV)
  ---------------------------------------------------
  alpha Z        PSCENC =      2994.23548884
  Ewald energy   TEWEN  =    342044.67801174
  -Hartree energ DENC   =   -518323.88700531
  -exchange      EXHF   =         0.00000000
  -V(xc)+E(xc)   XCENC  =      5271.17330022
  PAW double counting   =    207838.53547743  -215129.01438419
  entropy T*S    EENTRO =        -1.10937896
  eigenvalues    EBANDS =    -21659.46166933
  atomic energy  EATOM  =    196448.20729987
  Solvation  Ediel_sol  =         0.00000000
  ---------------------------------------------------
  free energy    TOTEN  =      -516.64285969 eV

  energy without entropy =     -515.53348073  energy(sigma->0) =     -516.08817021


--------------------------------------------------------------------------------------------------------




--------------------------------------- Iteration      1(  17)  ---------------------------------------


    POTLOK:  cpu time    0.3579: real time    0.3579
    SETDIJ:  cpu time    0.0265: real time    0.0265
     EDDAV:  cpu time   17.3127: real time   17.3241
       DOS:  cpu time    0.0017: real time    0.0017
    CHARGE:  cpu time    0.4244: real time    0.4245
    MIXING:  cpu time    0.0189: real time    0.0189
    --------------------------------------------
      LOOP:  cpu time   18.1421: real time   18.1536

 eigenvalue-minimisations  :  1880
 total energy-change (2. order) : 0.3507607E+01  (-0.4293933E+00)
 number of electron    1143.9998805 magnetization 
 augmentation part      452.3415669 magnetization 

 Broyden mixing:
  rms(total) = 0.28265E+01    rms(broyden)= 0.28262E+01
  rms(prec ) = 0.33059E+01
  weight for this iteration     100.00

 eigenvalues of (default mixing * dielectric matrix)
  average eigenvalue GAMMA=   0.4267
  2.0726  0.5963  0.5963  0.3531  0.3531  0.2743  0.2743  0.1426  0.1426  0.0836
  0.1160  0.1160

 Free energy of the ion-electron system (eV)
  ---------------------------------------------------
  alpha Z        PSCENC =      2994.23548884
  Ewald energy   TEWEN  =    342044.67801174
  -Hartree energ DENC   =   -518362.20481859
  -exchange      EXHF   =         0.00000000
  -V(xc)+E(xc)   XCENC  =      5272.47312266
  PAW double counting   =    206915.97741884  -214199.71229026
  entropy T*S    EENTRO =        -1.14632032
  eigenvalues    EBANDS =    -21625.64316593
  atomic energy  EATOM  =    196448.20729987
  Solvation  Ediel_sol  =         0.00000000
  ---------------------------------------------------
  free energy    TOTEN  =      -513.13525315 eV

  energy without entropy =     -511.98893283  energy(sigma->0) =     -512.56209299


--------------------------------------------------------------------------------------------------------




--------------------------------------- Iteration      1(  18)  ---------------------------------------


    POTLOK:  cpu time    0.3580: real time    0.3582
    SETDIJ:  cpu time    0.0262: real time    0.0262
     EDDAV:  cpu time   16.9218: real time   16.9265
       DOS:  cpu time    0.0017: real time    0.0017
    CHARGE:  cpu time    0.4190: real time    0.4191
    MIXING:  cpu time    0.0230: real time    0.0230
    --------------------------------------------
      LOOP:  cpu time   17.7497: real time   17.7547

 eigenvalue-minimisations  :  1824
 total energy-change (2. order) : 0.8172222E+00  (-0.1548740E+00)
 number of electron    1143.9998798 magnetization 
 augmentation part      451.7371869 magnetization 

 Broyden mixing:
  rms(total) = 0.27165E+01    rms(broyden)= 0.27164E+01
  rms(prec ) = 0.31533E+01
  weight for this iteration     100.00

 eigenvalues of (default mixing * dielectric matrix)
  average eigenvalue GAMMA=   0.4286
  2.0601  0.6595  0.6595  0.3894  0.3894  0.3305  0.3305  0.1540  0.1540  0.0837
  0.1246  0.1246  0.1124

 Free energy of the ion-electron system (eV)
  ---------------------------------------------------
  alpha Z        PSCENC =      2994.23548884
  Ewald energy   TEWEN  =    342044.67801174
  -Hartree energ DENC   =   -518384.69383230
  -exchange      EXHF   =         0.00000000
  -V(xc)+E(xc)   XCENC  =      5272.94924281
  PAW double counting   =    206412.11248776  -213690.97978822
  entropy T*S    EENTRO =        -1.13964062
  eigenvalues    EBANDS =    -21607.68730079
  atomic energy  EATOM  =    196448.20729987
  Solvation  Ediel_sol  =         0.00000000
  ---------------------------------------------------
  free energy    TOTEN  =      -512.31803091 eV

  energy without entropy =     -511.17839029  energy(sigma->0) =     -511.74821060


--------------------------------------------------------------------------------------------------------




--------------------------------------- Iteration      1(  19)  ---------------------------------------


    POTLOK:  cpu time    0.3640: real time    0.3640
    SETDIJ:  cpu time    0.0399: real time    0.0399
     EDDAV:  cpu time   16.8074: real time   16.8108
       DOS:  cpu time    0.0015: real time    0.0015
    CHARGE:  cpu time    0.5213: real time    0.5214
    MIXING:  cpu time    0.0224: real time    0.0224
    --------------------------------------------
      LOOP:  cpu time   17.7565: real time   17.7600

 eigenvalue-minimisations  :  1824
 total energy-change (2. order) : 0.8863187E+00  (-0.5288005E-01)
 number of electron    1143.9998803 magnetization 
 augmentation part      451.4697290 magnetization 

 Broyden mixing:
  rms(total) = 0.25747E+01    rms(broyden)= 0.25746E+01
  rms(prec ) = 0.30075E+01
  weight for this iteration     100.00

 eigenvalues of (default mixing * dielectric matrix)
  average eigenvalue GAMMA=   0.4606
  2.0844  0.8561  0.8561  0.4642  0.4642  0.3768  0.3768  0.1867  0.1867  0.0836
  0.1384  0.1384  0.1183  0.1183

 Free energy of the ion-electron system (eV)
  ---------------------------------------------------
  alpha Z        PSCENC =      2994.23548884
  Ewald energy   TEWEN  =    342044.67801174
  -Hartree energ DENC   =   -518401.50678566
  -exchange      EXHF   =         0.00000000
  -V(xc)+E(xc)   XCENC  =      5273.21585092
  PAW double counting   =    205982.58807326  -213256.56331996
  entropy T*S    EENTRO =        -1.16791932
  eigenvalues    EBANDS =    -21595.11841190
  atomic energy  EATOM  =    196448.20729987
  Solvation  Ediel_sol  =         0.00000000
  ---------------------------------------------------
  free energy    TOTEN  =      -511.43171219 eV

  energy without entropy =     -510.26379287  energy(sigma->0) =     -510.84775253


--------------------------------------------------------------------------------------------------------




--------------------------------------- Iteration      1(  20)  ---------------------------------------


    POTLOK:  cpu time    0.3614: real time    0.3614
    SETDIJ:  cpu time    0.0262: real time    0.0262
     EDDAV:  cpu time   17.1867: real time   17.1899
       DOS:  cpu time    0.0019: real time    0.0019
    CHARGE:  cpu time    0.4201: real time    0.4201
    MIXING:  cpu time    0.0208: real time    0.0208
    --------------------------------------------
      LOOP:  cpu time   18.0171: real time   18.0203

 eigenvalue-minimisations  :  1872
 total energy-change (2. order) : 0.9516338E+00  (-0.6674358E-01)
 number of electron    1143.9998799 magnetization 
 augmentation part      451.4668262 magnetization 

 Broyden mixing:
  rms(total) = 0.24370E+01    rms(broyden)= 0.24369E+01
  rms(prec ) = 0.28296E+01
  weight for this iteration     100.00

 eigenvalues of (default mixing * dielectric matrix)
  average eigenvalue GAMMA=   0.5084
  2.1348  1.2027  1.2027  0.5690  0.5690  0.3862  0.3862  0.2129  0.2129  0.0836
  0.1432  0.1432  0.1218  0.1218  0.1356

 Free energy of the ion-electron system (eV)
  ---------------------------------------------------
  alpha Z        PSCENC =      2994.23548884
  Ewald energy   TEWEN  =    342044.67801174
  -Hartree energ DENC   =   -518409.13809287
  -exchange      EXHF   =         0.00000000
  -V(xc)+E(xc)   XCENC  =      5273.28274627
  PAW double counting   =    205484.51010391  -212750.99952284
  entropy T*S    EENTRO =        -1.20236618
  eigenvalues    EBANDS =    -21594.05374710
  atomic energy  EATOM  =    196448.20729987
  Solvation  Ediel_sol  =         0.00000000
  ---------------------------------------------------
  free energy    TOTEN  =      -510.48007837 eV

  energy without entropy =     -509.27771219  energy(sigma->0) =     -509.87889528


--------------------------------------------------------------------------------------------------------




--------------------------------------- Iteration      1(  21)  ---------------------------------------


    POTLOK:  cpu time    0.3633: real time    0.3633
    SETDIJ:  cpu time    0.0263: real time    0.0263
     EDDAV:  cpu time   18.0097: real time   18.0129
       DOS:  cpu time    0.0033: real time    0.0033
    CHARGE:  cpu time    0.4211: real time    0.4222
    MIXING:  cpu time    0.0216: real time    0.0216
    --------------------------------------------
      LOOP:  cpu time   18.8453: real time   18.8496

 eigenvalue-minimisations  :  1984
 total energy-change (2. order) : 0.1986064E+01  (-0.9669050E-01)
 number of electron    1143.9998796 magnetization 
 augmentation part      451.7540786 magnetization 

 Broyden mixing:
  rms(total) = 0.20628E+01    rms(broyden)= 0.20627E+01
  rms(prec ) = 0.24189E+01
  weight for this iteration     100.00

 eigenvalues of (default mixing * dielectric matrix)
  average eigenvalue GAMMA=   0.5134
  2.1219  1.3808  1.3808  0.5957  0.5957  0.3828  0.3828  0.2347  0.2347  0.0836
  0.1548  0.1548  0.1369  0.1369  0.1187  0.1187

 Free energy of the ion-electron system (eV)
  ---------------------------------------------------
  alpha Z        PSCENC =      2994.23548884
  Ewald energy   TEWEN  =    342044.67801174
  -Hartree energ DENC   =   -518419.10090763
  -exchange      EXHF   =         0.00000000
  -V(xc)+E(xc)   XCENC  =      5273.35641604
  PAW double counting   =    204646.67191551  -211899.66760814
  entropy T*S    EENTRO =        -1.18950881
  eigenvalues    EBANDS =    -21595.68512206
  atomic energy  EATOM  =    196448.20729987
  Solvation  Ediel_sol  =         0.00000000
  ---------------------------------------------------
  free energy    TOTEN  =      -508.49401464 eV

  energy without entropy =     -507.30450583  energy(sigma->0) =     -507.89926023


--------------------------------------------------------------------------------------------------------




--------------------------------------- Iteration      1(  22)  ---------------------------------------


    POTLOK:  cpu time    0.4598: real time    0.4599
    SETDIJ:  cpu time    0.0547: real time    0.0547
     EDDAV:  cpu time   17.2837: real time   17.2867
       DOS:  cpu time    0.0037: real time    0.0037
    CHARGE:  cpu time    0.4212: real time    0.4212
    MIXING:  cpu time    0.0228: real time    0.0228
    --------------------------------------------
      LOOP:  cpu time   18.2459: real time   18.2489

 eigenvalue-minimisations  :  1880
 total energy-change (2. order) : 0.1601279E+01  (-0.8093642E-01)
 number of electron    1143.9998794 magnetization 
 augmentation part      451.4870549 magnetization 

 Broyden mixing:
  rms(total) = 0.16163E+01    rms(broyden)= 0.16161E+01
  rms(prec ) = 0.18912E+01
  weight for this iteration     100.00

 eigenvalues of (default mixing * dielectric matrix)
  average eigenvalue GAMMA=   0.5319
  2.0639  1.6090  1.6090  0.6149  0.6149  0.3766  0.3766  0.3251  0.3251  0.1884
  0.1884  0.0836  0.1409  0.1409  0.1200  0.1200  0.1453

 Free energy of the ion-electron system (eV)
  ---------------------------------------------------
  alpha Z        PSCENC =      2994.23548884
  Ewald energy   TEWEN  =    342044.67801174
  -Hartree energ DENC   =   -518443.82610747
  -exchange      EXHF   =         0.00000000
  -V(xc)+E(xc)   XCENC  =      5273.84127447
  PAW double counting   =    203784.85738052  -211026.54685267
  entropy T*S    EENTRO =        -1.24586411
  eigenvalues    EBANDS =    -21581.09336690
  atomic energy  EATOM  =    196448.20729987
  Solvation  Ediel_sol  =         0.00000000
  ---------------------------------------------------
  free energy    TOTEN  =      -506.89273571 eV

  energy without entropy =     -505.64687160  energy(sigma->0) =     -506.26980365


--------------------------------------------------------------------------------------------------------




--------------------------------------- Iteration      1(  23)  ---------------------------------------


    POTLOK:  cpu time    0.3631: real time    0.3631
    SETDIJ:  cpu time    0.0263: real time    0.0263
     EDDAV:  cpu time   17.4929: real time   17.4959
       DOS:  cpu time    0.0036: real time    0.0036
    CHARGE:  cpu time    0.4285: real time    0.4286
    MIXING:  cpu time    0.0237: real time    0.0237
    --------------------------------------------
      LOOP:  cpu time   18.3382: real time   18.3412

 eigenvalue-minimisations  :  1912
[...]
   0.409E+03 -.300E+03 -.534E+04   -.407E+03 0.301E+03 0.535E+04   -.170E+01 0.326E+00 -.470E+01   -.253E-01 -.162E+00 0.225E+00
   -.852E+03 0.193E+03 0.378E+04   0.856E+03 -.194E+03 -.378E+04   -.281E+01 0.935E+00 -.194E+00   0.355E-01 -.319E-01 -.463E+00
   -.271E+03 -.830E+03 0.606E+04   0.274E+03 0.833E+03 -.607E+04   -.313E+01 -.159E+01 0.494E+01   -.365E-01 0.768E-01 -.193E+00
   0.230E+03 -.345E+03 -.623E+03   -.230E+03 0.345E+03 0.623E+03   0.329E+00 -.887E+00 0.743E+00   -.196E-02 -.414E-01 -.442E+00
   0.468E+02 -.337E+03 -.404E+04   -.480E+02 0.340E+03 0.404E+04   0.818E+00 -.279E+01 -.101E+01   -.759E-01 -.571E-02 -.696E-01
   0.422E+03 -.676E+03 0.262E+04   -.424E+03 0.678E+03 -.262E+04   0.153E+01 -.223E+01 0.865E+00   -.120E+00 0.335E-01 -.335E+00
   0.576E+03 0.429E+03 -.536E+04   -.580E+03 -.433E+03 0.536E+04   0.312E+01 0.345E+01 -.194E+01   0.612E-01 -.116E+00 0.388E+00
   0.875E+03 -.215E+03 0.605E+04   -.879E+03 0.215E+03 -.605E+04   0.281E+01 0.947E+00 0.551E+01   0.438E+00 0.277E-01 -.130E+00
   0.341E+03 0.643E+03 0.381E+04   -.341E+03 -.648E+03 -.381E+04   0.760E+00 0.340E+01 0.337E+00   0.938E-01 0.227E+00 -.247E+00
   0.239E+03 0.421E+03 0.476E+03   -.240E+03 -.421E+03 -.477E+03   0.905E+00 0.363E+00 0.124E+01   0.960E-01 0.170E+00 -.406E+00
   0.204E+03 0.441E+03 -.292E+04   -.209E+03 -.446E+03 0.292E+04   0.389E+01 0.393E+01 -.145E+01   0.285E-01 0.315E-01 -.109E+00
   -.536E+03 0.378E+01 0.555E+03   0.537E+03 -.306E+01 -.556E+03   -.873E+00 -.708E+00 0.121E+01   0.500E+00 -.101E+00 -.666E+00
   -.613E+03 -.144E+03 -.231E+04   0.614E+03 0.143E+03 0.231E+04   -.124E+01 0.245E-01 0.294E+01   0.303E+00 -.255E-02 -.618E-01
   -.114E+04 -.431E+03 -.528E+04   0.115E+04 0.433E+03 0.528E+04   -.485E+01 -.976E+00 -.175E+01   0.738E-02 -.150E+00 0.324E+00
   -.403E+03 0.460E+03 0.323E+04   0.405E+03 -.462E+03 -.323E+04   -.117E+01 0.176E+01 -.330E+01   0.358E-01 0.198E+00 -.774E+00
   -.149E+03 -.952E+03 0.610E+04   0.144E+03 0.954E+03 -.610E+04   0.468E+01 -.953E+00 -.270E+01   0.482E-01 0.315E-01 -.146E+00
   -.572E+02 0.121E+03 -.221E+03   0.581E+02 -.123E+03 0.218E+03   -.868E+00 0.158E+01 0.198E+01   -.107E+00 0.109E+00 -.812E-01
   0.108E+03 0.194E+03 -.126E+04   -.109E+03 -.196E+03 0.126E+04   0.731E+00 0.978E+00 0.186E+01   -.141E-01 0.516E-01 0.137E+00
   -.448E+03 0.292E+03 0.233E+04   0.452E+03 -.295E+03 -.233E+04   -.146E+01 0.170E+01 0.993E+00   -.166E-01 -.778E-01 -.129E+00
   -.905E+02 0.129E+03 0.103E+04   0.913E+02 -.131E+03 -.103E+04   -.770E+00 0.183E+01 0.137E+01   0.811E-01 -.459E-01 -.545E-01
   0.367E+03 -.110E+03 -.233E+04   -.372E+03 0.112E+03 0.233E+04   0.348E+01 -.908E+00 -.300E+01   0.163E-01 0.185E-01 0.641E-01
   -.183E+03 -.178E+03 -.214E+04   0.188E+03 0.181E+03 0.214E+04   -.326E+01 -.106E+01 -.997E+00   -.748E-02 0.443E-01 0.125E+00
   -.714E+02 -.143E+03 -.594E+03   0.725E+02 0.146E+03 0.595E+03   -.417E+00 -.292E+01 -.647E+00   -.755E-01 -.960E-01 -.108E+00
   -.380E+03 0.377E+02 0.172E+04   0.384E+03 -.378E+02 -.172E+04   -.300E+01 0.718E+00 -.263E+00   -.704E-04 -.870E-01 -.176E+00
   -.118E+03 -.122E+03 0.476E+03   0.119E+03 0.125E+03 -.476E+03   -.981E+00 -.245E+01 0.498E+00   0.191E+00 0.628E-01 -.333E+00
   0.179E+03 -.328E+03 0.159E+04   -.182E+03 0.331E+03 -.159E+04   0.177E+01 -.145E+01 -.138E+00   -.393E-02 0.600E-02 -.110E+00
   0.136E+03 -.235E+02 0.440E+03   -.139E+03 0.235E+02 -.440E+03   0.263E+01 -.264E+00 0.522E+00   0.125E+00 0.416E-01 -.133E+00
   0.194E+03 -.212E+01 -.658E+03   -.197E+03 0.225E+01 0.658E+03   0.290E+01 -.251E+00 -.667E+00   0.109E+00 0.552E-01 -.426E-01
   0.187E+03 0.112E+03 -.184E+04   -.188E+03 -.113E+03 0.184E+04   0.122E+01 -.868E-02 -.413E-01   0.367E-01 0.637E-01 0.637E-01
   -.703E+02 0.135E+03 -.162E+03   0.710E+02 -.137E+03 0.160E+03   -.919E+00 0.194E+01 0.174E+01   -.476E-02 0.297E-01 -.176E+00
   -.215E+02 0.308E+03 -.132E+04   0.200E+02 -.309E+03 0.132E+04   0.144E+01 0.654E+00 0.300E+01   0.848E-02 -.567E-02 0.330E-02
   -.398E+02 0.857E+02 0.230E+04   0.397E+02 -.864E+02 -.230E+04   -.149E+00 0.135E+01 0.207E+01   -.412E-01 -.197E+00 -.538E-01
   -.332E+02 0.609E+02 0.714E+03   0.339E+02 -.617E+02 -.712E+03   -.691E+00 0.913E+00 -.571E+00   -.920E-01 -.592E-01 -.251E+00
   -.118E+03 -.540E+01 -.258E+04   0.118E+03 0.509E+01 0.259E+04   0.102E+00 -.261E-01 -.212E+01   -.372E-02 -.551E-01 0.115E+00
   -.610E+02 -.658E+02 -.193E+04   0.629E+02 0.675E+02 0.193E+04   -.711E+00 -.235E+01 -.204E+01   -.935E-02 0.399E-02 0.963E-01
   -.108E+03 -.158E+03 -.702E+03   0.109E+03 0.161E+03 0.701E+03   -.148E+01 -.250E+01 0.924E-01   0.534E-01 0.867E-01 0.452E-01
   0.182E+03 -.311E+03 0.162E+04   -.183E+03 0.315E+03 -.162E+04   0.183E+00 -.174E+01 -.306E+00   0.105E+00 -.131E+00 -.212E+00
   -.402E+02 -.127E+03 0.432E+03   0.414E+02 0.130E+03 -.432E+03   -.104E+01 -.239E+01 0.530E+00   -.708E-01 -.385E-01 -.197E+00
   0.300E+03 -.221E+03 0.163E+04   -.301E+03 0.223E+03 -.163E+04   0.107E+00 -.145E+01 0.146E+01   -.192E-01 -.340E-01 -.526E-01
   0.204E+03 -.276E+02 0.475E+03   -.206E+03 0.276E+02 -.475E+03   0.278E+01 -.708E-01 0.481E+00   -.130E+00 -.601E-01 -.204E+00
   0.135E+03 0.403E+02 -.649E+03   -.138E+03 -.401E+02 0.649E+03   0.302E+01 -.392E-01 -.498E+00   -.796E-01 -.204E-01 -.414E-01
   -.119E+03 0.383E+03 -.208E+04   0.121E+03 -.387E+03 0.208E+04   -.185E+01 0.203E+01 -.162E+01   -.276E-01 0.613E-01 0.133E+00
   -.520E+02 0.856E+02 -.183E+03   0.525E+02 -.874E+02 0.181E+03   -.766E+00 0.216E+01 0.124E+01   -.365E-01 0.309E-01 -.141E+00
   0.160E+03 0.114E+03 -.120E+04   -.161E+03 -.116E+03 0.119E+04   0.818E+00 0.158E+01 0.176E+01   0.186E-01 -.414E-01 0.228E-01
   -.273E+03 0.434E+03 0.227E+04   0.275E+03 -.437E+03 -.228E+04   -.736E+00 0.959E+00 0.120E+01   -.388E-01 0.736E-01 -.506E-01
   -.897E+02 0.145E+03 0.105E+04   0.904E+02 -.146E+03 -.106E+04   -.750E+00 0.108E+01 0.181E+01   0.952E-02 0.170E-01 -.222E+00
   0.251E+03 -.175E+03 -.225E+04   -.256E+03 0.176E+03 0.225E+04   0.357E+01 -.186E+00 -.250E+01   0.306E-02 0.148E-01 0.183E+00
   0.258E+02 -.214E+03 -.224E+04   -.241E+02 0.215E+03 0.224E+04   -.149E+01 0.265E+00 -.156E+01   -.169E-01 -.475E-01 0.906E-01
   -.928E+02 -.162E+03 -.650E+03   0.933E+02 0.165E+03 0.649E+03   -.607E+00 -.278E+01 -.149E+00   0.226E+00 0.523E-01 -.100E-01
   -.141E+03 -.271E+03 0.176E+04   0.141E+03 0.273E+03 -.177E+04   0.414E+00 -.779E-02 0.119E+01   0.150E-01 0.104E+00 -.650E-01
   -.888E+02 -.165E+03 0.513E+03   0.894E+02 0.167E+03 -.512E+03   -.493E+00 -.248E+01 0.610E+00   -.213E-02 -.507E-01 -.141E+00
   0.133E+03 0.315E+03 0.165E+04   -.134E+03 -.318E+03 -.165E+04   0.104E+01 0.228E+01 -.154E+01   -.147E+00 0.263E-02 -.278E+00
   0.167E+03 0.498E+02 0.467E+03   -.169E+03 -.492E+02 -.467E+03   0.286E+01 -.556E+00 0.596E+00   -.178E+00 -.104E+00 -.350E+00
   0.209E+03 -.390E+02 -.660E+03   -.211E+03 0.396E+02 0.660E+03   0.302E+01 -.719E+00 -.547E+00   -.141E+00 -.147E+00 -.163E-01
   0.389E+03 -.182E+03 -.191E+04   -.393E+03 0.183E+03 0.191E+04   0.191E+01 -.387E+00 -.214E+01   -.364E-01 -.795E-01 0.179E+00
   -.811E+02 0.106E+03 -.141E+03   0.823E+02 -.108E+03 0.139E+03   -.121E+01 0.180E+01 0.139E+01   0.359E-01 -.669E-02 -.173E+00
   -.125E+03 0.109E+03 -.114E+04   0.126E+03 -.111E+03 0.113E+04   -.236E+00 0.475E+00 0.159E+01   0.400E-01 -.738E-01 0.144E+00
   -.448E+02 0.526E+03 0.229E+04   0.459E+02 -.532E+03 -.229E+04   -.886E+00 0.260E+01 0.120E+01   0.130E+00 0.212E+00 -.960E-01
   -.761E+02 0.137E+03 0.101E+04   0.772E+02 -.139E+03 -.102E+04   -.104E+01 0.141E+01 0.174E+01   -.856E-02 0.520E-01 -.115E+00
   -.146E+03 0.168E+03 -.226E+04   0.147E+03 -.169E+03 0.227E+04   -.387E+00 0.110E+00 -.326E+01   -.226E-01 0.233E-01 0.885E-01
   -.289E+03 -.479E+03 -.181E+04   0.295E+03 0.486E+03 0.181E+04   -.388E+01 -.441E+01 0.936E+00   0.565E-01 0.102E-01 0.125E+00
   -.915E+02 -.137E+03 -.751E+03   0.930E+02 0.139E+03 0.751E+03   -.103E+01 -.199E+01 0.914E-02   -.113E+00 -.458E-01 -.108E+00
   0.606E+02 -.364E+03 0.163E+04   -.621E+02 0.366E+03 -.163E+04   0.154E+01 -.697E+00 0.143E+01   0.331E-02 0.134E+00 0.137E-01
   -.675E+02 -.201E+03 0.464E+03   0.687E+02 0.203E+03 -.463E+03   -.119E+01 -.259E+01 0.474E+00   0.332E-01 0.154E+00 -.196E+00
   0.303E+03 0.449E+01 0.174E+04   -.304E+03 -.396E+01 -.175E+04   -.139E+00 -.993E-01 0.901E+00   0.185E-01 0.528E-02 -.719E-01
   0.181E+03 0.947E+01 0.497E+03   -.183E+03 -.886E+01 -.497E+03   0.249E+01 -.770E+00 0.926E+00   0.690E-01 0.230E-01 -.179E+00
   0.127E+03 -.145E+02 -.673E+03   -.130E+03 0.149E+02 0.673E+03   0.310E+01 -.419E+00 -.969E+00   0.735E-01 0.193E-01 -.106E+00
   -.167E+03 0.595E+02 -.202E+04   0.168E+03 -.614E+02 0.203E+04   -.505E-01 0.104E+01 -.138E+01   0.135E-01 -.118E-01 0.479E-01
 -----------------------------------------------------------------------------------------------
   -.785E+01 0.664E+01 -.142E+01   0.824E-12 -.448E-12 0.523E-11   0.747E+01 -.529E+01 0.134E+02   0.175E+00 -.131E+01 -.122E+02
 
 
 POSITION                                       TOTAL-FORCE (eV/Angst)
 -----------------------------------------------------------------------------------
      5.35228      4.81788      6.64784         0.190417     -0.189765     -0.114379
      5.93595      3.87238      9.58390        -0.054762     -0.089524     -0.729758
      6.37284      2.65996     11.67148         0.569999     -0.998654      1.634277
      1.43780      2.04069      2.00663         0.138857     -0.237339     -1.193238
      2.24633      0.73197      3.71178         0.413206     -0.400126      1.953431
      3.50504      3.35185      0.94022        -1.058269     -0.482461     -1.185917
      4.76861      3.35453      2.93606         0.192675     -0.822924      3.340054
      5.35228      2.40903      5.87212         0.022426      0.032155      0.096134
      5.93595      1.46353      8.80817        -0.748093     -0.360798     -1.953288
      1.87746      3.73836      5.87212         0.108141      0.080405      0.029555
      2.46113      2.79286      8.80817        -0.237998      0.086792     -2.007646
      2.88624      1.58169     10.95788         0.354262      0.578375      1.200454
      6.92203      4.68386      2.93606         0.448513     -0.887462      0.933157
      2.59679      0.07139      1.16330        -0.628380      0.561850     -1.814869
     10.98051      4.81788      6.64784         0.145796     -0.190995     -0.118944
     11.56418      3.87238      9.58390        -0.680151      0.325869     -2.504109
     11.09333      4.67678     11.76958         0.624561      0.348147      0.097056
      7.87456      0.73197      3.71178        -0.151606      0.677799      1.615775
      9.86109      4.25541      0.76307        -0.367816     -0.078949     -1.448991
     10.39684      3.35453      2.93606         0.351023     -0.551526      1.829826
     10.98051      2.40903      5.87212        -0.177899      0.012051      0.065067
     11.56418      1.46353      8.80817        -1.390200      0.294120     -0.931930
      7.50570      3.73836      5.87212        -0.191271      0.114691      0.120243
      8.08937      2.79286      8.80817         0.178772      0.857326     -1.472787
      8.75239      1.85492     10.98199        -0.606330      0.956354      0.428418
     12.55026      4.68386      2.93606         0.274681     -0.426620      1.721018
     10.53391      0.50819      0.86648         0.711077      0.566538     -1.136669
      7.87456      9.84929      6.64784         0.154947     -0.338790     -0.164313
      8.45823      8.90379      9.58390        -0.206717     -0.392129     -0.000386
      9.20989      7.99062     11.98985         0.688215      0.173609      1.739338
      4.76861      5.76338      3.71178        -0.231973      0.585589      1.861055
      7.29089      8.38594      2.93606        -0.593393     -0.734168      1.655073
      7.87456      7.44044      5.87212        -0.049058     -0.063771      0.021162
      8.45823      6.49494      8.80817        -0.035183     -0.157130     -0.122935
      4.39975      8.76977      5.87212        -0.079796     -0.071494      0.086149
      4.98341      7.82427      8.80817         0.656450     -0.231872     -2.409578
      5.75646      6.32859     10.78828         0.300700      0.803854      0.566802
      9.44431      9.71527      2.93606         0.726189      0.195643      1.586610
      5.10329      5.30648      1.29947        -0.285168      1.422136     -1.466517
     13.50279      9.84929      6.64784         0.083827     -0.264596     -0.065032
     14.08646      8.90379      9.58390        -0.458102      0.192469     -1.606647
     10.39684      5.76338      3.71178        -0.231047      0.227725      1.956473
      8.88915      5.57165     11.37369        -0.520861     -0.974692      0.123592
      8.07321      0.27826      1.29224        -1.067361      1.049447     -1.650414
     12.91912      8.38594      2.93606         0.583232     -0.847282      1.115144
     13.50279      7.44044      5.87212        -0.017446      0.198969      0.051425
     14.08646      6.49494      8.80817        -1.206486     -0.377106     -2.084136
     10.02798      8.76977      5.87212         0.062765     -0.091009      0.061448
     10.61165      7.82427      8.80817         0.073912     -0.774476     -1.541754
     11.34436      7.08742     11.23476         1.083840      0.501307      0.108409
     15.07254      9.71527      2.93606         0.476920     -0.629440      3.788928
     11.88180      5.56721      0.77215         0.159733      0.330383     -1.425694
      1.66190      1.67871      7.01153        -0.130197      0.365165     -1.029710
      2.15027      0.64337      9.29722        -0.488947     -0.573171     -0.069448
      5.61771      3.38267      1.06089         2.530675     -1.364929     -2.696059
      6.70646      2.62422      4.07548         0.099687      0.069816     -0.316548
      5.40849      4.47611     11.60553        -1.710650      0.621143      2.555322
      1.98025      3.43456     10.73220         1.215683      2.040692      2.905509
      7.29013      4.74605      7.99931         0.642882     -0.027629     -0.365856
      3.60051      1.60565      2.12720         0.811210      0.562783      0.365642
      4.18418      0.66015      5.06325        -0.024722      0.075967      0.059834
      3.34475      4.90270      2.34524        -1.434869      1.097673     -0.330571
      3.96438      3.99884      5.06325        -0.082993     -0.169554      0.148018
      4.54805      3.05334      7.99931        -0.125406     -0.068994     -1.416783
      4.85144      2.04982     10.47790         0.136447     -1.111977      1.598290
      7.29013      1.67871      7.01153        -0.162850      0.162934     -0.794300
      7.82577      0.77742      9.44535        -0.033066     -0.706390      1.077248
     11.75102      3.56972      1.13942        -0.227192      0.406732     -2.769762
     12.33469      2.62422      4.07548        -0.071038      0.143640      1.006307
     10.22986      6.28617     12.79926         0.547694     -0.391142      4.026209
      7.87380      3.80055     10.93537         1.142942     -0.637263     -0.212543
     12.91836      4.74605      7.99931        -0.248393      0.193618     -0.325173
      9.33221      1.59452      2.27608        -0.197896      1.832787     -0.446143
      9.81241      0.66015      5.06325         0.088956      0.087197      0.155889
      8.96196      4.86345      2.45623        -1.477694      0.699729     -1.355844
      9.59261      3.99884      5.06325         0.050985     -0.129710      0.414812
     10.17628      3.05334      7.99931         0.072861      0.141322     -0.235096
     10.60909      2.77770     11.08070         0.641409     -1.950057      1.773726
      4.18418      6.71012      7.01153        -0.321797      0.443891     -1.303486
      4.69422      5.61074      9.20230        -0.192115     -0.342216      0.021106
      8.72671      8.46926      1.45621         1.452610     -2.360802     -3.054399
      9.22874      7.65563      4.07548        -0.028777     -0.013082      0.732021
      8.14910      9.71957     11.61171        -1.565109      0.713401      2.175504
      4.53230      8.01374     10.74470         0.183594      1.347076      3.319698
      9.81241      9.77746      7.99931         0.086742      0.030881     -1.026294
      6.24183      6.59945      2.43763         0.316754      1.572649     -1.359957
      6.70646      5.69156      5.06325         0.090391     -0.170036      0.646737
      5.85356      9.99605      2.23215        -0.769830     -0.593881     -0.229430
      6.48666      9.03025      5.06325         0.010813     -0.051962      0.090331
      7.07033      8.08475      7.99931         0.138777     -0.229788     -0.747401
      7.65400      7.13925     10.93537        -1.821327     -0.345434     -1.180466
      9.81241      6.71012      7.01153         0.012171     -0.242763      0.018504
     10.39608      5.76462      9.94759         0.502581     -0.808445     -2.637945
     14.39927      8.78978      1.23229         0.332574     -2.781973     -2.888969
     14.85697      7.65563      4.07548         0.049271     -0.006823      0.061838
     14.23412      9.98533     11.35872         0.653351     -0.776371      2.414902
     10.45155      8.86428     10.57552         1.463930      2.287796      0.726366
     15.44064      9.77746      7.99931         0.351753      0.510825     -0.012178
     11.83454      6.64771      2.46442        -0.010392      1.577542     -1.443406
     12.33469      5.69156      5.06325         0.039743     -0.046853      0.553248
     11.49384      9.86302      2.45969        -1.536303      0.437505     -1.307972
     12.11489      9.03025      5.06325         0.057632     -0.135791      0.694279
     12.69856      8.08475      7.99931        -0.077317      0.005041     -1.268013
     13.26781      7.22292     10.54968         0.514995     -0.899275      2.646264
 -----------------------------------------------------------------------------------
    total drift:                               -0.208194      0.042157     -0.174515


--------------------------------------------------------------------------------------------------------



  FREE ENERGIE OF THE ION-ELECTRON SYSTEM (eV)
  ---------------------------------------------------
  free  energy   TOTEN  =      -504.80346945 eV

  energy  without entropy=     -503.46488673  energy(sigma->0) =     -504.13417809
 


--------------------------------------------------------------------------------------------------------


    POTLOK:  cpu time    0.3919: real time    0.3924


--------------------------------------------------------------------------------------------------------


     LOOP+:  cpu time  670.3510: real time  670.5271
    4ORBIT:  cpu time    0.0000: real time    0.0000

 total amount of memory used by VASP MPI-rank0    90324. kBytes
=======================================================================

   base      :      30000. kBytes
   nonlr-proj:       3427. kBytes
   fftplans  :      11276. kBytes
   grid      :      19113. kBytes
   one-center:        139. kBytes
   wavefun   :      26369. kBytes
 
  
  
 General timing and accounting informations for this job:
 ========================================================
  
                  Total CPU time used (sec):      675.106
                            User time (sec):      674.547
                          System time (sec):        0.560
                         Elapsed time (sec):      675.525
  
                   Maximum memory used (kb):      251720.
                   Average memory used (kb):           0.
  
                          Minor page faults:       161164
                          Major page faults:            0
                 Voluntary context switches:          274
