<?xml version="1.0" encoding="ISO-8859-1"?>
<modeling>
 <generator>
  <i name="program" type="string">vasp </i>
  <i name="version" type="string">5.4.4.18Apr17-6-g9f103f2a35  </i>
  <i name="subversion" type="string">(build Aug 13 2019 17:33:20) gamma-only         parallel </i>
  <i name="platform" type="string">LinuxIFC </i>
  <i name="date" type="string">2020 05 11 </i>
  <i name="time" type="string">08:17:17 </i>
 </generator>
 <incar>
  <i type="string" name="SYSTEM">"Millerite NiS"</i>
  <i type="string" name="PREC">normal</i>
  <i type="int" name="NSIM">     4</i>
  <i type="int" name="NELM">   100</i>
  <i name="ENCUT">    450.00000000</i>
  <i type="string" name="LREAL">A</i>
  <i type="int" name="ISMEAR">     0</i>
  <i type="int" name="NWRITE">     2</i>
  <i type="logical" name="LWAVE"> F  </i>
  <i type="logical" name="LCHARG"> F  </i>
  <v type="int" name="KPOINT_BSE">    -1     0     0     0</v>
  <i type="int" name="NELM">   100</i>
 </incar>
 <structure name="primitive_cell" >
  <crystal>
   <varray name="basis" >
    <v>      11.25646304       0.00000000       0.00000000 </v>
    <v>       5.04456212      10.06282034       0.00000000 </v>
    <v>       0.00000000       0.00000000      22.51995597 </v>
   </varray>
   <i name="volume">   2550.87516496 </i>
   <varray name="rec_basis" >
    <v>       0.08883785      -0.04453504       0.00000000 </v>
    <v>       0.00000000       0.09937572       0.00000000 </v>
    <v>       0.00000000       0.00000000       0.04440506 </v>
   </varray>
  </crystal>
  <varray name="positions" >
   <v>       0.26092069       0.47878037       0.29519774 </v>
   <v>       0.07287763      -0.33317655       0.31134757 </v>
   <v>       0.17409868       0.39738739       0.22483408 </v>
   <v>       0.34231367      -0.43439760       0.22483408 </v>
   <v>       0.26805854       0.30342752       0.35520991 </v>
   <v>       0.43627354       0.47164252       0.35520991 </v>
   <v>       0.36819893       0.23939914       0.26075166 </v>
   <v>      -0.49969806       0.37150214       0.26075166 </v>
   <v>       0.35488056       0.38482050       0.42557357 </v>
   <v>       0.16696083      -0.42725975       0.16482191 </v>
   <v>       0.16683750      -0.42713642       0.44172340 </v>
   <v>       0.47891775       0.26078331       0.18097174 </v>
   <v>      -0.42712237       0.16682345       0.31134757 </v>
   <v>       0.00030194       0.37150214       0.26075166 </v>
   <v>       0.09426180      -0.22245773       0.39112749 </v>
   <v>      -0.03784121      -0.35456073       0.39112749 </v>
   <v>       0.36819893      -0.26060086       0.26075166 </v>
   <v>      -0.06372646       0.47164252       0.35520991 </v>
   <v>       0.26805854      -0.19657248       0.35520991 </v>
   <v>       0.40634206       0.46546200       0.13037583 </v>
   <v>       0.27423906       0.33335901       0.13037583 </v>
   <v>       0.46215879       0.14543927       0.39112749 </v>
   <v>      -0.40573820       0.27754227       0.39112749 </v>
   <v>       0.09426180       0.27754227       0.39112749 </v>
   <v>       0.46215879      -0.35456073       0.39112749 </v>
   <v>       0.00030194      -0.12849786       0.26075166 </v>
   <v>      -0.13180107      -0.26060086       0.26075166 </v>
   <v>      -0.02108225      -0.23921669       0.18097174 </v>
   <v>       0.08180703       0.47990415       0.11297782 </v>
   <v>       0.25959353      -0.34334875       0.11195856 </v>
   <v>       0.34231367       0.06560240       0.22483408 </v>
   <v>      -0.32590132       0.39738739       0.22483408 </v>
   <v>      -0.15768633      -0.43439760       0.22483408 </v>
   <v>       0.17409868      -0.10261261       0.22483408 </v>
   <v>      -0.48239955       0.38065771       0.46864061 </v>
   <v>       0.07287763       0.16682345       0.31134757 </v>
   <v>      -0.42712237      -0.33317655       0.31134757 </v>
   <v>       0.34383409      -0.27792839       0.46623799 </v>
   <v>       0.36201841       0.20946766       0.48558574 </v>
   <v>       0.17732364      -0.28805272       0.49535252 </v>
   <v>       0.03029097      -0.44132857       0.49628005 </v>
   <v>      -0.06372646      -0.02835748       0.35520991 </v>
   <v>      -0.23194146      -0.19657248       0.35520991 </v>
   <v>      -0.23194146       0.30342752       0.35520991 </v>
   <v>       0.43627354      -0.02835748       0.35520991 </v>
   <v>       0.03023342       0.37768265       0.48558574 </v>
   <v>       0.36432208       0.37568095       0.05985472 </v>
   <v>      -0.02108225       0.26078331       0.18097174 </v>
   <v>       0.47891775      -0.23921669       0.18097174 </v>
   <v>      -0.45094872       0.19276775       0.48646121 </v>
   <v>       0.27423906      -0.16664099       0.13037583 </v>
   <v>      -0.09365794       0.46546200       0.13037583 </v>
   <v>      -0.47706830       0.21094581       0.09071202 </v>
   <v>       0.25733441       0.15831689       0.10740773 </v>
   <v>      -0.42385287       0.49936088       0.10532503 </v>
   <v>      -0.33303918       0.07274025       0.16482191 </v>
   <v>      -0.14511944      -0.11517949       0.42557357 </v>
   <v>       0.26092069      -0.02121963       0.29519774 </v>
   <v>      -0.23907931       0.47878037       0.29519774 </v>
   <v>      -0.33760381      -0.44626724       0.41783506 </v>
   <v>       0.01695542      -0.11706287       0.47214042 </v>
   <v>      -0.13183983      -0.27104823       0.47704252 </v>
   <v>       0.18754473       0.19542612      -0.49854760 </v>
   <v>       0.16696082       0.07274025       0.16482191 </v>
   <v>      -0.14511944       0.38482050       0.42557357 </v>
   <v>       0.35488056      -0.11517949       0.42557357 </v>
   <v>      -0.23907931      -0.02121963       0.29519774 </v>
   <v>      -0.33303917      -0.42725975       0.16482191 </v>
   <v>      -0.35420893       0.02530149       0.43594722 </v>
   <v>       0.16683750       0.07286358       0.44172340 </v>
   <v>      -0.49969806      -0.12849786       0.26075166 </v>
   <v>      -0.13180107       0.23939914       0.26075166 </v>
   <v>       0.48097103       0.00011017       0.46843922 </v>
   <v>      -0.15768633       0.06560240       0.22483408 </v>
   <v>      -0.32590132      -0.10261261       0.22483408 </v>
   <v>      -0.09365794      -0.03453800       0.13037583 </v>
   <v>      -0.22576094      -0.16664099       0.13037583 </v>
   <v>      -0.22576094       0.33335901       0.13037583 </v>
   <v>       0.40634206      -0.03453800       0.13037583 </v>
   <v>      -0.03784121       0.14543927       0.39112749 </v>
   <v>      -0.40573820      -0.22245773       0.39112749 </v>
   <v>      -0.26207406       0.16884228       0.10411853 </v>
   <v>      -0.25477487      -0.35685243       0.46951097 </v>
   <v>       0.08143996      -0.01750468       0.10772323 </v>
   <v>      -0.46740472      -0.29349371       0.09136672 </v>
   <v>      -0.10530053      -0.15541086       0.06452083 </v>
   <v>      -0.41986119      -0.00865274       0.09445824 </v>
   <v>      -0.25900558      -0.33594205       0.10601017 </v>
   <v>      -0.45623477      -0.20037106       0.47913483 </v>
   <v>      -0.14835863       0.21693585       0.46959162 </v>
   <v>      -0.05534266       0.28102628      -0.47123506 </v>
   <v>      -0.14280247       0.38275111       0.06303690 </v>
   <v>       0.02837454       0.05474374       0.49412193 </v>
   <v>       0.37513415      -0.13600178       0.05675340 </v>
   <v>       0.20487931       0.03459449       0.05906107 </v>
   <v>      -0.27006012       0.01805823       0.05473288 </v>
  </varray>
 </structure>
 <varray name="primitive_index" >
  <v type="int" >        1 </v>
  <v type="int" >       73 </v>
  <v type="int" >       58 </v>
  <v type="int" >       80 </v>
  <v type="int" >       59 </v>
  <v type="int" >       54 </v>
  <v type="int" >        7 </v>
  <v type="int" >       22 </v>
  <v type="int" >        2 </v>
  <v type="int" >       27 </v>
  <v type="int" >       74 </v>
  <v type="int" >       52 </v>
  <v type="int" >       61 </v>
  <v type="int" >        9 </v>
  <v type="int" >       34 </v>
  <v type="int" >       44 </v>
  <v type="int" >       31 </v>
  <v type="int" >       66 </v>
  <v type="int" >       83 </v>
  <v type="int" >       12 </v>
  <v type="int" >        6 </v>
  <v type="int" >        8 </v>
  <v type="int" >       23 </v>
  <v type="int" >       10 </v>
  <v type="int" >       32 </v>
  <v type="int" >       33 </v>
  <v type="int" >       43 </v>
  <v type="int" >       88 </v>
  <v type="int" >       57 </v>
  <v type="int" >       79 </v>
  <v type="int" >       56 </v>
  <v type="int" >       70 </v>
  <v type="int" >       92 </v>
  <v type="int" >       82 </v>
  <v type="int" >       65 </v>
  <v type="int" >       49 </v>
  <v type="int" >       85 </v>
  <v type="int" >       84 </v>
  <v type="int" >       60 </v>
  <v type="int" >       35 </v>
  <v type="int" >       28 </v>
  <v type="int" >       90 </v>
  <v type="int" >       95 </v>
  <v type="int" >       71 </v>
  <v type="int" >       78 </v>
  <v type="int" >       53 </v>
  <v type="int" >       51 </v>
  <v type="int" >       64 </v>
  <v type="int" >       76 </v>
  <v type="int" >        3 </v>
  <v type="int" >       30 </v>
  <v type="int" >       24 </v>
  <v type="int" >       16 </v>
  <v type="int" >       55 </v>
  <v type="int" >       69 </v>
  <v type="int" >       17 </v>
  <v type="int" >       38 </v>
  <v type="int" >       25 </v>
  <v type="int" >       13 </v>
  <v type="int" >       86 </v>
  <v type="int" >       77 </v>
  <v type="int" >       96 </v>
  <v type="int" >       11 </v>
  <v type="int" >        4 </v>
  <v type="int" >       14 </v>
  <v type="int" >       26 </v>
  <v type="int" >       37 </v>
  <v type="int" >       40 </v>
  <v type="int" >       62 </v>
  <v type="int" >       50 </v>
  <v type="int" >       45 </v>
  <v type="int" >       20 </v>
  <v type="int" >       18 </v>
  <v type="int" >       68 </v>
  <v type="int" >       94 </v>
  <v type="int" >       48 </v>
  <v type="int" >       42 </v>
  <v type="int" >       19 </v>
  <v type="int" >       36 </v>
  <v type="int" >       21 </v>
  <v type="int" >       46 </v>
  <v type="int" >       67 </v>
  <v type="int" >       47 </v>
  <v type="int" >       81 </v>
  <v type="int" >       39 </v>
  <v type="int" >       87 </v>
  <v type="int" >       93 </v>
  <v type="int" >       91 </v>
  <v type="int" >       89 </v>
  <v type="int" >       72 </v>
  <v type="int" >       15 </v>
  <v type="int" >       63 </v>
  <v type="int" >        5 </v>
  <v type="int" >       75 </v>
  <v type="int" >       29 </v>
  <v type="int" >       41 </v>
 </varray>
 <kpoints>
  <generation param="Gamma">
   <v type="int" name="divisions">       1        1        1 </v>
   <v name="usershift">      0.00000000       0.00000000       0.00000000 </v>
   <v name="genvec1">      1.00000000       0.00000000       0.00000000 </v>
   <v name="genvec2">      0.00000000       1.00000000       0.00000000 </v>
   <v name="genvec3">      0.00000000       0.00000000       1.00000000 </v>
   <v name="shift">      0.00000000       0.00000000       0.00000000 </v>
  </generation>
  <varray name="kpointlist" >
   <v>       0.00000000       0.00000000       0.00000000 </v>
  </varray>
  <varray name="weights" >
   <v>       1.00000000 </v>
  </varray>
 </kpoints>
 <parameters>
  <separator name="general" >
   <i type="string" name="SYSTEM">"Millerite NiS"</i>
   <i type="logical" name="LCOMPAT"> F  </i>
  </separator>
  <separator name="electronic" >
   <i type="string" name="PREC">normal</i>
   <i name="ENMAX">    450.00000000</i>
   <i name="ENAUG">    703.44300000</i>
   <i name="EDIFF">      0.00010000</i>
   <i type="int" name="IALGO">    38</i>
   <i type="int" name="IWAVPR">    10</i>
   <i type="int" name="NBANDS">   634</i>
   <i name="NELECT">   1056.00000000</i>
   <i type="int" name="TURBO">     0</i>
   <i type="int" name="IRESTART">     0</i>
   <i type="int" name="NREBOOT">     0</i>
   <i type="int" name="NMIN">     0</i>
   <i name="EREF">      0.00000000</i>
   <separator name="electronic smearing" >
    <i type="int" name="ISMEAR">     0</i>
    <i name="SIGMA">      0.20000000</i>
    <i name="KSPACING">      0.50000000</i>
    <i type="logical" name="KGAMMA"> T  </i>
   </separator>
   <separator name="electronic projectors" >
    <i type="logical" name="LREAL"> T  </i>
    <v name="ROPT">     -0.00050000     -0.00050000</v>
    <i type="int" name="LMAXPAW">  -100</i>
    <i type="int" name="LMAXMIX">     2</i>
    <i type="logical" name="NLSPLINE"> F  </i>
   </separator>
   <separator name="electronic startup" >
    <i type="int" name="ISTART">     0</i>
    <i type="int" name="ICHARG">     2</i>
    <i type="int" name="INIWAV">     1</i>
   </separator>
   <separator name="electronic spin" >
    <i type="int" name="ISPIN">     1</i>
    <i type="logical" name="LNONCOLLINEAR"> F  </i>
    <v name="MAGMOM">      1.00000000      1.00000000      1.00000000      1.00000000      1.00000000      1.00000000      1.00000000      1.00000000      1.00000000      1.00000000      1.00000000      1.00000000      1.00000000      1.00000000      1.00000000      1.00000000      1.00000000      1.00000000      1.00000000      1.00000000
      1.00000000      1.00000000      1.00000000      1.00000000      1.00000000      1.00000000      1.00000000      1.00000000      1.00000000      1.00000000      1.00000000      1.00000000      1.00000000      1.00000000      1.00000000      1.00000000      1.00000000      1.00000000      1.00000000      1.00000000
      1.00000000      1.00000000      1.00000000      1.00000000      1.00000000      1.00000000      1.00000000      1.00000000      1.00000000      1.00000000      1.00000000      1.00000000      1.00000000      1.00000000      1.00000000      1.00000000      1.00000000      1.00000000      1.00000000      1.00000000
      1.00000000      1.00000000      1.00000000      1.00000000      1.00000000      1.00000000      1.00000000      1.00000000      1.00000000      1.00000000      1.00000000      1.00000000      1.00000000      1.00000000      1.00000000      1.00000000      1.00000000      1.00000000      1.00000000      1.00000000
      1.00000000      1.00000000      1.00000000      1.00000000      1.00000000      1.00000000      1.00000000      1.00000000      1.00000000      1.00000000      1.00000000      1.00000000      1.00000000      1.00000000      1.00000000      1.00000000</v>
    <i name="NUPDOWN">     -1.00000000</i>
    <i type="logical" name="LSORBIT"> F  </i>
    <v name="SAXIS">      0.00000000      0.00000000      1.00000000</v>
    <i type="logical" name="LSPIRAL"> F  </i>
    <v name="QSPIRAL">      0.00000000      0.00000000      0.00000000</v>
    <i type="logical" name="LZEROZ"> F  </i>
   </separator>
   <separator name="electronic exchange-correlation" >
    <i type="logical" name="LASPH"> F  </i>
    <i type="logical" name="LMETAGGA"> F  </i>
   </separator>
   <separator name="electronic convergence" >
    <i type="int" name="NELM">   100</i>
    <i type="int" name="NELMDL">    -5</i>
    <i type="int" name="NELMIN">     2</i>
    <i name="ENINI">    450.00000000</i>
    <separator name="electronic convergence detail" >
     <i type="logical" name="LDIAG"> T  </i>
     <i type="logical" name="LSUBROT"> F  </i>
     <i name="WEIMIN">      0.00000000</i>
     <i name="EBREAK">      0.00000004</i>
     <i name="DEPER">      0.30000000</i>
     <i type="int" name="NRMM">     4</i>
     <i name="TIME">      0.40000000</i>
    </separator>
   </separator>
   <separator name="electronic mixer" >
    <i name="AMIX">      0.40000000</i>
    <i name="BMIX">      1.00000000</i>
    <i name="AMIN">      0.10000000</i>
    <i name="AMIX_MAG">      1.60000000</i>
    <i name="BMIX_MAG">      1.00000000</i>
    <separator name="electronic mixer details" >
     <i type="int" name="IMIX">     4</i>
     <i type="logical" name="MIXFIRST"> F  </i>
     <i type="int" name="MAXMIX">   -45</i>
     <i name="WC">    100.00000000</i>
     <i type="int" name="INIMIX">     1</i>
     <i type="int" name="MIXPRE">     1</i>
     <i type="int" name="MREMOVE">     5</i>
    </separator>
   </separator>
   <separator name="electronic dipolcorrection" >
    <i type="logical" name="LDIPOL"> F  </i>
    <i type="logical" name="LMONO"> F  </i>
    <i type="int" name="IDIPOL">     0</i>
    <i name="EPSILON">      1.00000000</i>
    <v name="DIPOL">   -100.00000000   -100.00000000   -100.00000000</v>
    <i name="EFIELD">      0.00000000</i>
   </separator>
  </separator>
  <separator name="grids" >
   <i type="int" name="NGX">    60</i>
   <i type="int" name="NGY">    60</i>
   <i type="int" name="NGZ">   120</i>
   <i type="int" name="NGXF">   120</i>
   <i type="int" name="NGYF">   120</i>
   <i type="int" name="NGZF">   240</i>
   <i type="logical" name="ADDGRID"> F  </i>
  </separator>
  <separator name="ionic" >
   <i type="int" name="NSW">     0</i>
   <i type="int" name="IBRION">    -1</i>
   <i type="int" name="MDALGO">     0</i>
   <i type="int" name="ISIF">     2</i>
   <i name="PSTRESS">      0.00000000</i>
   <i name="EDIFFG">      0.00100000</i>
   <i type="int" name="NFREE">     0</i>
   <i name="POTIM">      0.50000000</i>
   <i name="SMASS">     -3.00000000</i>
   <i name="SCALEE">      1.00000000</i>
  </separator>
  <separator name="ionic md" >
   <i name="TEBEG">      0.00010000</i>
   <i name="TEEND">      0.00010000</i>
   <i type="int" name="NBLOCK">     1</i>
   <i type="int" name="KBLOCK">     1</i>
   <i type="int" name="NPACO">   256</i>
   <i name="APACO">     16.00000000</i>
  </separator>
  <separator name="symmetry" >
   <i type="int" name="ISYM">     2</i>
   <i name="SYMPREC">      0.00001000</i>
  </separator>
  <separator name="dos" >
   <i type="int" name="LORBIT">     0</i>
   <v name="RWIGS">     -1.00000000     -1.00000000</v>
   <i type="int" name="NEDOS">   301</i>
   <i name="EMIN">     10.00000000</i>
   <i name="EMAX">    -10.00000000</i>
   <i name="EFERMI">      0.00000000</i>
  </separator>
  <separator name="writing" >
   <i type="int" name="NWRITE">     2</i>
   <i type="logical" name="LWAVE"> F  </i>
   <i type="logical" name="LDOWNSAMPLE"> F  </i>
   <i type="logical" name="LCHARG"> F  </i>
   <i type="logical" name="LPARD"> F  </i>
   <i type="logical" name="LVTOT"> F  </i>
   <i type="logical" name="LVHAR"> F  </i>
   <i type="logical" name="LELF"> F  </i>
   <i type="logical" name="LOPTICS"> F  </i>
   <v name="STM">      0.00000000      0.00000000      0.00000000      0.00000000      0.00000000      0.00000000      0.00000000</v>
  </separator>
  <separator name="performance" >
   <i type="int" name="NPAR">     2</i>
   <i type="int" name="NSIM">     4</i>
   <i type="int" name="NBLK">    -1</i>
   <i type="logical" name="LPLANE"> T  </i>
   <i type="logical" name="LSCALAPACK"> T  </i>
   <i type="logical" name="LSCAAWARE"> F  </i>
   <i type="logical" name="LSCALU"> F  </i>
   <i type="logical" name="LASYNC"> F  </i>
   <i type="logical" name="LORBITALREAL"> F  </i>
  </separator>
  <separator name="miscellaneous" >
   <i type="int" name="IDIOT">     3</i>
   <i type="int" name="ISPECIAL">     0</i>
   <i type="logical" name="LMUSIC"> F  </i>
   <v name="POMASS">     58.69000000     32.06600000</v>
   <v name="DARWINR">      0.00000000      0.00000000</v>
   <v name="DARWINV">      1.00000000      1.00000000</v>
   <i type="logical" name="LCORR"> T  </i>
  </separator>
  <i type="logical" name="GGA_COMPAT"> T  </i>
  <i type="logical" name="LBERRY"> F  </i>
  <i type="int" name="ICORELEVEL">     0</i>
  <i type="logical" name="LDAU"> F  </i>
  <i type="int" name="I_CONSTRAINED_M">     0</i>
  <separator name="electronic exchange-correlation" >
   <i type="string" name="GGA">--</i>
   <i type="int" name="VOSKOWN">     0</i>
   <i type="logical" name="LHFCALC"> F  </i>
   <i type="string" name="PRECFOCK"></i>
   <i type="logical" name="LSYMGRAD"> F  </i>
   <i type="logical" name="LHFONE"> F  </i>
   <i type="logical" name="LRHFCALC"> F  </i>
   <i type="logical" name="LTHOMAS"> F  </i>
   <i type="logical" name="LMODELHF"> F  </i>
   <i name="ENCUT4O">     -1.00000000</i>
   <i type="int" name="EXXOEP">     0</i>
   <i type="int" name="FOURORBIT">     0</i>
   <i name="AEXX">      0.00000000</i>
   <i name="HFALPHA">      0.00000000</i>
   <i name="MCALPHA">      0.00000000</i>
   <i name="ALDAX">      1.00000000</i>
   <i name="AGGAX">      1.00000000</i>
   <i name="ALDAC">      1.00000000</i>
   <i name="AGGAC">      1.00000000</i>
   <i type="int" name="NKREDX">     1</i>
   <i type="int" name="NKREDY">     1</i>
   <i type="int" name="NKREDZ">     1</i>
   <i type="logical" name="SHIFTRED"> F  </i>
   <i type="logical" name="ODDONLY"> F  </i>
   <i type="logical" name="EVENONLY"> F  </i>
   <i type="int" name="LMAXFOCK">     0</i>
   <i type="int" name="NMAXFOCKAE">     0</i>
   <i type="logical" name="LFOCKAEDFT"> F  </i>
   <i name="HFSCREEN">      0.00000000</i>
   <i name="HFSCREENC">      0.00000000</i>
   <i type="int" name="NBANDSGWLOW">     0</i>
  </separator>
  <separator name="vdW DFT" >
   <i type="logical" name="LUSE_VDW"> F  </i>
   <i name="Zab_VDW">     -0.84910000</i>
   <i name="PARAM1">      0.12340000</i>
   <i name="PARAM2">      1.00000000</i>
   <i name="PARAM3">      0.00000000</i>
  </separator>
  <separator name="model GW" >
   <i type="int" name="MODEL_GW">     0</i>
   <i name="MODEL_EPS0">     15.94296978</i>
   <i name="MODEL_ALPHA">      1.00000000</i>
  </separator>
  <separator name="linear response parameters" >
   <i type="logical" name="LEPSILON"> F  </i>
   <i type="logical" name="LRPA"> F  </i>
   <i type="logical" name="LNABLA"> F  </i>
   <i type="logical" name="LVEL"> F  </i>
   <i type="int" name="KINTER">     0</i>
   <i name="CSHIFT">      0.10000000</i>
   <i name="OMEGAMAX">     -1.00000000</i>
   <i name="DEG_THRESHOLD">      0.00200000</i>
   <i name="RTIME">     -0.10000000</i>
   <i name="WPLASMAI">      0.00000000</i>
   <v name="DFIELD">      0.00000000      0.00000000      0.00000000</v>
   <v name="WPLASMA">      0.00000000      0.00000000      0.00000000      0.00000000      0.00000000      0.00000000      0.00000000      0.00000000      0.00000000</v>
  </separator>
  <separator name="orbital magnetization" >
   <i type="logical" name="NUCIND"> F  </i>
   <v name="MAGPOS">      0.00000000      0.00000000      0.00000000</v>
   <i type="logical" name="LNICSALL"> T  </i>
   <i type="logical" name="ORBITALMAG"> F  </i>
   <i type="logical" name="LMAGBLOCH"> F  </i>
   <i type="logical" name="LCHIMAG"> F  </i>
   <i type="logical" name="LGAUGE"> T  </i>
   <i type="int" name="MAGATOM">     0</i>
   <v name="MAGDIPOL">      0.00000000      0.00000000      0.00000000</v>
   <v name="AVECCONST">      0.00000000      0.00000000      0.00000000</v>
  </separator>
  <separator name="response functions" >
   <i type="logical" name="LADDER"> F  </i>
   <i type="logical" name="LRPAFORCE"> F  </i>
   <i type="logical" name="LFXC"> F  </i>
   <i type="logical" name="LHARTREE"> T  </i>
   <i type="int" name="IBSE">     0</i>
   <v type="int" name="KPOINT">    -1     0     0     0</v>
   <i type="logical" name="LTCTE"> F  </i>
   <i type="logical" name="LTETE"> F  </i>
   <i type="logical" name="LTRIPLET"> F  </i>
   <i type="logical" name="LFXCEPS"> F  </i>
   <i type="logical" name="LFXHEG"> F  </i>
   <i type="int" name="NATURALO">     2</i>
   <i type="logical" name="L2ORDER"> F  </i>
   <i type="logical" name="LMP2LT"> F  </i>
   <i type="logical" name="LUSEW"> F  </i>
   <i name="ENCUTGW">     -2.00000000</i>
   <i name="ENCUTGWSOFT">     -2.00000000</i>
   <i name="ENCUTLF">     -1.00000000</i>
   <i type="int" name="LMAXMP2">    -1</i>
   <i name="SCISSOR">      0.00000000</i>
   <i type="int" name="NOMEGA">     0</i>
   <i type="int" name="NOMEGAR">     0</i>
   <i type="int" name="NBANDSGW">    -1</i>
   <i type="int" name="NBANDSO">    -1</i>
   <i type="int" name="NBANDSV">    -1</i>
   <i type="int" name="NELM">   100</i>
   <i type="int" name="NELMHF">     1</i>
   <i type="int" name="DIM">     3</i>
   <i type="int" name="ANTIRES">     0</i>
   <i name="OMEGAMAX">    -30.00000000</i>
   <i name="OMEGAMIN">    -30.00000000</i>
   <i name="OMEGATL">   -200.00000000</i>
   <i type="int" name="OMEGAGRID">   140</i>
   <i name="CSHIFT">     -0.10000000</i>
   <i type="logical" name="SELFENERGY"> F  </i>
   <i type="logical" name="LSPECTRAL"> F  </i>
   <i type="logical" name="LSPECTRALGW"> F  </i>
   <i type="logical" name="LSINGLES"> F  </i>
   <i type="logical" name="LFERMIGW"> F  </i>
   <i type="logical" name="ODDONLYGW"> F  </i>
   <i type="logical" name="EVENONLYGW"> F  </i>
   <i type="int" name="NKREDLFX">     1</i>
   <i type="int" name="NKREDLFY">     1</i>
   <i type="int" name="NKREDLFZ">     1</i>
   <i type="int" name="MAXMEM">  2800</i>
   <i type="int" name="TELESCOPE">     0</i>
   <i type="int" name="TAUPAR">     1</i>
   <i type="int" name="OMEGAPAR">    -1</i>
   <i name="LAMBDA">      1.00000000</i>
  </separator>
  <separator name="External order field" >
   <i name="OFIELD_KAPPA">      0.00000000</i>
   <v name="OFIELD_K">      0.00000000      0.00000000      0.00000000</v>
   <i name="OFIELD_Q6_NEAR">      0.00000000</i>
   <i name="OFIELD_Q6_FAR">      0.00000000</i>
   <i name="OFIELD_A">      0.00000000</i>
  </separator>
 </parameters>
 <atominfo>
  <atoms>      96 </atoms>
  <types>       2 </types>
  <array name="atoms" >
   <dimension dim="1">ion</dimension>
   <field type="string">element</field>
   <field type="int">atomtype</field>
   <set>
    <rc><c>Ni</c><c>   1</c></rc>
    <rc><c>Ni</c><c>   1</c></rc>
    <rc><c>Ni</c><c>   1</c></rc>
    <rc><c>Ni</c><c>   1</c></rc>
    <rc><c>Ni</c><c>   1</c></rc>
    <rc><c>Ni</c><c>   1</c></rc>
    <rc><c>Ni</c><c>   1</c></rc>
    <rc><c>Ni</c><c>   1</c></rc>
    <rc><c>Ni</c><c>   1</c></rc>
    <rc><c>Ni</c><c>   1</c></rc>
    <rc><c>Ni</c><c>   1</c></rc>
    <rc><c>Ni</c><c>   1</c></rc>
    <rc><c>Ni</c><c>   1</c></rc>
    <rc><c>Ni</c><c>   1</c></rc>
    <rc><c>Ni</c><c>   1</c></rc>
    <rc><c>Ni</c><c>   1</c></rc>
    <rc><c>Ni</c><c>   1</c></rc>
    <rc><c>Ni</c><c>   1</c></rc>
    <rc><c>Ni</c><c>   1</c></rc>
    <rc><c>Ni</c><c>   1</c></rc>
    <rc><c>Ni</c><c>   1</c></rc>
    <rc><c>Ni</c><c>   1</c></rc>
    <rc><c>Ni</c><c>   1</c></rc>
    <rc><c>Ni</c><c>   1</c></rc>
    <rc><c>Ni</c><c>   1</c></rc>
    <rc><c>Ni</c><c>   1</c></rc>
    <rc><c>Ni</c><c>   1</c></rc>
    <rc><c>Ni</c><c>   1</c></rc>
    <rc><c>Ni</c><c>   1</c></rc>
    <rc><c>Ni</c><c>   1</c></rc>
    <rc><c>Ni</c><c>   1</c></rc>
    <rc><c>Ni</c><c>   1</c></rc>
    <rc><c>Ni</c><c>   1</c></rc>
    <rc><c>Ni</c><c>   1</c></rc>
    <rc><c>Ni</c><c>   1</c></rc>
    <rc><c>Ni</c><c>   1</c></rc>
    <rc><c>Ni</c><c>   1</c></rc>
    <rc><c>Ni</c><c>   1</c></rc>
    <rc><c>Ni</c><c>   1</c></rc>
    <rc><c>Ni</c><c>   1</c></rc>
    <rc><c>Ni</c><c>   1</c></rc>
    <rc><c>Ni</c><c>   1</c></rc>
    <rc><c>Ni</c><c>   1</c></rc>
    <rc><c>Ni</c><c>   1</c></rc>
    <rc><c>Ni</c><c>   1</c></rc>
    <rc><c>Ni</c><c>   1</c></rc>
    <rc><c>Ni</c><c>   1</c></rc>
    <rc><c>Ni</c><c>   1</c></rc>
    <rc><c>S </c><c>   2</c></rc>
    <rc><c>S </c><c>   2</c></rc>
    <rc><c>S </c><c>   2</c></rc>
    <rc><c>S </c><c>   2</c></rc>
    <rc><c>S </c><c>   2</c></rc>
    <rc><c>S </c><c>   2</c></rc>
    <rc><c>S </c><c>   2</c></rc>
    <rc><c>S </c><c>   2</c></rc>
    <rc><c>S </c><c>   2</c></rc>
    <rc><c>S </c><c>   2</c></rc>
    <rc><c>S </c><c>   2</c></rc>
    <rc><c>S </c><c>   2</c></rc>
    <rc><c>S </c><c>   2</c></rc>
    <rc><c>S </c><c>   2</c></rc>
    <rc><c>S </c><c>   2</c></rc>
    <rc><c>S </c><c>   2</c></rc>
    <rc><c>S </c><c>   2</c></rc>
    <rc><c>S </c><c>   2</c></rc>
    <rc><c>S </c><c>   2</c></rc>
    <rc><c>S </c><c>   2</c></rc>
    <rc><c>S </c><c>   2</c></rc>
    <rc><c>S </c><c>   2</c></rc>
    <rc><c>S </c><c>   2</c></rc>
    <rc><c>S </c><c>   2</c></rc>
    <rc><c>S </c><c>   2</c></rc>
    <rc><c>S </c><c>   2</c></rc>
    <rc><c>S </c><c>   2</c></rc>
    <rc><c>S </c><c>   2</c></rc>
    <rc><c>S </c><c>   2</c></rc>
    <rc><c>S </c><c>   2</c></rc>
    <rc><c>S </c><c>   2</c></rc>
    <rc><c>S </c><c>   2</c></rc>
    <rc><c>S </c><c>   2</c></rc>
    <rc><c>S </c><c>   2</c></rc>
    <rc><c>S </c><c>   2</c></rc>
    <rc><c>S </c><c>   2</c></rc>
    <rc><c>S </c><c>   2</c></rc>
    <rc><c>S </c><c>   2</c></rc>
    <rc><c>S </c><c>   2</c></rc>
    <rc><c>S </c><c>   2</c></rc>
    <rc><c>S </c><c>   2</c></rc>
    <rc><c>S </c><c>   2</c></rc>
    <rc><c>S </c><c>   2</c></rc>
    <rc><c>S </c><c>   2</c></rc>
    <rc><c>S </c><c>   2</c></rc>
    <rc><c>S </c><c>   2</c></rc>
    <rc><c>S </c><c>   2</c></rc>
    <rc><c>S </c><c>   2</c></rc>
   </set>
  </array>
  <array name="atomtypes" >
   <dimension dim="1">type</dimension>
   <field type="int">atomspertype</field>
   <field type="string">element</field>
   <field>mass</field>
   <field>valence</field>
   <field type="string">pseudopotential</field>
   <set>
    <rc><c>  48</c><c>Ni</c><c>     58.69000000</c><c>     16.00000000</c><c>  PAW_PBE Ni_pv 06Sep2000               </c></rc>
    <rc><c>  48</c><c>S </c><c>     32.06600000</c><c>      6.00000000</c><c>  PAW_PBE S 06Sep2000                   </c></rc>
   </set>
  </array>
 </atominfo>
 <structure name="initialpos" >
  <crystal>
   <varray name="basis" >
    <v>      11.25646304       0.00000000       0.00000000 </v>
    <v>       5.04456212      10.06282034       0.00000000 </v>
    <v>       0.00000000       0.00000000      22.51995597 </v>
   </varray>
   <i name="volume">   2550.87516496 </i>
   <varray name="rec_basis" >
    <v>       0.08883785      -0.04453504       0.00000000 </v>
    <v>       0.00000000       0.09937572       0.00000000 </v>
    <v>       0.00000000       0.00000000       0.04440506 </v>
   </varray>
  </crystal>
  <varray name="positions" >
   <v>       0.26092069       0.47878037       0.29519774 </v>
   <v>       0.35488056       0.38482050       0.42557357 </v>
   <v>       0.54905128       0.19276775       0.48646121 </v>
   <v>       0.16696082       0.07274025       0.16482191 </v>
   <v>       0.02837454       0.05474374       0.49412193 </v>
   <v>       0.27423906       0.33335901       0.13037583 </v>
   <v>       0.36819893       0.23939914       0.26075166 </v>
   <v>       0.46215879       0.14543927       0.39112749 </v>
   <v>       0.00030194       0.37150214       0.26075166 </v>
   <v>       0.09426180       0.27754227       0.39112749 </v>
   <v>       0.18754473       0.19542612       0.50145240 </v>
   <v>       0.40634206       0.46546200       0.13037583 </v>
   <v>       0.76092069       0.47878037       0.29519774 </v>
   <v>       0.85488056       0.38482050       0.42557357 </v>
   <v>       0.94465734       0.28102628       0.52876494 </v>
   <v>       0.52293170       0.21094581       0.09071202 </v>
   <v>       0.66696082       0.07274025       0.16482191 </v>
   <v>       0.48097103       0.00011017       0.46843922 </v>
   <v>       0.77423906       0.33335901       0.13037583 </v>
   <v>       0.86819893       0.23939914       0.26075166 </v>
   <v>       0.96215879       0.14543927       0.39112749 </v>
   <v>       0.50030194       0.37150214       0.26075166 </v>
   <v>       0.59426180       0.27754227       0.39112749 </v>
   <v>       0.90634206       0.46546200       0.13037583 </v>
   <v>       0.26092069       0.97878037       0.29519774 </v>
   <v>       0.35488056       0.88482051       0.42557357 </v>
   <v>       0.16696083       0.57274025       0.16482191 </v>
   <v>       0.03029097       0.55867143       0.49628005 </v>
   <v>       0.20487931       0.03459449       0.05906107 </v>
   <v>       0.27423906       0.83335901       0.13037583 </v>
   <v>       0.36819893       0.73939914       0.26075166 </v>
   <v>       0.46215879       0.64543927       0.39112749 </v>
   <v>       0.00030194       0.87150214       0.26075166 </v>
   <v>       0.09426180       0.77754227       0.39112749 </v>
   <v>       0.17732364       0.71194728       0.49535252 </v>
   <v>       0.40634206       0.96546200       0.13037583 </v>
   <v>       0.76092069       0.97878037       0.29519774 </v>
   <v>       0.85488056       0.88482051       0.42557357 </v>
   <v>       0.53259528       0.70650629       0.09136672 </v>
   <v>       0.66696083       0.57274025       0.16482191 </v>
   <v>       0.72993988       0.01805823       0.05473288 </v>
   <v>       0.77423906       0.83335901       0.13037583 </v>
   <v>       0.86819893       0.73939914       0.26075166 </v>
   <v>       0.96215879       0.64543927       0.39112749 </v>
   <v>       0.50030194       0.87150214       0.26075166 </v>
   <v>       0.59426180       0.77754227       0.39112749 </v>
   <v>       0.74522513       0.64314757       0.46951097 </v>
   <v>       0.90634206       0.96546200       0.13037583 </v>
   <v>       0.07287763       0.16682345       0.31134757 </v>
   <v>       0.16683750       0.07286358       0.44172340 </v>
   <v>       0.36432208       0.37568095       0.05985472 </v>
   <v>       0.47891775       0.26078331       0.18097174 </v>
   <v>       0.03023342       0.37768265       0.48558574 </v>
   <v>       0.43627354       0.47164252       0.35520991 </v>
   <v>       0.25733441       0.15831689       0.10740773 </v>
   <v>       0.34231367       0.06560240       0.22483408 </v>
   <v>       0.08180703       0.47990415       0.11297782 </v>
   <v>       0.17409868       0.39738739       0.22483408 </v>
   <v>       0.26805854       0.30342752       0.35520991 </v>
   <v>       0.36201841       0.20946766       0.48558574 </v>
   <v>       0.57287763       0.16682345       0.31134757 </v>
   <v>       0.64579107       0.02530149       0.43594722 </v>
   <v>       0.85719753       0.38275111       0.06303690 </v>
   <v>       0.97891775       0.26078331       0.18097174 </v>
   <v>       0.51760045       0.38065771       0.46864061 </v>
   <v>       0.93627354       0.47164252       0.35520991 </v>
   <v>       0.73792594       0.16884228       0.10411853 </v>
   <v>       0.84231367       0.06560240       0.22483408 </v>
   <v>       0.57614713       0.49936088       0.10532503 </v>
   <v>       0.67409868       0.39738739       0.22483408 </v>
   <v>       0.76805854       0.30342752       0.35520991 </v>
   <v>       0.85164137       0.21693585       0.46959162 </v>
   <v>       0.07287763       0.66682345       0.31134757 </v>
   <v>       0.16683750       0.57286358       0.44172340 </v>
   <v>       0.37513415       0.86399822       0.05675340 </v>
   <v>       0.47891775       0.76078331       0.18097174 </v>
   <v>       0.01695542       0.88293713       0.47214042 </v>
   <v>       0.43627354       0.97164252       0.35520991 </v>
   <v>       0.25959353       0.65665125       0.11195856 </v>
   <v>       0.34231367       0.56560240       0.22483408 </v>
   <v>       0.08143996       0.98249532       0.10772323 </v>
   <v>       0.17409868       0.89738739       0.22483408 </v>
   <v>       0.26805854       0.80342752       0.35520991 </v>
   <v>       0.34383409       0.72207161       0.46623799 </v>
   <v>       0.57287763       0.66682345       0.31134757 </v>
   <v>       0.66239619       0.55373276       0.41783506 </v>
   <v>       0.89469947       0.84458914       0.06452083 </v>
   <v>       0.97891775       0.76078331       0.18097174 </v>
   <v>       0.54376523       0.79962894       0.47913483 </v>
   <v>       0.93627354       0.97164252       0.35520991 </v>
   <v>       0.74099442       0.66405795       0.10601017 </v>
   <v>       0.84231367       0.56560240       0.22483408 </v>
   <v>       0.58013881       0.99134726       0.09445824 </v>
   <v>       0.67409868       0.89738739       0.22483408 </v>
   <v>       0.76805854       0.80342752       0.35520991 </v>
   <v>       0.86816017       0.72895177       0.47704252 </v>
  </varray>
 </structure>
 <calculation>
  <scstep>
   <time name="dav">   13.45   13.46</time>
   <time name="total">   13.85   13.86</time>
   <energy>
    <i name="alphaZ">   2592.50432107 </i>
    <i name="ewald"> 337326.49351138 </i>
    <i name="hartreedc">-500552.98551217 </i>
    <i name="XCdc">   4905.27032877 </i>
    <i name="pawpsdc"> 150306.04444553 </i>
    <i name="pawaedc">-156855.34918313 </i>
    <i name="eentropy">     -0.54164627 </i>
    <i name="bandstr">  -5641.08901153 </i>
    <i name="atom"> 181336.80673834 </i>
    <i name="e_fr_energy">  13417.15399200 </i>
    <i name="e_wo_entrp">  13417.69563826 </i>
    <i name="e_0_energy">  13417.42481513 </i>
   </energy>
  </scstep>
  <scstep>
   <time name="dav">   12.24   12.24</time>
   <time name="total">   12.24   12.24</time>
   <energy>
    <i name="e_fr_energy">    834.72198082 </i>
    <i name="e_wo_entrp">    835.70742578 </i>
    <i name="e_0_energy">    835.21470330 </i>
   </energy>
  </scstep>
  <scstep>
   <time name="dav">   12.92   12.92</time>
   <time name="total">   12.92   12.93</time>
   <energy>
    <i name="e_fr_energy">   -454.27953702 </i>
    <i name="e_wo_entrp">   -452.90590314 </i>
    <i name="e_0_energy">   -453.59272008 </i>
   </energy>
  </scstep>
  <scstep>
   <time name="dav">   13.26   13.26</time>
   <time name="total">   13.26   13.27</time>
   <energy>
    <i name="e_fr_energy">   -535.92115065 </i>
    <i name="e_wo_entrp">   -534.50818786 </i>
    <i name="e_0_energy">   -535.21466925 </i>
   </energy>
  </scstep>
  <scstep>
   <time name="dav">   13.91   13.91</time>
   <time name="total">   14.32   14.32</time>
   <energy>
    <i name="e_fr_energy">   -538.71740116 </i>
    <i name="e_wo_entrp">   -537.31063348 </i>
    <i name="e_0_energy">   -538.01401732 </i>
   </energy>
  </scstep>
  <scstep>
   <time name="dav">   13.70   13.70</time>
   <time name="total">   14.75   14.76</time>
   <energy>
    <i name="e_fr_energy">   -634.57437612 </i>
    <i name="e_wo_entrp">   -633.56539161 </i>
    <i name="e_0_energy">   -634.06988386 </i>
   </energy>
  </scstep>
  <scstep>
   <time name="dav">   13.16   13.16</time>
   <time name="total">   13.98   13.99</time>
   <energy>
    <i name="e_fr_energy">   -519.48170178 </i>
    <i name="e_wo_entrp">   -518.38678723 </i>
    <i name="e_0_energy">   -518.93424450 </i>
   </energy>
  </scstep>
  <scstep>
   <time name="dav">   14.94   14.94</time>
   <time name="total">   15.73   15.73</time>
   <energy>
    <i name="e_fr_energy">   -572.67667399 </i>
    <i name="e_wo_entrp">   -571.40478005 </i>
    <i name="e_0_energy">   -572.04072702 </i>
   </energy>
  </scstep>
  <scstep>
   <time name="dav">   14.24   14.24</time>
   <time name="total">   15.03   15.03</time>
   <energy>
    <i name="e_fr_energy">   -584.55074989 </i>
    <i name="e_wo_entrp">   -583.13100143 </i>
    <i name="e_0_energy">   -583.84087566 </i>
   </energy>
  </scstep>
  <scstep>
   <time name="dav">   15.72   15.73</time>
   <time name="total">   16.51   16.51</time>
   <energy>
    <i name="e_fr_energy">   -590.48564861 </i>
    <i name="e_wo_entrp">   -588.84125605 </i>
    <i name="e_0_energy">   -589.66345233 </i>
   </energy>
  </scstep>
  <scstep>
   <time name="dav">   14.69   14.70</time>
   <time name="total">   15.57   15.57</time>
   <energy>
    <i name="e_fr_energy">   -547.01587256 </i>
    <i name="e_wo_entrp">   -545.85835444 </i>
    <i name="e_0_energy">   -546.43711350 </i>
   </energy>
  </scstep>
  <scstep>
   <time name="dav">   15.39   15.39</time>
   <time name="total">   16.27   16.27</time>
   <energy>
    <i name="e_fr_energy">   -523.36368968 </i>
    <i name="e_wo_entrp">   -522.07394237 </i>
    <i name="e_0_energy">   -522.71881602 </i>
   </energy>
  </scstep>
  <scstep>
   <time name="dav">   14.81   14.82</time>
   <time name="total">   15.86   15.86</time>
   <energy>
    <i name="e_fr_energy">   -515.59418133 </i>
    <i name="e_wo_entrp">   -514.34901280 </i>
    <i name="e_0_energy">   -514.97159707 </i>
   </energy>
  </scstep>
  <scstep>
   <time name="dav">   14.99   14.99</time>
   <time name="total">   15.79   15.79</time>
   <energy>
    <i name="e_fr_energy">   -501.19091908 </i>
    <i name="e_wo_entrp">   -499.80765672 </i>
    <i name="e_0_energy">   -500.49928790 </i>
   </energy>
  </scstep>
  <scstep>
   <time name="dav">   14.89   14.89</time>
   <time name="total">   15.81   15.81</time>
   <energy>
    <i name="e_fr_energy">   -484.42609908 </i>
    <i name="e_wo_entrp">   -483.26781064 </i>
    <i name="e_0_energy">   -483.84695486 </i>
   </energy>
  </scstep>
  <scstep>
   <time name="dav">   15.09   15.09</time>
   <time name="total">   15.88   15.89</time>
   <energy>
    <i name="e_fr_energy">   -480.55396319 </i>
    <i name="e_wo_entrp">   -479.35811552 </i>
    <i name="e_0_energy">   -479.95603936 </i>
   </energy>
  </scstep>
  <scstep>
   <time name="dav">   15.08   15.08</time>
   <time name="total">   15.88   15.88</time>
   <energy>
    <i name="e_fr_energy">   -478.48317783 </i>
    <i name="e_wo_entrp">   -477.29201526 </i>
    <i name="e_0_energy">   -477.88759654 </i>
   </energy>
  </scstep>
  <scstep>
   <time name="dav">   14.83   14.84</time>
   <time name="total">   15.63   15.64</time>
   <energy>
    <i name="e_fr_energy">   -477.70500369 </i>
    <i name="e_wo_entrp">   -476.49172355 </i>
    <i name="e_0_energy">   -477.09836362 </i>
   </energy>
  </scstep>
  <scstep>
   <time name="dav">   12.24   12.24</time>
   <time name="total">   13.04   13.04</time>
   <energy>
    <i name="e_fr_energy">   -477.67572206 </i>
    <i name="e_wo_entrp">   -476.46229637 </i>
    <i name="e_0_energy">   -477.06900922 </i>
   </energy>
  </scstep>
  <scstep>
   <time name="dav">   14.93   14.93</time>
   <time name="total">   15.84   15.85</time>
   <energy>
    <i name="e_fr_energy">   -477.20537564 </i>
    <i name="e_wo_entrp">   -475.99128168 </i>
    <i name="e_0_energy">   -476.59832866 </i>
   </energy>
  </scstep>
  <scstep>
   <time name="dav">   14.93   14.93</time>
   <time name="total">   15.73   15.73</time>
   <energy>
    <i name="e_fr_energy">   -477.48417359 </i>
    <i name="e_wo_entrp">   -476.26149991 </i>
    <i name="e_0_energy">   -476.87283675 </i>
   </energy>
  </scstep>
  <scstep>
   <time name="dav">   15.39   15.39</time>
   <time name="total">   16.20   16.20</time>
   <energy>
    <i name="e_fr_energy">   -474.44095078 </i>
    <i name="e_wo_entrp">   -473.20119606 </i>
    <i name="e_0_energy">   -473.82107342 </i>
   </energy>
  </scstep>
  <scstep>
   <time name="dav">   15.11   15.12</time>
   <time name="total">   15.93   15.94</time>
   <energy>
    <i name="e_fr_energy">   -473.83844903 </i>
    <i name="e_wo_entrp">   -472.57745530 </i>
    <i name="e_0_energy">   -473.20795216 </i>
   </energy>
  </scstep>
  <scstep>
   <time name="dav">   14.76   14.76</time>
   <time name="total">   15.58   15.58</time>
   <energy>
    <i name="e_fr_energy">   -473.25008399 </i>
    <i name="e_wo_entrp">   -471.99257959 </i>
    <i name="e_0_energy">   -472.62133179 </i>
   </energy>
  </scstep>
  <scstep>
   <time name="dav">   14.40   14.40</time>
   <time name="total">   15.22   15.23</time>
   <energy>
    <i name="e_fr_energy">   -473.07602136 </i>
    <i name="e_wo_entrp">   -471.77597460 </i>
    <i name="e_0_energy">   -472.42599798 </i>
   </energy>
  </scstep>
  <scstep>
   <time name="dav">   14.97   14.99</time>
   <time name="total">   15.78   15.79</time>
   <energy>
    <i name="e_fr_energy">   -472.99122198 </i>
    <i name="e_wo_entrp">   -471.72407168 </i>
    <i name="e_0_energy">   -472.35764683 </i>
   </energy>
  </scstep>
  <scstep>
   <time name="dav">   14.28   14.28</time>
   <time name="total">   15.10   15.11</time>
   <energy>
    <i name="e_fr_energy">   -472.83543725 </i>
    <i name="e_wo_entrp">   -471.54718264 </i>
    <i name="e_0_energy">   -472.19130994 </i>
   </energy>
  </scstep>
  <scstep>
   <time name="dav">   14.97   14.97</time>
   <time name="total">   15.86   15.86</time>
   <energy>
    <i name="e_fr_energy">   -472.84020966 </i>
    <i name="e_wo_entrp">   -471.55124135 </i>
    <i name="e_0_energy">   -472.19572550 </i>
   </energy>
  </scstep>
  <scstep>
   <time name="dav">   13.69   13.69</time>
   <time name="total">   14.51   14.51</time>
   <energy>
    <i name="e_fr_energy">   -472.77251676 </i>
    <i name="e_wo_entrp">   -471.47805878 </i>
    <i name="e_0_energy">   -472.12528777 </i>
   </energy>
  </scstep>
  <scstep>
   <time name="dav">   13.32   13.32</time>
   <time name="total">   14.38   14.38</time>
   <energy>
    <i name="e_fr_energy">   -472.68982424 </i>
    <i name="e_wo_entrp">   -471.38891493 </i>
    <i name="e_0_energy">   -472.03936959 </i>
   </energy>
  </scstep>
  <scstep>
   <time name="dav">   12.83   12.84</time>
   <time name="total">   13.66   13.67</time>
   <energy>
    <i name="e_fr_energy">   -472.64573852 </i>
    <i name="e_wo_entrp">   -471.34560718 </i>
    <i name="e_0_energy">   -471.99567285 </i>
   </energy>
  </scstep>
  <scstep>
   <time name="dav">   14.86   14.86</time>
   <time name="total">   15.70   15.71</time>
   <energy>
    <i name="e_fr_energy">   -472.67493267 </i>
    <i name="e_wo_entrp">   -471.37166973 </i>
    <i name="e_0_energy">   -472.02330120 </i>
   </energy>
  </scstep>
  <scstep>
   <time name="dav">   12.53   12.54</time>
   <time name="total">   13.37   13.37</time>
   <energy>
    <i name="e_fr_energy">   -472.63981833 </i>
    <i name="e_wo_entrp">   -471.33640695 </i>
    <i name="e_0_energy">   -471.98811264 </i>
   </energy>
  </scstep>
  <scstep>
   <time name="dav">   13.28   13.28</time>
   <time name="total">   14.24   14.25</time>
   <energy>
    <i name="e_fr_energy">   -472.61601835 </i>
    <i name="e_wo_entrp">   -471.31372613 </i>
    <i name="e_0_energy">   -471.96487224 </i>
   </energy>
  </scstep>
  <scstep>
   <time name="dav">   14.07   14.08</time>
   <time name="total">   14.91   14.91</time>
   <energy>
    <i name="e_fr_energy">   -472.59307472 </i>
    <i name="e_wo_entrp">   -471.29049913 </i>
    <i name="e_0_energy">   -471.94178692 </i>
   </energy>
  </scstep>
  <scstep>
   <time name="dav">   14.68   14.69</time>
   <time name="total">   15.53   15.53</time>
   <energy>
    <i name="e_fr_energy">   -472.58163008 </i>
    <i name="e_wo_entrp">   -471.28200414 </i>
    <i name="e_0_energy">   -471.93181711 </i>
   </energy>
  </scstep>
  <scstep>
   <time name="dav">   12.92   12.92</time>
   <time name="total">   13.77   13.78</time>
   <energy>
    <i name="e_fr_energy">   -472.58014433 </i>
    <i name="e_wo_entrp">   -471.27849672 </i>
    <i name="e_0_energy">   -471.92932052 </i>
   </energy>
  </scstep>
  <scstep>
   <time name="dav">   13.87   13.87</time>
   <time name="total">   14.73   14.73</time>
   <energy>
    <i name="e_fr_energy">   -472.57636092 </i>
    <i name="e_wo_entrp">   -471.27870613 </i>
    <i name="e_0_energy">   -471.92753352 </i>
   </energy>
  </scstep>
  <scstep>
   <time name="dav">   13.46   13.46</time>
   <time name="total">   14.55   14.56</time>
   <energy>
    <i name="e_fr_energy">   -472.57270628 </i>
    <i name="e_wo_entrp">   -471.27321037 </i>
    <i name="e_0_energy">   -471.92295832 </i>
   </energy>
  </scstep>
  <scstep>
   <time name="dav">   14.35   14.36</time>
   <time name="total">   15.22   15.22</time>
   <energy>
    <i name="e_fr_energy">   -472.56882431 </i>
    <i name="e_wo_entrp">   -471.26987772 </i>
    <i name="e_0_energy">   -471.91935102 </i>
   </energy>
  </scstep>
  <scstep>
   <time name="dav">   15.33   15.33</time>
   <time name="total">   16.20   16.20</time>
   <energy>
    <i name="e_fr_energy">   -472.56525803 </i>
    <i name="e_wo_entrp">   -471.26950777 </i>
    <i name="e_0_energy">   -471.91738290 </i>
   </energy>
  </scstep>
  <scstep>
   <time name="dav">   14.25   14.26</time>
   <time name="total">   15.13   15.14</time>
   <energy>
    <i name="e_fr_energy">   -472.56447352 </i>
    <i name="e_wo_entrp">   -471.26987151 </i>
    <i name="e_0_energy">   -471.91717251 </i>
   </energy>
  </scstep>
  <scstep>
   <time name="dav">   12.12   12.12</time>
   <time name="total">   13.01   13.01</time>
   <energy>
    <i name="e_fr_energy">   -472.56297769 </i>
    <i name="e_wo_entrp">   -471.26778913 </i>
    <i name="e_0_energy">   -471.91538341 </i>
   </energy>
  </scstep>
  <scstep>
   <time name="dav">   11.26   11.26</time>
   <time name="total">   11.75   11.79</time>
   <energy>
    <i name="alphaZ">   2592.50432107 </i>
    <i name="ewald"> 337326.49351138 </i>
    <i name="hartreedc">-499611.18035576 </i>
    <i name="XCdc">   4863.98133493 </i>
    <i name="pawpsdc"> 184355.65549800 </i>
    <i name="pawaedc">-191005.71818203 </i>
    <i name="eentropy">     -1.29496370 </i>
    <i name="bandstr"> -20329.81093485 </i>
    <i name="atom"> 181336.80673834 </i>
    <i name="e_fr_energy">   -472.56303262 </i>
    <i name="e_wo_entrp">   -471.26806892 </i>
    <i name="e_0_energy">   -471.91555077 </i>
   </energy>
  </scstep>
  <structure>
   <crystal>
    <varray name="basis" >
     <v>      11.25646304       0.00000000       0.00000000 </v>
     <v>       5.04456212      10.06282034       0.00000000 </v>
     <v>       0.00000000       0.00000000      22.51995597 </v>
    </varray>
    <i name="volume">   2550.87516496 </i>
    <varray name="rec_basis" >
     <v>       0.08883785      -0.04453504       0.00000000 </v>
     <v>       0.00000000       0.09937572       0.00000000 </v>
     <v>       0.00000000       0.00000000       0.04440506 </v>
    </varray>
   </crystal>
   <varray name="positions" >
    <v>       0.26092069       0.47878037       0.29519774 </v>
    <v>       0.35488056       0.38482050       0.42557357 </v>
    <v>       0.54905128       0.19276775       0.48646121 </v>
    <v>       0.16696082       0.07274025       0.16482191 </v>
    <v>       0.02837454       0.05474374       0.49412193 </v>
    <v>       0.27423906       0.33335901       0.13037583 </v>
    <v>       0.36819893       0.23939914       0.26075166 </v>
    <v>       0.46215879       0.14543927       0.39112749 </v>
    <v>       0.00030194       0.37150214       0.26075166 </v>
    <v>       0.09426180       0.27754227       0.39112749 </v>
    <v>       0.18754473       0.19542612       0.50145240 </v>
    <v>       0.40634206       0.46546200       0.13037583 </v>
    <v>       0.76092069       0.47878037       0.29519774 </v>
    <v>       0.85488056       0.38482050       0.42557357 </v>
    <v>       0.94465734       0.28102628       0.52876494 </v>
    <v>       0.52293170       0.21094581       0.09071202 </v>
    <v>       0.66696082       0.07274025       0.16482191 </v>
    <v>       0.48097103       0.00011017       0.46843922 </v>
    <v>       0.77423906       0.33335901       0.13037583 </v>
    <v>       0.86819893       0.23939914       0.26075166 </v>
    <v>       0.96215879       0.14543927       0.39112749 </v>
    <v>       0.50030194       0.37150214       0.26075166 </v>
    <v>       0.59426180       0.27754227       0.39112749 </v>
    <v>       0.90634206       0.46546200       0.13037583 </v>
    <v>       0.26092069       0.97878037       0.29519774 </v>
    <v>       0.35488056       0.88482051       0.42557357 </v>
    <v>       0.16696083       0.57274025       0.16482191 </v>
    <v>       0.03029097       0.55867143       0.49628005 </v>
    <v>       0.20487931       0.03459449       0.05906107 </v>
    <v>       0.27423906       0.83335901       0.13037583 </v>
    <v>       0.36819893       0.73939914       0.26075166 </v>
    <v>       0.46215879       0.64543927       0.39112749 </v>
    <v>       0.00030194       0.87150214       0.26075166 </v>
    <v>       0.09426180       0.77754227       0.39112749 </v>
    <v>       0.17732364       0.71194728       0.49535252 </v>
    <v>       0.40634206       0.96546200       0.13037583 </v>
    <v>       0.76092069       0.97878037       0.29519774 </v>
    <v>       0.85488056       0.88482051       0.42557357 </v>
    <v>       0.53259528       0.70650629       0.09136672 </v>
    <v>       0.66696083       0.57274025       0.16482191 </v>
    <v>       0.72993988       0.01805823       0.05473288 </v>
    <v>       0.77423906       0.83335901       0.13037583 </v>
    <v>       0.86819893       0.73939914       0.26075166 </v>
    <v>       0.96215879       0.64543927       0.39112749 </v>
    <v>       0.50030194       0.87150214       0.26075166 </v>
    <v>       0.59426180       0.77754227       0.39112749 </v>
    <v>       0.74522513       0.64314757       0.46951097 </v>
    <v>       0.90634206       0.96546200       0.13037583 </v>
    <v>       0.07287763       0.16682345       0.31134757 </v>
    <v>       0.16683750       0.07286358       0.44172340 </v>
    <v>       0.36432208       0.37568095       0.05985472 </v>
    <v>       0.47891775       0.26078331       0.18097174 </v>
    <v>       0.03023342       0.37768265       0.48558574 </v>
    <v>       0.43627354       0.47164252       0.35520991 </v>
    <v>       0.25733441       0.15831689       0.10740773 </v>
    <v>       0.34231367       0.06560240       0.22483408 </v>
    <v>       0.08180703       0.47990415       0.11297782 </v>
    <v>       0.17409868       0.39738739       0.22483408 </v>
    <v>       0.26805854       0.30342752       0.35520991 </v>
    <v>       0.36201841       0.20946766       0.48558574 </v>
    <v>       0.57287763       0.16682345       0.31134757 </v>
    <v>       0.64579107       0.02530149       0.43594722 </v>
    <v>       0.85719753       0.38275111       0.06303690 </v>
    <v>       0.97891775       0.26078331       0.18097174 </v>
    <v>       0.51760045       0.38065771       0.46864061 </v>
    <v>       0.93627354       0.47164252       0.35520991 </v>
    <v>       0.73792594       0.16884228       0.10411853 </v>
    <v>       0.84231367       0.06560240       0.22483408 </v>
    <v>       0.57614713       0.49936088       0.10532503 </v>
    <v>       0.67409868       0.39738739       0.22483408 </v>
    <v>       0.76805854       0.30342752       0.35520991 </v>
    <v>       0.85164137       0.21693585       0.46959162 </v>
    <v>       0.07287763       0.66682345       0.31134757 </v>
    <v>       0.16683750       0.57286358       0.44172340 </v>
    <v>       0.37513415       0.86399822       0.05675340 </v>
    <v>       0.47891775       0.76078331       0.18097174 </v>
    <v>       0.01695542       0.88293713       0.47214042 </v>
    <v>       0.43627354       0.97164252       0.35520991 </v>
    <v>       0.25959353       0.65665125       0.11195856 </v>
    <v>       0.34231367       0.56560240       0.22483408 </v>
    <v>       0.08143996       0.98249532       0.10772323 </v>
    <v>       0.17409868       0.89738739       0.22483408 </v>
    <v>       0.26805854       0.80342752       0.35520991 </v>
    <v>       0.34383409       0.72207161       0.46623799 </v>
    <v>       0.57287763       0.66682345       0.31134757 </v>
    <v>       0.66239619       0.55373276       0.41783506 </v>
    <v>       0.89469947       0.84458914       0.06452083 </v>
    <v>       0.97891775       0.76078331       0.18097174 </v>
    <v>       0.54376523       0.79962894       0.47913483 </v>
    <v>       0.93627354       0.97164252       0.35520991 </v>
    <v>       0.74099442       0.66405795       0.10601017 </v>
    <v>       0.84231367       0.56560240       0.22483408 </v>
    <v>       0.58013881       0.99134726       0.09445824 </v>
    <v>       0.67409868       0.89738739       0.22483408 </v>
    <v>       0.76805854       0.80342752       0.35520991 </v>
    <v>       0.86816017       0.72895177       0.47704252 </v>
   </varray>
  </structure>
  <varray name="forces" >
   <v>       0.14031807      -0.07856729      -0.12911379 </v>
   <v>      -1.50597761       0.43930460      -1.23092613 </v>
   <v>       1.19815972      -0.84118821       1.46877053 </v>
   <v>      -0.39551285       0.71233578       2.27670825 </v>
   <v>       0.03074138      -0.21056523       1.15622562 </v>
   <v>      -0.49623127      -0.65949170       1.70304633 </v>
   <v>      -0.17580014       0.08674016      -0.07885511 </v>
   <v>      -0.61650568       0.55193102      -2.22927428 </v>
   <v>      -0.08484577       0.00712288       0.08149920 </v>
   <v>      -0.08770753      -0.12105872      -0.21697780 </v>
   <v>       0.35700249      -0.40434809       1.18851262 </v>
   <v>       1.27287504       0.08145392       1.88866369 </v>
   <v>       0.12754486      -0.26689063      -0.08335934 </v>
   <v>       0.58754131       0.32605324      -0.28827630 </v>
   <v>      -0.15430380       0.10262679       1.51854905 </v>
   <v>       0.39950474      -0.70314155      -0.83512598 </v>
   <v>      -0.31608342      -0.56845235       2.09171863 </v>
   <v>       0.12499576       0.13705084       0.99261969 </v>
   <v>      -0.98530099      -0.33774190       2.13560679 </v>
   <v>       0.00414139      -0.02287240      -0.03388554 </v>
   <v>       0.33617468      -0.15795519      -1.53685508 </v>
   <v>       0.07400278       0.07338126       0.02085001 </v>
   <v>       0.32356037      -0.18132801      -1.78729939 </v>
   <v>       0.73667824       0.74306302       2.42904895 </v>
   <v>       0.05065454      -0.18853812      -0.06839582 </v>
   <v>       0.05307595       1.01983411      -1.12921724 </v>
   <v>      -0.32881408       0.55435637       1.97279132 </v>
   <v>      -0.13151080      -0.48401618       1.23820532 </v>
   <v>      -0.63893192       1.03345198      -1.88804431 </v>
   <v>      -0.18303242      -1.08500174       1.68860374 </v>
   <v>      -0.15321439       0.07976780       0.02829567 </v>
   <v>      -0.94265186       0.05375299      -1.83499616 </v>
   <v>      -0.01172155      -0.06048004      -0.00623372 </v>
   <v>      -0.12853959      -0.01042089      -1.43449642 </v>
   <v>       0.34076576      -0.16667664       1.22504161 </v>
   <v>       1.30985864      -0.33229313       1.48632012 </v>
   <v>       0.13748453      -0.29672365      -0.10333679 </v>
   <v>      -0.29923181       0.97964114      -1.35220485 </v>
   <v>       0.33021602      -0.29090666      -0.85718568 </v>
   <v>       0.53830981      -0.85571444       3.48379765 </v>
   <v>      -0.14029615       0.82426665      -2.05940699 </v>
   <v>      -0.96295936      -0.75940221       1.92816159 </v>
   <v>      -0.01330695       0.06925423      -0.05421268 </v>
   <v>       0.06642671      -0.04358776      -0.98559366 </v>
   <v>       0.10277274       0.06409774      -0.17984829 </v>
   <v>      -0.04892957      -0.36255543      -2.12916401 </v>
   <v>      -0.21051188      -0.16996591       0.82611222 </v>
   <v>       0.92505769       0.50224014       1.64976232 </v>
   <v>       0.13333379      -0.04074813      -0.04507027 </v>
   <v>       0.62287739      -1.49386355      -1.48084576 </v>
   <v>      -0.02929863       0.27734062      -3.94684180 </v>
   <v>      -0.13416155       0.02452985       1.41302984 </v>
   <v>       0.65472171       1.01976202      -0.39014150 </v>
   <v>      -0.46855656       0.06797364      -0.71417166 </v>
   <v>       0.32988091       1.42761622      -1.22957128 </v>
   <v>       0.21689467      -0.16898820       0.51056894 </v>
   <v>      -1.13519860       0.69175011      -2.23733598 </v>
   <v>      -0.10334332      -0.25780697       0.78136111 </v>
   <v>      -0.15209822      -0.01021088       0.06533805 </v>
   <v>      -0.97406930       0.95902310       0.86045220 </v>
   <v>       0.25025834      -0.10359753       0.11628124 </v>
   <v>       1.32644765      -0.51850469       0.65106070 </v>
   <v>       0.42289693      -0.76791177      -4.37639708 </v>
   <v>      -0.04809660      -0.12398788       0.13174516 </v>
   <v>       1.76191923       1.89169790       2.70458770 </v>
   <v>       0.41780228      -0.13959038      -0.35850503 </v>
   <v>       1.31266205       1.31719805      -1.04880420 </v>
   <v>       0.01764652      -0.05186282       0.35653824 </v>
   <v>      -1.25260600      -0.93423841      -2.13204338 </v>
   <v>      -0.14429822      -0.19378463       0.44878058 </v>
   <v>      -0.22435227      -0.41497676      -0.96611001 </v>
   <v>      -2.76906985      -0.11012792       1.45131413 </v>
   <v>       0.10825388      -0.13323879      -0.09783713 </v>
   <v>       0.42944566      -1.73308490      -0.83593700 </v>
   <v>       0.49615477      -0.77678253      -3.67059301 </v>
   <v>      -0.18239146       0.65455282       1.32320793 </v>
   <v>       0.45348334       1.01651254       2.03829040 </v>
   <v>      -0.31673926       0.36695165      -0.17784656 </v>
   <v>      -0.20331111       1.27367341      -2.24803124 </v>
   <v>       0.21823676       0.00092777       0.88252279 </v>
   <v>      -1.88038565       0.35778785      -1.18294903 </v>
   <v>       0.06593388      -0.09965121       0.81455067 </v>
   <v>      -0.08459094       0.22175808      -0.96057273 </v>
   <v>       0.41254519      -0.85293365       2.80564877 </v>
   <v>      -0.15811539       0.31865138      -1.08642175 </v>
   <v>      -0.17532081      -0.91066621       1.01622546 </v>
   <v>       1.24486282      -2.16292724      -3.15660548 </v>
   <v>      -0.09558786      -0.07260282       0.49744924 </v>
   <v>      -0.03983951       0.00446510       3.02515563 </v>
   <v>      -0.23826081       0.26171080      -0.69384906 </v>
   <v>       1.44871010       0.88645763      -2.18763748 </v>
   <v>       0.19462673      -0.03951455       0.43949266 </v>
   <v>      -1.71863213      -0.13528059      -0.11631487 </v>
   <v>      -0.06140463       0.01627413       0.11660241 </v>
   <v>       0.06663303      -0.07599585      -1.07288791 </v>
   <v>      -0.57244071       0.48442155       2.01649175 </v>
  </varray>
  <varray name="stress" >
   <v>      57.87823753       3.90715509       1.30827706 </v>
   <v>       3.90715516      57.38898952       1.00675954 </v>
   <v>       1.30827694       1.00675961      62.70371133 </v>
  </varray>
  <energy>
   <i name="e_fr_energy">   -472.56303262 </i>
   <i name="e_wo_entrp">   -471.91555077 </i>
   <i name="e_0_energy">     -1.29496370 </i>
  </energy>
  <time name="totalsc">  665.74  665.96</time>
  <eigenvalues>
   <array>
    <dimension dim="1">band</dimension>
    <dimension dim="2">kpoint</dimension>
    <dimension dim="3">spin</dimension>
    <field>eigene</field>
    <field>occ</field>
    <set>
     <set comment="spin 1">
      <set comment="kpoint 1">
       <r>  -63.1128    1.0000 </r>
       <r>  -63.1074    1.0000 </r>
       <r>  -63.0723    1.0000 </r>
       <r>  -63.0668    1.0000 </r>
       <r>  -63.0417    1.0000 </r>
       <r>  -63.0141    1.0000 </r>
       <r>  -63.0141    1.0000 </r>
       <r>  -63.0135    1.0000 </r>
       <r>  -62.9972    1.0000 </r>
       <r>  -62.9728    1.0000 </r>
       <r>  -62.9614    1.0000 </r>
       <r>  -62.9596    1.0000 </r>
       <r>  -62.9584    1.0000 </r>
       <r>  -62.9391    1.0000 </r>
       <r>  -62.9156    1.0000 </r>
       <r>  -62.9009    1.0000 </r>
       <r>  -62.8878    1.0000 </r>
       <r>  -62.8715    1.0000 </r>
       <r>  -62.8554    1.0000 </r>
       <r>  -62.8317    1.0000 </r>
       <r>  -62.8278    1.0000 </r>
       <r>  -62.8132    1.0000 </r>
       <r>  -62.7985    1.0000 </r>
       <r>  -62.7979    1.0000 </r>
       <r>  -62.7816    1.0000 </r>
       <r>  -62.7761    1.0000 </r>
       <r>  -62.7740    1.0000 </r>
       <r>  -62.7678    1.0000 </r>
       <r>  -62.7537    1.0000 </r>
       <r>  -62.7486    1.0000 </r>
       <r>  -62.7476    1.0000 </r>
       <r>  -62.7375    1.0000 </r>
       <r>  -62.7363    1.0000 </r>
       <r>  -62.7294    1.0000 </r>
       <r>  -62.7227    1.0000 </r>
       <r>  -62.7161    1.0000 </r>
       <r>  -62.7058    1.0000 </r>
       <r>  -62.6943    1.0000 </r>
       <r>  -62.6825    1.0000 </r>
       <r>  -62.6761    1.0000 </r>
       <r>  -62.6736    1.0000 </r>
       <r>  -62.6703    1.0000 </r>
       <r>  -62.6592    1.0000 </r>
       <r>  -62.6591    1.0000 </r>
       <r>  -62.6568    1.0000 </r>
       <r>  -62.6565    1.0000 </r>
       <r>  -62.6253    1.0000 </r>
       <r>  -62.6026    1.0000 </r>
       <r>  -62.5785    1.0000 </r>
       <r>  -62.5785    1.0000 </r>
       <r>  -62.5661    1.0000 </r>
       <r>  -62.5623    1.0000 </r>
       <r>  -62.5619    1.0000 </r>
       <r>  -62.5557    1.0000 </r>
       <r>  -62.5525    1.0000 </r>
       <r>  -62.5454    1.0000 </r>
       <r>  -62.5454    1.0000 </r>
       <r>  -62.5453    1.0000 </r>
       <r>  -62.5306    1.0000 </r>
       <r>  -62.5255    1.0000 </r>
       <r>  -62.5211    1.0000 </r>
       <r>  -62.5195    1.0000 </r>
       <r>  -62.5153    1.0000 </r>
       <r>  -62.5133    1.0000 </r>
       <r>  -62.4976    1.0000 </r>
       <r>  -62.4951    1.0000 </r>
       <r>  -62.4915    1.0000 </r>
       <r>  -62.4824    1.0000 </r>
       <r>  -62.4801    1.0000 </r>
       <r>  -62.4738    1.0000 </r>
       <r>  -62.4734    1.0000 </r>
       <r>  -62.4677    1.0000 </r>
       <r>  -62.4639    1.0000 </r>
       <r>  -62.4592    1.0000 </r>
       <r>  -62.4551    1.0000 </r>
       <r>  -62.4533    1.0000 </r>
       <r>  -62.4501    1.0000 </r>
       <r>  -62.4492    1.0000 </r>
       <r>  -62.4425    1.0000 </r>
       <r>  -62.4418    1.0000 </r>
       <r>  -62.4402    1.0000 </r>
       <r>  -62.4342    1.0000 </r>
       <r>  -62.4330    1.0000 </r>
       <r>  -62.4287    1.0000 </r>
       <r>  -62.4281    1.0000 </r>
       <r>  -62.4195    1.0000 </r>
       <r>  -62.4156    1.0000 </r>
       <r>  -62.4137    1.0000 </r>
       <r>  -62.4074    1.0000 </r>
       <r>  -62.4070    1.0000 </r>
       <r>  -62.3946    1.0000 </r>
       <r>  -62.3932    1.0000 </r>
       <r>  -62.3919    1.0000 </r>
       <r>  -62.3870    1.0000 </r>
       <r>  -62.3857    1.0000 </r>
       <r>  -62.3773    1.0000 </r>
       <r>  -62.3742    1.0000 </r>
       <r>  -62.3652    1.0000 </r>
       <r>  -62.3592    1.0000 </r>
       <r>  -62.3576    1.0000 </r>
       <r>  -62.3542    1.0000 </r>
       <r>  -62.3462    1.0000 </r>
       <r>  -62.3442    1.0000 </r>
       <r>  -62.3407    1.0000 </r>
       <r>  -62.3401    1.0000 </r>
       <r>  -62.3331    1.0000 </r>
       <r>  -62.3295    1.0000 </r>
       <r>  -62.3280    1.0000 </r>
       <r>  -62.3239    1.0000 </r>
       <r>  -62.3210    1.0000 </r>
       <r>  -62.3140    1.0000 </r>
       <r>  -62.3100    1.0000 </r>
       <r>  -62.3052    1.0000 </r>
       <r>  -62.2945    1.0000 </r>
       <r>  -62.2881    1.0000 </r>
       <r>  -62.2844    1.0000 </r>
       <r>  -62.2828    1.0000 </r>
       <r>  -62.2818    1.0000 </r>
       <r>  -62.2727    1.0000 </r>
       <r>  -62.2550    1.0000 </r>
       <r>  -62.2456    1.0000 </r>
       <r>  -62.2441    1.0000 </r>
       <r>  -62.2416    1.0000 </r>
       <r>  -62.2242    1.0000 </r>
       <r>  -62.2084    1.0000 </r>
       <r>  -62.1989    1.0000 </r>
       <r>  -62.1915    1.0000 </r>
       <r>  -62.1874    1.0000 </r>
       <r>  -62.1801    1.0000 </r>
       <r>  -62.1689    1.0000 </r>
       <r>  -62.1626    1.0000 </r>
       <r>  -62.1611    1.0000 </r>
       <r>  -62.1555    1.0000 </r>
       <r>  -62.1509    1.0000 </r>
       <r>  -62.1244    1.0000 </r>
       <r>  -62.0586    1.0000 </r>
       <r>  -61.9258    1.0000 </r>
       <r>  -61.9059    1.0000 </r>
       <r>  -61.9048    1.0000 </r>
       <r>  -61.8772    1.0000 </r>
       <r>  -61.8396    1.0000 </r>
       <r>  -61.8204    1.0000 </r>
       <r>  -61.7834    1.0000 </r>
       <r>  -61.7120    1.0000 </r>
       <r>  -14.4371    1.0000 </r>
       <r>  -14.2075    1.0000 </r>
       <r>  -13.7838    1.0000 </r>
       <r>  -13.7038    1.0000 </r>
       <r>  -13.6872    1.0000 </r>
       <r>  -13.5567    1.0000 </r>
       <r>  -13.4886    1.0000 </r>
       <r>  -13.4513    1.0000 </r>
       <r>  -13.3424    1.0000 </r>
       <r>  -13.3170    1.0000 </r>
       <r>  -13.2651    1.0000 </r>
       <r>  -13.2161    1.0000 </r>
       <r>  -13.1458    1.0000 </r>
       <r>  -13.0777    1.0000 </r>
       <r>  -13.0228    1.0000 </r>
       <r>  -12.7323    1.0000 </r>
       <r>  -12.7145    1.0000 </r>
       <r>  -12.6810    1.0000 </r>
       <r>  -12.6667    1.0000 </r>
       <r>  -12.6527    1.0000 </r>
       <r>  -12.6118    1.0000 </r>
       <r>  -12.5786    1.0000 </r>
       <r>  -12.5379    1.0000 </r>
       <r>  -12.5114    1.0000 </r>
       <r>  -12.4297    1.0000 </r>
       <r>  -12.4086    1.0000 </r>
       <r>  -12.3665    1.0000 </r>
       <r>  -12.3379    1.0000 </r>
       <r>  -12.2891    1.0000 </r>
       <r>  -12.2404    1.0000 </r>
       <r>  -12.1978    1.0000 </r>
       <r>  -12.1409    1.0000 </r>
       <r>  -12.1235    1.0000 </r>
       <r>  -12.0610    1.0000 </r>
       <r>  -11.9974    1.0000 </r>
       <r>  -11.9366    1.0000 </r>
       <r>  -11.8598    1.0000 </r>
       <r>  -11.8394    1.0000 </r>
       <r>  -11.8122    1.0000 </r>
       <r>  -11.7659    1.0000 </r>
       <r>  -11.7151    1.0000 </r>
       <r>  -11.6880    1.0000 </r>
       <r>  -11.6336    1.0000 </r>
       <r>  -11.5702    1.0000 </r>
       <r>  -11.4958    1.0000 </r>
       <r>  -11.4388    1.0000 </r>
       <r>  -11.3903    1.0000 </r>
       <r>  -11.2050    1.0000 </r>
       <r>   -6.3004    1.0000 </r>
       <r>   -6.2292    1.0000 </r>
       <r>   -6.1581    1.0000 </r>
       <r>   -6.1400    1.0000 </r>
       <r>   -6.1050    1.0000 </r>
       <r>   -5.9725    1.0000 </r>
       <r>   -5.9475    1.0000 </r>
       <r>   -5.9041    1.0000 </r>
       <r>   -5.7424    1.0000 </r>
       <r>   -5.6702    1.0000 </r>
       <r>   -5.5793    1.0000 </r>
       <r>   -5.5114    1.0000 </r>
       <r>   -5.5055    1.0000 </r>
       <r>   -5.4431    1.0000 </r>
       <r>   -5.4119    1.0000 </r>
       <r>   -5.3445    1.0000 </r>
       <r>   -5.3118    1.0000 </r>
       <r>   -5.2754    1.0000 </r>
       <r>   -5.2079    1.0000 </r>
       <r>   -5.1954    1.0000 </r>
       <r>   -5.1642    1.0000 </r>
       <r>   -5.1567    1.0000 </r>
       <r>   -5.1354    1.0000 </r>
       <r>   -5.0975    1.0000 </r>
       <r>   -5.0726    1.0000 </r>
       <r>   -5.0309    1.0000 </r>
       <r>   -5.0043    1.0000 </r>
       <r>   -4.9977    1.0000 </r>
       <r>   -4.9743    1.0000 </r>
       <r>   -4.9499    1.0000 </r>
       <r>   -4.8739    1.0000 </r>
       <r>   -4.8587    1.0000 </r>
       <r>   -4.8446    1.0000 </r>
       <r>   -4.7950    1.0000 </r>
       <r>   -4.7706    1.0000 </r>
       <r>   -4.7473    1.0000 </r>
       <r>   -4.6801    1.0000 </r>
       <r>   -4.6421    1.0000 </r>
       <r>   -4.5898    1.0000 </r>
       <r>   -4.5636    1.0000 </r>
       <r>   -4.5553    1.0000 </r>
       <r>   -4.5127    1.0000 </r>
       <r>   -4.4616    1.0000 </r>
       <r>   -4.4254    1.0000 </r>
       <r>   -4.3618    1.0000 </r>
       <r>   -4.3495    1.0000 </r>
       <r>   -4.3244    1.0000 </r>
       <r>   -4.2851    1.0000 </r>
       <r>   -4.2717    1.0000 </r>
       <r>   -4.2617    1.0000 </r>
       <r>   -4.2223    1.0000 </r>
       <r>   -4.1696    1.0000 </r>
       <r>   -4.1663    1.0000 </r>
       <r>   -4.1592    1.0000 </r>
       <r>   -4.1003    1.0000 </r>
       <r>   -4.0428    1.0000 </r>
       <r>   -4.0239    1.0000 </r>
       <r>   -3.9616    1.0000 </r>
       <r>   -3.9514    1.0000 </r>
       <r>   -3.9389    1.0000 </r>
       <r>   -3.8940    1.0000 </r>
       <r>   -3.8677    1.0000 </r>
       <r>   -3.8342    1.0000 </r>
       <r>   -3.8219    1.0000 </r>
       <r>   -3.7951    1.0000 </r>
       <r>   -3.7666    1.0000 </r>
       <r>   -3.7474    1.0000 </r>
       <r>   -3.6908    1.0000 </r>
       <r>   -3.6554    1.0000 </r>
       <r>   -3.6162    1.0000 </r>
       <r>   -3.5982    1.0000 </r>
       <r>   -3.5814    1.0000 </r>
       <r>   -3.5739    1.0000 </r>
       <r>   -3.5320    1.0000 </r>
       <r>   -3.5046    1.0000 </r>
       <r>   -3.4894    1.0000 </r>
       <r>   -3.4649    1.0000 </r>
       <r>   -3.4465    1.0000 </r>
       <r>   -3.4258    1.0000 </r>
       <r>   -3.3961    1.0000 </r>
       <r>   -3.3902    1.0000 </r>
       <r>   -3.3748    1.0000 </r>
       <r>   -3.3344    1.0000 </r>
       <r>   -3.3079    1.0000 </r>
       <r>   -3.2948    1.0000 </r>
       <r>   -3.2763    1.0000 </r>
       <r>   -3.2484    1.0000 </r>
       <r>   -3.2343    1.0000 </r>
       <r>   -3.2027    1.0000 </r>
       <r>   -3.1876    1.0000 </r>
       <r>   -3.1532    1.0000 </r>
       <r>   -3.1201    1.0000 </r>
       <r>   -3.1015    1.0000 </r>
       <r>   -3.0821    1.0000 </r>
       <r>   -3.0773    1.0000 </r>
       <r>   -3.0293    1.0000 </r>
       <r>   -3.0122    1.0000 </r>
       <r>   -2.9778    1.0000 </r>
       <r>   -2.9568    1.0000 </r>
       <r>   -2.9162    1.0000 </r>
       <r>   -2.9052    1.0000 </r>
       <r>   -2.8734    1.0000 </r>
       <r>   -2.8368    1.0000 </r>
       <r>   -2.8293    1.0000 </r>
       <r>   -2.8073    1.0000 </r>
       <r>   -2.7614    1.0000 </r>
       <r>   -2.7541    1.0000 </r>
       <r>   -2.7215    1.0000 </r>
       <r>   -2.7091    1.0000 </r>
       <r>   -2.6815    1.0000 </r>
       <r>   -2.6480    1.0000 </r>
       <r>   -2.6218    1.0000 </r>
       <r>   -2.5970    1.0000 </r>
       <r>   -2.5728    1.0000 </r>
       <r>   -2.5640    1.0000 </r>
       <r>   -2.5317    1.0000 </r>
       <r>   -2.5130    1.0000 </r>
       <r>   -2.4944    1.0000 </r>
       <r>   -2.4648    1.0000 </r>
       <r>   -2.4342    1.0000 </r>
       <r>   -2.4246    1.0000 </r>
       <r>   -2.4047    1.0000 </r>
       <r>   -2.3766    1.0000 </r>
       <r>   -2.3618    1.0000 </r>
       <r>   -2.3505    1.0000 </r>
       <r>   -2.3211    1.0000 </r>
       <r>   -2.2885    1.0000 </r>
       <r>   -2.2697    1.0000 </r>
       <r>   -2.2505    1.0000 </r>
       <r>   -2.2194    1.0000 </r>
       <r>   -2.1917    1.0000 </r>
       <r>   -2.0878    1.0000 </r>
       <r>   -2.0541    1.0000 </r>
       <r>   -2.0424    1.0000 </r>
       <r>   -1.9985    1.0000 </r>
       <r>   -1.9701    1.0000 </r>
       <r>   -1.9364    1.0000 </r>
       <r>   -1.8870    1.0000 </r>
       <r>   -1.7654    1.0000 </r>
       <r>   -1.7628    1.0000 </r>
       <r>   -1.7363    1.0000 </r>
       <r>   -1.7304    1.0000 </r>
       <r>   -1.6941    1.0000 </r>
       <r>   -1.6751    1.0000 </r>
       <r>   -1.6605    1.0000 </r>
       <r>   -1.6130    1.0000 </r>
       <r>   -1.6033    1.0000 </r>
       <r>   -1.5689    1.0000 </r>
       <r>   -1.5171    1.0000 </r>
       <r>   -1.5010    1.0000 </r>
       <r>   -1.4730    1.0000 </r>
       <r>   -1.4631    1.0000 </r>
       <r>   -1.4397    1.0000 </r>
       <r>   -1.4216    1.0000 </r>
       <r>   -1.4121    1.0000 </r>
       <r>   -1.4052    1.0000 </r>
       <r>   -1.3637    1.0000 </r>
       <r>   -1.3370    1.0000 </r>
       <r>   -1.3329    1.0000 </r>
       <r>   -1.2944    1.0000 </r>
       <r>   -1.2793    1.0000 </r>
       <r>   -1.2699    1.0000 </r>
       <r>   -1.2551    1.0000 </r>
       <r>   -1.2173    1.0000 </r>
       <r>   -1.2089    1.0000 </r>
       <r>   -1.1814    1.0000 </r>
       <r>   -1.1518    1.0000 </r>
       <r>   -1.1329    1.0000 </r>
       <r>   -1.1220    1.0000 </r>
       <r>   -1.1131    1.0000 </r>
       <r>   -1.0872    1.0000 </r>
       <r>   -1.0811    1.0000 </r>
       <r>   -1.0535    1.0000 </r>
       <r>   -1.0480    1.0000 </r>
       <r>   -1.0210    1.0000 </r>
       <r>   -1.0027    1.0000 </r>
       <r>   -0.9782    1.0000 </r>
       <r>   -0.9609    1.0000 </r>
       <r>   -0.9445    1.0000 </r>
       <r>   -0.9269    1.0000 </r>
       <r>   -0.9212    1.0000 </r>
       <r>   -0.9139    1.0000 </r>
       <r>   -0.9040    1.0000 </r>
       <r>   -0.8810    1.0000 </r>
       <r>   -0.8668    1.0000 </r>
       <r>   -0.8509    1.0000 </r>
       <r>   -0.8263    1.0000 </r>
       <r>   -0.8129    1.0000 </r>
       <r>   -0.8017    1.0000 </r>
       <r>   -0.7955    1.0000 </r>
       <r>   -0.7886    1.0000 </r>
       <r>   -0.7672    1.0000 </r>
       <r>   -0.7513    1.0000 </r>
       <r>   -0.7407    1.0000 </r>
       <r>   -0.7339    1.0000 </r>
       <r>   -0.7179    1.0000 </r>
       <r>   -0.7067    1.0000 </r>
       <r>   -0.6912    1.0000 </r>
       <r>   -0.6840    1.0000 </r>
       <r>   -0.6802    1.0000 </r>
       <r>   -0.6681    1.0000 </r>
       <r>   -0.6513    1.0000 </r>
       <r>   -0.6425    1.0000 </r>
       <r>   -0.6383    1.0000 </r>
       <r>   -0.6139    1.0000 </r>
       <r>   -0.5864    1.0000 </r>
       <r>   -0.5825    1.0000 </r>
       <r>   -0.5480    1.0000 </r>
       <r>   -0.5382    1.0000 </r>
       <r>   -0.5214    1.0000 </r>
       <r>   -0.5172    1.0000 </r>
       <r>   -0.4914    1.0000 </r>
       <r>   -0.4835    1.0000 </r>
       <r>   -0.4778    1.0000 </r>
       <r>   -0.4542    1.0000 </r>
       <r>   -0.4403    1.0000 </r>
       <r>   -0.4376    1.0000 </r>
       <r>   -0.4254    1.0000 </r>
       <r>   -0.4072    1.0000 </r>
       <r>   -0.4042    1.0000 </r>
       <r>   -0.3963    1.0000 </r>
       <r>   -0.3808    1.0000 </r>
       <r>   -0.3701    1.0000 </r>
       <r>   -0.3579    1.0000 </r>
       <r>   -0.3469    1.0000 </r>
       <r>   -0.3319    1.0000 </r>
       <r>   -0.3218    1.0000 </r>
       <r>   -0.3067    1.0000 </r>
       <r>   -0.3048    1.0000 </r>
       <r>   -0.3007    1.0000 </r>
       <r>   -0.2909    1.0000 </r>
       <r>   -0.2817    1.0000 </r>
       <r>   -0.2493    1.0000 </r>
       <r>   -0.2469    1.0000 </r>
       <r>   -0.2314    1.0000 </r>
       <r>   -0.2120    1.0000 </r>
       <r>   -0.2074    1.0000 </r>
       <r>   -0.1964    1.0000 </r>
       <r>   -0.1776    1.0000 </r>
       <r>   -0.1727    1.0000 </r>
       <r>   -0.1563    1.0000 </r>
       <r>   -0.1436    1.0000 </r>
       <r>   -0.1315    1.0000 </r>
       <r>   -0.1245    1.0000 </r>
       <r>   -0.1085    1.0000 </r>
       <r>   -0.0995    1.0000 </r>
       <r>   -0.0910    1.0000 </r>
       <r>   -0.0813    1.0000 </r>
       <r>   -0.0781    1.0000 </r>
       <r>   -0.0638    1.0000 </r>
       <r>   -0.0534    1.0000 </r>
       <r>   -0.0461    1.0000 </r>
       <r>   -0.0426    1.0000 </r>
       <r>   -0.0207    1.0000 </r>
       <r>   -0.0160    1.0000 </r>
       <r>   -0.0139    1.0000 </r>
       <r>    0.0013    1.0000 </r>
       <r>    0.0086    1.0000 </r>
       <r>    0.0258    1.0000 </r>
       <r>    0.0370    1.0000 </r>
       <r>    0.0511    1.0000 </r>
       <r>    0.0559    1.0000 </r>
       <r>    0.0583    1.0000 </r>
       <r>    0.0619    1.0000 </r>
       <r>    0.0728    1.0000 </r>
       <r>    0.0935    1.0000 </r>
       <r>    0.0963    1.0000 </r>
       <r>    0.1084    1.0000 </r>
       <r>    0.1299    1.0000 </r>
       <r>    0.1375    1.0000 </r>
       <r>    0.1395    1.0000 </r>
       <r>    0.1640    1.0000 </r>
       <r>    0.1855    1.0000 </r>
       <r>    0.1993    1.0000 </r>
       <r>    0.2147    1.0000 </r>
       <r>    0.2268    1.0000 </r>
       <r>    0.2436    1.0000 </r>
       <r>    0.2517    1.0000 </r>
       <r>    0.2546    1.0000 </r>
       <r>    0.2667    1.0000 </r>
       <r>    0.2925    1.0000 </r>
[...]
       <r>   -58.5962     0.0000   288.0000 </r>
       <r>   -58.3361     0.0000   288.0000 </r>
       <r>   -58.0759     0.0000   288.0000 </r>
       <r>   -57.8158     0.0000   288.0000 </r>
       <r>   -57.5557     0.0000   288.0000 </r>
       <r>   -57.2956     0.0000   288.0000 </r>
       <r>   -57.0354     0.0000   288.0000 </r>
       <r>   -56.7753     0.0000   288.0000 </r>
       <r>   -56.5152     0.0000   288.0000 </r>
       <r>   -56.2551     0.0000   288.0000 </r>
       <r>   -55.9950     0.0000   288.0000 </r>
       <r>   -55.7348     0.0000   288.0000 </r>
       <r>   -55.4747     0.0000   288.0000 </r>
       <r>   -55.2146     0.0000   288.0000 </r>
       <r>   -54.9545     0.0000   288.0000 </r>
       <r>   -54.6944     0.0000   288.0000 </r>
       <r>   -54.4342     0.0000   288.0000 </r>
       <r>   -54.1741     0.0000   288.0000 </r>
       <r>   -53.9140     0.0000   288.0000 </r>
       <r>   -53.6539     0.0000   288.0000 </r>
       <r>   -53.3938     0.0000   288.0000 </r>
       <r>   -53.1336     0.0000   288.0000 </r>
       <r>   -52.8735     0.0000   288.0000 </r>
       <r>   -52.6134     0.0000   288.0000 </r>
       <r>   -52.3533     0.0000   288.0000 </r>
       <r>   -52.0932     0.0000   288.0000 </r>
       <r>   -51.8330     0.0000   288.0000 </r>
       <r>   -51.5729     0.0000   288.0000 </r>
       <r>   -51.3128     0.0000   288.0000 </r>
       <r>   -51.0527     0.0000   288.0000 </r>
       <r>   -50.7926     0.0000   288.0000 </r>
       <r>   -50.5324     0.0000   288.0000 </r>
       <r>   -50.2723     0.0000   288.0000 </r>
       <r>   -50.0122     0.0000   288.0000 </r>
       <r>   -49.7521     0.0000   288.0000 </r>
       <r>   -49.4920     0.0000   288.0000 </r>
       <r>   -49.2318     0.0000   288.0000 </r>
       <r>   -48.9717     0.0000   288.0000 </r>
       <r>   -48.7116     0.0000   288.0000 </r>
       <r>   -48.4515     0.0000   288.0000 </r>
       <r>   -48.1913     0.0000   288.0000 </r>
       <r>   -47.9312     0.0000   288.0000 </r>
       <r>   -47.6711     0.0000   288.0000 </r>
       <r>   -47.4110     0.0000   288.0000 </r>
       <r>   -47.1509     0.0000   288.0000 </r>
       <r>   -46.8907     0.0000   288.0000 </r>
       <r>   -46.6306     0.0000   288.0000 </r>
       <r>   -46.3705     0.0000   288.0000 </r>
       <r>   -46.1104     0.0000   288.0000 </r>
       <r>   -45.8503     0.0000   288.0000 </r>
       <r>   -45.5901     0.0000   288.0000 </r>
       <r>   -45.3300     0.0000   288.0000 </r>
       <r>   -45.0699     0.0000   288.0000 </r>
       <r>   -44.8098     0.0000   288.0000 </r>
       <r>   -44.5497     0.0000   288.0000 </r>
       <r>   -44.2895     0.0000   288.0000 </r>
       <r>   -44.0294     0.0000   288.0000 </r>
       <r>   -43.7693     0.0000   288.0000 </r>
       <r>   -43.5092     0.0000   288.0000 </r>
       <r>   -43.2491     0.0000   288.0000 </r>
       <r>   -42.9889     0.0000   288.0000 </r>
       <r>   -42.7288     0.0000   288.0000 </r>
       <r>   -42.4687     0.0000   288.0000 </r>
       <r>   -42.2086     0.0000   288.0000 </r>
       <r>   -41.9485     0.0000   288.0000 </r>
       <r>   -41.6883     0.0000   288.0000 </r>
       <r>   -41.4282     0.0000   288.0000 </r>
       <r>   -41.1681     0.0000   288.0000 </r>
       <r>   -40.9080     0.0000   288.0000 </r>
       <r>   -40.6478     0.0000   288.0000 </r>
       <r>   -40.3877     0.0000   288.0000 </r>
       <r>   -40.1276     0.0000   288.0000 </r>
       <r>   -39.8675     0.0000   288.0000 </r>
       <r>   -39.6074     0.0000   288.0000 </r>
       <r>   -39.3472     0.0000   288.0000 </r>
       <r>   -39.0871     0.0000   288.0000 </r>
       <r>   -38.8270     0.0000   288.0000 </r>
       <r>   -38.5669     0.0000   288.0000 </r>
       <r>   -38.3068     0.0000   288.0000 </r>
       <r>   -38.0466     0.0000   288.0000 </r>
       <r>   -37.7865     0.0000   288.0000 </r>
       <r>   -37.5264     0.0000   288.0000 </r>
       <r>   -37.2663     0.0000   288.0000 </r>
       <r>   -37.0062     0.0000   288.0000 </r>
       <r>   -36.7460     0.0000   288.0000 </r>
       <r>   -36.4859     0.0000   288.0000 </r>
       <r>   -36.2258     0.0000   288.0000 </r>
       <r>   -35.9657     0.0000   288.0000 </r>
       <r>   -35.7056     0.0000   288.0000 </r>
       <r>   -35.4454     0.0000   288.0000 </r>
       <r>   -35.1853     0.0000   288.0000 </r>
       <r>   -34.9252     0.0000   288.0000 </r>
       <r>   -34.6651     0.0000   288.0000 </r>
       <r>   -34.4050     0.0000   288.0000 </r>
       <r>   -34.1448     0.0000   288.0000 </r>
       <r>   -33.8847     0.0000   288.0000 </r>
       <r>   -33.6246     0.0000   288.0000 </r>
       <r>   -33.3645     0.0000   288.0000 </r>
       <r>   -33.1044     0.0000   288.0000 </r>
       <r>   -32.8442     0.0000   288.0000 </r>
       <r>   -32.5841     0.0000   288.0000 </r>
       <r>   -32.3240     0.0000   288.0000 </r>
       <r>   -32.0639     0.0000   288.0000 </r>
       <r>   -31.8037     0.0000   288.0000 </r>
       <r>   -31.5436     0.0000   288.0000 </r>
       <r>   -31.2835     0.0000   288.0000 </r>
       <r>   -31.0234     0.0000   288.0000 </r>
       <r>   -30.7633     0.0000   288.0000 </r>
       <r>   -30.5031     0.0000   288.0000 </r>
       <r>   -30.2430     0.0000   288.0000 </r>
       <r>   -29.9829     0.0000   288.0000 </r>
       <r>   -29.7228     0.0000   288.0000 </r>
       <r>   -29.4627     0.0000   288.0000 </r>
       <r>   -29.2025     0.0000   288.0000 </r>
       <r>   -28.9424     0.0000   288.0000 </r>
       <r>   -28.6823     0.0000   288.0000 </r>
       <r>   -28.4222     0.0000   288.0000 </r>
       <r>   -28.1621     0.0000   288.0000 </r>
       <r>   -27.9019     0.0000   288.0000 </r>
       <r>   -27.6418     0.0000   288.0000 </r>
       <r>   -27.3817     0.0000   288.0000 </r>
       <r>   -27.1216     0.0000   288.0000 </r>
       <r>   -26.8615     0.0000   288.0000 </r>
       <r>   -26.6013     0.0000   288.0000 </r>
       <r>   -26.3412     0.0000   288.0000 </r>
       <r>   -26.0811     0.0000   288.0000 </r>
       <r>   -25.8210     0.0000   288.0000 </r>
       <r>   -25.5609     0.0000   288.0000 </r>
       <r>   -25.3007     0.0000   288.0000 </r>
       <r>   -25.0406     0.0000   288.0000 </r>
       <r>   -24.7805     0.0000   288.0000 </r>
       <r>   -24.5204     0.0000   288.0000 </r>
       <r>   -24.2603     0.0000   288.0000 </r>
       <r>   -24.0001     0.0000   288.0000 </r>
       <r>   -23.7400     0.0000   288.0000 </r>
       <r>   -23.4799     0.0000   288.0000 </r>
       <r>   -23.2198     0.0000   288.0000 </r>
       <r>   -22.9596     0.0000   288.0000 </r>
       <r>   -22.6995     0.0000   288.0000 </r>
       <r>   -22.4394     0.0000   288.0000 </r>
       <r>   -22.1793     0.0000   288.0000 </r>
       <r>   -21.9192     0.0000   288.0000 </r>
       <r>   -21.6590     0.0000   288.0000 </r>
       <r>   -21.3989     0.0000   288.0000 </r>
       <r>   -21.1388     0.0000   288.0000 </r>
       <r>   -20.8787     0.0000   288.0000 </r>
       <r>   -20.6186     0.0000   288.0000 </r>
       <r>   -20.3584     0.0000   288.0000 </r>
       <r>   -20.0983     0.0000   288.0000 </r>
       <r>   -19.8382     0.0000   288.0000 </r>
       <r>   -19.5781     0.0000   288.0000 </r>
       <r>   -19.3180     0.0000   288.0000 </r>
       <r>   -19.0578     0.0000   288.0000 </r>
       <r>   -18.7977     0.0000   288.0000 </r>
       <r>   -18.5376     0.0000   288.0000 </r>
       <r>   -18.2775     0.0000   288.0000 </r>
       <r>   -18.0174     0.0000   288.0000 </r>
       <r>   -17.7572     0.0000   288.0000 </r>
       <r>   -17.4971     0.0000   288.0000 </r>
       <r>   -17.2370     0.0000   288.0000 </r>
       <r>   -16.9769     0.0000   288.0000 </r>
       <r>   -16.7168     0.0000   288.0000 </r>
       <r>   -16.4566     0.0000   288.0000 </r>
       <r>   -16.1965     0.0000   288.0000 </r>
       <r>   -15.9364     0.0000   288.0000 </r>
       <r>   -15.6763     0.0000   288.0000 </r>
       <r>   -15.4162     0.0000   288.0000 </r>
       <r>   -15.1560     0.0000   288.0000 </r>
       <r>   -14.8959     0.0045   288.0012 </r>
       <r>   -14.6358     0.6202   288.1625 </r>
       <r>   -14.3757     5.4127   289.5705 </r>
       <r>   -14.1155     7.3665   291.4866 </r>
       <r>   -13.8554     6.4595   293.1669 </r>
       <r>   -13.5953    20.7123   298.5546 </r>
       <r>   -13.3352    30.1784   306.4046 </r>
       <r>   -13.0751    31.0975   314.4937 </r>
       <r>   -12.8149    21.3056   320.0358 </r>
       <r>   -12.5548    43.8434   331.4403 </r>
       <r>   -12.2947    49.7094   344.3708 </r>
       <r>   -12.0346    42.8502   355.5170 </r>
       <r>   -11.7745    41.4146   366.2898 </r>
       <r>   -11.5143    38.4093   376.2808 </r>
       <r>   -11.2542    22.2794   382.0761 </r>
       <r>   -10.9941     6.8462   383.8570 </r>
       <r>   -10.7340     0.5464   383.9991 </r>
       <r>   -10.4739     0.0033   384.0000 </r>
       <r>   -10.2137     0.0000   384.0000 </r>
       <r>    -9.9536     0.0000   384.0000 </r>
       <r>    -9.6935     0.0000   384.0000 </r>
       <r>    -9.4334     0.0000   384.0000 </r>
       <r>    -9.1733     0.0000   384.0000 </r>
       <r>    -8.9131     0.0000   384.0000 </r>
       <r>    -8.6530     0.0000   384.0000 </r>
       <r>    -8.3929     0.0000   384.0000 </r>
       <r>    -8.1328     0.0000   384.0000 </r>
       <r>    -7.8727     0.0000   384.0000 </r>
       <r>    -7.6125     0.0000   384.0000 </r>
       <r>    -7.3524     0.0000   384.0000 </r>
       <r>    -7.0923     0.0000   384.0000 </r>
       <r>    -6.8322     0.0007   384.0002 </r>
       <r>    -6.5720     0.2942   384.0767 </r>
       <r>    -6.3119     8.0385   386.1677 </r>
       <r>    -6.0518    27.7568   393.3878 </r>
       <r>    -5.7917    27.0122   400.4142 </r>
       <r>    -5.5316    28.7780   407.9000 </r>
       <r>    -5.2714    46.3953   419.9683 </r>
       <r>    -5.0113    65.3288   436.9617 </r>
       <r>    -4.7512    62.7540   453.2853 </r>
       <r>    -4.4911    55.1248   467.6244 </r>
       <r>    -4.2310    62.1724   483.7968 </r>
       <r>    -3.9708    64.3440   500.5339 </r>
       <r>    -3.7107    68.3311   518.3083 </r>
       <r>    -3.4506    79.3286   538.9433 </r>
       <r>    -3.1905    87.6355   561.7391 </r>
       <r>    -2.9304    80.8942   582.7813 </r>
       <r>    -2.6702    80.3620   603.6851 </r>
       <r>    -2.4101    85.9744   626.0488 </r>
       <r>    -2.1500    72.2854   644.8517 </r>
       <r>    -1.8899    51.6414   658.2847 </r>
       <r>    -1.6298    62.3370   674.4999 </r>
       <r>    -1.3696    86.0084   696.8724 </r>
       <r>    -1.1095   102.8077   723.6148 </r>
       <r>    -0.8494   125.5974   756.2853 </r>
       <r>    -0.5893   148.2794   794.8558 </r>
       <r>    -0.3292   159.6969   836.3962 </r>
       <r>    -0.0690   178.8831   882.9274 </r>
       <r>     0.1911   176.0455   928.7205 </r>
       <r>     0.4512   137.3187   964.4399 </r>
       <r>     0.7113   102.5788   991.1228 </r>
       <r>     0.9714    79.1112  1011.7013 </r>
       <r>     1.2316    72.5627  1030.5763 </r>
       <r>     1.4917    67.3230  1048.0884 </r>
       <r>     1.7518    63.3233  1064.5601 </r>
       <r>     2.0119    53.4496  1078.4635 </r>
       <r>     2.2721    69.7341  1096.6027 </r>
       <r>     2.5322    73.9758  1115.8454 </r>
       <r>     2.7923    60.0381  1131.4625 </r>
       <r>     3.0524    46.7009  1143.6103 </r>
       <r>     3.3125    25.6606  1150.2852 </r>
       <r>     3.5727     6.4667  1151.9673 </r>
       <r>     3.8328     2.6063  1152.6453 </r>
       <r>     4.0929     4.5801  1153.8367 </r>
       <r>     4.3530     1.9454  1154.3427 </r>
       <r>     4.6131     9.1605  1156.7255 </r>
       <r>     4.8733    15.4711  1160.7499 </r>
       <r>     5.1334    14.5069  1164.5234 </r>
       <r>     5.3935    18.2634  1169.2741 </r>
       <r>     5.6536    21.7030  1174.9195 </r>
       <r>     5.9137    28.0263  1182.2097 </r>
       <r>     6.1739    31.2907  1190.3491 </r>
       <r>     6.4340    34.7753  1199.3949 </r>
       <r>     6.6941    35.6351  1208.6643 </r>
       <r>     6.9542    45.3096  1220.4502 </r>
       <r>     7.2143    51.6285  1233.8799 </r>
       <r>     7.4745    54.2238  1247.9846 </r>
       <r>     7.7346    51.8793  1261.4795 </r>
       <r>     7.9947    23.0728  1267.4812 </r>
       <r>     8.2548     1.9798  1267.9962 </r>
       <r>     8.5149     0.0146  1268.0000 </r>
       <r>     8.7751     0.0000  1268.0000 </r>
       <r>     9.0352     0.0000  1268.0000 </r>
       <r>     9.2953     0.0000  1268.0000 </r>
       <r>     9.5554     0.0000  1268.0000 </r>
       <r>     9.8155     0.0000  1268.0000 </r>
       <r>    10.0757     0.0000  1268.0000 </r>
       <r>    10.3358     0.0000  1268.0000 </r>
       <r>    10.5959     0.0000  1268.0000 </r>
       <r>    10.8560     0.0000  1268.0000 </r>
       <r>    11.1162     0.0000  1268.0000 </r>
       <r>    11.3763     0.0000  1268.0000 </r>
      </set>
     </set>
    </array>
   </total>
  </dos>
 </calculation>
 <structure name="finalpos" >
  <crystal>
   <varray name="basis" >
    <v>      11.25646304       0.00000000       0.00000000 </v>
    <v>       5.04456212      10.06282034       0.00000000 </v>
    <v>       0.00000000       0.00000000      22.51995597 </v>
   </varray>
   <i name="volume">   2550.87516496 </i>
   <varray name="rec_basis" >
    <v>       0.08883785      -0.04453504       0.00000000 </v>
    <v>       0.00000000       0.09937572       0.00000000 </v>
    <v>       0.00000000       0.00000000       0.04440506 </v>
   </varray>
  </crystal>
  <varray name="positions" >
   <v>       0.26092069       0.47878037       0.29519774 </v>
   <v>       0.35488056       0.38482050       0.42557357 </v>
   <v>       0.54905128       0.19276775       0.48646121 </v>
   <v>       0.16696082       0.07274025       0.16482191 </v>
   <v>       0.02837454       0.05474374       0.49412193 </v>
   <v>       0.27423906       0.33335901       0.13037583 </v>
   <v>       0.36819893       0.23939914       0.26075166 </v>
   <v>       0.46215879       0.14543927       0.39112749 </v>
   <v>       0.00030194       0.37150214       0.26075166 </v>
   <v>       0.09426180       0.27754227       0.39112749 </v>
   <v>       0.18754473       0.19542612       0.50145240 </v>
   <v>       0.40634206       0.46546200       0.13037583 </v>
   <v>       0.76092069       0.47878037       0.29519774 </v>
   <v>       0.85488056       0.38482050       0.42557357 </v>
   <v>       0.94465734       0.28102628       0.52876494 </v>
   <v>       0.52293170       0.21094581       0.09071202 </v>
   <v>       0.66696082       0.07274025       0.16482191 </v>
   <v>       0.48097103       0.00011017       0.46843922 </v>
   <v>       0.77423906       0.33335901       0.13037583 </v>
   <v>       0.86819893       0.23939914       0.26075166 </v>
   <v>       0.96215879       0.14543927       0.39112749 </v>
   <v>       0.50030194       0.37150214       0.26075166 </v>
   <v>       0.59426180       0.27754227       0.39112749 </v>
   <v>       0.90634206       0.46546200       0.13037583 </v>
   <v>       0.26092069       0.97878037       0.29519774 </v>
   <v>       0.35488056       0.88482051       0.42557357 </v>
   <v>       0.16696083       0.57274025       0.16482191 </v>
   <v>       0.03029097       0.55867143       0.49628005 </v>
   <v>       0.20487931       0.03459449       0.05906107 </v>
   <v>       0.27423906       0.83335901       0.13037583 </v>
   <v>       0.36819893       0.73939914       0.26075166 </v>
   <v>       0.46215879       0.64543927       0.39112749 </v>
   <v>       0.00030194       0.87150214       0.26075166 </v>
   <v>       0.09426180       0.77754227       0.39112749 </v>
   <v>       0.17732364       0.71194728       0.49535252 </v>
   <v>       0.40634206       0.96546200       0.13037583 </v>
   <v>       0.76092069       0.97878037       0.29519774 </v>
   <v>       0.85488056       0.88482051       0.42557357 </v>
   <v>       0.53259528       0.70650629       0.09136672 </v>
   <v>       0.66696083       0.57274025       0.16482191 </v>
   <v>       0.72993988       0.01805823       0.05473288 </v>
   <v>       0.77423906       0.83335901       0.13037583 </v>
   <v>       0.86819893       0.73939914       0.26075166 </v>
   <v>       0.96215879       0.64543927       0.39112749 </v>
   <v>       0.50030194       0.87150214       0.26075166 </v>
   <v>       0.59426180       0.77754227       0.39112749 </v>
   <v>       0.74522513       0.64314757       0.46951097 </v>
   <v>       0.90634206       0.96546200       0.13037583 </v>
   <v>       0.07287763       0.16682345       0.31134757 </v>
   <v>       0.16683750       0.07286358       0.44172340 </v>
   <v>       0.36432208       0.37568095       0.05985472 </v>
   <v>       0.47891775       0.26078331       0.18097174 </v>
   <v>       0.03023342       0.37768265       0.48558574 </v>
   <v>       0.43627354       0.47164252       0.35520991 </v>
   <v>       0.25733441       0.15831689       0.10740773 </v>
   <v>       0.34231367       0.06560240       0.22483408 </v>
   <v>       0.08180703       0.47990415       0.11297782 </v>
   <v>       0.17409868       0.39738739       0.22483408 </v>
   <v>       0.26805854       0.30342752       0.35520991 </v>
   <v>       0.36201841       0.20946766       0.48558574 </v>
   <v>       0.57287763       0.16682345       0.31134757 </v>
   <v>       0.64579107       0.02530149       0.43594722 </v>
   <v>       0.85719753       0.38275111       0.06303690 </v>
   <v>       0.97891775       0.26078331       0.18097174 </v>
   <v>       0.51760045       0.38065771       0.46864061 </v>
   <v>       0.93627354       0.47164252       0.35520991 </v>
   <v>       0.73792594       0.16884228       0.10411853 </v>
   <v>       0.84231367       0.06560240       0.22483408 </v>
   <v>       0.57614713       0.49936088       0.10532503 </v>
   <v>       0.67409868       0.39738739       0.22483408 </v>
   <v>       0.76805854       0.30342752       0.35520991 </v>
   <v>       0.85164137       0.21693585       0.46959162 </v>
   <v>       0.07287763       0.66682345       0.31134757 </v>
   <v>       0.16683750       0.57286358       0.44172340 </v>
   <v>       0.37513415       0.86399822       0.05675340 </v>
   <v>       0.47891775       0.76078331       0.18097174 </v>
   <v>       0.01695542       0.88293713       0.47214042 </v>
   <v>       0.43627354       0.97164252       0.35520991 </v>
   <v>       0.25959353       0.65665125       0.11195856 </v>
   <v>       0.34231367       0.56560240       0.22483408 </v>
   <v>       0.08143996       0.98249532       0.10772323 </v>
   <v>       0.17409868       0.89738739       0.22483408 </v>
   <v>       0.26805854       0.80342752       0.35520991 </v>
   <v>       0.34383409       0.72207161       0.46623799 </v>
   <v>       0.57287763       0.66682345       0.31134757 </v>
   <v>       0.66239619       0.55373276       0.41783506 </v>
   <v>       0.89469947       0.84458914       0.06452083 </v>
   <v>       0.97891775       0.76078331       0.18097174 </v>
   <v>       0.54376523       0.79962894       0.47913483 </v>
   <v>       0.93627354       0.97164252       0.35520991 </v>
   <v>       0.74099442       0.66405795       0.10601017 </v>
   <v>       0.84231367       0.56560240       0.22483408 </v>
   <v>       0.58013881       0.99134726       0.09445824 </v>
   <v>       0.67409868       0.89738739       0.22483408 </v>
   <v>       0.76805854       0.80342752       0.35520991 </v>
   <v>       0.86816017       0.72895177       0.47704252 </v>
  </varray>
 </structure>
</modeling>
