 vasp.5.4.4.18Apr17-6-g9f103f2a35 (build Aug 13 2019 17:33:20) gamma-only       
  
 executed on             LinuxIFC date 2020.05.12  16:28:17
 running on   12 total cores
 distrk:  each k-point on   12 cores,    1 groups
 distr:  one band on NCORES_PER_BAND=   6 cores,    2 groups


--------------------------------------------------------------------------------------------------------


 INCAR:
 POTCAR:    PAW_PBE Ni_pv 06Sep2000               
 POTCAR:    PAW_PBE S 06Sep2000                   
 POTCAR:    PAW_PBE Ni_pv 06Sep2000               
   VRHFIN =Ni:                                                                  
   LEXCH  = PE                                                                  
   EATOM  =  3501.1230 eV,  257.3253 Ry                                         
                                                                                
   TITEL  = PAW_PBE Ni_pv 06Sep2000                                             
   LULTRA =        F    use ultrasoft PP ?                                      
   IUNSCR =        1    unscreen: 0-lin 1-nonlin 2-no                           
   RPACOR =    1.500    partial core radius                                     
   POMASS =   58.690; ZVAL   =   16.000    mass and valenz                      
   RCORE  =    2.000    outmost cutoff radius                                   
   RWIGS  =    2.000; RWIGS  =    1.058    wigner-seitz radius (au A)           
   ENMAX  =  367.986; ENMIN  =  275.989 eV                                      
   RCLOC  =    1.301    cutoff for local pot                                    
   LCOR   =        T    correct aug charges                                     
   LPAW   =        T    paw PP                                                  
   EAUG   =  703.443                                                            
   DEXC   =    0.000                                                            
   RMAX   =    2.041    core radius for proj-oper                               
   RAUG   =    1.300    factor for augmentation sphere                          
   RDEP   =    2.103    radius for radial grids                                 
   RDEPT  =    1.618    core radius for aug-charge                              
                                                                                
   Atomic configuration                                                         
    8 entries                                                                   
     n  l   j            E        occ.                                          
     1  0  0.50     -8206.4253   2.0000                                         
     2  0  0.50      -976.1748   2.0000                                         
     2  1  1.50      -839.0571   6.0000                                         
     3  0  0.50      -105.9991   2.0000                                         
     3  1  1.50       -66.4603   6.0000                                         
     3  2  2.50        -4.6458   9.0000                                         
     4  0  0.50        -4.4926   1.0000                                         
     4  3  2.50        -1.3606   0.0000                                         
   Description                                                                  
     l       E           TYP  RCUT    TYP  RCUT                                 
     1    -66.4602962     23  1.700                                             
     1     -1.3605826     23  1.700                                             
     2     -4.6457867     23  2.000                                             
     2     -6.0063693     23  2.000                                             
     0     -4.4925576     23  1.900                                             
     0     16.3626226     23  1.900                                             
  local pseudopotential read in
  partial core-charges read in
  partial kinetic energy density read in
  atomic valenz-charges read in
  non local Contribution for L=           1  read in
    real space projection operators read in
  non local Contribution for L=           1  read in
    real space projection operators read in
  non local Contribution for L=           2  read in
    real space projection operators read in
  non local Contribution for L=           2  read in
    real space projection operators read in
  non local Contribution for L=           0  read in
    real space projection operators read in
  non local Contribution for L=           0  read in
    real space projection operators read in
    PAW grid and wavefunctions read in
 
   number of l-projection  operators is LMAX  =           6
   number of lm-projection operators is LMMAX =          18
 
 POTCAR:    PAW_PBE S 06Sep2000                   
   VRHFIN =S : s2p4                                                             
   LEXCH  = PE                                                                  
   EATOM  =   276.8230 eV,   20.3459 Ry                                         
                                                                                
   TITEL  = PAW_PBE S 06Sep2000                                                 
   LULTRA =        F    use ultrasoft PP ?                                      
   IUNSCR =        1    unscreen: 0-lin 1-nonlin 2-no                           
   RPACOR =    1.500    partial core radius                                     
   POMASS =   32.066; ZVAL   =    6.000    mass and valenz                      
   RCORE  =    1.900    outmost cutoff radius                                   
   RWIGS  =    2.200; RWIGS  =    1.164    wigner-seitz radius (au A)           
   ENMAX  =  258.689; ENMIN  =  194.016 eV                                      
   ICORE  =        2    local potential                                         
   LCOR   =        T    correct aug charges                                     
   LPAW   =        T    paw PP                                                  
   EAUG   =  335.092                                                            
   DEXC   =    0.000                                                            
   RMAX   =    1.942    core radius for proj-oper                               
   RAUG   =    1.300    factor for augmentation sphere                          
   RDEP   =    1.954    radius for radial grids                                 
   RDEPT  =    1.744    core radius for aug-charge                              
                                                                                
   Atomic configuration                                                         
    6 entries                                                                   
     n  l   j            E        occ.                                          
     1  0  0.50     -2405.8406   2.0000                                         
     2  0  0.50      -211.7007   2.0000                                         
     2  1  1.50      -156.4958   6.0000                                         
     3  0  0.50       -17.2562   2.0000                                         
     3  1  0.50        -7.0085   4.0000                                         
     3  2  1.50        -6.8029   0.0000                                         
   Description                                                                  
     l       E           TYP  RCUT    TYP  RCUT                                 
     0    -17.2561641     23  1.900                                             
     0    -15.8743224     23  1.900                                             
     1     -7.0085400     23  1.900                                             
     1     -2.7779785     23  1.900                                             
     2     -6.8029130     23  1.900                                             
  local pseudopotential read in
  partial core-charges read in
  partial kinetic energy density read in
  atomic valenz-charges read in
  non local Contribution for L=           0  read in
    real space projection operators read in
  non local Contribution for L=           0  read in
    real space projection operators read in
  non local Contribution for L=           1  read in
    real space projection operators read in
  non local Contribution for L=           1  read in
    real space projection operators read in
    PAW grid and wavefunctions read in
 
   number of l-projection  operators is LMAX  =           4
   number of lm-projection operators is LMMAX =           8
 
 Optimization of the real space projectors (new method)

 maximal supplied QI-value         = 18.90
 optimisation between [QCUT,QGAM] = [ 10.77, 21.73] = [ 32.49,132.25] Ry 
 Optimized for a Real-space Cutoff    1.38 Angstroem

   l    n(q)    QCUT    max X(q) W(low)/X(q) W(high)/X(q)  e(spline) 
   1      8    10.771     2.836    0.40E-04    0.29E-04    0.12E-06
   1      8    10.771     4.023    0.10E-03    0.48E-04    0.29E-06
   2      8    10.771    73.368    0.42E-03    0.97E-04    0.44E-06
   2      8    10.771    69.010    0.42E-03    0.99E-04    0.45E-06
   0      9    10.771    54.797    0.10E-03    0.56E-04    0.74E-07
   0      9    10.771    24.266    0.89E-04    0.49E-04    0.67E-07
 Optimization of the real space projectors (new method)

 maximal supplied QI-value         = 19.84
 optimisation between [QCUT,QGAM] = [ 10.71, 21.63] = [ 32.15,130.99] Ry 
 Optimized for a Real-space Cutoff    1.19 Angstroem

   l    n(q)    QCUT    max X(q) W(low)/X(q) W(high)/X(q)  e(spline) 
   0      8    10.715   187.594    0.41E-03    0.53E-04    0.66E-07
   0      8    10.715   164.243    0.41E-03    0.53E-04    0.65E-07
   1      7    10.715    67.533    0.19E-03    0.59E-03    0.68E-07
   1      7    10.715    50.729    0.19E-03    0.58E-03    0.67E-07
  PAW_PBE Ni_pv 06Sep2000               :
 energy of atom  1       EATOM=-3501.1230
 kinetic energy error for atom=    0.0925 (will be added to EATOM!!)
  PAW_PBE S 06Sep2000                   :
 energy of atom  2       EATOM= -276.8230
 kinetic energy error for atom=    0.0033 (will be added to EATOM!!)
 
 
 POSCAR: Type_036 Type_136                       
  positions in cartesian coordinates
  No initial velocities read in
 exchange correlation table for  LEXCH =        8
   RHO(1)=    0.500       N(1)  =     2000
   RHO(2)=  100.500       N(2)  =     4000
 


--------------------------------------------------------------------------------------------------------


 ion  position               nearest neighbor table
   1  0.341  0.768  0.162-  41 1.96  51 2.02  42 2.16  50 2.21   2 2.37  26 2.42  62 2.56
   2  0.525  0.601  0.223-  42 2.25  51 2.26  62 2.26  63 2.36  52 2.36   1 2.37  15 2.53  27 2.53

   3  0.675  0.451  0.351-  43 2.25  63 2.26  52 2.26  64 2.36  53 2.36   4 2.47  28 2.53  16 2.53

   4  0.739  0.353  0.462-  65 2.05  64 2.08  53 2.08  44 2.09   3 2.47
   5  0.598  0.246  0.103-  54 2.06  47 2.08  46 2.12  34 2.38  14 2.47  62 2.58
   6  0.785  0.015  0.151-  45 2.08  55 2.08  68 2.11  47 2.45  29 2.47
   7  0.058  0.734  0.394-  57 2.07  67 2.20  66 2.26  56 2.26  18 2.53  31 2.53  49 2.54
   8  0.908  0.884  0.266-  48 2.25  55 2.26  68 2.26  56 2.36  66 2.36  30 2.53  17 2.53
   9  0.141  0.318  0.180-  69 2.12  40 2.25  58 2.26  12 2.33  70 2.36  59 2.36  34 2.53  21 2.53

  10  0.291  0.168  0.308-  37 2.25  59 2.26  70 2.26  60 2.36  71 2.36  35 2.53  22 2.53
  11  0.419  0.033  0.423-  71 2.03  60 2.09  38 2.11  72 2.16
  12  0.965  0.456  0.110-  39 2.00  58 2.13  61 2.15  40 2.27  69 2.29   9 2.33  33 2.41
  13  0.010  0.116  0.412-  65 2.04  38 2.12  56 2.25  64 2.26  37 2.26  25 2.48
  14  0.644  0.442  0.047-  54 2.10  39 2.14  62 2.29  15 2.31  26 2.41   5 2.47
  15  0.709  0.416  0.155-  54 2.16  39 2.26  62 2.26  14 2.31  40 2.36  63 2.36  27 2.53   2 2.53

  16  0.860  0.266  0.283-  55 2.25  63 2.26  40 2.26  37 2.36  64 2.36   3 2.53  28 2.53
  17  0.093  0.700  0.198-  58 2.25  41 2.26  68 2.26  42 2.36  66 2.36  20 2.40  30 2.53   8 2.53

  18  0.243  0.549  0.326-  67 2.11  59 2.25  66 2.26  42 2.26  43 2.36   7 2.53  31 2.53
  19  0.370  0.418  0.436-  43 2.02  44 2.11  67 2.11  60 2.18
  20  0.999  0.727  0.089-  45 2.10  61 2.12  68 2.13  58 2.27  41 2.35  17 2.40
  21  0.326  0.133  0.113-  46 2.09  69 2.16  50 2.31  70 2.36  47 2.36  34 2.53   9 2.53
  22  0.476  0.983  0.241-  51 2.25  70 2.26  47 2.26  48 2.36  71 2.36  35 2.53  10 2.53
  23  0.627  0.833  0.369-  49 2.09  72 2.15  52 2.25  71 2.26  48 2.26  24 2.37
  24  0.737  0.700  0.462-  72 2.05  53 2.05  49 2.07  23 2.37
  25  0.040  0.346  0.434-  37 2.05  65 2.09  53 2.14  38 2.17  67 2.30  13 2.48
  26  0.543  0.679  0.090-  51 2.03  39 2.12  62 2.16  50 2.24  14 2.41   1 2.42
  27  0.749  0.641  0.189-  68 2.25  51 2.26  39 2.26  40 2.36  52 2.36  15 2.53   2 2.53
  28  0.899  0.491  0.317-  66 2.25  52 2.26  40 2.26  53 2.36  37 2.36   3 2.53  16 2.53
  29  0.982  0.074  0.104-  45 2.05  54 2.14  69 2.23  41 2.36  55 2.36   6 2.47
  30  0.133  0.924  0.232-  70 2.25  55 2.26  41 2.26  56 2.36  42 2.36   8 2.53  17 2.53
  31  0.283  0.774  0.360-  57 2.04  71 2.25  56 2.26  42 2.26  43 2.36   7 2.53  18 2.53
  32  0.444  0.652  0.468-  43 2.02  44 2.09  57 2.10  72 2.13
  33  0.190  0.366  0.054-  46 2.08  58 2.08  69 2.12  61 2.13  12 2.41
  34  0.366  0.358  0.147-  46 2.11  62 2.25  58 2.26  47 2.36  59 2.36   5 2.38  21 2.53   9 2.53

  35  0.516  0.207  0.275-  63 2.25  59 2.26  47 2.26  48 2.36  60 2.36  10 2.53  22 2.53
  36  0.658  0.069  0.389-  48 2.04  60 2.13  64 2.18  49 2.19
  37  0.064  0.262  0.341-  25 2.05  10 2.25  13 2.26  16 2.36  28 2.36  38 2.58
  38  0.202  0.136  0.443-  11 2.11  13 2.12  25 2.17  37 2.58  65 2.66
  39  0.763  0.563  0.085-  12 2.00  26 2.12  14 2.14  15 2.26  27 2.26
  40  0.914  0.412  0.213-   9 2.25  16 2.26  28 2.26  12 2.27  27 2.36  15 2.36
  41  0.147  0.846  0.128-   1 1.96  17 2.26  30 2.26  20 2.35  29 2.36  45 2.74  50 2.76
  42  0.297  0.696  0.256-   1 2.16   2 2.25  31 2.26  18 2.26  30 2.36  17 2.36
  43  0.447  0.545  0.384-  32 2.02  19 2.02   3 2.25  31 2.36  18 2.36  44 2.55  57 2.78
  44  0.530  0.439  0.496-  32 2.09   4 2.09  19 2.11  43 2.55
  45  0.891  0.941  0.064-  29 2.05   6 2.08  20 2.10  68 2.71  41 2.74
  46  0.407  0.257  0.055-  33 2.08  21 2.09  34 2.11   5 2.12  47 2.78
  47  0.530  0.129  0.171-   5 2.08  22 2.26  35 2.26  34 2.36  21 2.36   6 2.45  46 2.78
  48  0.680  0.979  0.299-  36 2.04   8 2.25  23 2.26  35 2.36  22 2.36
  49  0.797  0.856  0.419-  24 2.07  23 2.09  36 2.19   7 2.54
  50  0.381  0.899  0.083-   1 2.21  26 2.24  21 2.31  51 2.33  41 2.76
  51  0.528  0.798  0.171-   1 2.02  26 2.03  22 2.25  27 2.26   2 2.26  50 2.33
  52  0.678  0.648  0.299-  23 2.25  28 2.26   3 2.26  27 2.36   2 2.36
  53  0.829  0.497  0.427-  24 2.05   4 2.08  25 2.14  28 2.36   3 2.36  65 2.79
  54  0.795  0.253  0.083-   5 2.06  14 2.10  29 2.14  15 2.16
  55  0.911  0.081  0.214-   6 2.08  16 2.25   8 2.26  30 2.26  29 2.36
  56  0.062  0.931  0.342-  13 2.25  31 2.26   7 2.26  30 2.36   8 2.36
  57  0.224  0.740  0.452-  31 2.04   7 2.07  32 2.10  43 2.78
  58  0.145  0.515  0.129-  33 2.08  12 2.13  17 2.25  34 2.26   9 2.26  20 2.27  61 2.41
  59  0.295  0.364  0.257-  18 2.25  10 2.26  35 2.26   9 2.36  34 2.36
  60  0.445  0.214  0.385-  11 2.09  36 2.13  19 2.18  35 2.36  10 2.36
  61  0.020  0.554  0.026-  20 2.12  33 2.13  12 2.15  58 2.41
  62  0.477  0.512  0.128-  26 2.16  34 2.25  15 2.26   2 2.26  14 2.29   1 2.56   5 2.58
  63  0.628  0.362  0.256-  35 2.25   3 2.26  16 2.26   2 2.36  15 2.36
  64  0.778  0.212  0.384-   4 2.08  36 2.18  13 2.26  16 2.36   3 2.36
  65  0.942  0.239  0.493-  13 2.04   4 2.05  25 2.09  38 2.66  53 2.79
  66  0.011  0.645  0.299-  28 2.25   7 2.26  18 2.26   8 2.36  17 2.36
  67  0.152  0.504  0.412-  18 2.11  19 2.11   7 2.20  25 2.30
  68  0.861  0.795  0.171-   6 2.11  20 2.13  27 2.25  17 2.26   8 2.26  45 2.71
  69  0.101  0.222  0.094-  33 2.12   9 2.12  21 2.16  29 2.23  12 2.29
  70  0.244  0.079  0.214-  30 2.25  22 2.26  10 2.26   9 2.36  21 2.36
  71  0.395  0.928  0.342-  11 2.03  31 2.25  23 2.26  10 2.36  22 2.36  72 2.77
  72  0.525  0.820  0.459-  24 2.05  32 2.13  23 2.15  11 2.16  71 2.77
 
  LATTYP: Found a base centered orthorhombic cell.
 ALAT       =    11.4527836704
 B/A-ratio  =     1.4485816945
 C/A-ratio  =     1.7908432109
  
  Lattice vectors:
  
 A1 = (  10.0797329849,   0.0000000000,   0.0000000000)
 A2 = (  -3.5732980427,  -9.4251025535,   0.0000000000)
 A3 = (   0.0000000000,   0.0000000000, -20.5101398818)


Analysis of symmetry for initial positions (statically):
=====================================================================
 Subroutine PRICEL returns:
 Original cell was already a primitive cell.
 

 Routine SETGRP: Setting up the symmetry group for a 
 base centered orthorhombic supercell.


 Subroutine GETGRP returns: Found  1 space group operations
 (whereof  1 operations were pure point group operations)
 out of a pool of  8 trial point group operations.


The static configuration has the point symmetry C_1 .


Analysis of symmetry for dynamics (positions and initial velocities):
=====================================================================
 Subroutine PRICEL returns:
 Original cell was already a primitive cell.
 

 Routine SETGRP: Setting up the symmetry group for a 
 base centered orthorhombic supercell.


 Subroutine GETGRP returns: Found  1 space group operations
 (whereof  1 operations were pure point group operations)
 out of a pool of  8 trial point group operations.


The dynamic configuration has the point symmetry C_1 .


 Subroutine INISYM returns: Found  1 space group operations
 (whereof  1 operations are pure point group operations),
 and found     1 'primitive' translations

 
 
 KPOINTS: gamma-point-only calculation. no periodi

Automatic generation of k-mesh.
Space group operators:
 irot       det(A)        alpha          n_x          n_y          n_z        tau_x        tau_y        tau_z
    1     1.000000     0.000000     1.000000     0.000000     0.000000     0.000000     0.000000     0.000000
 
 Subroutine IBZKPT returns following result:
 ===========================================
 
 Found      1 irreducible k-points:
 
 Following reciprocal coordinates:
            Coordinates               Weight
  0.000000  0.000000  0.000000      1.000000
 
 Following cartesian coordinates:
            Coordinates               Weight
  0.000000  0.000000  0.000000      1.000000
 


--------------------------------------------------------------------------------------------------------




 Dimension of arrays:
   k-points           NKPTS =      1   k-points in BZ     NKDIM =      1   number of bands    NBANDS=    476
   number of dos      NEDOS =    301   number of ions     NIONS =     72
   non local maximal  LDIM  =      6   non local SUM 2l+1 LMDIM =     18
   total plane-waves  NPLWV = 314928
   max r-space proj   IRMAX =   1832   max aug-charges    IRDMAX=   5291
   dimension x,y,z NGX =    54 NGY =   54 NGZ =  108
   dimension x,y,z NGXF=   108 NGYF=  108 NGZF=  216
   support grid    NGXF=   108 NGYF=  108 NGZF=  216
   ions per type =              36  36
   NGX,Y,Z   is equivalent  to a cutoff of   8.91,  8.91,  8.75 a.u.
   NGXF,Y,Z  is equivalent  to a cutoff of  17.81, 17.81, 17.51 a.u.

 SYSTEM =  "Millerite NiS"                         
 POSCAR =  Type_036 Type_136                       

 Startparameter for this run:
   NWRITE =      2    write-flag & timer
   PREC   = normal    normal or accurate (medium, high low for compatibility)
   ISTART =      0    job   : 0-new  1-cont  2-samecut
   ICHARG =      2    charge: 1-file 2-atom 10-const
   ISPIN  =      1    spin polarized calculation?
   LNONCOLLINEAR =      F non collinear calculations
   LSORBIT =      F    spin-orbit coupling
   INIWAV =      1    electr: 0-lowe 1-rand  2-diag
   LASPH  =      F    aspherical Exc in radial PAW
   METAGGA=      F    non-selfconsistent MetaGGA calc.

 Electronic Relaxation 1
   ENCUT  =  450.0 eV  33.07 Ry    5.75 a.u.  17.43 17.43 35.48*2*pi/ulx,y,z
   ENINI  =  450.0     initial cutoff
   ENAUG  =  703.4 eV  augmentation charge cutoff
   NELM   =    100;   NELMIN=  2; NELMDL= -5     # of ELM steps 
   EDIFF  = 0.1E-03   stopping-criterion for ELM
   LREAL  =      T    real-space projection
   NLSPLINE    = F    spline interpolate recip. space projectors
   LCOMPAT=      F    compatible to vasp.4.4
   GGA_COMPAT  = T    GGA compatible to vasp.4.4-vasp.4.6
   LMAXPAW     = -100 max onsite density
   LMAXMIX     =    2 max onsite mixed and CHGCAR
   VOSKOWN=      0    Vosko Wilk Nusair interpolation
   ROPT   =   -0.00050  -0.00050
 Ionic relaxation
   EDIFFG = 0.1E-02   stopping-criterion for IOM
   NSW    =      0    number of steps for IOM
   NBLOCK =      1;   KBLOCK =      1    inner block; outer block 
   IBRION =     -1    ionic relax: 0-MD 1-quasi-New 2-CG
   NFREE  =      0    steps in history (QN), initial steepest desc. (CG)
   ISIF   =      2    stress and relaxation
   IWAVPR =     10    prediction:  0-non 1-charg 2-wave 3-comb
   ISYM   =      2    0-nonsym 1-usesym 2-fastsym
   LCORR  =      T    Harris-Foulkes like correction to forces

   POTIM  = 0.5000    time-step for ionic-motion
   TEIN   =    0.0    initial temperature
   TEBEG  =    0.0;   TEEND  =   0.0 temperature during run
   SMASS  =  -3.00    Nose mass-parameter (am)
   estimated Nose-frequenzy (Omega)   =  0.10E-29 period in steps =****** mass=  -0.232E-26a.u.
   SCALEE = 1.0000    scale energy and forces
   NPACO  =    256;   APACO  = 16.0  distance and # of slots for P.C.
   PSTRESS=    0.0 pullay stress

  Mass of Ions in am
   POMASS =  58.69 32.07
  Ionic Valenz
   ZVAL   =  16.00  6.00
  Atomic Wigner-Seitz radii
   RWIGS  =  -1.00 -1.00
  virtual crystal weights 
   VCA    =   1.00  1.00
   NELECT =     792.0000    total number of electrons
   NUPDOWN=      -1.0000    fix difference up-down

 DOS related values:
   EMIN   =  10.00;   EMAX   =-10.00  energy-range for DOS
   EFERMI =   0.00
   ISMEAR =     0;   SIGMA  =   0.20  broadening in eV -4-tet -1-fermi 0-gaus

 Electronic relaxation 2 (details)
   IALGO  =     38    algorithm
   LDIAG  =      T    sub-space diagonalisation (order eigenvalues)
   LSUBROT=      F    optimize rotation matrix (better conditioning)
   TURBO    =      0    0=normal 1=particle mesh
   IRESTART =      0    0=no restart 2=restart with 2 vectors
   NREBOOT  =      0    no. of reboots
   NMIN     =      0    reboot dimension
   EREF     =   0.00    reference energy to select bands
   IMIX   =      4    mixing-type and parameters
     AMIX     =   0.40;   BMIX     =  1.00
     AMIX_MAG =   1.60;   BMIX_MAG =  1.00
     AMIN     =   0.10
     WC   =   100.;   INIMIX=   1;  MIXPRE=   1;  MAXMIX= -45

 Intra band minimization:
   WEIMIN = 0.0000     energy-eigenvalue tresh-hold
   EBREAK =  0.53E-07  absolut break condition
   DEPER  =   0.30     relativ break condition  

   TIME   =   0.40     timestep for ELM

  volume/ion in A,a.u.               =      27.06       182.63
  Fermi-wavevector in a.u.,A,eV,Ry     =   1.212687  2.291646 20.008854  1.470609
  Thomas-Fermi vector in A             =   2.348163
 
 Write flags
   LWAVE        =      F    write WAVECAR
   LDOWNSAMPLE  =      F    k-point downsampling of WAVECAR
   LCHARG       =      F    write CHGCAR
   LVTOT        =      F    write LOCPOT, total local potential
   LVHAR        =      F    write LOCPOT, Hartree potential only
   LELF         =      F    write electronic localiz. function (ELF)
   LORBIT       =      0    0 simple, 1 ext, 2 COOP (PROOUT), +10 PAW based schemes


 Dipole corrections
   LMONO  =      F    monopole corrections only (constant potential shift)
   LDIPOL =      F    correct potential (dipole corrections)
   IDIPOL =      0    1-x, 2-y, 3-z, 4-all directions 
   EPSILON=  1.0000000 bulk dielectric constant

 Exchange correlation treatment:
   GGA     =    --    GGA type
   LEXCH   =     8    internal setting for exchange type
   VOSKOWN=      0    Vosko Wilk Nusair interpolation
   LHFCALC =     F    Hartree Fock is set to
   LHFONE  =     F    Hartree Fock one center treatment
   AEXX    =    0.0000 exact exchange contribution

 Linear response parameters
   LEPSILON=     F    determine dielectric tensor
   LRPA    =     F    only Hartree local field effects (RPA)
   LNABLA  =     F    use nabla operator in PAW spheres
   LVEL    =     F    velocity operator in full k-point grid
   LINTERFAST=   F  fast interpolation
   KINTER  =     0    interpolate to denser k-point grid
   CSHIFT  =0.1000    complex shift for real part using Kramers Kronig
   OMEGAMAX=  -1.0    maximum frequency
   DEG_THRESHOLD= 0.2000000E-02 threshold for treating states as degnerate
   RTIME   =   -0.100 relaxation time in fs
  (WPLASMAI=    0.000 imaginary part of plasma frequency in eV, 0.658/RTIME)
   DFIELD  = 0.0000000 0.0000000 0.0000000 field for delta impulse in time
 
 Orbital magnetization related:
   ORBITALMAG=     F  switch on orbital magnetization
   LCHIMAG   =     F  perturbation theory with respect to B field
   DQ        =  0.001000  dq finite difference perturbation B field
   LLRAUG    =     F  two centre corrections for induced B field



--------------------------------------------------------------------------------------------------------


 Static calculation
 charge density and potential will be updated during run
 non-spin polarized calculation
 Variant of blocked Davidson
 Davidson routine will perform the subspace rotation
 perform sub-space diagonalisation
    after iterative eigenvector-optimisation
 modified Broyden-mixing scheme, WC =      100.0
 initial mixing is a Kerker type mixing with AMIX =  0.4000 and BMIX =      1.0000
 Hartree-type preconditioning will be used
 using additional bands           80
 real space projection scheme for non local part
 use partial core corrections
 calculate Harris-corrections to forces 
   (improved forces if not selfconsistent)
 use gradient corrections 
 use of overlap-Matrix (Vanderbilt PP)
 Gauss-broadening in eV      SIGMA  =   0.20


--------------------------------------------------------------------------------------------------------


  energy-cutoff  :      450.00
  volume of cell :     1948.51
      direct lattice vectors                 reciprocal lattice vectors
    10.079732985  0.000000000  0.000000000     0.099208977 -0.037612667  0.000000000
     3.573298043  9.425102554  0.000000000     0.000000000  0.106099641  0.000000000
     0.000000000  0.000000000 20.510139882     0.000000000  0.000000000  0.048756372

  length of vectors
    10.079732985 10.079732985 20.510139882     0.106099641  0.106099641  0.048756372


 
 k-points in units of 2pi/SCALE and weight: gamma-point-only calculation. no periodi
   0.00000000  0.00000000  0.00000000       1.000
 
 k-points in reciprocal lattice and weights: gamma-point-only calculation. no periodi
   0.00000000  0.00000000  0.00000000       1.000
 
 position of ions in fractional coordinates (direct lattice) 
   0.34094880  0.76834565  0.16233579
   0.52460066  0.60109368  0.22312232
   0.67486918  0.45082517  0.35113229
   0.73941510  0.35346589  0.46195919
   0.59756722  0.24564270  0.10286011
   0.78492998  0.01452729  0.15128540
   0.05829201  0.73406900  0.39380228
   0.90802350  0.88433751  0.26579231
   0.14117783  0.31784985  0.18045233
   0.29144634  0.16758134  0.30846230
   0.41932331  0.03301348  0.42294481
   0.96515788  0.45581789  0.10974419
   0.00994000  0.11575434  0.41150025
   0.64417180  0.44160597  0.04709023
   0.70940298  0.41629137  0.15548031
   0.85967149  0.26602286  0.28349028
   0.09282582  0.69953520  0.19815030
   0.24309433  0.54926669  0.32616027
   0.37013638  0.41775595  0.43568894
   0.99911332  0.72711135  0.08939025
   0.32598014  0.13304754  0.11281032
   0.47624865  0.98277903  0.24082029
   0.62651717  0.83251052  0.36883026
   0.73667024  0.70043865  0.46216066
   0.03969425  0.34559938  0.43355402
   0.54277844  0.67882568  0.09026219
   0.74910482  0.64079553  0.18930132
   0.89937333  0.49052701  0.31731128
   0.98225915  0.07430787  0.10396133
   0.13252766  0.92403936  0.23197130
   0.28279617  0.77377084  0.35998128
   0.44419153  0.65187020  0.46786148
   0.18973640  0.36614356  0.05362871
   0.36568198  0.35755170  0.14663132
   0.51595050  0.20728318  0.27464130
   0.65846817  0.06857175  0.38927647
   0.06382158  0.26208477  0.34135992
   0.20177445  0.13594799  0.44288198
   0.76328455  0.56262179  0.08533998
   0.91355306  0.41235328  0.21334995
   0.14670739  0.84586562  0.12800997
   0.29697590  0.69559711  0.25601994
   0.44724441  0.54532860  0.38402991
   0.53035324  0.43892417  0.49612519
   0.89141501  0.94074026  0.06430610
   0.40723772  0.25688319  0.05472160
   0.53013023  0.12910945  0.17067996
   0.68039874  0.97884094  0.29868993
   0.79682074  0.85614688  0.41947487
   0.38132796  0.89850479  0.08331779
   0.52796422  0.79794212  0.17147277
   0.67823274  0.64767361  0.29948274
   0.82850125  0.49740510  0.42749271
   0.79528360  0.25312957  0.08302228
   0.91138706  0.08118595  0.21414276
   0.06165557  0.93091744  0.34215273
   0.22384362  0.74003517  0.45207497
   0.14454139  0.51469829  0.12880278
   0.29480990  0.36442978  0.25681275
   0.44507841  0.21416127  0.38482272
   0.02023154  0.55387060  0.02632427
   0.47740939  0.51206696  0.12840637
   0.62767790  0.36179845  0.25641634
   0.77794641  0.21152993  0.38442632
   0.94182817  0.23876684  0.49263276
   0.01110074  0.64504227  0.29908634
   0.15205215  0.50384207  0.41193024
   0.86083223  0.79531079  0.17107636
   0.10094900  0.22234236  0.09399331
   0.24425506  0.07855462  0.21374635
   0.39452358  0.92828611  0.34175632
   0.52458049  0.81992743  0.45922060
 
 position of ions in cartesian coordinates  (Angst):
   6.18220090  7.24173651  3.32952978
   7.43572149  5.66536961  4.57626993
   8.41343379  4.24907347  7.20177232
   8.71614570  3.33145226  9.47484752
   6.90107260  2.31520766  2.10967520
   7.96379493  0.13692116  3.10288481
   3.21061525  6.91867561  8.07693979
  12.31263594  8.33497175  5.45143740
   2.55880705  2.99576747  3.70110247
   3.53651935  1.57947133  6.32660486
   4.34463399  0.31115542  8.67465714
  11.35730692  4.29613034  2.25086861
   0.51381735  1.09099656  8.43992775
   8.07106950  4.16218158  0.96582730
   8.63812573  3.92358885  3.18892295
   9.61583803  2.50729270  5.81442536
   3.43530719  6.59319098  4.06409041
   4.41301949  5.17689484  6.68959282
   5.22364243  3.93739265  8.93604108
  12.66898105  6.85309904  1.83340654
   3.76121129  1.25398670  2.31375548
   8.31222163  9.26279312  4.93925788
   9.28993394  7.84649698  7.56476029
   9.92831533  6.60170609  9.47897983
   1.63503697  3.25730957  8.89225356
   7.89670824  6.39800164  1.85129021
   9.84052997  6.03956355  3.88259645
  10.81824227  4.62326741  6.50809884
  10.16643407  0.70035928  2.13226150
   4.63771142  8.70916568  4.75776391
   5.61542373  7.29286955  7.38326631
   6.80665847  6.14394345  9.59590437
   3.22083232  3.45094057  1.09993239
   4.96361553  3.36996141  3.00742897
   5.94132783  1.95366527  5.63293138
   6.88221066  0.64629575  7.98411480
   1.57981145  2.47017583  7.00133971
   2.51961529  1.28132375  9.08357143
   9.70411984  5.30276811  1.75033493
  10.68183214  3.88647197  4.37583732
   4.50130129  7.97237024  2.62550239
   5.47901360  6.55607411  5.25100478
   6.45672590  5.13977797  7.87650717
   6.91422593  4.13690534 10.17559707
  12.34677058  8.86657341  1.31892709
   5.02276765  2.42115038  1.12234759
   5.80491770  1.21686984  3.50066985
  10.35592804  9.22567624  6.12617225
  11.09100832  8.06927218  8.60348832
   7.05430946  8.46849984  1.70885944
   8.17302343  7.52068634  3.51693048
   9.15073573  6.10439020  6.14243287
  10.12844803  4.68809406  8.76793526
   8.92075372  2.38577218  1.70279856
   9.47663982  0.76518592  4.39209794
   3.94791719  8.77399234  7.01760033
   4.90065014  6.97490740  9.27212079
   3.29610898  4.85108421  2.64176301
   4.27382129  3.43478806  5.26726541
   5.25153358  2.01849192  7.89276780
   2.18307328  5.22028721  0.53991446
   6.64192702  4.82628360  2.63363269
   7.61963932  3.40998746  5.25913510
   8.59735162  1.99369132  7.88463749
  10.34656156  2.25040200 10.10396690
   2.41682077  6.07958959  6.13430257
   3.33302290  4.74876314  8.44874679
  11.51884146  7.49588574  3.50880016
   1.81203453  2.09559954  1.92781586
   2.74272487  0.74038532  4.38396762
   7.29373522  8.74919174  7.00947003
   8.21747638  7.72790007  9.41867864
 


--------------------------------------------------------------------------------------------------------


 use parallel FFT for orbitals z direction half grid
 k-point  1 :   0.0000 0.0000 0.0000  plane waves:   21165

 maximum and minimum number of plane-waves per node :      3530     3525

 maximum number of plane-waves:     21165
 maximum index in each direction: 
   IXMAX=   17   IYMAX=   17   IZMAX=   35
   IXMIN=  -17   IYMIN=  -17   IZMIN=    0


 real space projection operators:
  total allocation   :      11247.69 KBytes
  max/ min on nodes  :       1882.61       1867.30


 parallel 3D FFT for wavefunctions:
    minimum data exchange during FFTs selected (reduces bandwidth)
 parallel 3D FFT for charge:
    minimum data exchange during FFTs selected (reduces bandwidth)


 total amount of memory used by VASP MPI-rank0    68336. kBytes
=======================================================================

   base      :      30000. kBytes
   nonlr-proj:       2297. kBytes
   fftplans  :       8265. kBytes
   grid      :      13942. kBytes
   one-center:         93. kBytes
   wavefun   :      13739. kBytes
 
     INWAV:  cpu time    0.0000: real time    0.0002
 Broyden mixing: mesh for mixing (old mesh)
   NGX = 35   NGY = 35   NGZ = 71
  (NGX  =108   NGY  =108   NGZ  =216)
  gives a total of  86975 points

 initial charge density was supplied:
 charge density of overlapping atoms calculated
 number of electron     792.0000000 magnetization 
 keeping initial charge density in first step


--------------------------------------------------------------------------------------------------------


 Maximum index for non-local projection operator          304
 Maximum index for augmentation-charges          472 (set IRDMAX)


--------------------------------------------------------------------------------------------------------


 First call to EWALD:  gamma=   0.142
 Maximum number of real-space cells 3x 3x 2
 Maximum number of reciprocal cells 2x 2x 4

    FEWALD:  cpu time    0.0050: real time    0.0050


--------------------------------------- Iteration      1(   1)  ---------------------------------------


    POTLOK:  cpu time    0.2573: real time    0.2582
    SETDIJ:  cpu time    0.0173: real time    0.0174
     EDDAV:  cpu time    6.7866: real time    6.7894
       DOS:  cpu time    0.0015: real time    0.0015
    --------------------------------------------
      LOOP:  cpu time    7.0628: real time    7.0665

 eigenvalue-minimisations  :  1160
 total energy-change (2. order) : 0.1001498E+05  (-0.5137858E+05)
 number of electron     792.0000000 magnetization 
 augmentation part      792.0000000 magnetization 

 Free energy of the ion-electron system (eV)
  ---------------------------------------------------
  alpha Z        PSCENC =      1909.09476555
  Ewald energy   TEWEN  =    219140.85535950
  -Hartree energ DENC   =   -341389.81564915
  -exchange      EXHF   =         0.00000000
  -V(xc)+E(xc)   XCENC  =      3681.96208141
  PAW double counting   =    112729.53333415  -117641.51188735
  entropy T*S    EENTRO =        -0.37851197
  eigenvalues    EBANDS =     -4417.36516350
  atomic energy  EATOM  =    136002.60505376
  Solvation  Ediel_sol  =         0.00000000
  ---------------------------------------------------
  free energy    TOTEN  =     10014.97938241 eV

  energy without entropy =    10015.35789437  energy(sigma->0) =    10015.16863839


--------------------------------------------------------------------------------------------------------




--------------------------------------- Iteration      1(   2)  ---------------------------------------


     EDDAV:  cpu time    6.1189: real time    6.1199
       DOS:  cpu time    0.0012: real time    0.0011
    --------------------------------------------
      LOOP:  cpu time    6.1201: real time    6.1210

 eigenvalue-minimisations  :  1004
 total energy-change (2. order) :-0.9378270E+04  (-0.9059825E+04)
 number of electron     792.0000000 magnetization 
 augmentation part      792.0000000 magnetization 

 Free energy of the ion-electron system (eV)
  ---------------------------------------------------
  alpha Z        PSCENC =      1909.09476555
  Ewald energy   TEWEN  =    219140.85535950
  -Hartree energ DENC   =   -341389.81564915
  -exchange      EXHF   =         0.00000000
  -V(xc)+E(xc)   XCENC  =      3681.96208141
  PAW double counting   =    112729.53333415  -117641.51188735
  entropy T*S    EENTRO =        -0.58774794
  eigenvalues    EBANDS =    -13795.42574796
  atomic energy  EATOM  =    136002.60505376
  Solvation  Ediel_sol  =         0.00000000
  ---------------------------------------------------
  free energy    TOTEN  =       636.70956197 eV

  energy without entropy =      637.29730991  energy(sigma->0) =      637.00343594


--------------------------------------------------------------------------------------------------------




--------------------------------------- Iteration      1(   3)  ---------------------------------------


     EDDAV:  cpu time    6.3814: real time    6.3829
       DOS:  cpu time    0.0012: real time    0.0012
    --------------------------------------------
      LOOP:  cpu time    6.3826: real time    6.3842

 eigenvalue-minimisations  :  1072
 total energy-change (2. order) :-0.9705109E+03  (-0.9241949E+03)
 number of electron     792.0000000 magnetization 
 augmentation part      792.0000000 magnetization 

 Free energy of the ion-electron system (eV)
  ---------------------------------------------------
  alpha Z        PSCENC =      1909.09476555
  Ewald energy   TEWEN  =    219140.85535950
  -Hartree energ DENC   =   -341389.81564915
  -exchange      EXHF   =         0.00000000
  -V(xc)+E(xc)   XCENC  =      3681.96208141
  PAW double counting   =    112729.53333415  -117641.51188735
  entropy T*S    EENTRO =        -1.14628394
  eigenvalues    EBANDS =    -14765.37815983
  atomic energy  EATOM  =    136002.60505376
  Solvation  Ediel_sol  =         0.00000000
  ---------------------------------------------------
  free energy    TOTEN  =      -333.80138590 eV

  energy without entropy =     -332.65510196  energy(sigma->0) =     -333.22824393


--------------------------------------------------------------------------------------------------------




--------------------------------------- Iteration      1(   4)  ---------------------------------------


     EDDAV:  cpu time    6.5056: real time    6.5066
       DOS:  cpu time    0.0011: real time    0.0011
    --------------------------------------------
      LOOP:  cpu time    6.5067: real time    6.5077

 eigenvalue-minimisations  :  1096
 total energy-change (2. order) :-0.6023637E+02  (-0.5948498E+02)
 number of electron     792.0000000 magnetization 
 augmentation part      792.0000000 magnetization 

 Free energy of the ion-electron system (eV)
  ---------------------------------------------------
  alpha Z        PSCENC =      1909.09476555
  Ewald energy   TEWEN  =    219140.85535950
  -Hartree energ DENC   =   -341389.81564915
  -exchange      EXHF   =         0.00000000
  -V(xc)+E(xc)   XCENC  =      3681.96208141
  PAW double counting   =    112729.53333415  -117641.51188735
  entropy T*S    EENTRO =        -1.20103976
  eigenvalues    EBANDS =    -14825.55977817
  atomic energy  EATOM  =    136002.60505376
  Solvation  Ediel_sol  =         0.00000000
  ---------------------------------------------------
  free energy    TOTEN  =      -394.03776005 eV

  energy without entropy =     -392.83672029  energy(sigma->0) =     -393.43724017


--------------------------------------------------------------------------------------------------------




--------------------------------------- Iteration      1(   5)  ---------------------------------------


     EDDAV:  cpu time    7.5249: real time    7.5266
       DOS:  cpu time    0.0013: real time    0.0013
    CHARGE:  cpu time    0.2161: real time    0.2161
    MIXING:  cpu time    0.0077: real time    0.0077
    --------------------------------------------
      LOOP:  cpu time    7.7500: real time    7.7517

 eigenvalue-minimisations  :  1272
 total energy-change (2. order) :-0.2412067E+01  (-0.2408581E+01)
 number of electron     792.0000104 magnetization 
 augmentation part      287.2332531 magnetization 

 Broyden mixing:
  rms(total) = 0.96270E+01    rms(broyden)= 0.96188E+01
  rms(prec ) = 0.99536E+01
  weight for this iteration     100.00

 Free energy of the ion-electron system (eV)
  ---------------------------------------------------
  alpha Z        PSCENC =      1909.09476555
  Ewald energy   TEWEN  =    219140.85535950
  -Hartree energ DENC   =   -341389.81564915
  -exchange      EXHF   =         0.00000000
  -V(xc)+E(xc)   XCENC  =      3681.96208141
  PAW double counting   =    112729.53333415  -117641.51188735
  entropy T*S    EENTRO =        -1.18979967
  eigenvalues    EBANDS =    -14827.98308486
  atomic energy  EATOM  =    136002.60505376
  Solvation  Ediel_sol  =         0.00000000
  ---------------------------------------------------
  free energy    TOTEN  =      -396.44982665 eV

  energy without entropy =     -395.26002699  energy(sigma->0) =     -395.85492682


--------------------------------------------------------------------------------------------------------




--------------------------------------- Iteration      1(   6)  ---------------------------------------


    POTLOK:  cpu time    0.2471: real time    0.2471
    SETDIJ:  cpu time    0.0188: real time    0.0188
     EDDAV:  cpu time    7.0058: real time    7.0073
       DOS:  cpu time    0.0012: real time    0.0012
    CHARGE:  cpu time    0.2051: real time    0.2051
    MIXING:  cpu time    0.0093: real time    0.0093
    --------------------------------------------
      LOOP:  cpu time    7.4874: real time    7.4889

 eigenvalue-minimisations  :  1176
 total energy-change (2. order) :-0.5994239E+02  (-0.8995707E+02)
 number of electron     792.0000113 magnetization 
 augmentation part      345.6566332 magnetization 

 Broyden mixing:
  rms(total) = 0.14733E+02    rms(broyden)= 0.14731E+02
  rms(prec ) = 0.15262E+02
  weight for this iteration     100.00

 eigenvalues of (default mixing * dielectric matrix)
  average eigenvalue GAMMA=   0.2717
  0.2717

 Free energy of the ion-electron system (eV)
  ---------------------------------------------------
  alpha Z        PSCENC =      1909.09476555
  Ewald energy   TEWEN  =    219140.85535950
  -Hartree energ DENC   =   -338776.92591741
  -exchange      EXHF   =         0.00000000
  -V(xc)+E(xc)   XCENC  =      3609.10634447
  PAW double counting   =    117652.84729389  -122337.63449605
  entropy T*S    EENTRO =        -0.71114296
  eigenvalues    EBANDS =    -17655.62947780
  atomic energy  EATOM  =    136002.60505376
  Solvation  Ediel_sol  =         0.00000000
  ---------------------------------------------------
  free energy    TOTEN  =      -456.39221704 eV

  energy without entropy =     -455.68107408  energy(sigma->0) =     -456.03664556


--------------------------------------------------------------------------------------------------------




--------------------------------------- Iteration      1(   7)  ---------------------------------------


    POTLOK:  cpu time    0.2436: real time    0.2443
    SETDIJ:  cpu time    0.0174: real time    0.0174
     EDDAV:  cpu time    6.5182: real time    6.5192
       DOS:  cpu time    0.0011: real time    0.0011
    CHARGE:  cpu time    0.2082: real time    0.2082
    MIXING:  cpu time    0.0084: real time    0.0084
    --------------------------------------------
      LOOP:  cpu time    6.9970: real time    6.9987

 eigenvalue-minimisations  :  1080
 total energy-change (2. order) : 0.9314655E+02  (-0.1999000E+02)
 number of electron     792.0000156 magnetization 
 augmentation part      328.6730554 magnetization 

 Broyden mixing:
  rms(total) = 0.62046E+01    rms(broyden)= 0.62029E+01
  rms(prec ) = 0.64638E+01
  weight for this iteration     100.00

 eigenvalues of (default mixing * dielectric matrix)
  average eigenvalue GAMMA=   0.5464
  0.6420  0.4509

 Free energy of the ion-electron system (eV)
  ---------------------------------------------------
  alpha Z        PSCENC =      1909.09476555
  Ewald energy   TEWEN  =    219140.85535950
  -Hartree energ DENC   =   -339959.78032403
  -exchange      EXHF   =         0.00000000
  -V(xc)+E(xc)   XCENC  =      3637.15595496
  PAW double counting   =    122380.93227380  -127214.82407191
  entropy T*S    EENTRO =        -0.82077100
  eigenvalues    EBANDS =    -16258.46390514
  atomic energy  EATOM  =    136002.60505376
  Solvation  Ediel_sol  =         0.00000000
  ---------------------------------------------------
  free energy    TOTEN  =      -363.24566449 eV

  energy without entropy =     -362.42489349  energy(sigma->0) =     -362.83527899


--------------------------------------------------------------------------------------------------------




--------------------------------------- Iteration      1(   8)  ---------------------------------------


    POTLOK:  cpu time    0.2487: real time    0.2487
    SETDIJ:  cpu time    0.0218: real time    0.0218
     EDDAV:  cpu time    7.5381: real time    7.5392
       DOS:  cpu time    0.0011: real time    0.0011
    CHARGE:  cpu time    0.2049: real time    0.2049
    MIXING:  cpu time    0.0093: real time    0.0093
    --------------------------------------------
      LOOP:  cpu time    8.0238: real time    8.0249

 eigenvalue-minimisations  :  1280
 total energy-change (2. order) :-0.9488722E+02  (-0.2174781E+02)
 number of electron     791.9999969 magnetization 
 augmentation part      302.4351808 magnetization 

 Broyden mixing:
  rms(total) = 0.15200E+02    rms(broyden)= 0.15197E+02
  rms(prec ) = 0.18469E+02
  weight for this iteration     100.00

 eigenvalues of (default mixing * dielectric matrix)
  average eigenvalue GAMMA=   0.5241
  0.9862  0.4300  0.1561

 Free energy of the ion-electron system (eV)
  ---------------------------------------------------
  alpha Z        PSCENC =      1909.09476555
  Ewald energy   TEWEN  =    219140.85535950
  -Hartree energ DENC   =   -340669.97640801
  -exchange      EXHF   =         0.00000000
  -V(xc)+E(xc)   XCENC  =      3661.06252087
  PAW double counting   =    129676.72098215  -134642.63325907
  entropy T*S    EENTRO =        -0.90975885
  eigenvalues    EBANDS =    -15534.95214283
  atomic energy  EATOM  =    136002.60505376
  Solvation  Ediel_sol  =         0.00000000
  ---------------------------------------------------
  free energy    TOTEN  =      -458.13288693 eV

  energy without entropy =     -457.22312807  energy(sigma->0) =     -457.67800750


--------------------------------------------------------------------------------------------------------




--------------------------------------- Iteration      1(   9)  ---------------------------------------


    POTLOK:  cpu time    0.2438: real time    0.2438
    SETDIJ:  cpu time    0.0175: real time    0.0175
     EDDAV:  cpu time    7.1268: real time    7.1284
       DOS:  cpu time    0.0011: real time    0.0011
    CHARGE:  cpu time    0.2082: real time    0.2082
    MIXING:  cpu time    0.0094: real time    0.0094
    --------------------------------------------
      LOOP:  cpu time    7.6068: real time    7.6084

 eigenvalue-minimisations  :  1240
 total energy-change (2. order) : 0.7038778E+02  (-0.1740056E+02)
 number of electron     792.0000176 magnetization 
 augmentation part      304.0614554 magnetization 

 Broyden mixing:
  rms(total) = 0.91910E+01    rms(broyden)= 0.91847E+01
  rms(prec ) = 0.11097E+02
  weight for this iteration     100.00

 eigenvalues of (default mixing * dielectric matrix)
  average eigenvalue GAMMA=   0.5281
  1.3424  0.3339  0.3339  0.1021

 Free energy of the ion-electron system (eV)
  ---------------------------------------------------
  alpha Z        PSCENC =      1909.09476555
  Ewald energy   TEWEN  =    219140.85535950
  -Hartree energ DENC   =   -340743.39164037
  -exchange      EXHF   =         0.00000000
  -V(xc)+E(xc)   XCENC  =      3659.93280679
  PAW double counting   =    133185.82699722  -138172.11064970
  entropy T*S    EENTRO =        -1.15263509
  eigenvalues    EBANDS =    -15369.40516320
  atomic energy  EATOM  =    136002.60505376
  Solvation  Ediel_sol  =         0.00000000
  ---------------------------------------------------
  free energy    TOTEN  =      -387.74510554 eV

  energy without entropy =     -386.59247044  energy(sigma->0) =     -387.16878799


--------------------------------------------------------------------------------------------------------




--------------------------------------- Iteration      1(  10)  ---------------------------------------


    POTLOK:  cpu time    0.2432: real time    0.2434
    SETDIJ:  cpu time    0.0175: real time    0.0175
     EDDAV:  cpu time    7.8871: real time    7.8883
       DOS:  cpu time    0.0012: real time    0.0012
    CHARGE:  cpu time    0.2107: real time    0.2108
    MIXING:  cpu time    0.0105: real time    0.0105
    --------------------------------------------
      LOOP:  cpu time    8.3702: real time    8.3716

 eigenvalue-minimisations  :  1352
 total energy-change (2. order) :-0.4311973E+01  (-0.1275479E+02)
 number of electron     792.0000167 magnetization 
 augmentation part      302.6197551 magnetization 

 Broyden mixing:
  rms(total) = 0.82267E+01    rms(broyden)= 0.82232E+01
  rms(prec ) = 0.92162E+01
  weight for this iteration     100.00

 eigenvalues of (default mixing * dielectric matrix)
  average eigenvalue GAMMA=   0.6160
  2.0291  0.4096  0.4096  0.1157  0.1157

 Free energy of the ion-electron system (eV)
  ---------------------------------------------------
  alpha Z        PSCENC =      1909.09476555
  Ewald energy   TEWEN  =    219140.85535950
  -Hartree energ DENC   =   -340803.18523409
  -exchange      EXHF   =         0.00000000
  -V(xc)+E(xc)   XCENC  =      3657.49802838
  PAW double counting   =    136277.11082378  -141278.74682489
  entropy T*S    EENTRO =        -1.16701525
  eigenvalues    EBANDS =    -15296.12203517
  atomic energy  EATOM  =    136002.60505376
  Solvation  Ediel_sol  =         0.00000000
  ---------------------------------------------------
  free energy    TOTEN  =      -392.05707842 eV

  energy without entropy =     -390.89006318  energy(sigma->0) =     -391.47357080


--------------------------------------------------------------------------------------------------------




--------------------------------------- Iteration      1(  11)  ---------------------------------------


    POTLOK:  cpu time    0.2444: real time    0.2444
    SETDIJ:  cpu time    0.0191: real time    0.0191
     EDDAV:  cpu time    7.4343: real time    7.4354
       DOS:  cpu time    0.0012: real time    0.0012
    CHARGE:  cpu time    0.2110: real time    0.2110
    MIXING:  cpu time    0.0119: real time    0.0119
    --------------------------------------------
      LOOP:  cpu time    7.9218: real time    7.9229

 eigenvalue-minimisations  :  1312
 total energy-change (2. order) : 0.9682641E+01  (-0.5664163E+01)
 number of electron     792.0000203 magnetization 
 augmentation part      308.4393883 magnetization 

 Broyden mixing:
  rms(total) = 0.68638E+01    rms(broyden)= 0.68603E+01
  rms(prec ) = 0.78822E+01
  weight for this iteration     100.00

 eigenvalues of (default mixing * dielectric matrix)
  average eigenvalue GAMMA=   0.5796
  2.2224  0.4183  0.4183  0.1615  0.1615  0.0955

 Free energy of the ion-electron system (eV)
  ---------------------------------------------------
  alpha Z        PSCENC =      1909.09476555
  Ewald energy   TEWEN  =    219140.85535950
  -Hartree energ DENC   =   -340547.91629881
  -exchange      EXHF   =         0.00000000
  -V(xc)+E(xc)   XCENC  =      3652.90128987
  PAW double counting   =    141576.67823296  -146602.79845468
  entropy T*S    EENTRO =        -0.98032942
  eigenvalues    EBANDS =    -15512.81405605
  atomic energy  EATOM  =    136002.60505376
  Solvation  Ediel_sol  =         0.00000000
  ---------------------------------------------------
  free energy    TOTEN  =      -382.37443732 eV

  energy without entropy =     -381.39410790  energy(sigma->0) =     -381.88427261


--------------------------------------------------------------------------------------------------------




--------------------------------------- Iteration      1(  12)  ---------------------------------------


    POTLOK:  cpu time    0.2409: real time    0.2410
    SETDIJ:  cpu time    0.0194: real time    0.0194
     EDDAV:  cpu time    7.6577: real time    7.6590
       DOS:  cpu time    0.0012: real time    0.0012
    CHARGE:  cpu time    0.2104: real time    0.2104
    MIXING:  cpu time    0.0112: real time    0.0112
    --------------------------------------------
      LOOP:  cpu time    8.1409: real time    8.1424

 eigenvalue-minimisations  :  1304
 total energy-change (2. order) : 0.1724038E+02  (-0.3994591E+01)
 number of electron     792.0000168 magnetization 
 augmentation part      311.7409087 magnetization 

 Broyden mixing:
  rms(total) = 0.41245E+01    rms(broyden)= 0.41207E+01
  rms(prec ) = 0.46332E+01
  weight for this iteration     100.00

 eigenvalues of (default mixing * dielectric matrix)
  average eigenvalue GAMMA=   0.5692
  2.2775  0.4375  0.4375  0.3941  0.2112  0.1300  0.0965

 Free energy of the ion-electron system (eV)
  ---------------------------------------------------
  alpha Z        PSCENC =      1909.09476555
  Ewald energy   TEWEN  =    219140.85535950
  -Hartree energ DENC   =   -340534.30096730
  -exchange      EXHF   =         0.00000000
  -V(xc)+E(xc)   XCENC  =      3651.52279141
  PAW double counting   =    143161.75187031  -148195.20153846
  entropy T*S    EENTRO =        -0.90726468
  eigenvalues    EBANDS =    -15500.55412291
  atomic energy  EATOM  =    136002.60505376
  Solvation  Ediel_sol  =         0.00000000
  ---------------------------------------------------
  free energy    TOTEN  =      -365.13405280 eV

  energy without entropy =     -364.22678813  energy(sigma->0) =     -364.68042046


--------------------------------------------------------------------------------------------------------




--------------------------------------- Iteration      1(  13)  ---------------------------------------


    POTLOK:  cpu time    0.2419: real time    0.2420
    SETDIJ:  cpu time    0.0196: real time    0.0196
     EDDAV:  cpu time    7.5146: real time    7.5159
       DOS:  cpu time    0.0012: real time    0.0011
    CHARGE:  cpu time    0.2082: real time    0.2082
    MIXING:  cpu time    0.0114: real time    0.0114
    --------------------------------------------
      LOOP:  cpu time    7.9968: real time    7.9983

 eigenvalue-minimisations  :  1312
 total energy-change (2. order) : 0.3314134E+01  (-0.3427553E+01)
 number of electron     792.0000141 magnetization 
 augmentation part      311.9628202 magnetization 

 Broyden mixing:
  rms(total) = 0.43187E+01    rms(broyden)= 0.43162E+01
  rms(prec ) = 0.48814E+01
  weight for this iteration     100.00

 eigenvalues of (default mixing * dielectric matrix)
  average eigenvalue GAMMA=   0.5509
  2.3021  0.5724  0.4349  0.4349  0.2803  0.1435  0.1435  0.0957

 Free energy of the ion-electron system (eV)
  ---------------------------------------------------
  alpha Z        PSCENC =      1909.09476555
  Ewald energy   TEWEN  =    219140.85535950
  -Hartree energ DENC   =   -340547.55569398
  -exchange      EXHF   =         0.00000000
  -V(xc)+E(xc)   XCENC  =      3651.55448883
  PAW double counting   =    143247.03501468  -148280.17837303
  entropy T*S    EENTRO =        -0.99051470
  eigenvalues    EBANDS =    -15484.24001986
  atomic energy  EATOM  =    136002.60505376
  Solvation  Ediel_sol  =         0.00000000
  ---------------------------------------------------
  free energy    TOTEN  =      -361.81991924 eV

  energy without entropy =     -360.82940455  energy(sigma->0) =     -361.32466190


--------------------------------------------------------------------------------------------------------




--------------------------------------- Iteration      1(  14)  ---------------------------------------


    POTLOK:  cpu time    0.2423: real time    0.2423
    SETDIJ:  cpu time    0.0191: real time    0.0191
     EDDAV:  cpu time    7.8342: real time    7.8360
       DOS:  cpu time    0.0012: real time    0.0012
    CHARGE:  cpu time    0.2132: real time    0.2132
    MIXING:  cpu time    0.0114: real time    0.0114
    --------------------------------------------
      LOOP:  cpu time    8.3215: real time    8.3233

 eigenvalue-minimisations  :  1320
 total energy-change (2. order) : 0.6919120E+01  (-0.1862148E+01)
 number of electron     792.0000146 magnetization 
 augmentation part      313.1671988 magnetization 

 Broyden mixing:
  rms(total) = 0.25879E+01    rms(broyden)= 0.25855E+01
  rms(prec ) = 0.28855E+01
  weight for this iteration     100.00

 eigenvalues of (default mixing * dielectric matrix)
  average eigenvalue GAMMA=   0.5033
  2.2546  0.4486  0.4486  0.4451  0.3940  0.1586  0.1586  0.0957  0.1258

 Free energy of the ion-electron system (eV)
  ---------------------------------------------------
  alpha Z        PSCENC =      1909.09476555
  Ewald energy   TEWEN  =    219140.85535950
  -Hartree energ DENC   =   -340537.25413453
  -exchange      EXHF   =         0.00000000
  -V(xc)+E(xc)   XCENC  =      3651.15941293
  PAW double counting   =    143078.52651144  -148106.13426387
  entropy T*S    EENTRO =        -0.98636358
  eigenvalues    EBANDS =    -15492.76714067
  atomic energy  EATOM  =    136002.60505376
  Solvation  Ediel_sol  =         0.00000000
  ---------------------------------------------------
  free energy    TOTEN  =      -354.90079947 eV

  energy without entropy =     -353.91443589  energy(sigma->0) =     -354.40761768


--------------------------------------------------------------------------------------------------------




--------------------------------------- Iteration      1(  15)  ---------------------------------------


    POTLOK:  cpu time    0.2439: real time    0.2439
    SETDIJ:  cpu time    0.0194: real time    0.0194
     EDDAV:  cpu time    7.4421: real time    7.4433
       DOS:  cpu time    0.0011: real time    0.0011
    CHARGE:  cpu time    0.2116: real time    0.2116
    MIXING:  cpu time    0.0136: real time    0.0136
    --------------------------------------------
      LOOP:  cpu time    7.9317: real time    7.9330

 eigenvalue-minimisations  :  1304
 total energy-change (2. order) : 0.2036497E+01  (-0.4587797E+00)
 number of electron     792.0000146 magnetization 
 augmentation part      313.1861800 magnetization 

 Broyden mixing:
  rms(total) = 0.18568E+01    rms(broyden)= 0.18563E+01
  rms(prec ) = 0.21001E+01
  weight for this iteration     100.00

 eigenvalues of (default mixing * dielectric matrix)
  average eigenvalue GAMMA=   0.4912
  2.1706  0.5589  0.5589  0.4206  0.4206  0.2037  0.2037  0.0956  0.1397  0.1397

 Free energy of the ion-electron system (eV)
  ---------------------------------------------------
  alpha Z        PSCENC =      1909.09476555
  Ewald energy   TEWEN  =    219140.85535950
  -Hartree energ DENC   =   -340544.04188776
  -exchange      EXHF   =         0.00000000
  -V(xc)+E(xc)   XCENC  =      3651.43818603
  PAW double counting   =    142760.49508674  -147785.76545575
  entropy T*S    EENTRO =        -1.00350530
  eigenvalues    EBANDS =    -15486.54190543
  atomic energy  EATOM  =    136002.60505376
  Solvation  Ediel_sol  =         0.00000000
  ---------------------------------------------------
  free energy    TOTEN  =      -352.86430265 eV

  energy without entropy =     -351.86079735  energy(sigma->0) =     -352.36255000


--------------------------------------------------------------------------------------------------------




--------------------------------------- Iteration      1(  16)  ---------------------------------------


    POTLOK:  cpu time    0.2450: real time    0.2450
    SETDIJ:  cpu time    0.0174: real time    0.0174
     EDDAV:  cpu time    7.5690: real time    7.5702
       DOS:  cpu time    0.0012: real time    0.0012
    CHARGE:  cpu time    0.2099: real time    0.2099
    MIXING:  cpu time    0.0128: real time    0.0128
    --------------------------------------------
      LOOP:  cpu time    8.0553: real time    8.0565

 eigenvalue-minimisations  :  1288
 total energy-change (2. order) : 0.6112451E+00  (-0.1085084E+00)
 number of electron     792.0000141 magnetization 
 augmentation part      312.7098724 magnetization 

 Broyden mixing:
  rms(total) = 0.16813E+01    rms(broyden)= 0.16812E+01
  rms(prec ) = 0.19082E+01
  weight for this iteration     100.00

 eigenvalues of (default mixing * dielectric matrix)
  average eigenvalue GAMMA=   0.4741
  2.1648  0.5703  0.5703  0.4035  0.4035  0.2852  0.2852  0.0957  0.1517  0.1517
  0.1338

 Free energy of the ion-electron system (eV)
  ---------------------------------------------------
  alpha Z        PSCENC =      1909.09476555
  Ewald energy   TEWEN  =    219140.85535950
  -Hartree energ DENC   =   -340562.48668737
  -exchange      EXHF   =         0.00000000
  -V(xc)+E(xc)   XCENC  =      3651.93705952
  PAW double counting   =    142201.51839770  -147222.95632949
  entropy T*S    EENTRO =        -1.02246646
  eigenvalues    EBANDS =    -15471.79821023
  atomic energy  EATOM  =    136002.60505376
  Solvation  Ediel_sol  =         0.00000000
  ---------------------------------------------------
  free energy    TOTEN  =      -352.25305753 eV

  energy without entropy =     -351.23059107  energy(sigma->0) =     -351.74182430


--------------------------------------------------------------------------------------------------------




--------------------------------------- Iteration      1(  17)  ---------------------------------------


    POTLOK:  cpu time    0.2478: real time    0.2480
    SETDIJ:  cpu time    0.0174: real time    0.0174
     EDDAV:  cpu time    6.6408: real time    6.6422
       DOS:  cpu time    0.0013: real time    0.0013
    CHARGE:  cpu time    0.2097: real time    0.2097
    MIXING:  cpu time    0.0132: real time    0.0132
    --------------------------------------------
      LOOP:  cpu time    7.1302: real time    7.1318

 eigenvalue-minimisations  :  1128
 total energy-change (2. order) : 0.2240615E+00  (-0.5485213E-01)
 number of electron     792.0000144 magnetization 
 augmentation part      312.6006430 magnetization 

 Broyden mixing:
  rms(total) = 0.15728E+01    rms(broyden)= 0.15727E+01
  rms(prec ) = 0.17852E+01
  weight for this iteration     100.00

 eigenvalues of (default mixing * dielectric matrix)
  average eigenvalue GAMMA=   0.5374
  2.1960  0.9541  0.9541  0.4453  0.4453  0.4574  0.2885  0.0956  0.1662  0.1662
  0.1402  0.1402

 Free energy of the ion-electron system (eV)
  ---------------------------------------------------
  alpha Z        PSCENC =      1909.09476555
  Ewald energy   TEWEN  =    219140.85535950
  -Hartree energ DENC   =   -340566.37041710
  -exchange      EXHF   =         0.00000000
  -V(xc)+E(xc)   XCENC  =      3652.02724697
  PAW double counting   =    142023.25990732  -147042.86153175
  entropy T*S    EENTRO =        -1.01803952
  eigenvalues    EBANDS =    -15469.62134076
  atomic energy  EATOM  =    136002.60505376
  Solvation  Ediel_sol  =         0.00000000
  ---------------------------------------------------
  free energy    TOTEN  =      -352.02899603 eV

  energy without entropy =     -351.01095651  energy(sigma->0) =     -351.51997627


--------------------------------------------------------------------------------------------------------




--------------------------------------- Iteration      1(  18)  ---------------------------------------


    POTLOK:  cpu time    0.2451: real time    0.2452
    SETDIJ:  cpu time    0.0173: real time    0.0173
     EDDAV:  cpu time    7.6052: real time    7.6066
       DOS:  cpu time    0.0012: real time    0.0012
    CHARGE:  cpu time    0.4504: real time    0.4504
    MIXING:  cpu time    0.0127: real time    0.0127
    --------------------------------------------
      LOOP:  cpu time    8.3318: real time    8.3334

 eigenvalue-minimisations  :  1352
 total energy-change (2. order) : 0.5929838E+00  (-0.3512055E-01)
 number of electron     792.0000141 magnetization 
 augmentation part      312.5510513 magnetization 

 Broyden mixing:
  rms(total) = 0.13718E+01    rms(broyden)= 0.13717E+01
  rms(prec ) = 0.15636E+01
  weight for this iteration     100.00

 eigenvalues of (default mixing * dielectric matrix)
  average eigenvalue GAMMA=   0.5515
  2.1944  1.1897  1.1897  0.4793  0.4524  0.4524  0.3063  0.1901  0.1901  0.0956
  0.1461  0.1461  0.1369

 Free energy of the ion-electron system (eV)
  ---------------------------------------------------
  alpha Z        PSCENC =      1909.09476555
  Ewald energy   TEWEN  =    219140.85535950
  -Hartree energ DENC   =   -340578.48554384
  -exchange      EXHF   =         0.00000000
  -V(xc)+E(xc)   XCENC  =      3652.09285220
  PAW double counting   =    141546.09284161  -146559.34570922
  entropy T*S    EENTRO =        -1.03915859
  eigenvalues    EBANDS =    -15463.30647325
  atomic energy  EATOM  =    136002.60505376
  Solvation  Ediel_sol  =         0.00000000
  ---------------------------------------------------
  free energy    TOTEN  =      -351.43601227 eV

  energy without entropy =     -350.39685368  energy(sigma->0) =     -350.91643297


--------------------------------------------------------------------------------------------------------




--------------------------------------- Iteration      1(  19)  ---------------------------------------


    POTLOK:  cpu time    0.2469: real time    0.2469
    SETDIJ:  cpu time    0.0177: real time    0.0177
     EDDAV:  cpu time    7.6793: real time    7.6807
       DOS:  cpu time    0.0013: real time    0.0013
    CHARGE:  cpu time    0.2091: real time    0.2091
    MIXING:  cpu time    0.0134: real time    0.0134
    --------------------------------------------
      LOOP:  cpu time    8.1675: real time    8.1690

 eigenvalue-minimisations  :  1336
 total energy-change (2. order) : 0.5614995E+00  (-0.3766352E-01)
 number of electron     792.0000139 magnetization 
 augmentation part      312.4526845 magnetization 

 Broyden mixing:
  rms(total) = 0.11200E+01    rms(broyden)= 0.11199E+01
  rms(prec ) = 0.12758E+01
  weight for this iteration     100.00

 eigenvalues of (default mixing * dielectric matrix)
  average eigenvalue GAMMA=   0.6079
  2.1201  1.6392  1.6392  0.5319  0.5319  0.4538  0.4538  0.2404  0.2113  0.0956
  0.1541  0.1541  0.1426  0.1426

 Free energy of the ion-electron system (eV)
  ---------------------------------------------------
  alpha Z        PSCENC =      1909.09476555
  Ewald energy   TEWEN  =    219140.85535950
  -Hartree energ DENC   =   -340593.46254183
  -exchange      EXHF   =         0.00000000
  -V(xc)+E(xc)   XCENC  =      3652.20870483
  PAW double counting   =    141076.72186700  -146084.26929849
  entropy T*S    EENTRO =        -1.03666386
  eigenvalues    EBANDS =    -15453.59175920
  atomic energy  EATOM  =    136002.60505376
  Solvation  Ediel_sol  =         0.00000000
  ---------------------------------------------------
  free energy    TOTEN  =      -350.87451274 eV

  energy without entropy =     -349.83784888  energy(sigma->0) =     -350.35618081


--------------------------------------------------------------------------------------------------------




--------------------------------------- Iteration      1(  20)  ---------------------------------------


    POTLOK:  cpu time    0.2505: real time    0.2505
    SETDIJ:  cpu time    0.0173: real time    0.0173
     EDDAV:  cpu time    8.1656: real time    8.1673
       DOS:  cpu time    0.0013: real time    0.0012
    CHARGE:  cpu time    0.2148: real time    0.2148
    MIXING:  cpu time    0.0138: real time    0.0138
    --------------------------------------------
      LOOP:  cpu time    8.6632: real time    8.6649

 eigenvalue-minimisations  :  1424
 total energy-change (2. order) : 0.7472747E+00  (-0.7012403E-01)
 number of electron     792.0000131 magnetization 
 augmentation part      312.1260446 magnetization 

 Broyden mixing:
  rms(total) = 0.60199E+00    rms(broyden)= 0.60144E+00
  rms(prec ) = 0.67149E+00
  weight for this iteration     100.00

 eigenvalues of (default mixing * dielectric matrix)
  average eigenvalue GAMMA=   0.5990
  2.0940  1.7442  1.7442  0.5698  0.5698  0.4401  0.4401  0.2543  0.2543  0.0956
  0.1724  0.1724  0.1460  0.1460  0.1413

 Free energy of the ion-electron system (eV)
  ---------------------------------------------------
  alpha Z        PSCENC =      1909.09476555
  Ewald energy   TEWEN  =    219140.85535950
  -Hartree energ DENC   =   -340633.11250864
  -exchange      EXHF   =         0.00000000
  -V(xc)+E(xc)   XCENC  =      3652.60266935
  PAW double counting   =    139873.85911508  -144867.78607476
  entropy T*S    EENTRO =        -1.05796124
  eigenvalues    EBANDS =    -15427.18765664
  atomic energy  EATOM  =    136002.60505376
  Solvation  Ediel_sol  =         0.00000000
  ---------------------------------------------------
  free energy    TOTEN  =      -350.12723804 eV

  energy without entropy =     -349.06927680  energy(sigma->0) =     -349.59825742


--------------------------------------------------------------------------------------------------------




--------------------------------------- Iteration      1(  21)  ---------------------------------------


    POTLOK:  cpu time    0.2487: real time    0.2487
    SETDIJ:  cpu time    0.0242: real time    0.0242
     EDDAV:  cpu time    7.3360: real time    7.3375
       DOS:  cpu time    0.0013: real time    0.0013
    CHARGE:  cpu time    0.2149: real time    0.2149
    MIXING:  cpu time    0.0143: real time    0.0143
    --------------------------------------------
      LOOP:  cpu time    7.8394: real time    7.8409

 eigenvalue-minimisations  :  1288
 total energy-change (2. order) : 0.1239794E+00  (-0.4511970E-01)
 number of electron     792.0000128 magnetization 
 augmentation part      312.0258024 magnetization 

 Broyden mixing:
  rms(total) = 0.39860E+00    rms(broyden)= 0.39828E+00
  rms(prec ) = 0.42484E+00
  weight for this iteration     100.00

 eigenvalues of (default mixing * dielectric matrix)
  average eigenvalue GAMMA=   0.5796
  2.0864  1.7517  1.7517  0.5588  0.5588  0.4203  0.4203  0.4055  0.2753  0.0956
  0.1855  0.1855  0.1486  0.1486  0.1404  0.1404

 Free energy of the ion-electron system (eV)
  ---------------------------------------------------
  alpha Z        PSCENC =      1909.09476555
  Ewald energy   TEWEN  =    219140.85535950
  -Hartree energ DENC   =   -340646.70477196
  -exchange      EXHF   =         0.00000000
  -V(xc)+E(xc)   XCENC  =      3652.66477421
  PAW double counting   =    139507.98614114  -144497.42005729
  entropy T*S    EENTRO =        -1.06285040
  eigenvalues    EBANDS =    -15418.02167313
  atomic energy  EATOM  =    136002.60505376
  Solvation  Ediel_sol  =         0.00000000
  ---------------------------------------------------
  free energy    TOTEN  =      -350.00325862 eV

  energy without entropy =     -348.94040822  energy(sigma->0) =     -349.47183342


--------------------------------------------------------------------------------------------------------




--------------------------------------- Iteration      1(  22)  ---------------------------------------


    POTLOK:  cpu time    0.2534: real time    0.2534
    SETDIJ:  cpu time    0.0190: real time    0.0190
     EDDAV:  cpu time    6.8317: real time    6.8328
       DOS:  cpu time    0.0013: real time    0.0013
    CHARGE:  cpu time    0.2132: real time    0.2133
    MIXING:  cpu time    0.0148: real time    0.0148
    --------------------------------------------
      LOOP:  cpu time    7.3334: real time    7.3345

 eigenvalue-minimisations  :  1176
 total energy-change (2. order) : 0.3996708E-02  (-0.1154455E-01)
 number of electron     792.0000130 magnetization 
 augmentation part      312.0815430 magnetization 

 Broyden mixing:
  rms(total) = 0.37965E+00    rms(broyden)= 0.37960E+00
  rms(prec ) = 0.40324E+00
  weight for this iteration     100.00

 eigenvalues of (default mixing * dielectric matrix)
  average eigenvalue GAMMA=   0.5953
  2.0468  1.7844  1.7844  0.7364  0.7364  0.5206  0.4539  0.4539  0.3130  0.2199
  0.2199  0.0956  0.1615  0.1615  0.1453  0.1453  0.1412

 Free energy of the ion-electron system (eV)
  ---------------------------------------------------
  alpha Z        PSCENC =      1909.09476555
  Ewald energy   TEWEN  =    219140.85535950
  -Hartree energ DENC   =   -340646.97947748
  -exchange      EXHF   =         0.00000000
  -V(xc)+E(xc)   XCENC  =      3652.62593474
  PAW double counting   =    139464.48618047  -144453.40904779
  entropy T*S    EENTRO =        -1.05876534
  eigenvalues    EBANDS =    -15418.21926532
  atomic energy  EATOM  =    136002.60505376
  Solvation  Ediel_sol  =         0.00000000
  ---------------------------------------------------
  free energy    TOTEN  =      -349.99926191 eV

  energy without entropy =     -348.94049657  energy(sigma->0) =     -349.46987924


--------------------------------------------------------------------------------------------------------




--------------------------------------- Iteration      1(  23)  ---------------------------------------


    POTLOK:  cpu time    0.2487: real time    0.2487
    SETDIJ:  cpu time    0.0322: real time    0.0323
     EDDAV:  cpu time    6.5362: real time    6.5374
       DOS:  cpu time    0.0013: real time    0.0013
    CHARGE:  cpu time    0.2122: real time    0.2123
    MIXING:  cpu time    0.0154: real time    0.0154
    --------------------------------------------
      LOOP:  cpu time    7.0461: real time    7.0474

 eigenvalue-minimisations  :  1056
 total energy-change (2. order) : 0.4109862E-02  (-0.5127862E-02)
 number of electron     792.0000129 magnetization 
 augmentation part      312.1353513 magnetization 

 Broyden mixing:
  rms(total) = 0.35824E+00    rms(broyden)= 0.35820E+00
  rms(prec ) = 0.38211E+00
  weight for this iteration     100.00

 eigenvalues of (default mixing * dielectric matrix)
  average eigenvalue GAMMA=   0.6332
  2.0091  1.8495  1.8495  1.1027  1.1027  0.5321  0.5321  0.4518  0.4518  0.2394
  0.2394  0.0956  0.1771  0.1771  0.1469  0.1469  0.1511  0.1426

 Free energy of the ion-electron system (eV)
  ---------------------------------------------------
  alpha Z        PSCENC =      1909.09476555
  Ewald energy   TEWEN  =    219140.85535950
  -Hartree energ DENC   =   -340652.45711407
  -exchange      EXHF   =         0.00000000
  -V(xc)+E(xc)   XCENC  =      3652.59606230
  PAW double counting   =    139352.89200626  -144340.93204502
  entropy T*S    EENTRO =        -1.05619541
  eigenvalues    EBANDS =    -15413.59304493
  atomic energy  EATOM  =    136002.60505376
  Solvation  Ediel_sol  =         0.00000000
  ---------------------------------------------------
  free energy    TOTEN  =      -349.99515205 eV

  energy without entropy =     -348.93895664  energy(sigma->0) =     -349.46705434


--------------------------------------------------------------------------------------------------------




--------------------------------------- Iteration      1(  24)  ---------------------------------------


    POTLOK:  cpu time    0.2491: real time    0.2491
    SETDIJ:  cpu time    0.0189: real time    0.0189
     EDDAV:  cpu time    7.2562: real time    7.2576
       DOS:  cpu time    0.0013: real time    0.0013
    CHARGE:  cpu time    0.2123: real time    0.2124
    MIXING:  cpu time    0.0193: real time    0.0193
    --------------------------------------------
      LOOP:  cpu time    7.7572: real time    7.7586

 eigenvalue-minimisations  :  1256
 total energy-change (2. order) : 0.5049803E-02  (-0.8305711E-02)
 number of electron     792.0000128 magnetization 
 augmentation part      312.2366754 magnetization 

 Broyden mixing:
  rms(total) = 0.30579E+00    rms(broyden)= 0.30564E+00
  rms(prec ) = 0.33357E+00
  weight for this iteration     100.00

 eigenvalues of (default mixing * dielectric matrix)
  average eigenvalue GAMMA=   0.6612
  2.1055  1.9134  1.9134  1.3411  1.3411  0.6482  0.6482  0.4485  0.4485  0.2818
  0.2412  0.0956  0.1921  0.1921  0.1593  0.1593  0.1460  0.1460  0.1415

 Free energy of the ion-electron system (eV)
  ---------------------------------------------------
  alpha Z        PSCENC =      1909.09476555
  Ewald energy   TEWEN  =    219140.85535950
  -Hartree energ DENC   =   -340661.13253749
  -exchange      EXHF   =         0.00000000
  -V(xc)+E(xc)   XCENC  =      3652.58187180
  PAW double counting   =    139196.53896545  -144183.41108404
  entropy T*S    EENTRO =        -1.06249216
  eigenvalues    EBANDS =    -15406.06000463
  atomic energy  EATOM  =    136002.60505376
  Solvation  Ediel_sol  =         0.00000000
  ---------------------------------------------------
  free energy    TOTEN  =      -349.99010224 eV

  energy without entropy =     -348.92761009  energy(sigma->0) =     -349.45885616


--------------------------------------------------------------------------------------------------------




--------------------------------------- Iteration      1(  25)  ---------------------------------------


    POTLOK:  cpu time    0.2477: real time    0.2480
    SETDIJ:  cpu time    0.0192: real time    0.0192
     EDDAV:  cpu time    7.6971: real time    7.6983
       DOS:  cpu time    0.0012: real time    0.0012
    CHARGE:  cpu time    0.2168: real time    0.2169
    MIXING:  cpu time    0.0174: real time    0.0174
    --------------------------------------------
      LOOP:  cpu time    8.1995: real time    8.2010

 eigenvalue-minimisations  :  1312
 total energy-change (2. order) : 0.1470312E-01  (-0.1242286E-01)
 number of electron     792.0000127 magnetization 
 augmentation part      312.3437565 magnetization 

 Broyden mixing:
  rms(total) = 0.23251E+00    rms(broyden)= 0.23228E+00
  rms(prec ) = 0.25272E+00
  weight for this iteration     100.00

 eigenvalues of (default mixing * dielectric matrix)
  average eigenvalue GAMMA=   0.6714
  2.1535  2.1535  1.7623  1.7623  1.0021  1.0021  0.5714  0.4489  0.4489  0.4310
  0.2388  0.2388  0.0956  0.1939  0.1738  0.1462  0.1462  0.1583  0.1583  0.1416

 Free energy of the ion-electron system (eV)
  ---------------------------------------------------
  alpha Z        PSCENC =      1909.09476555
  Ewald energy   TEWEN  =    219140.85535950
  -Hartree energ DENC   =   -340669.99942985
  -exchange      EXHF   =         0.00000000
  -V(xc)+E(xc)   XCENC  =      3652.54698255
  PAW double counting   =    139140.24887351  -144126.50633749
  entropy T*S    EENTRO =        -1.05697451
  eigenvalues    EBANDS =    -15397.76369215
  atomic energy  EATOM  =    136002.60505376
  Solvation  Ediel_sol  =         0.00000000
[...]
    FORCOR:  cpu time    0.3361: real time    0.3362
    FORHAR:  cpu time    0.1486: real time    0.1486
    MIXING:  cpu time    0.0229: real time    0.0229
    OFIELD:  cpu time    0.0001: real time    0.0001

  FORCE on cell =-STRESS in cart. coord.  units (eV):
  Direction    XX          YY          ZZ          XY          YZ          ZX
  --------------------------------------------------------------------------------------
  Alpha Z  1909.09477  1909.09477  1909.09477
  Ewald  270527.14599268705.02005************ -2200.64521 -1464.75746   171.47684
  Hartree306252.40744304523.95886************ -1599.02120 -1055.24937   129.61882
  E(xc)   -5052.42826 -5052.27317 -5058.08735    -1.43115    -1.30650     0.35973
  Local  ************************577068.20434  3770.79760  2476.75060  -287.67584
  n-local  -612.49539  -622.51136  -637.43499    -2.18475     7.11910    -0.04171
  augment  5777.78313  5784.24574  5812.07055     8.42598     6.86426    -1.07704
  Kinetic 11082.39825 11076.74972 11152.33522    21.31631    33.00431    -7.07048
  Fock        0.00000     0.00000     0.00000     0.00000     0.00000     0.00000
  -------------------------------------------------------------------------------------
  Total      97.51920    79.93296    98.99946    -2.74242     2.42494     5.59032
  in kB      80.18571    65.72533    81.40286    -2.25497     1.99392     4.59667
  external pressure =       75.77 kB  Pullay stress =        0.00 kB


 VOLUME and BASIS-vectors are now :
 -----------------------------------------------------------------------------
  energy-cutoff  :      450.00
  volume of cell :     1948.51
      direct lattice vectors                 reciprocal lattice vectors
    10.079732985  0.000000000  0.000000000     0.099208977 -0.037612667  0.000000000
     3.573298043  9.425102554  0.000000000     0.000000000  0.106099641  0.000000000
     0.000000000  0.000000000 20.510139882     0.000000000  0.000000000  0.048756372

  length of vectors
    10.079732985 10.079732985 20.510139882     0.106099641  0.106099641  0.048756372


 FORCES acting on ions
    electron-ion (+dipol)            ewald-force                    non-local-force                 convergence-correction
 -----------------------------------------------------------------------------------------------
   0.212E+03 -.286E+03 0.289E+04   -.214E+03 0.286E+03 -.289E+04   0.223E+01 -.263E+00 -.367E+00   0.492E-01 0.621E-02 -.390E+00
   0.253E+03 -.158E+02 0.325E+03   -.252E+03 0.133E+02 -.321E+03   -.653E+00 0.168E+01 -.314E+01   0.372E-01 -.175E-01 -.371E+00
   0.383E+03 -.975E+02 -.233E+04   -.384E+03 0.986E+02 0.232E+04   0.149E+01 -.110E+01 0.117E+01   0.508E-02 0.117E-01 -.110E+00
   0.224E+03 0.342E+03 -.515E+04   -.229E+03 -.341E+03 0.516E+04   0.438E+01 -.184E+00 -.401E+01   -.305E-01 0.476E-01 0.125E+00
   0.462E+02 0.651E+03 0.429E+04   -.429E+02 -.653E+03 -.430E+04   -.268E+01 0.218E+01 0.328E+01   -.743E-01 0.500E-01 -.284E+00
   0.546E+03 0.138E+03 0.291E+04   -.550E+03 -.138E+03 -.291E+04   0.212E+01 0.571E+00 0.172E+01   -.365E-01 0.314E-02 -.383E+00
   0.574E+03 -.345E+03 -.400E+04   -.577E+03 0.347E+03 0.400E+04   0.173E+01 -.779E+00 -.127E+01   -.133E+00 -.262E-01 -.116E+00
   0.398E+03 -.149E+03 -.633E+03   -.399E+03 0.149E+03 0.635E+03   0.824E+00 -.299E+00 -.113E+01   -.740E-01 -.576E-01 -.395E+00
   0.232E+03 0.184E+03 0.128E+04   -.232E+03 -.186E+03 -.127E+04   0.510E+00 0.139E+01 -.401E+01   0.344E-01 -.629E-02 -.543E+00
   0.442E+03 -.136E+03 -.151E+04   -.443E+03 0.137E+03 0.151E+04   0.129E+01 -.123E+01 0.186E+01   0.187E-01 0.311E-01 -.477E+00
   0.221E+03 -.212E+03 -.473E+04   -.220E+03 0.213E+03 0.473E+04   -.899E+00 -.780E+00 -.272E+01   0.180E-01 -.144E-01 -.647E-01
   0.345E+03 -.120E+03 0.397E+04   -.348E+03 0.118E+03 -.397E+04   0.260E+01 0.111E+01 0.126E+01   0.172E+00 -.698E-01 -.316E+00
   0.160E+03 0.797E+03 -.392E+04   -.162E+03 -.803E+03 0.392E+04   0.138E+01 0.505E+01 0.570E+00   -.115E+00 0.532E-01 -.447E-01
   0.131E+03 -.225E+02 0.595E+04   -.131E+03 0.228E+02 -.595E+04   -.995E+00 0.109E-02 -.136E+01   0.165E-01 -.203E-01 -.118E+00
   -.136E+03 0.464E+03 0.229E+04   0.136E+03 -.467E+03 -.229E+04   0.783E-01 0.232E+01 -.219E+01   0.280E-01 0.108E-01 -.395E+00
   -.458E+02 0.606E+03 -.521E+03   0.450E+02 -.607E+03 0.521E+03   0.768E+00 0.657E+00 0.745E+00   -.563E-02 0.955E-01 -.406E+00
   0.445E+00 0.347E+03 0.147E+04   -.165E+01 -.346E+03 -.147E+04   0.130E+01 -.987E+00 -.208E+01   -.399E-01 -.144E+00 -.499E+00
   0.823E+02 0.379E+03 -.150E+04   -.834E+02 -.381E+03 0.150E+04   0.124E+01 0.270E+01 0.182E+01   0.233E-02 -.686E-01 -.370E+00
   0.353E+03 0.458E+03 -.465E+04   -.355E+03 -.464E+03 0.465E+04   0.132E+01 0.415E+01 -.804E+00   0.757E-01 -.686E-01 0.246E-01
   0.761E+01 -.333E+03 0.488E+04   -.864E+01 0.335E+03 -.489E+04   0.210E+01 -.326E+01 0.672E+01   -.148E-01 -.122E+00 -.251E+00
   -.425E+02 0.103E+04 0.411E+04   0.428E+02 -.103E+04 -.411E+04   -.651E+00 0.320E+01 0.137E+01   -.506E-01 0.162E+00 -.302E+00
   -.116E+03 0.435E+03 0.709E+03   0.115E+03 -.434E+03 -.707E+03   0.862E+00 -.154E+00 -.149E+01   -.409E-01 0.174E-01 -.475E+00
   -.117E+03 0.185E+03 -.247E+04   0.116E+03 -.188E+03 0.246E+04   -.514E+00 0.411E+01 0.189E+01   -.463E-02 -.163E+00 -.262E+00
   -.530E+03 -.193E+02 -.521E+04   0.532E+03 0.195E+02 0.521E+04   -.165E+01 -.534E+00 0.192E+01   0.212E-01 -.865E-01 0.105E+00
   -.578E+03 -.263E+03 -.461E+04   0.582E+03 0.268E+03 0.461E+04   -.236E+01 -.362E+01 -.262E+01   -.828E-01 0.129E+00 0.382E-01
   -.289E+02 -.804E+03 0.507E+04   0.277E+02 0.803E+03 -.508E+04   0.124E+01 0.936E+00 0.796E+01   0.325E-01 -.272E-01 -.232E+00
   -.435E+03 -.650E+03 0.161E+04   0.436E+03 0.651E+03 -.161E+04   -.887E+00 -.124E+01 -.257E+01   0.336E-01 -.324E-01 -.384E+00
   -.505E+03 -.309E+03 -.153E+04   0.505E+03 0.311E+03 0.153E+04   0.314E-01 -.146E+01 0.846E+00   -.281E-01 0.652E-01 -.346E+00
   -.391E+03 0.823E+02 0.435E+04   0.394E+03 -.826E+02 -.435E+04   -.141E+01 0.596E+00 0.231E+01   0.892E-01 0.674E-01 -.287E+00
   -.236E+03 -.486E+03 0.483E+03   0.235E+03 0.489E+03 -.483E+03   0.106E+01 -.240E+01 -.330E+00   0.913E-01 0.416E-01 -.463E+00
   -.231E+03 -.466E+03 -.261E+04   0.232E+03 0.469E+03 0.261E+04   -.126E+01 -.323E+01 -.476E+00   0.662E-01 -.259E-01 -.327E+00
   0.548E+02 -.338E+03 -.519E+04   -.506E+02 0.341E+03 0.519E+04   -.424E+01 -.170E+01 -.315E+01   0.115E+00 -.122E+00 0.114E+00
   -.175E+03 0.211E+02 0.573E+04   0.178E+03 -.207E+02 -.574E+04   -.203E+01 -.799E+00 0.892E+01   -.158E-01 -.340E-01 -.102E+00
   -.253E+03 -.408E+03 0.260E+04   0.254E+03 0.410E+03 -.260E+04   -.753E+00 -.730E+00 -.221E+01   -.156E+00 -.589E-01 -.453E+00
   -.394E+03 -.193E+03 -.493E+03   0.395E+03 0.194E+03 0.493E+03   -.670E+00 -.143E+01 0.111E+01   -.593E-01 0.498E-01 -.447E+00
   -.502E+03 -.122E+03 -.378E+04   0.505E+03 0.124E+03 0.378E+04   -.151E+01 -.128E+01 -.180E+01   0.270E-01 0.472E-01 -.124E+00
   -.115E+03 0.912E+02 -.643E+03   0.117E+03 -.910E+02 0.639E+03   -.175E+01 -.346E+00 0.182E+01   0.207E-01 0.307E-01 -.151E+00
   -.872E+02 0.111E+03 -.187E+04   0.882E+02 -.113E+03 0.188E+04   -.347E+00 0.195E+00 -.138E+01   0.203E-01 0.117E-01 0.391E-01
   -.174E+03 -.291E+03 0.193E+04   0.177E+03 0.294E+03 -.194E+04   -.441E+01 -.174E+01 0.211E+01   0.155E-01 -.240E-01 -.805E-01
   -.906E+02 0.765E+02 0.342E+03   0.902E+02 -.771E+02 -.340E+03   -.172E-01 0.590E+00 -.101E+01   0.355E-01 0.171E-01 -.184E+00
   -.585E+02 -.942E+02 0.165E+04   0.596E+02 0.945E+02 -.165E+04   -.362E+01 0.102E+01 0.242E+01   -.103E-01 -.684E-02 -.151E+00
   -.405E+02 0.648E+02 -.413E+02   0.408E+02 -.657E+02 0.431E+02   -.397E+00 0.575E+00 -.105E+01   0.175E-01 -.305E-01 -.152E+00
   -.712E+02 0.439E+02 -.987E+03   0.735E+02 -.439E+02 0.982E+03   -.946E+00 0.104E+00 0.165E+01   0.324E-01 -.557E-01 -.785E-01
   0.781E+02 0.185E+03 -.215E+04   -.776E+02 -.187E+03 0.215E+04   -.657E+00 0.916E+00 -.182E+01   0.667E-01 -.724E-01 0.696E-01
   0.147E+03 0.245E+02 0.216E+04   -.150E+03 -.231E+02 -.216E+04   0.766E+00 -.173E+01 0.337E+01   0.844E-02 -.230E-01 -.829E-01
   -.164E+03 0.190E+03 0.225E+04   0.165E+03 -.192E+03 -.226E+04   0.150E+00 0.891E+00 0.258E+01   -.901E-01 0.252E-01 -.469E-01
   -.677E+02 0.272E+03 0.904E+03   0.678E+02 -.274E+03 -.903E+03   0.376E+00 0.940E+00 0.246E+00   -.539E-01 0.120E-01 -.165E+00
   -.142E+03 0.776E+02 -.246E+03   0.144E+03 -.784E+02 0.244E+03   -.197E+01 0.238E+00 -.224E-01   -.399E-01 -.242E-01 -.168E+00
   -.369E+03 -.861E+02 -.166E+04   0.372E+03 0.863E+02 0.166E+04   -.532E-01 -.540E+00 -.119E+01   0.537E-02 -.579E-01 0.129E-01
   -.154E+02 -.130E+03 0.196E+04   0.141E+02 0.132E+03 -.197E+04   0.136E+01 -.744E+00 0.359E+01   0.125E-01 0.388E-01 -.760E-01
   -.245E+03 -.351E+03 0.884E+03   0.249E+03 0.354E+03 -.881E+03   -.126E+01 -.918E+00 0.336E-01   0.147E-01 0.141E-01 -.139E+00
   -.208E+02 -.194E+03 -.419E+03   0.213E+02 0.197E+03 0.420E+03   -.552E+00 -.272E+01 -.163E+01   0.229E-02 -.341E-02 -.120E+00
   -.176E+03 -.140E+03 -.163E+04   0.176E+03 0.145E+03 0.163E+04   0.313E+00 -.309E+01 -.223E+01   -.702E-01 -.137E-01 0.242E-01
   -.193E+03 0.244E+03 0.186E+04   0.194E+03 -.244E+03 -.186E+04   -.109E+01 -.567E+00 0.106E+01   0.243E-02 0.379E-01 -.911E-01
   -.406E+02 -.148E+03 0.334E+03   0.399E+02 0.151E+03 -.334E+03   0.168E+01 -.247E+01 0.144E+01   0.897E-02 0.383E-01 -.179E+00
   0.508E+02 -.174E+03 -.926E+03   -.512E+02 0.177E+03 0.926E+03   0.725E-01 -.304E+01 -.328E+00   0.189E-03 -.130E-01 -.905E-01
   0.192E+03 -.208E+03 -.209E+04   -.193E+03 0.210E+03 0.210E+04   0.663E+00 -.507E+00 -.157E+01   -.386E-01 -.351E-02 0.464E-01
   -.212E+03 -.241E+03 0.120E+04   0.216E+03 0.243E+03 -.119E+04   -.277E+01 -.310E+00 -.176E+01   -.313E-01 -.690E-01 -.176E+00
   0.215E+02 -.143E+03 -.734E+02   -.213E+02 0.146E+03 0.749E+02   -.113E+00 -.271E+01 -.169E+01   -.202E-01 -.949E-02 -.179E+00
   -.695E+01 -.153E+03 -.133E+04   0.737E+01 0.155E+03 0.133E+04   -.212E+00 -.133E+01 -.173E+01   -.310E-02 0.657E-01 -.653E-01
   0.444E+02 -.207E+03 0.228E+04   -.469E+02 0.209E+03 -.229E+04   0.225E+01 -.968E+00 0.463E+01   0.389E-01 -.643E-01 -.571E-02
   0.334E+03 -.716E+02 0.134E+04   -.338E+03 0.722E+02 -.134E+04   0.381E+01 -.133E+01 -.138E+01   0.711E-03 -.222E-01 -.132E+00
   0.143E+03 0.103E+03 -.142E+02   -.145E+03 -.104E+03 0.138E+02   0.227E+01 0.168E+01 0.811E+00   -.966E-02 0.222E-01 -.149E+00
   0.927E+02 0.257E+03 -.118E+04   -.952E+02 -.260E+03 0.118E+04   0.193E+01 0.120E+01 -.427E+00   -.424E-02 0.982E-01 0.121E-01
   -.291E+02 0.211E+03 -.225E+04   0.293E+02 -.212E+03 0.226E+04   -.179E+00 0.881E+00 -.296E+01   -.102E+00 0.679E-01 0.118E+00
   0.149E+03 0.312E+02 -.408E+03   -.152E+03 -.324E+02 0.408E+03   0.217E+01 0.149E+01 -.774E+00   -.234E-01 -.367E-01 -.133E+00
   0.186E+03 0.429E+02 -.164E+04   -.187E+03 -.438E+02 0.164E+04   0.102E-01 0.103E+00 -.183E+00   -.374E-02 -.358E-03 -.167E-01
   0.261E+03 -.383E+02 0.888E+03   -.265E+03 0.369E+02 -.887E+03   0.220E+01 0.478E+00 0.687E+00   -.141E-01 -.458E-01 -.173E+00
   0.233E+03 0.325E+03 0.176E+04   -.236E+03 -.326E+03 -.177E+04   0.838E+00 -.236E+00 0.148E+01   0.861E-01 0.610E-01 -.970E-01
   0.147E+03 0.649E+02 0.446E+03   -.148E+03 -.664E+02 -.447E+03   0.111E+01 0.172E+01 0.115E+01   0.434E-01 0.476E-01 -.194E+00
   0.173E+03 0.806E+02 -.725E+03   -.176E+03 -.826E+02 0.724E+03   0.218E+01 0.104E+01 -.423E+00   0.173E-01 -.159E-01 -.151E+00
   0.106E+03 -.163E+03 -.200E+04   -.107E+03 0.163E+03 0.201E+04   -.208E+00 0.165E+00 -.173E+01   0.457E-01 -.280E-01 0.440E-01
 -----------------------------------------------------------------------------------------------
   -.890E+01 0.831E+01 0.830E+00   0.105E-11 -.171E-12 0.318E-11   0.900E+01 -.790E+01 0.115E+02   -.464E-01 -.308E+00 -.124E+02
 
 
 POSITION                                       TOTAL-FORCE (eV/Angst)
 -----------------------------------------------------------------------------------
      6.18220      7.24174      3.32953         0.218357     -0.783703      0.074959
      7.43572      5.66537      4.57627         0.492160     -0.831914      0.902514
      8.41343      4.24907      7.20177         0.008372      0.020959     -0.625645
      8.71615      3.33145      9.47485        -0.938406      0.153367      0.887997
      6.90107      2.31521      2.10968         0.580313      0.194485     -0.324984
      7.96379      0.13692      3.10288        -1.921557      1.081440     -0.093442
      3.21062      6.91868      8.07694        -1.203130      0.522382     -0.737054
     12.31264      8.33497      5.45144         0.147845      0.164749      0.149236
      2.55881      2.99577      3.70110         0.775207     -0.644798      2.163494
      3.53652      1.57947      6.32660         0.393162     -0.252186     -0.328020
      4.34463      0.31116      8.67466         0.163474      0.213222      1.150013
     11.35731      4.29613      2.25087         0.262589     -0.502800      0.262627
      0.51382      1.09100      8.43993        -0.907457     -1.230885     -1.955772
      8.07107      4.16218      0.96583        -0.469389      0.248567     -1.002005
      8.63813      3.92359      3.18892         0.360114     -0.257889      2.292418
      9.61584      2.50729      5.81443        -0.081808     -0.380448     -0.057660
      3.43531      6.59319      4.06409         0.056955     -0.177780      1.258012
      4.41302      5.17689      6.68959         0.087660     -0.180283     -1.243712
      5.22364      3.93739      8.93604        -0.687065     -1.056327      0.536599
     12.66898      6.85310      1.83341         1.050162     -0.543042     -0.578736
      3.76121      1.25399      2.31376        -0.389416     -1.833160      0.669851
      8.31222      9.26279      4.93926         0.114852     -0.104119      0.245089
      9.28993      7.84650      7.56476        -1.023894      0.723668     -2.262587
      9.92832      6.60171      9.47898         0.548649     -0.444996      1.075846
      1.63504      3.25731      8.89225         1.901255      1.774414      0.776212
      7.89671      6.39800      1.85129         0.040542      0.008418     -1.673019
      9.84053      6.03956      3.88260         0.125682      0.302838      0.304869
     10.81824      4.62327      6.50810         0.051354      0.063945     -0.052637
     10.16643      0.70036      2.13226         1.543280      0.385324      0.834965
      4.63771      8.70917      4.75776        -0.210637      0.539204      0.097969
      5.61542      7.29287      7.38327         0.457881      0.189448     -1.572250
      6.80666      6.14394      9.59590         0.038328      1.150508      0.996979
      3.22083      3.45094      1.09993         0.468287     -0.436367     -1.247563
      4.96362      3.36996      3.00743        -0.232286      0.687395      1.591909
      5.94133      1.95367      5.63293        -0.121884     -0.128905      0.173047
      6.88221      0.64630      7.98411         0.672704      0.671193      1.130750
      1.57981      2.47018      7.00134        -0.529818     -0.134254     -2.825576
      2.51962      1.28132      9.08357         0.650683     -0.882027      2.154411
      9.70412      5.30277      1.75033        -1.441359      1.452142     -2.096057
     10.68183      3.88647      4.37584        -0.320419      0.052016      0.612921
      4.50130      7.97237      2.62550        -2.591244      1.308824     -1.776589
      5.47901      6.55607      5.25100        -0.079123     -0.420818      0.589424
      6.45673      5.13978      7.87651         1.385373      0.000973     -3.548181
      6.91423      4.13691     10.17560        -0.098423     -1.082601      2.250554
     12.34677      8.86657      1.31893        -1.484221     -0.401691     -3.011010
      5.02277      2.42115      1.12235         1.298084     -0.582296     -3.515077
      5.80492      1.21687      3.50067         0.433134     -0.793884      0.859811
     10.35593      9.22568      6.12617        -0.355797     -0.643191     -2.385124
     11.09101      8.06927      8.60349         2.644112     -0.350151      1.589725
      7.05431      8.46850      1.70886         0.119625      0.838237     -1.373956
      8.17302      7.52069      3.51693         3.064268      1.777658      2.866452
      9.15074      6.10439      6.14243        -0.105159     -0.166233     -0.400061
     10.12845      4.68809      8.76794         0.359459      1.242176     -0.515657
      8.92075      2.38577      1.70280        -0.034836     -0.470633     -1.218114
      9.47664      0.76519      4.39210         0.983153      0.472412      1.395468
      3.94792      8.77399      7.01760        -0.330006     -0.124580     -0.033010
      4.90065      6.97491      9.27212        -0.644655      1.714835      3.173135
      3.29611      4.85108      2.64176         1.492138      1.749623      2.241275
      4.27382      3.43479      5.26727         0.041649     -0.062021     -0.394179
      5.25153      2.01849      7.89277         0.201857      1.357992     -0.191599
      2.18307      5.22029      0.53991        -0.210889      0.853703     -3.197589
      6.64193      4.82628      2.63363        -0.715183     -0.774595     -0.767221
      7.61964      3.40999      5.25914         0.073393      0.017844      0.285564
      8.59735      1.99369      7.88464        -0.515543     -1.132386     -0.714855
     10.34656      2.25040     10.10397        -0.011233     -0.429645      3.677753
      2.41682      6.07959      6.13430        -0.289066      0.268704     -0.543867
      3.33302      4.74876      8.44875        -1.090074     -0.817355      1.999379
     11.51884      7.49589      3.50880        -1.359510     -0.981127      1.420546
      1.81203      2.09560      1.92782        -1.762235     -1.633469     -1.226205
      2.74272      0.74039      4.38397        -0.016912      0.269229      0.687938
      7.29374      8.74919      7.00947        -0.535732     -0.919834     -2.314380
      8.21748      7.72790      9.41868        -0.597747      0.120500      2.423683
 -----------------------------------------------------------------------------------
    total drift:                                0.044539      0.106534     -0.014910


--------------------------------------------------------------------------------------------------------



  FREE ENERGIE OF THE ION-ELECTRON SYSTEM (eV)
  ---------------------------------------------------
  free  energy   TOTEN  =      -349.94926584 eV

  energy  without entropy=     -348.89049952  energy(sigma->0) =     -349.41988268
 


--------------------------------------------------------------------------------------------------------


    POTLOK:  cpu time    0.2713: real time    0.2713


--------------------------------------------------------------------------------------------------------


     LOOP+:  cpu time  258.0203: real time  258.0715
    4ORBIT:  cpu time    0.0000: real time    0.0000

 total amount of memory used by VASP MPI-rank0    68336. kBytes
=======================================================================

   base      :      30000. kBytes
   nonlr-proj:       2297. kBytes
   fftplans  :       8265. kBytes
   grid      :      13942. kBytes
   one-center:         93. kBytes
   wavefun   :      13739. kBytes
 
  
  
 General timing and accounting informations for this job:
 ========================================================
  
                  Total CPU time used (sec):      260.880
                            User time (sec):      260.457
                          System time (sec):        0.423
                         Elapsed time (sec):      261.179
  
                   Maximum memory used (kb):      186308.
                   Average memory used (kb):           0.
  
                          Minor page faults:       123177
                          Major page faults:            0
                 Voluntary context switches:          184
