LAMMPS (5 Jun 2019)
OMP_NUM_THREADS environment is not set. Defaulting to 1 thread. (../comm.cpp:88)
  using 1 OpenMP thread(s) per MPI task
Reading data file ...
  triclinic box = (0 0 0) to (10.0797 9.4251 20.5101) with tilt (3.5733 0 0)
  1 by 1 by 1 MPI processor grid
  reading atoms ...
  72 atoms
  read_data CPU = 0.000811256 secs
44 atoms in group bulk
WARNING: Using 'neigh_modify every 1 delay 0 check yes' setting during minimization (../min.cpp:168)
Neighbor list info ...
  update every 1 steps, delay 0 steps, check yes
  max neighbors/atom: 2000, page size: 100000
  master list distance cutoff = 8.5
  ghost atom cutoff = 8.5
  binsize = 4.25, bins = 4 3 5
  1 neighbor lists, perpetual/occasional/extra = 1 0 0
  (1) pair eam/alloy, perpetual
      attributes: half, newton on
      pair build: half/bin/newton/tri
      stencil: half/bin/3d/newton/tri
      bin: standard
Setting up cg style minimization ...
  Unit style    : metal
  Current step  : 0
Per MPI rank memory allocation (min/avg/max) = 4.116 | 4.116 | 4.116 Mbytes
Step Temp E_pair E_mol TotEng Press 
       0            0   -307.48767            0   -307.48767   -129191.66 
      31            0   -323.97368            0   -323.97368    -53231.68 
Loop time of 0.0206028 on 1 procs for 31 steps with 72 atoms

97.1% CPU use with 1 MPI tasks x 1 OpenMP threads

Minimization stats:
  Stopping criterion = energy tolerance
  Energy initial, next-to-last, final = 
        -307.487669678     -323.970906835     -323.973677133
  Force two-norm initial, final = 10.542 0.180217
  Force max component initial, final = 3.12874 0.0604143
  Final line search alpha, max atom move = 0.540709 0.0326666
  Iterations, force evaluations = 31 42

MPI task timing breakdown:
Section |  min time  |  avg time  |  max time  |%varavg| %total
---------------------------------------------------------------
Pair    | 0.018637   | 0.018637   | 0.018637   |   0.0 | 90.46
Neigh   | 0.0011185  | 0.0011185  | 0.0011185  |   0.0 |  5.43
Comm    | 0.0004583  | 0.0004583  | 0.0004583  |   0.0 |  2.22
Output  | 0          | 0          | 0          |   0.0 |  0.00
Modify  | 2.9933e-05 | 2.9933e-05 | 2.9933e-05 |   0.0 |  0.15
Other   |            | 0.0003593  |            |       |  1.74

Nlocal:    72 ave 72 max 72 min
Histogram: 1 0 0 0 0 0 0 0 0 0
Nghost:    959 ave 959 max 959 min
Histogram: 1 0 0 0 0 0 0 0 0 0
Neighs:    4754 ave 4754 max 4754 min
Histogram: 1 0 0 0 0 0 0 0 0 0

Total # of neighbors = 4754
Ave neighs/atom = 66.0278
Neighbor list builds = 2
Dangerous builds = 0
System init for write_data ...
Total wall time: 0:00:00
