LAMMPS data file via write_data, version 5 Jun 2019, timestep = 31

72 atoms
2 atom types

0.0000000000000000e+00 1.0079732984900000e+01 xlo xhi
0.0000000000000000e+00 9.4251025535000004e+00 ylo yhi
0.0000000000000000e+00 2.0510139881800001e+01 zlo zhi
3.5732980426999998e+00 0.0000000000000000e+00 0.0000000000000000e+00 xy xz yz

Masses

1 58.71
2 32.06

Atoms # atomic

1 1 6.4580091940999953e+00 7.0816657522000002e+00 1.9507675415000001e+00 0 0 0
2 1 7.4357214876999995e+00 5.6653696065999997e+00 4.5762699323999998e+00 0 0 0
3 1 8.4134337948999995e+00 4.2490734703999999e+00 7.2017723234000002e+00 0 0 0
4 1 8.4413752739851624e+00 3.5498568492108782e+00 9.4092955788039188e+00 0 0 0
5 1 6.2597373611471943e+00 1.5582599165198063e+00 1.4980203736359614e+00 0 0 0
6 1 7.7616255985000002e+00 3.2616533460000002e-01 2.8259350050999998e+00 0 0 0
7 1 3.2284732895800339e+00 6.9357379888074240e+00 7.8250185315189764e+00 0 0 0
8 1 1.2312635938400000e+01 8.3349717519999995e+00 5.4514373961000002e+00 0 0 0
9 1 2.5588070506000000e+00 2.9957674706000001e+00 3.7011024687999998e+00 0 0 0
10 1 3.5365193478000001e+00 1.5794713344000000e+00 6.3266048596999997e+00 0 0 0
11 1 4.0336553365446610e+00 4.7432005835198465e-01 8.6662714689065492e+00 0 0 0
12 1 1.1612958567528386e+01 4.3914497147600349e+00 1.7572233833784199e+00 0 0 0
13 1 4.6463667994813557e-01 1.1932985637209017e+00 8.1198912299749786e+00 0 0 0
14 1 7.7878517731980041e+00 5.3179102439725501e+00 1.0181361657500876e+00 0 0 0
15 1 8.6381257309000006e+00 3.9235888449999998e+00 3.1889229480000001e+00 0 0 0
16 1 9.6158380345999994e+00 2.5072926994000002e+00 5.8144253595000004e+00 0 0 0
17 1 3.4353071931999977e+00 6.5931909810000002e+00 4.0640904115999996e+00 0 0 0
18 1 4.4130194867999988e+00 5.1768948353999997e+00 6.6895928230999999e+00 0 0 0
19 1 5.2406947038121254e+00 3.9068805541835068e+00 8.9589910950061729e+00 0 0 0
20 1 1.2537327870800000e+01 8.0094871171000008e+00 1.4385880206999999e+00 0 0 0
21 1 3.7612112902999990e+00 1.2539866996000000e+00 2.3137554843000001e+00 0 0 0
22 1 8.3122216301999998e+00 9.2627931168999993e+00 4.9392578753000000e+00 0 0 0
23 1 9.1541129940751738e+00 8.0745455820821945e+00 7.4281549616400833e+00 0 0 0
24 1 8.5580718645518008e+00 6.0415074676371967e+00 8.6295370674614293e+00 0 0 0
25 1 1.7484633569068746e+00 3.4090295840560887e+00 8.7853539151526086e+00 0 0 0
26 1 9.0997076938082770e+00 7.4513768027614793e+00 1.6955099987476527e+00 0 0 0
27 1 9.8405299722000006e+00 6.0395635483999994e+00 3.8825964504999999e+00 0 0 0
28 1 1.0818242269399994e+01 4.6232674121999997e+00 6.5080988413999998e+00 0 0 0
29 1 1.0166434072900000e+01 7.0035927639999995e-01 2.1322615026000000e+00 0 0 0
30 1 4.6377114243999955e+00 8.7091656844000003e+00 4.7577639140999999e+00 0 0 0
31 1 5.6154237316000000e+00 7.2928695481999997e+00 7.3832663051000003e+00 0 0 0
32 1 6.4286793363092052e+00 6.2420893334971401e+00 9.6500447517902153e+00 0 0 0
33 1 4.3392149954290975e+00 4.9218403721656001e+00 9.0851305288882511e-01 0 0 0
34 1 4.9636155250999998e+00 3.3699614123999999e+00 3.0074289663000000e+00 0 0 0
35 1 5.9413278288000004e+00 1.9536652668000001e+00 5.6329313778000003e+00 0 0 0
36 1 6.8851979078297108e+00 8.2918072637454909e-01 7.8731567344558337e+00 0 0 0
37 2 1.5798114468999982e+00 2.4701758255000001e+00 7.0013397091999998e+00 0 0 0
38 2 2.2293787086396017e+00 1.4114624813759744e+00 9.2506842205269351e+00 0 0 0
39 2 9.7041198409999989e+00 5.3027681073000004e+00 1.7503349273000000e+00 0 0 0
40 2 1.0681832138200001e+01 3.8864719711000002e+00 4.3758373183000003e+00 0 0 0
41 2 4.5013012931999992e+00 7.9723702433000003e+00 2.6255023909999999e+00 0 0 0
42 2 5.4790136004000001e+00 6.5560741070999988e+00 5.2510047818999999e+00 0 0 0
43 2 6.4567258976000002e+00 5.1397779710000000e+00 7.8765071729000002e+00 0 0 0
44 2 6.7803763320858330e+00 4.3057579008234592e+00 1.0329445959069824e+01 0 0 0
45 2 1.3374777446317934e+01 9.4218480779021601e+00 3.2379670202376654e-01 0 0 0
46 2 4.6177854237604015e+00 2.7637586736396651e+00 1.0638741766580901e+00 0 0 0
47 2 5.8049177010999999e+00 1.2168698352000000e+00 3.5006698545999999e+00 0 0 0
48 2 1.0355928037500000e+01 9.2256762431000006e+00 6.1261722456000003e+00 0 0 0
49 2 7.4940601638551305e+00 8.8041681048436669e+00 1.3428273206258836e+00 0 0 0
50 2 8.1730234298000006e+00 7.5206863411000002e+00 3.5169304780999995e+00 0 0 0
51 2 9.1507357270000007e+00 6.1043902048999996e+00 6.1424328691000003e+00 0 0 0
52 2 1.0128448030699991e+01 4.6880940593000000e+00 8.7679352599999998e+00 0 0 0
53 2 8.3823372411782167e+00 2.1252782559445476e+00 2.0252230351940335e+00 0 0 0
54 2 9.4766398240999976e+00 7.6518592350000003e-01 4.3920979418000003e+00 0 0 0
55 2 3.9479171891999978e+00 8.7739923408999996e+00 7.0176003326999998e+00 0 0 0
56 2 4.6915772866999799e+00 7.2312999541856309e+00 9.2425066702541088e+00 0 0 0
57 2 3.2961089826999976e+00 4.8510842051000003e+00 2.6417630145000000e+00 0 0 0
58 2 4.2738212863999996e+00 3.4347880595000002e+00 5.2672654053999999e+00 0 0 0
59 2 5.2515335834999997e+00 2.0184919233000000e+00 7.8927677964000011e+00 0 0 0
60 2 2.5169830238206434e+00 6.0180537021331171e+00 6.6410346087426131e-01 1 0 0
61 2 5.9812437384771586e+00 5.9969821259007308e+00 2.8135245481764759e-01 0 0 0
62 2 6.6419270177999996e+00 4.8262836029000002e+00 2.6336326925000000e+00 0 0 0
63 2 7.6196393214999985e+00 3.4099874572999997e+00 5.2591351039000003e+00 0 0 0
64 2 8.5973516186999994e+00 1.9936913211000000e+00 7.8846374948999998e+00 0 0 0
65 2 2.4168207736999978e+00 6.0795895931999997e+00 6.1343025675999998e+00 0 0 0
66 2 3.3711103384352468e+00 4.7714449297509391e+00 8.4672301898491202e+00 0 0 0
67 2 1.0539149098572777e+01 8.9203643586847505e+00 1.1226285085414547e+00 0 0 0
68 2 1.1518841464899999e+01 7.4958857388000002e+00 3.5088001561000000e+00 0 0 0
69 2 1.7467512350418510e+00 2.1815886700758016e+00 1.9944351377638136e+00 0 0 0
70 2 2.7427248743999999e+00 7.4038532130000001e-01 4.3839676197999999e+00 0 0 0
71 2 7.2937352243999953e+00 8.7491917387000004e+00 7.0094700311999993e+00 0 0 0
72 2 7.9542609090409639e+00 7.8584281347591798e+00 9.3396504370189035e+00 0 0 0

Velocities

1 0.0000000000000000e+00 0.0000000000000000e+00 0.0000000000000000e+00
2 0.0000000000000000e+00 0.0000000000000000e+00 0.0000000000000000e+00
3 0.0000000000000000e+00 0.0000000000000000e+00 0.0000000000000000e+00
4 0.0000000000000000e+00 0.0000000000000000e+00 0.0000000000000000e+00
5 0.0000000000000000e+00 0.0000000000000000e+00 0.0000000000000000e+00
6 0.0000000000000000e+00 0.0000000000000000e+00 0.0000000000000000e+00
7 0.0000000000000000e+00 0.0000000000000000e+00 0.0000000000000000e+00
8 0.0000000000000000e+00 0.0000000000000000e+00 0.0000000000000000e+00
9 0.0000000000000000e+00 0.0000000000000000e+00 0.0000000000000000e+00
10 0.0000000000000000e+00 0.0000000000000000e+00 0.0000000000000000e+00
11 0.0000000000000000e+00 0.0000000000000000e+00 0.0000000000000000e+00
12 0.0000000000000000e+00 0.0000000000000000e+00 0.0000000000000000e+00
13 0.0000000000000000e+00 0.0000000000000000e+00 0.0000000000000000e+00
14 0.0000000000000000e+00 0.0000000000000000e+00 0.0000000000000000e+00
15 0.0000000000000000e+00 0.0000000000000000e+00 0.0000000000000000e+00
16 0.0000000000000000e+00 0.0000000000000000e+00 0.0000000000000000e+00
17 0.0000000000000000e+00 0.0000000000000000e+00 0.0000000000000000e+00
18 0.0000000000000000e+00 0.0000000000000000e+00 0.0000000000000000e+00
19 0.0000000000000000e+00 0.0000000000000000e+00 0.0000000000000000e+00
20 0.0000000000000000e+00 0.0000000000000000e+00 0.0000000000000000e+00
21 0.0000000000000000e+00 0.0000000000000000e+00 0.0000000000000000e+00
22 0.0000000000000000e+00 0.0000000000000000e+00 0.0000000000000000e+00
23 0.0000000000000000e+00 0.0000000000000000e+00 0.0000000000000000e+00
24 0.0000000000000000e+00 0.0000000000000000e+00 0.0000000000000000e+00
25 0.0000000000000000e+00 0.0000000000000000e+00 0.0000000000000000e+00
26 0.0000000000000000e+00 0.0000000000000000e+00 0.0000000000000000e+00
27 0.0000000000000000e+00 0.0000000000000000e+00 0.0000000000000000e+00
28 0.0000000000000000e+00 0.0000000000000000e+00 0.0000000000000000e+00
29 0.0000000000000000e+00 0.0000000000000000e+00 0.0000000000000000e+00
30 0.0000000000000000e+00 0.0000000000000000e+00 0.0000000000000000e+00
31 0.0000000000000000e+00 0.0000000000000000e+00 0.0000000000000000e+00
32 0.0000000000000000e+00 0.0000000000000000e+00 0.0000000000000000e+00
33 0.0000000000000000e+00 0.0000000000000000e+00 0.0000000000000000e+00
34 0.0000000000000000e+00 0.0000000000000000e+00 0.0000000000000000e+00
35 0.0000000000000000e+00 0.0000000000000000e+00 0.0000000000000000e+00
36 0.0000000000000000e+00 0.0000000000000000e+00 0.0000000000000000e+00
37 0.0000000000000000e+00 0.0000000000000000e+00 0.0000000000000000e+00
38 0.0000000000000000e+00 0.0000000000000000e+00 0.0000000000000000e+00
39 0.0000000000000000e+00 0.0000000000000000e+00 0.0000000000000000e+00
40 0.0000000000000000e+00 0.0000000000000000e+00 0.0000000000000000e+00
41 0.0000000000000000e+00 0.0000000000000000e+00 0.0000000000000000e+00
42 0.0000000000000000e+00 0.0000000000000000e+00 0.0000000000000000e+00
43 0.0000000000000000e+00 0.0000000000000000e+00 0.0000000000000000e+00
44 0.0000000000000000e+00 0.0000000000000000e+00 0.0000000000000000e+00
45 0.0000000000000000e+00 0.0000000000000000e+00 0.0000000000000000e+00
46 0.0000000000000000e+00 0.0000000000000000e+00 0.0000000000000000e+00
47 0.0000000000000000e+00 0.0000000000000000e+00 0.0000000000000000e+00
48 0.0000000000000000e+00 0.0000000000000000e+00 0.0000000000000000e+00
49 0.0000000000000000e+00 0.0000000000000000e+00 0.0000000000000000e+00
50 0.0000000000000000e+00 0.0000000000000000e+00 0.0000000000000000e+00
51 0.0000000000000000e+00 0.0000000000000000e+00 0.0000000000000000e+00
52 0.0000000000000000e+00 0.0000000000000000e+00 0.0000000000000000e+00
53 0.0000000000000000e+00 0.0000000000000000e+00 0.0000000000000000e+00
54 0.0000000000000000e+00 0.0000000000000000e+00 0.0000000000000000e+00
55 0.0000000000000000e+00 0.0000000000000000e+00 0.0000000000000000e+00
56 0.0000000000000000e+00 0.0000000000000000e+00 0.0000000000000000e+00
57 0.0000000000000000e+00 0.0000000000000000e+00 0.0000000000000000e+00
58 0.0000000000000000e+00 0.0000000000000000e+00 0.0000000000000000e+00
59 0.0000000000000000e+00 0.0000000000000000e+00 0.0000000000000000e+00
60 0.0000000000000000e+00 0.0000000000000000e+00 0.0000000000000000e+00
61 0.0000000000000000e+00 0.0000000000000000e+00 0.0000000000000000e+00
62 0.0000000000000000e+00 0.0000000000000000e+00 0.0000000000000000e+00
63 0.0000000000000000e+00 0.0000000000000000e+00 0.0000000000000000e+00
64 0.0000000000000000e+00 0.0000000000000000e+00 0.0000000000000000e+00
65 0.0000000000000000e+00 0.0000000000000000e+00 0.0000000000000000e+00
66 0.0000000000000000e+00 0.0000000000000000e+00 0.0000000000000000e+00
67 0.0000000000000000e+00 0.0000000000000000e+00 0.0000000000000000e+00
68 0.0000000000000000e+00 0.0000000000000000e+00 0.0000000000000000e+00
69 0.0000000000000000e+00 0.0000000000000000e+00 0.0000000000000000e+00
70 0.0000000000000000e+00 0.0000000000000000e+00 0.0000000000000000e+00
71 0.0000000000000000e+00 0.0000000000000000e+00 0.0000000000000000e+00
72 0.0000000000000000e+00 0.0000000000000000e+00 0.0000000000000000e+00
