  60  60   0   0
  0.3182702E+02  0.9578410E-09  0.1125646E-08  0.1771136E-08  0.5000000E-15
  1.000000000000000E-004
  CAR 
 "Millerite NiS"                         
      9.89240916    -67.38650062  301      0.29188788      1.00000000
    -67.387  0.0000E+00  0.0000E+00
    -67.129  0.0000E+00  0.0000E+00
    -66.871  0.0000E+00  0.0000E+00
    -66.614  0.0000E+00  0.0000E+00
    -66.356  0.0000E+00  0.0000E+00
    -66.099  0.0000E+00  0.0000E+00
    -65.841  0.0000E+00  0.0000E+00
    -65.583  0.0000E+00  0.0000E+00
    -65.326  0.0000E+00  0.0000E+00
    -65.068  0.0000E+00  0.0000E+00
    -64.811  0.1845E-09  0.4753E-10
    -64.553  0.1112E-04  0.2864E-05
    -64.295  0.3407E-01  0.8779E-02
    -64.038  0.6174E+01  0.1599E+01
    -63.780  0.8619E+02  0.2380E+02
    -63.523  0.1767E+03  0.6931E+02
    -63.265  0.1620E+03  0.1110E+03
    -63.007  0.1095E+03  0.1393E+03
    -62.750  0.7855E+02  0.1595E+03
    -62.492  0.4162E+02  0.1702E+03
    -62.235  0.2507E+02  0.1767E+03
    -61.977  0.1203E+02  0.1798E+03
    -61.719  0.9140E+00  0.1800E+03
    -61.462  0.5215E-02  0.1800E+03
    -61.204  0.1557E-05  0.1800E+03
    -60.947  0.2020E-10  0.1800E+03
    -60.689  0.0000E+00  0.1800E+03
    -60.431  0.0000E+00  0.1800E+03
    -60.174  0.0000E+00  0.1800E+03
    -59.916  0.0000E+00  0.1800E+03
    -59.659  0.0000E+00  0.1800E+03
    -59.401  0.0000E+00  0.1800E+03
    -59.143  0.0000E+00  0.1800E+03
    -58.886  0.0000E+00  0.1800E+03
    -58.628  0.0000E+00  0.1800E+03
    -58.371  0.0000E+00  0.1800E+03
    -58.113  0.0000E+00  0.1800E+03
    -57.855  0.0000E+00  0.1800E+03
    -57.598  0.0000E+00  0.1800E+03
    -57.340  0.0000E+00  0.1800E+03
    -57.083  0.0000E+00  0.1800E+03
    -56.825  0.0000E+00  0.1800E+03
    -56.567  0.0000E+00  0.1800E+03
    -56.310  0.0000E+00  0.1800E+03
    -56.052  0.0000E+00  0.1800E+03
    -55.795  0.0000E+00  0.1800E+03
    -55.537  0.0000E+00  0.1800E+03
    -55.279  0.0000E+00  0.1800E+03
    -55.022  0.0000E+00  0.1800E+03
    -54.764  0.0000E+00  0.1800E+03
    -54.507  0.0000E+00  0.1800E+03
    -54.249  0.0000E+00  0.1800E+03
    -53.991  0.0000E+00  0.1800E+03
    -53.734  0.0000E+00  0.1800E+03
    -53.476  0.0000E+00  0.1800E+03
    -53.219  0.0000E+00  0.1800E+03
    -52.961  0.0000E+00  0.1800E+03
    -52.704  0.0000E+00  0.1800E+03
    -52.446  0.0000E+00  0.1800E+03
    -52.188  0.0000E+00  0.1800E+03
    -51.931  0.0000E+00  0.1800E+03
    -51.673  0.0000E+00  0.1800E+03
    -51.416  0.0000E+00  0.1800E+03
    -51.158  0.0000E+00  0.1800E+03
    -50.900  0.0000E+00  0.1800E+03
    -50.643  0.0000E+00  0.1800E+03
    -50.385  0.0000E+00  0.1800E+03
    -50.128  0.0000E+00  0.1800E+03
    -49.870  0.0000E+00  0.1800E+03
    -49.612  0.0000E+00  0.1800E+03
    -49.355  0.0000E+00  0.1800E+03
    -49.097  0.0000E+00  0.1800E+03
    -48.840  0.0000E+00  0.1800E+03
    -48.582  0.0000E+00  0.1800E+03
    -48.324  0.0000E+00  0.1800E+03
    -48.067  0.0000E+00  0.1800E+03
    -47.809  0.0000E+00  0.1800E+03
    -47.552  0.0000E+00  0.1800E+03
    -47.294  0.0000E+00  0.1800E+03
    -47.036  0.0000E+00  0.1800E+03
    -46.779  0.0000E+00  0.1800E+03
    -46.521  0.0000E+00  0.1800E+03
    -46.264  0.0000E+00  0.1800E+03
    -46.006  0.0000E+00  0.1800E+03
    -45.748  0.0000E+00  0.1800E+03
    -45.491  0.0000E+00  0.1800E+03
    -45.233  0.0000E+00  0.1800E+03
    -44.976  0.0000E+00  0.1800E+03
    -44.718  0.0000E+00  0.1800E+03
    -44.460  0.0000E+00  0.1800E+03
    -44.203  0.0000E+00  0.1800E+03
    -43.945  0.0000E+00  0.1800E+03
    -43.688  0.0000E+00  0.1800E+03
    -43.430  0.0000E+00  0.1800E+03
    -43.172  0.0000E+00  0.1800E+03
    -42.915  0.0000E+00  0.1800E+03
    -42.657  0.0000E+00  0.1800E+03
    -42.400  0.0000E+00  0.1800E+03
    -42.142  0.0000E+00  0.1800E+03
    -41.884  0.0000E+00  0.1800E+03
    -41.627  0.0000E+00  0.1800E+03
    -41.369  0.0000E+00  0.1800E+03
    -41.112  0.0000E+00  0.1800E+03
    -40.854  0.0000E+00  0.1800E+03
    -40.596  0.0000E+00  0.1800E+03
    -40.339  0.0000E+00  0.1800E+03
    -40.081  0.0000E+00  0.1800E+03
    -39.824  0.0000E+00  0.1800E+03
    -39.566  0.0000E+00  0.1800E+03
    -39.308  0.0000E+00  0.1800E+03
    -39.051  0.0000E+00  0.1800E+03
    -38.793  0.0000E+00  0.1800E+03
    -38.536  0.0000E+00  0.1800E+03
    -38.278  0.0000E+00  0.1800E+03
    -38.021  0.0000E+00  0.1800E+03
    -37.763  0.0000E+00  0.1800E+03
    -37.505  0.0000E+00  0.1800E+03
    -37.248  0.0000E+00  0.1800E+03
    -36.990  0.0000E+00  0.1800E+03
    -36.733  0.0000E+00  0.1800E+03
    -36.475  0.0000E+00  0.1800E+03
    -36.217  0.0000E+00  0.1800E+03
    -35.960  0.0000E+00  0.1800E+03
    -35.702  0.0000E+00  0.1800E+03
    -35.445  0.0000E+00  0.1800E+03
    -35.187  0.0000E+00  0.1800E+03
    -34.929  0.0000E+00  0.1800E+03
    -34.672  0.0000E+00  0.1800E+03
    -34.414  0.0000E+00  0.1800E+03
    -34.157  0.0000E+00  0.1800E+03
    -33.899  0.0000E+00  0.1800E+03
    -33.641  0.0000E+00  0.1800E+03
    -33.384  0.0000E+00  0.1800E+03
    -33.126  0.0000E+00  0.1800E+03
    -32.869  0.0000E+00  0.1800E+03
    -32.611  0.0000E+00  0.1800E+03
    -32.353  0.0000E+00  0.1800E+03
    -32.096  0.0000E+00  0.1800E+03
    -31.838  0.0000E+00  0.1800E+03
    -31.581  0.0000E+00  0.1800E+03
    -31.323  0.0000E+00  0.1800E+03
    -31.065  0.0000E+00  0.1800E+03
    -30.808  0.0000E+00  0.1800E+03
    -30.550  0.0000E+00  0.1800E+03
    -30.293  0.0000E+00  0.1800E+03
    -30.035  0.0000E+00  0.1800E+03
    -29.777  0.0000E+00  0.1800E+03
    -29.520  0.0000E+00  0.1800E+03
    -29.262  0.0000E+00  0.1800E+03
    -29.005  0.0000E+00  0.1800E+03
    -28.747  0.0000E+00  0.1800E+03
    -28.489  0.0000E+00  0.1800E+03
    -28.232  0.0000E+00  0.1800E+03
    -27.974  0.0000E+00  0.1800E+03
    -27.717  0.0000E+00  0.1800E+03
    -27.459  0.0000E+00  0.1800E+03
    -27.201  0.0000E+00  0.1800E+03
    -26.944  0.0000E+00  0.1800E+03
    -26.686  0.0000E+00  0.1800E+03
    -26.429  0.0000E+00  0.1800E+03
    -26.171  0.0000E+00  0.1800E+03
    -25.913  0.0000E+00  0.1800E+03
    -25.656  0.0000E+00  0.1800E+03
    -25.398  0.0000E+00  0.1800E+03
    -25.141  0.0000E+00  0.1800E+03
    -24.883  0.0000E+00  0.1800E+03
    -24.626  0.0000E+00  0.1800E+03
    -24.368  0.0000E+00  0.1800E+03
    -24.110  0.0000E+00  0.1800E+03
    -23.853  0.0000E+00  0.1800E+03
    -23.595  0.0000E+00  0.1800E+03
    -23.338  0.0000E+00  0.1800E+03
    -23.080  0.0000E+00  0.1800E+03
    -22.822  0.0000E+00  0.1800E+03
    -22.565  0.0000E+00  0.1800E+03
    -22.307  0.0000E+00  0.1800E+03
    -22.050  0.0000E+00  0.1800E+03
    -21.792  0.0000E+00  0.1800E+03
    -21.534  0.0000E+00  0.1800E+03
    -21.277  0.0000E+00  0.1800E+03
    -21.019  0.0000E+00  0.1800E+03
    -20.762  0.0000E+00  0.1800E+03
    -20.504  0.0000E+00  0.1800E+03
    -20.246  0.0000E+00  0.1800E+03
    -19.989  0.0000E+00  0.1800E+03
    -19.731  0.0000E+00  0.1800E+03
    -19.474  0.0000E+00  0.1800E+03
    -19.216  0.0000E+00  0.1800E+03
    -18.958  0.0000E+00  0.1800E+03
    -18.701  0.0000E+00  0.1800E+03
    -18.443  0.0000E+00  0.1800E+03
    -18.186  0.0000E+00  0.1800E+03
    -17.928  0.0000E+00  0.1800E+03
    -17.670  0.0000E+00  0.1800E+03
    -17.413  0.0000E+00  0.1800E+03
    -17.155  0.0000E+00  0.1800E+03
    -16.898  0.0000E+00  0.1800E+03
    -16.640  0.0000E+00  0.1800E+03
    -16.382  0.0000E+00  0.1800E+03
    -16.125  0.0000E+00  0.1800E+03
    -15.867  0.7715E-13  0.1800E+03
    -15.610  0.2149E-07  0.1800E+03
    -15.352  0.2369E-03  0.1800E+03
    -15.094  0.1113E+00  0.1800E+03
    -14.837  0.2662E+01  0.1807E+03
    -14.579  0.4478E+01  0.1819E+03
    -14.322  0.3577E+01  0.1828E+03
    -14.064  0.1409E+02  0.1864E+03
    -13.806  0.1094E+02  0.1892E+03
    -13.549  0.1979E+02  0.1943E+03
    -13.291  0.2527E+02  0.2008E+03
    -13.034  0.2833E+02  0.2081E+03
    -12.776  0.2581E+02  0.2148E+03
    -12.518  0.1882E+02  0.2196E+03
    -12.261  0.1820E+02  0.2243E+03
    -12.003  0.2129E+02  0.2298E+03
    -11.746  0.1606E+02  0.2340E+03
    -11.488  0.7160E+01  0.2358E+03
    -11.230  0.6883E+01  0.2376E+03
    -10.973  0.8383E+01  0.2397E+03
    -10.715  0.1045E+01  0.2400E+03
    -10.458  0.8545E-02  0.2400E+03
    -10.200  0.3470E-05  0.2400E+03
     -9.943  0.6007E-10  0.2400E+03
     -9.685  0.0000E+00  0.2400E+03
     -9.427  0.0000E+00  0.2400E+03
     -9.170  0.0000E+00  0.2400E+03
     -8.912  0.0000E+00  0.2400E+03
     -8.655  0.0000E+00  0.2400E+03
     -8.397  0.0000E+00  0.2400E+03
     -8.139  0.0000E+00  0.2400E+03
     -7.882  0.0000E+00  0.2400E+03
     -7.624  0.4409E-12  0.2400E+03
     -7.367  0.8216E-07  0.2400E+03
     -7.109  0.6145E-03  0.2400E+03
     -6.851  0.2103E+00  0.2401E+03
     -6.594  0.4976E+01  0.2413E+03
     -6.336  0.1860E+02  0.2461E+03
     -6.079  0.2190E+02  0.2518E+03
     -5.821  0.2253E+02  0.2576E+03
     -5.563  0.3254E+02  0.2660E+03
     -5.306  0.3746E+02  0.2756E+03
     -5.048  0.3508E+02  0.2846E+03
     -4.791  0.3843E+02  0.2945E+03
     -4.533  0.3568E+02  0.3037E+03
     -4.275  0.3428E+02  0.3126E+03
     -4.018  0.4536E+02  0.3242E+03
     -3.760  0.5423E+02  0.3382E+03
     -3.503  0.5748E+02  0.3530E+03
     -3.245  0.5569E+02  0.3674E+03
     -2.987  0.4572E+02  0.3791E+03
     -2.730  0.4340E+02  0.3903E+03
     -2.472  0.4556E+02  0.4021E+03
     -2.215  0.5662E+02  0.4166E+03
     -1.957  0.6986E+02  0.4346E+03
     -1.699  0.8392E+02  0.4563E+03
     -1.442  0.9459E+02  0.4806E+03
     -1.184  0.1320E+03  0.5146E+03
     -0.927  0.1465E+03  0.5524E+03
     -0.669  0.1231E+03  0.5841E+03
     -0.411  0.1071E+03  0.6117E+03
     -0.154  0.8740E+02  0.6342E+03
      0.104  0.6143E+02  0.6500E+03
      0.361  0.5243E+02  0.6635E+03
      0.619  0.4810E+02  0.6759E+03
      0.877  0.5165E+02  0.6892E+03
      1.134  0.4669E+02  0.7012E+03
      1.392  0.4250E+02  0.7122E+03
      1.649  0.2562E+02  0.7188E+03
      1.907  0.1023E+02  0.7214E+03
      2.165  0.9297E+01  0.7238E+03
      2.422  0.5902E+01  0.7253E+03
      2.680  0.4134E+01  0.7264E+03
      2.937  0.1023E+02  0.7290E+03
      3.195  0.1257E+02  0.7323E+03
      3.453  0.1069E+02  0.7350E+03
      3.710  0.4756E+01  0.7363E+03
      3.968  0.9931E+01  0.7388E+03
      4.225  0.1594E+02  0.7429E+03
      4.483  0.1480E+02  0.7467E+03
      4.740  0.1065E+02  0.7495E+03
      4.998  0.2319E+02  0.7554E+03
      5.256  0.2809E+02  0.7627E+03
      5.513  0.2371E+02  0.7688E+03
      5.771  0.3420E+02  0.7776E+03
      6.028  0.3800E+02  0.7874E+03
      6.286  0.2967E+02  0.7950E+03
      6.544  0.1722E+02  0.7995E+03
      6.801  0.2049E+01  0.8000E+03
      7.059  0.1983E-01  0.8000E+03
      7.316  0.9757E-05  0.8000E+03
      7.574  0.2024E-09  0.8000E+03
      7.832  0.0000E+00  0.8000E+03
      8.089  0.0000E+00  0.8000E+03
      8.347  0.0000E+00  0.8000E+03
      8.604  0.0000E+00  0.8000E+03
      8.862  0.0000E+00  0.8000E+03
      9.120  0.0000E+00  0.8000E+03
      9.377  0.0000E+00  0.8000E+03
      9.635  0.0000E+00  0.8000E+03
      9.892  0.0000E+00  0.8000E+03
