 vasp.6.1.0 28Jan20 (build Mar 31 2020 17:42:31) gamma-only                     
  
 executed on             LinuxIFC date 2020.04.12  21:01:04
 running on   48 total cores
 distrk:  each k-point on   48 cores,    1 groups
 distr:  one band on NCORE=   6 cores,    8 groups


--------------------------------------------------------------------------------------------------------


 INCAR:
 POTCAR:    PAW_PBE Ni_pv 06Sep2000               
 POTCAR:    PAW_PBE S 06Sep2000                   
 POTCAR:    PAW_PBE Ni_pv 06Sep2000               
   VRHFIN =Ni:                                                                                      
   LEXCH  = PE                                                                                      
   EATOM  =  3501.1230 eV,  257.3253 Ry                                                             
                                                                                                    
   TITEL  = PAW_PBE Ni_pv 06Sep2000                                                                 
   LULTRA =        F    use ultrasoft PP ?                                                          
   IUNSCR =        1    unscreen: 0-lin 1-nonlin 2-no                                               
   RPACOR =    1.500    partial core radius                                                         
   POMASS =   58.690; ZVAL   =   16.000    mass and valenz                                          
   RCORE  =    2.000    outmost cutoff radius                                                       
   RWIGS  =    2.000; RWIGS  =    1.058    wigner-seitz radius (au A)                               
   ENMAX  =  367.986; ENMIN  =  275.989 eV                                                          
   RCLOC  =    1.301    cutoff for local pot                                                        
   LCOR   =        T    correct aug charges                                                         
   LPAW   =        T    paw PP                                                                      
   EAUG   =  703.443                                                                                
   DEXC   =    0.000                                                                                
   RMAX   =    2.041    core radius for proj-oper                                                   
   RAUG   =    1.300    factor for augmentation sphere                                              
   RDEP   =    2.103    radius for radial grids                                                     
   RDEPT  =    1.618    core radius for aug-charge                                                  
                                                                                                    
   Atomic configuration                                                                             
    8 entries                                                                                       
     n  l   j            E        occ.                                                              
     1  0  0.50     -8206.4253   2.0000                                                             
     2  0  0.50      -976.1748   2.0000                                                             
     2  1  1.50      -839.0571   6.0000                                                             
     3  0  0.50      -105.9991   2.0000                                                             
     3  1  1.50       -66.4603   6.0000                                                             
     3  2  2.50        -4.6458   9.0000                                                             
     4  0  0.50        -4.4926   1.0000                                                             
     4  3  2.50        -1.3606   0.0000                                                             
   Description                                                                                      
     l       E           TYP  RCUT    TYP  RCUT                                                     
     1    -66.4602962     23  1.700                                                                 
     1     -1.3605826     23  1.700                                                                 
     2     -4.6457867     23  2.000                                                                 
     2     -6.0063693     23  2.000                                                                 
     0     -4.4925576     23  1.900                                                                 
     0     16.3626226     23  1.900                                                                 
  local pseudopotential read in
  partial core-charges read in
  partial kinetic energy density read in
  atomic valenz-charges read in
  non local Contribution for L=           1  read in
    real space projection operators read in
  non local Contribution for L=           1  read in
    real space projection operators read in
  non local Contribution for L=           2  read in
    real space projection operators read in
  non local Contribution for L=           2  read in
    real space projection operators read in
  non local Contribution for L=           0  read in
    real space projection operators read in
  non local Contribution for L=           0  read in
    real space projection operators read in
    PAW grid and wavefunctions read in
 
   number of l-projection  operators is LMAX  =           6
   number of lm-projection operators is LMMAX =          18
 
 POTCAR:    PAW_PBE S 06Sep2000                   
   VRHFIN =S : s2p4                                                                                 
   LEXCH  = PE                                                                                      
   EATOM  =   276.8230 eV,   20.3459 Ry                                                             
                                                                                                    
   TITEL  = PAW_PBE S 06Sep2000                                                                     
   LULTRA =        F    use ultrasoft PP ?                                                          
   IUNSCR =        1    unscreen: 0-lin 1-nonlin 2-no                                               
   RPACOR =    1.500    partial core radius                                                         
   POMASS =   32.066; ZVAL   =    6.000    mass and valenz                                          
   RCORE  =    1.900    outmost cutoff radius                                                       
   RWIGS  =    2.200; RWIGS  =    1.164    wigner-seitz radius (au A)                               
   ENMAX  =  258.689; ENMIN  =  194.016 eV                                                          
   ICORE  =        2    local potential                                                             
   LCOR   =        T    correct aug charges                                                         
   LPAW   =        T    paw PP                                                                      
   EAUG   =  335.092                                                                                
   DEXC   =    0.000                                                                                
   RMAX   =    1.942    core radius for proj-oper                                                   
   RAUG   =    1.300    factor for augmentation sphere                                              
   RDEP   =    1.954    radius for radial grids                                                     
   RDEPT  =    1.744    core radius for aug-charge                                                  
                                                                                                    
   Atomic configuration                                                                             
    6 entries                                                                                       
     n  l   j            E        occ.                                                              
     1  0  0.50     -2405.8406   2.0000                                                             
     2  0  0.50      -211.7007   2.0000                                                             
     2  1  1.50      -156.4958   6.0000                                                             
     3  0  0.50       -17.2562   2.0000                                                             
     3  1  0.50        -7.0085   4.0000                                                             
     3  2  1.50        -6.8029   0.0000                                                             
   Description                                                                                      
     l       E           TYP  RCUT    TYP  RCUT                                                     
     0    -17.2561641     23  1.900                                                                 
     0    -15.8743224     23  1.900                                                                 
     1     -7.0085400     23  1.900                                                                 
     1     -2.7779785     23  1.900                                                                 
     2     -6.8029130     23  1.900                                                                 
  local pseudopotential read in
  partial core-charges read in
  partial kinetic energy density read in
  atomic valenz-charges read in
  non local Contribution for L=           0  read in
    real space projection operators read in
  non local Contribution for L=           0  read in
    real space projection operators read in
  non local Contribution for L=           1  read in
    real space projection operators read in
  non local Contribution for L=           1  read in
    real space projection operators read in
    PAW grid and wavefunctions read in
 
   number of l-projection  operators is LMAX  =           4
   number of lm-projection operators is LMMAX =           8
 
 Optimization of the real space projectors (new method)

 maximal supplied QI-value         = 18.90
 optimisation between [QCUT,QGAM] = [ 10.77, 21.73] = [ 32.49,132.25] Ry 
 Optimized for a Real-space Cutoff    1.38 Angstroem

   l    n(q)    QCUT    max X(q) W(low)/X(q) W(high)/X(q)  e(spline) 
   1      8    10.771     2.836    0.40E-04    0.29E-04    0.12E-06
   1      8    10.771     4.023    0.10E-03    0.48E-04    0.29E-06
   2      8    10.771    73.368    0.42E-03    0.97E-04    0.44E-06
   2      8    10.771    69.010    0.42E-03    0.99E-04    0.45E-06
   0      9    10.771    54.797    0.10E-03    0.56E-04    0.74E-07
   0      9    10.771    24.266    0.89E-04    0.49E-04    0.67E-07
 Optimization of the real space projectors (new method)

 maximal supplied QI-value         = 19.84
 optimisation between [QCUT,QGAM] = [ 10.71, 21.63] = [ 32.15,130.99] Ry 
 Optimized for a Real-space Cutoff    1.19 Angstroem

   l    n(q)    QCUT    max X(q) W(low)/X(q) W(high)/X(q)  e(spline) 
   0      8    10.715   187.594    0.41E-03    0.53E-04    0.66E-07
   0      8    10.715   164.243    0.41E-03    0.53E-04    0.65E-07
   1      7    10.715    67.533    0.19E-03    0.59E-03    0.68E-07
   1      7    10.715    50.729    0.19E-03    0.58E-03    0.67E-07
  PAW_PBE Ni_pv 06Sep2000               :
 energy of atom  1       EATOM=-3501.1230
 kinetic energy error for atom=    0.0925 (will be added to EATOM!!)
  PAW_PBE S 06Sep2000                   :
 energy of atom  2       EATOM= -276.8230
 kinetic energy error for atom=    0.0033 (will be added to EATOM!!)
 
 
 POSCAR: Structure 26 made from 0-21-10.xsd file
  positions in direct lattice
  No initial velocities read in
 exchange correlation table for  LEXCH =        8
   RHO(1)=    0.500       N(1)  =     2000
   RHO(2)=  100.500       N(2)  =     4000
 


--------------------------------------------------------------------------------------------------------


 ion  position               nearest neighbor table
   1  0.638  0.429  0.080-  46 2.25  66 2.26  67 2.36  55 2.36  28 2.53  15 2.53
   2  0.729  0.611  0.200-  47 2.25  55 2.26  67 2.26  68 2.36  56 2.36  16 2.53  29 2.53
   3  0.820  0.793  0.320-  48 2.25  56 2.26  68 2.26  69 2.36  54 2.36  26 2.53  17 2.53
   4  0.911  0.975  0.440-  44 2.25  54 2.26  69 2.26  53 2.36  18 2.53  27 2.53
   5  0.456  0.066  0.280-  49 2.25  74 2.26  57 2.26  70 2.36  58 2.36  30 2.53  22 2.53
   6  0.547  0.248  0.400-  50 2.25  70 2.26  58 2.26  71 2.36  59 2.36  19 2.53  31 2.53
   7  0.638  0.430  0.520-  51 2.25  59 2.26  71 2.26  32 2.53
   8  0.274  0.702  0.040-  72 2.26  73 2.36  60 2.36  33 2.53  20 2.53
   9  0.365  0.884  0.160-  52 2.25  60 2.26  73 2.26  74 2.36  57 2.36  21 2.53  34 2.53
  10  0.002  0.156  0.120-  42 2.25  61 2.26  78 2.26  77 2.36  62 2.36  25 2.53  35 2.53
  11  0.093  0.339  0.240-  43 2.25  62 2.26  77 2.26  75 2.36  63 2.36  36 2.53  23 2.53
  12  0.184  0.521  0.360-  40 2.25  75 2.26  63 2.26  76 2.36  64 2.36  24 2.53  37 2.53
  13  0.275  0.703  0.480-  41 2.25  76 2.26  64 2.26  65 2.36  38 2.53
  14  0.911  0.974  0.000-  78 2.36  61 2.36  39 2.53
  15  0.686  0.261  0.143-  57 2.25  42 2.26  66 2.26  67 2.36  43 2.36  28 2.53   1 2.53
  16  0.777  0.443  0.264-  58 2.25  67 2.26  43 2.26  68 2.36  40 2.36   2 2.53  29 2.53
  17  0.868  0.625  0.384-  59 2.25  40 2.26  68 2.26  69 2.36  41 2.36  26 2.53   3 2.53
  18  0.959  0.807  0.504-  69 2.26  41 2.26   4 2.53  27 2.53
  19  0.596  0.080  0.464-  65 2.25  70 2.26  44 2.26  71 2.36  45 2.36   6 2.53  31 2.53
  20  0.322  0.534  0.103-  62 2.25  46 2.26  72 2.26  47 2.36  73 2.36  33 2.53   8 2.53
  21  0.413  0.716  0.224-  63 2.25  47 2.26  73 2.26  74 2.36  48 2.36   9 2.53  34 2.53
  22  0.504  0.898  0.344-  64 2.25  48 2.26  74 2.26  70 2.36  44 2.36  30 2.53   5 2.53
  23  0.141  0.171  0.304-  54 2.25  49 2.26  77 2.26  50 2.36  75 2.36  36 2.53  11 2.53
  24  0.232  0.353  0.424-  53 2.25  50 2.26  75 2.26  76 2.36  51 2.36  12 2.53  37 2.53
  25  0.050  0.988  0.184-  56 2.25  52 2.26  78 2.26  77 2.36  49 2.36  10 2.53  35 2.53
  26  0.084  0.793  0.320-  74 2.25  56 2.26  40 2.26  54 2.36  41 2.36  17 2.53   3 2.53
  27  0.175  0.975  0.440-  70 2.25  54 2.26  41 2.26  53 2.36   4 2.53  18 2.53
  28  0.902  0.429  0.080-  72 2.25  42 2.26  43 2.36  55 2.36  15 2.53   1 2.53
  29  0.993  0.611  0.200-  73 2.25  55 2.26  43 2.26  40 2.36  56 2.36   2 2.53  16 2.53
  30  0.721  0.066  0.280-  77 2.25  48 2.26  57 2.26  44 2.36  58 2.36  22 2.53   5 2.53
  31  0.812  0.248  0.400-  75 2.25  44 2.26  58 2.26  45 2.36  59 2.36   6 2.53  19 2.53
  32  0.903  0.430  0.520-  76 2.25  59 2.26  45 2.26   7 2.53
  33  0.538  0.702  0.040-  46 2.26  47 2.36  60 2.36  20 2.53   8 2.53
  34  0.630  0.884  0.160-  78 2.25  47 2.26  60 2.26  48 2.36  57 2.36   9 2.53  21 2.53
  35  0.266  0.156  0.120-  66 2.25  61 2.26  52 2.26  49 2.36  62 2.36  10 2.53  25 2.53
  36  0.357  0.339  0.240-  67 2.25  62 2.26  49 2.26  50 2.36  63 2.36  23 2.53  11 2.53
  37  0.448  0.521  0.360-  68 2.25  50 2.26  63 2.26  51 2.36  64 2.36  12 2.53  24 2.53
  38  0.539  0.703  0.480-  69 2.25  51 2.26  64 2.26  65 2.36  13 2.53
  39  0.175  0.974  0.000-  52 2.36  61 2.36  14 2.53
  40  0.013  0.579  0.311-  12 2.25  17 2.26  26 2.26  29 2.36  16 2.36
  41  0.104  0.761  0.431-  13 2.25  27 2.26  18 2.26  26 2.36  17 2.36
  42  0.831  0.215  0.071-  10 2.25  28 2.26  15 2.26
  43  0.922  0.397  0.191-  11 2.25  29 2.26  16 2.26  28 2.36  15 2.36
  44  0.741  0.034  0.391-   4 2.25  31 2.26  19 2.26  30 2.36  22 2.36
  45  0.832  0.216  0.511-  32 2.26  31 2.36  19 2.36
  46  0.468  0.488  0.031-   1 2.25  33 2.26  20 2.26
  47  0.559  0.670  0.151-   2 2.25  34 2.26  21 2.26  33 2.36  20 2.36
  48  0.650  0.852  0.271-   3 2.25  30 2.26  22 2.26  34 2.36  21 2.36
  49  0.286  0.125  0.231-   5 2.25  23 2.26  36 2.26  35 2.36  25 2.36
  50  0.377  0.307  0.351-   6 2.25  37 2.26  24 2.26  36 2.36  23 2.36
  51  0.468  0.489  0.471-   7 2.25  38 2.26  37 2.36  24 2.36
  52  0.195  0.942  0.111-   9 2.25  25 2.26  35 2.26  39 2.36
  53  0.134  0.157  0.471-  24 2.25  27 2.36   4 2.36
  54  0.043  0.975  0.350-  23 2.25  27 2.26   4 2.26  26 2.36   3 2.36
  55  0.861  0.611  0.110-  29 2.26   2 2.26  28 2.36   1 2.36
  56  0.952  0.793  0.230-  25 2.25  26 2.26   3 2.26  29 2.36   2 2.36
  57  0.588  0.066  0.190-  15 2.25   5 2.26  30 2.26   9 2.36  34 2.36
  58  0.680  0.248  0.310-  16 2.25   6 2.26  31 2.26   5 2.36  30 2.36
  59  0.771  0.430  0.430-  17 2.25  32 2.26   7 2.26   6 2.36  31 2.36
  60  0.497  0.884  0.070-   9 2.26  34 2.26   8 2.36  33 2.36
  61  0.134  0.156  0.030-  10 2.26  35 2.26  39 2.36  14 2.36
  62  0.225  0.339  0.150-  20 2.25  36 2.26  11 2.26  35 2.36  10 2.36
  63  0.316  0.521  0.270-  21 2.25  12 2.26  37 2.26  36 2.36  11 2.36
  64  0.407  0.703  0.390-  22 2.25  13 2.26  38 2.26  12 2.36  37 2.36
  65  0.498  0.885  0.511-  19 2.25  13 2.36  38 2.36
  66  0.495  0.215  0.071-  35 2.25   1 2.26  15 2.26
  67  0.586  0.397  0.191-  36 2.25  16 2.26   2 2.26   1 2.36  15 2.36
  68  0.677  0.579  0.311-  37 2.25  17 2.26   3 2.26  16 2.36   2 2.36
  69  0.768  0.761  0.431-  38 2.25  18 2.26   4 2.26  17 2.36   3 2.36
  70  0.404  0.034  0.391-  27 2.25   6 2.26  19 2.26   5 2.36  22 2.36
  71  0.495  0.216  0.511-   7 2.26   6 2.36  19 2.36
  72  0.131  0.488  0.031-  28 2.25   8 2.26  20 2.26
  73  0.222  0.670  0.151-  29 2.25   9 2.26  21 2.26   8 2.36  20 2.36
  74  0.313  0.852  0.271-  26 2.25   5 2.26  22 2.26   9 2.36  21 2.36
  75  0.041  0.307  0.351-  31 2.25  12 2.26  24 2.26  11 2.36  23 2.36
  76  0.132  0.489  0.471-  32 2.25  13 2.26  12 2.36  24 2.36
  77  0.950  0.125  0.231-  30 2.25  23 2.26  11 2.26  25 2.36  10 2.36
  78  0.859  0.942  0.111-  34 2.25  25 2.26  10 2.26  14 2.36
 
  LATTYP: Found a base centered orthorhombic cell.
 ALAT       =     9.5784100000
 B/A-ratio  =     2.1722506660
 C/A-ratio  =     2.1764395278
  
  Lattice vectors:
  
 A1 = (   8.7007307979,   7.4473846003,   0.0000000000)
 A2 = (   0.0000000000, -11.4527836704,   0.0000000000)
 A3 = (   0.0000000000,   0.0000000000, -20.8468301371)


Analysis of symmetry for initial positions (statically):
=====================================================================
 Subroutine PRICEL returns:
 Original cell was already a primitive cell.
 

 Routine SETGRP: Setting up the symmetry group for a 
 base centered orthorhombic supercell.


 Subroutine GETGRP returns: Found  2 space group operations
 (whereof  1 operations were pure point group operations)
 out of a pool of  8 trial point group operations.


The static configuration has the point symmetry C_1 .
 The point group associated with its full space group is C_1h.


Analysis of symmetry for dynamics (positions and initial velocities):
=====================================================================
 Subroutine PRICEL returns:
 Original cell was already a primitive cell.
 

 Routine SETGRP: Setting up the symmetry group for a 
 base centered orthorhombic supercell.


 Subroutine GETGRP returns: Found  2 space group operations
 (whereof  1 operations were pure point group operations)
 out of a pool of  8 trial point group operations.


The dynamic configuration has the point symmetry C_1 .
 The point group associated with its full space group is C_1h.


 Subroutine INISYM returns: Found  2 space group operations
 (whereof  1 operations are pure point group operations),
 and found     1 'primitive' translations


----------------------------------------------------------------------------------------

                                     Primitive cell                                     

  volume of cell :    2077.3363

  direct lattice vectors                    reciprocal lattice vectors
     8.700730798 -4.005399070  0.000000000     0.114932874  0.000000000  0.000000000
     0.000000000 11.452783670  0.000000000     0.040195645  0.087315017  0.000000000
     0.000000000  0.000000000 20.846830137     0.000000000  0.000000000  0.047968923

  length of vectors
     9.578410000 11.452783670 20.846830137     0.114932874  0.096122849  0.047968923

  position of ions in fractional coordinates (direct lattice)
     0.637935914  0.429045576  0.080047810
     0.728992922  0.611159592  0.200119525
     0.820049929  0.793273607  0.320191240
     0.911106937  0.975387622  0.440262955
     0.456364260  0.065902268  0.280167335
     0.547421268  0.248016283  0.400239050
     0.638478275  0.430130299  0.520310765
     0.274250245  0.701674238  0.040023905
     0.365307253  0.883788253  0.160095620
     0.001621584  0.156416915  0.120071715
     0.092678591  0.338530930  0.240143430
     0.183735599  0.520644945  0.360215145
     0.274792606  0.702758960  0.480286860
     0.910564576  0.974302900  0.000000000
     0.686051530  0.261070807  0.143495145
     0.777108537  0.443184823  0.263566860
     0.868165545  0.625298838  0.383638575
     0.959222552  0.807412853  0.503710290
     0.595536883  0.080041514  0.463686385
     0.322365861  0.533699469  0.103471240
     0.413422868  0.715813484  0.223542955
     0.504479876  0.897927499  0.343614670
     0.140794207  0.170556161  0.303590765
     0.231851214  0.352670176  0.423662480
     0.049737199  0.988442146  0.183519050
     0.084255929  0.793273607  0.320191240
     0.175312937  0.975387622  0.440262955
     0.902141914  0.429045576  0.080047810
     0.993198922  0.611159592  0.200119525
     0.720570260  0.065902268  0.280167335
     0.811627268  0.248016283  0.400239050
     0.902684275  0.430130299  0.520310765
     0.538456245  0.701674238  0.040023905
     0.629513253  0.883788253  0.160095620
     0.265827584  0.156416915  0.120071715
     0.356884591  0.338530930  0.240143430
     0.447941599  0.520644945  0.360215145
     0.538998606  0.702758960  0.480286860
     0.174770576  0.974302900  0.000000000
     0.013407097  0.579351942  0.311152161
     0.104464105  0.761465957  0.431223876
     0.831293082  0.215123912  0.071008731
     0.922350090  0.397237927  0.191080446
     0.740778436  0.034094619  0.391199971
     0.831835443  0.216208634  0.511271686
     0.467607413  0.487752574  0.030984826
     0.558664420  0.669866589  0.151056541
     0.649721428  0.851980604  0.271128256
     0.286035759  0.124609265  0.231104351
     0.377092766  0.306723281  0.351176066
     0.468149774  0.488837296  0.471247781
     0.194978751  0.942495250  0.111032636
     0.134252494  0.157472736  0.470504137
     0.043195487  0.975358721  0.350432422
     0.861081472  0.611130691  0.110288992
     0.952138479  0.793244706  0.230360707
     0.588452810  0.065873368  0.190336802
     0.679509817  0.247987383  0.310408517
     0.770566825  0.430101398  0.430480232
     0.497395802  0.883759353  0.070265087
     0.133710133  0.156388014  0.030241182
     0.224767141  0.338502029  0.150312897
     0.315824148  0.520616044  0.270384612
     0.406881156  0.702730060  0.390456327
     0.497938163  0.884844075  0.510528042
     0.494863082  0.215123912  0.071008731
     0.585920090  0.397237927  0.191080446
     0.676977097  0.579351942  0.311152161
     0.768034105  0.761465957  0.431223876
     0.404348436  0.034094619  0.391199971
     0.495405443  0.216208634  0.511271686
     0.131177413  0.487752574  0.030984826
     0.222234420  0.669866589  0.151056541
     0.313291428  0.851980604  0.271128256
     0.040662766  0.306723281  0.351176066
     0.131719774  0.488837296  0.471247781
     0.949605759  0.124609265  0.231104351
     0.858548751  0.942495250  0.111032636

  ion indices of the primitive-cell ions
   primitive index   ion index
                 1           1
                 2           2
                 3           3
                 4           4
                 5           5
                 6           6
                 7           7
                 8           8
                 9           9
                10          10
                11          11
                12          12
                13          13
                14          14
                15          15
                16          16
                17          17
                18          18
                19          19
                20          20
                21          21
                22          22
                23          23
                24          24
                25          25
                26          26
                27          27
                28          28
                29          29
                30          30
                31          31
                32          32
                33          33
                34          34
                35          35
                36          36
                37          37
                38          38
                39          39
                40          40
                41          41
                42          42
                43          43
                44          44
                45          45
                46          46
                47          47
                48          48
                49          49
                50          50
                51          51
                52          52
                53          53
                54          54
                55          55
                56          56
                57          57
                58          58
                59          59
                60          60
                61          61
                62          62
                63          63
                64          64
                65          65
                66          66
                67          67
                68          68
                69          69
                70          70
                71          71
                72          72
                73          73
                74          74
                75          75
                76          76
                77          77
                78          78

----------------------------------------------------------------------------------------

 
 
 KPOINTS: gamma-point-only calculation. no periodi

Automatic generation of k-mesh.
Space group operators:
 irot       det(A)        alpha          n_x          n_y          n_z        tau_x        tau_y        tau_z
    1     1.000000     0.000000     1.000000     0.000000     0.000000     0.000000     0.000000     0.000000
    2    -1.000000   180.000000     0.908369    -0.418170     0.000000     0.111032    -0.000000     0.000000
 
 Subroutine IBZKPT returns following result:
 ===========================================
 
 Found      1 irreducible k-points:
 
 Following reciprocal coordinates:
            Coordinates               Weight
  0.000000  0.000000  0.000000      1.000000
 
 Following cartesian coordinates:
            Coordinates               Weight
  0.000000  0.000000  0.000000      1.000000
 


--------------------------------------------------------------------------------------------------------




 Dimension of arrays:
   k-points           NKPTS =      1   k-points in BZ     NKDIM =      1   number of bands    NBANDS=    520
   number of dos      NEDOS =    301   number of ions     NIONS =     78
   non local maximal  LDIM  =      6   non local SUM 2l+1 LMDIM =     18
   total plane-waves  NPLWV = 324000
   max r-space proj   IRMAX =   1770   max aug-charges    IRDMAX=   5113
   dimension x,y,z NGX =    50 NGY =   60 NGZ =  108
   dimension x,y,z NGXF=   100 NGYF=  120 NGZF=  216
   support grid    NGXF=   100 NGYF=  120 NGZF=  216
   ions per type =              39  39
   NGX,Y,Z   is equivalent  to a cutoff of   8.68,  8.71,  8.61 a.u.
   NGXF,Y,Z  is equivalent  to a cutoff of  17.36, 17.42, 17.23 a.u.

 SYSTEM =  "Millerite NiS"                         
 POSCAR =  Structure 26 made from 0-21-10.xsd file 

 Startparameter for this run:
   NWRITE =      2    write-flag & timer
   PREC   = normal    normal or accurate (medium, high low for compatibility)
   ISTART =      0    job   : 0-new  1-cont  2-samecut
   ICHARG =      2    charge: 1-file 2-atom 10-const
   ISPIN  =      1    spin polarized calculation?
   LNONCOLLINEAR =      F non collinear calculations
   LSORBIT =      F    spin-orbit coupling
   INIWAV =      1    electr: 0-lowe 1-rand  2-diag
   LASPH  =      F    aspherical Exc in radial PAW
   METAGGA=      F    non-selfconsistent MetaGGA calc.

 Electronic Relaxation 1
   ENCUT  =  450.0 eV  33.07 Ry    5.75 a.u.  16.57 19.81 36.06*2*pi/ulx,y,z
   ENINI  =  450.0     initial cutoff
   ENAUG  =  703.4 eV  augmentation charge cutoff
   NELM   =    100;   NELMIN=  2; NELMDL= -5     # of ELM steps 
   EDIFF  = 0.1E-03   stopping-criterion for ELM
   LREAL  =      T    real-space projection
   NLSPLINE    = F    spline interpolate recip. space projectors
   LCOMPAT=      F    compatible to vasp.4.4
   GGA_COMPAT  = T    GGA compatible to vasp.4.4-vasp.4.6
   LMAXPAW     = -100 max onsite density
   LMAXMIX     =    2 max onsite mixed and CHGCAR
   VOSKOWN=      0    Vosko Wilk Nusair interpolation
   ROPT   =   -0.00050  -0.00050
 Ionic relaxation
   EDIFFG = 0.1E-02   stopping-criterion for IOM
   NSW    =      0    number of steps for IOM
   NBLOCK =      1;   KBLOCK =      1    inner block; outer block 
   IBRION =     -1    ionic relax: 0-MD 1-quasi-New 2-CG
   NFREE  =      0    steps in history (QN), initial steepest desc. (CG)
   ISIF   =      2    stress and relaxation
   IWAVPR =     10    prediction:  0-non 1-charg 2-wave 3-comb
   ISYM   =      2    0-nonsym 1-usesym 2-fastsym
   LCORR  =      T    Harris-Foulkes like correction to forces

   POTIM  = 0.5000    time-step for ionic-motion
   TEIN   =    0.0    initial temperature
   TEBEG  =    0.0;   TEEND  =   0.0 temperature during run
   SMASS  =  -3.00    Nose mass-parameter (am)
   estimated Nose-frequenzy (Omega)   =  0.10E-29 period in steps = 0.13E+47 mass=  -0.210E-26a.u.
   SCALEE = 1.0000    scale energy and forces
   NPACO  =    256;   APACO  = 16.0  distance and # of slots for P.C.
   PSTRESS=    0.0 pullay stress

  Mass of Ions in am
   POMASS =  58.69 32.07
  Ionic Valenz
   ZVAL   =  16.00  6.00
  Atomic Wigner-Seitz radii
   RWIGS  =  -1.00 -1.00
  virtual crystal weights 
   VCA    =   1.00  1.00
   NELECT =     858.0000    total number of electrons
   NUPDOWN=      -1.0000    fix difference up-down

 DOS related values:
   EMIN   =  10.00;   EMAX   =-10.00  energy-range for DOS
   EFERMI =   0.00
   ISMEAR =     0;   SIGMA  =   0.20  broadening in eV -4-tet -1-fermi 0-gaus

 Electronic relaxation 2 (details)
   IALGO  =     38    algorithm
   LDIAG  =      T    sub-space diagonalisation (order eigenvalues)
   LSUBROT=      F    optimize rotation matrix (better conditioning)
   TURBO    =      0    0=normal 1=particle mesh
   IRESTART =      0    0=no restart 2=restart with 2 vectors
   NREBOOT  =      0    no. of reboots
   NMIN     =      0    reboot dimension
   EREF     =   0.00    reference energy to select bands
   IMIX   =      4    mixing-type and parameters
     AMIX     =   0.40;   BMIX     =  1.00
     AMIX_MAG =   1.60;   BMIX_MAG =  1.00
     AMIN     =   0.10
     WC   =   100.;   INIMIX=   1;  MIXPRE=   1;  MAXMIX= -45

 Intra band minimization:
   WEIMIN = 0.0000     energy-eigenvalue tresh-hold
   EBREAK =  0.48E-07  absolut break condition
   DEPER  =   0.30     relativ break condition  

   TIME   =   0.40     timestep for ELM

  volume/ion in A,a.u.               =      26.63       179.73
  Fermi-wavevector in a.u.,A,eV,Ry     =   1.219181  2.303919 20.223744  1.486403
  Thomas-Fermi vector in A             =   2.354442
 
 Write flags
   LWAVE        =      F    write WAVECAR
   LDOWNSAMPLE  =      F    k-point downsampling of WAVECAR
   LCHARG       =      F    write CHGCAR
   LVTOT        =      F    write LOCPOT, total local potential
   LVHAR        =      F    write LOCPOT, Hartree potential only
   LELF         =      F    write electronic localiz. function (ELF)
   LORBIT       =      0    0 simple, 1 ext, 2 COOP (PROOUT), +10 PAW based schemes


 Dipole corrections
   LMONO  =      F    monopole corrections only (constant potential shift)
   LDIPOL =      F    correct potential (dipole corrections)
   IDIPOL =      0    1-x, 2-y, 3-z, 4-all directions 
   EPSILON=  1.0000000 bulk dielectric constant

 Exchange correlation treatment:
   GGA     =    --    GGA type
   LEXCH   =     8    internal setting for exchange type
   VOSKOWN=      0    Vosko Wilk Nusair interpolation
   LHFCALC =     F    Hartree Fock is set to
   LHFONE  =     F    Hartree Fock one center treatment
   AEXX    =    0.0000 exact exchange contribution

 Linear response parameters
   LEPSILON=     F    determine dielectric tensor
   LRPA    =     F    only Hartree local field effects (RPA)
   LNABLA  =     F    use nabla operator in PAW spheres
   LVEL    =     F    velocity operator in full k-point grid
   LINTERFAST=   F  fast interpolation
   KINTER  =     0    interpolate to denser k-point grid
   CSHIFT  =0.1000    complex shift for real part using Kramers Kronig
   OMEGAMAX=  -1.0    maximum frequency
   DEG_THRESHOLD= 0.2000000E-02 threshold for treating states as degnerate
   RTIME   =   -0.100 relaxation time in fs
  (WPLASMAI=    0.000 imaginary part of plasma frequency in eV, 0.658/RTIME)
   DFIELD  = 0.0000000 0.0000000 0.0000000 field for delta impulse in time
 
 Orbital magnetization related:
   ORBITALMAG=     F  switch on orbital magnetization
   LCHIMAG   =     F  perturbation theory with respect to B field
   DQ        =  0.001000  dq finite difference perturbation B field
   LLRAUG    =     F  two centre corrections for induced B field



--------------------------------------------------------------------------------------------------------


 Static calculation
 charge density and potential will be updated during run
 non-spin polarized calculation
 Variant of blocked Davidson
 Davidson routine will perform the subspace rotation
 perform sub-space diagonalisation
    after iterative eigenvector-optimisation
 modified Broyden-mixing scheme, WC =      100.0
 initial mixing is a Kerker type mixing with AMIX =  0.4000 and BMIX =      1.0000
 Hartree-type preconditioning will be used
 using additional bands           91
 real space projection scheme for non local part
 use partial core corrections
 calculate Harris-corrections to forces 
   (improved forces if not selfconsistent)
 use gradient corrections 
 use of overlap-Matrix (Vanderbilt PP)
 Gauss-broadening in eV      SIGMA  =   0.20


--------------------------------------------------------------------------------------------------------


  energy-cutoff  :      450.00
  volume of cell :     2077.34
      direct lattice vectors                 reciprocal lattice vectors
     8.700730798 -4.005399070  0.000000000     0.114932874  0.000000000  0.000000000
     0.000000000 11.452783670  0.000000000     0.040195645  0.087315017  0.000000000
     0.000000000  0.000000000 20.846830137     0.000000000  0.000000000  0.047968923

  length of vectors
     9.578410000 11.452783670 20.846830137     0.114932874  0.096122849  0.047968923


 
 k-points in units of 2pi/SCALE and weight: gamma-point-only calculation. no periodi
   0.00000000  0.00000000  0.00000000       1.000
 
 k-points in reciprocal lattice and weights: gamma-point-only calculation. no periodi
   0.00000000  0.00000000  0.00000000       1.000
 
 position of ions in fractional coordinates (direct lattice) 
   0.63793591  0.42904558  0.08004781
   0.72899292  0.61115959  0.20011952
   0.82004993  0.79327361  0.32019124
   0.91110694  0.97538762  0.44026296
   0.45636426  0.06590227  0.28016734
   0.54742127  0.24801628  0.40023905
   0.63847827  0.43013030  0.52031076
   0.27425024  0.70167424  0.04002390
   0.36530725  0.88378825  0.16009562
   0.00162158  0.15641692  0.12007172
   0.09267859  0.33853093  0.24014343
   0.18373560  0.52064495  0.36021514
   0.27479261  0.70275896  0.48028686
   0.91056458  0.97430290  0.00000000
   0.68605153  0.26107081  0.14349515
   0.77710854  0.44318482  0.26356686
   0.86816554  0.62529884  0.38363857
   0.95922255  0.80741285  0.50371029
   0.59553688  0.08004151  0.46368639
   0.32236586  0.53369947  0.10347124
   0.41342287  0.71581348  0.22354295
   0.50447988  0.89792750  0.34361467
   0.14079421  0.17055616  0.30359077
   0.23185121  0.35267018  0.42366248
   0.04973720  0.98844215  0.18351905
   0.08425593  0.79327361  0.32019124
   0.17531294  0.97538762  0.44026296
   0.90214191  0.42904558  0.08004781
   0.99319892  0.61115959  0.20011952
   0.72057026  0.06590227  0.28016734
   0.81162727  0.24801628  0.40023905
   0.90268427  0.43013030  0.52031076
   0.53845624  0.70167424  0.04002390
   0.62951325  0.88378825  0.16009562
   0.26582758  0.15641692  0.12007172
   0.35688459  0.33853093  0.24014343
   0.44794160  0.52064495  0.36021514
   0.53899861  0.70275896  0.48028686
   0.17477058  0.97430290  0.00000000
   0.01340710  0.57935194  0.31115216
   0.10446410  0.76146596  0.43122388
   0.83129308  0.21512391  0.07100873
   0.92235009  0.39723793  0.19108045
   0.74077844  0.03409462  0.39119997
   0.83183544  0.21620863  0.51127169
   0.46760741  0.48775257  0.03098483
   0.55866442  0.66986659  0.15105654
   0.64972143  0.85198060  0.27112826
   0.28603576  0.12460926  0.23110435
   0.37709277  0.30672328  0.35117607
   0.46814977  0.48883730  0.47124778
   0.19497875  0.94249525  0.11103264
   0.13425249  0.15747274  0.47050414
   0.04319549  0.97535872  0.35043242
   0.86108147  0.61113069  0.11028899
   0.95213848  0.79324471  0.23036071
   0.58845281  0.06587337  0.19033680
   0.67950982  0.24798738  0.31040852
   0.77056683  0.43010140  0.43048023
   0.49739580  0.88375935  0.07026509
   0.13371013  0.15638801  0.03024118
   0.22476714  0.33850203  0.15031290
   0.31582415  0.52061604  0.27038461
   0.40688116  0.70273006  0.39045633
   0.49793816  0.88484407  0.51052804
   0.49486308  0.21512391  0.07100873
   0.58592009  0.39723793  0.19108045
   0.67697710  0.57935194  0.31115216
   0.76803410  0.76146596  0.43122388
   0.40434844  0.03409462  0.39119997
   0.49540544  0.21620863  0.51127169
   0.13117741  0.48775257  0.03098483
   0.22223442  0.66986659  0.15105654
   0.31329143  0.85198060  0.27112826
   0.04066277  0.30672328  0.35117607
   0.13171977  0.48883730  0.47124778
   0.94960576  0.12460926  0.23110435
   0.85854875  0.94249525  0.11103264
 
 position of ions in cartesian coordinates  (Angst):
   5.55050865  2.35857825  1.66874310
   6.34277117  4.07957102  4.17185774
   7.13503367  5.80056379  6.67497239
   7.92729619  7.52155655  9.17808704
   3.97070257 -1.07315656  5.84060084
   4.76296509  0.64783620  8.34371549
   5.55522759  2.36882898 10.84683014
   2.38617755  6.93764158  0.83437155
   3.17844007  8.65863434  3.33748620
   0.01410897  1.78491400  2.50311465
   0.80637147  3.50590676  5.00622929
   1.59863398  5.22689953  7.50934394
   2.39089649  6.94789229 10.01245859
   7.92257725  7.51130584  0.00000000
   5.96914968  0.24207731  2.99141891
   6.76141218  1.96307009  5.49453356
   7.55367470  3.68406285  7.99764821
   8.34593720  5.40505562 10.50076285
   5.18160610 -1.46866473  9.66639130
   2.80481857  4.82114064  2.15704736
   3.59708108  6.54213341  4.66016201
   4.38934359  8.26312617  7.16327666
   1.22501249  1.38940583  6.32890511
   2.01727500  3.11039860  8.83201976
   0.43274998 11.12119674  3.82579046
   0.73308816  8.74771239  6.67497239
   1.52535067 10.46870515  9.17808704
   7.84929394  1.30032778  1.66874310
   8.64155645  3.02132056  4.17185774
   6.26948785 -2.13140703  5.84060084
   7.06175037 -0.41041427  8.34371549
   7.85401287  1.31057851 10.84683014
   4.68496283  5.87939111  0.83437155
   5.47722535  7.60038387  3.33748620
   2.31289425  0.72666353  2.50311465
   3.10515675  2.44765630  5.00622929
   3.89741927  4.16864906  7.50934394
   4.68968177  5.88964183 10.01245859
   1.52063173 10.45845444  0.00000000
   0.11665154  6.58149169  6.48653625
   0.90891406  8.30248445  8.98965089
   7.23285732 -0.86589291  1.48030695
   8.02511983  0.85509985  3.98342160
   6.44531375 -2.57663496  8.15527935
   7.23757626 -0.85564220 10.65839399
   4.06852622  3.71317042  0.64593540
   4.86078872  5.43416318  3.14905005
   5.65305124  7.15515595  5.65216470
   2.48872014  0.28143559  4.81779315
   3.28098264  2.00242837  7.32090780
   4.07324516  3.72342113  9.82402244
   1.69645762 10.01322650  2.31467850
   1.16809481  1.26576636  9.80851982
   0.37583230 10.99755727  7.30540518
   7.49203808  3.55017267  2.29917588
   8.28430059  5.27116544  4.80229053
   5.11996949 -1.60255490  3.96791898
   5.91223199  0.11843786  6.47103363
   6.70449451  1.83943062  8.97414827
   4.32770697  8.12923600  1.46480433
   1.16337587  1.25551565  0.63043278
   1.95563839  2.97650841  3.13354743
   2.74790089  4.69750118  5.63666208
   3.54016341  6.41849395  8.13977672
   4.33242591  8.13948672 10.64289137
   4.30567046  0.48164350  1.48030695
   5.09793297  2.20263626  3.98342160
   5.89019548  3.92362903  6.48653625
   6.68245799  5.64462179  8.98965089
   3.51812689 -1.22909855  8.15527935
   4.31038940  0.49189421 10.65839399
   1.14133936  5.06070683  0.64593540
   1.93360186  6.78169959  3.14905005
   2.72586438  8.50269235  5.65216470
   0.35379578  3.34996478  7.32090780
   1.14605829  5.07095754  9.82402244
   8.26226407 -2.37642707  4.81779315
   7.47000156  7.35536384  2.31467850
 


--------------------------------------------------------------------------------------------------------


 use parallel FFT for orbitals z direction half grid
 k-point   1 :   0.0000 0.0000 0.0000  plane waves:   22514

 maximum and minimum number of plane-waves per node :      3754     3751

 maximum number of plane-waves:     22514
 maximum index in each direction: 
   IXMAX=   16   IYMAX=   19   IZMAX=   36
   IXMIN=  -16   IYMIN=  -19   IZMIN=    0


 real space projection operators:
  total allocation   :      11767.03 KBytes
  max/ min on nodes  :       2112.53       1882.66


 parallel 3D FFT for wavefunctions:
    minimum data exchange during FFTs selected (reduces bandwidth)
 parallel 3D FFT for charge:
    minimum data exchange during FFTs selected (reduces bandwidth)


 total amount of memory used by VASP MPI-rank0    47141. kBytes
=======================================================================

   base      :      30000. kBytes
   nonlr-proj:       2595. kBytes
   fftplans  :       3720. kBytes
   grid      :       6724. kBytes
   one-center:        101. kBytes
   wavefun   :       4001. kBytes
 
     INWAV:  cpu time    0.0000: real time    0.0000
 Broyden mixing: mesh for mixing (old mesh)
   NGX = 33   NGY = 39   NGZ = 73
  (NGX  =100   NGY  =120   NGZ  =216)
  gives a total of  93951 points

 initial charge density was supplied:
 charge density of overlapping atoms calculated
 number of electron     858.0000000 magnetization 
 keeping initial charge density in first step


--------------------------------------------------------------------------------------------------------


 Maximum index for non-local projection operator          388
 Maximum index for augmentation-charges          579 (set IRDMAX)


--------------------------------------------------------------------------------------------------------


 First call to EWALD:  gamma=   0.139
 Maximum number of real-space cells 4x 3x 2
 Maximum number of reciprocal cells 2x 3x 4

    FEWALD:  cpu time    0.0044: real time    0.0045


--------------------------------------- Iteration      1(   1)  ---------------------------------------


    POTLOK:  cpu time    0.0473: real time    0.0508
    SETDIJ:  cpu time    0.0071: real time    0.0071
     EDDAV:  cpu time    2.4124: real time    2.4199
       DOS:  cpu time    0.0016: real time    0.0017
    --------------------------------------------
      LOOP:  cpu time    2.4684: real time    2.4795

 eigenvalue-minimisations  :  1256
 total energy-change (2. order) : 0.1068015E+05  (-0.5505326E+05)
 number of electron     858.0000000 magnetization 
 augmentation part      858.0000000 magnetization 

 Free energy of the ion-electron system (eV)
  ---------------------------------------------------
  alpha Z        PSCENC =      2101.59301765
  Ewald energy   TEWEN  =    177051.70562559
  -Hartree energ DENC   =   -310026.69176888
  -exchange      EXHF   =         0.00000000
  -V(xc)+E(xc)   XCENC  =      3957.22897489
  PAW double counting   =    122123.66111200  -127444.97121129
  entropy T*S    EENTRO =        -0.48867882
  eigenvalues    EBANDS =     -4418.04386408
  atomic energy  EATOM  =    147336.15547490
  Solvation  Ediel_sol  =         0.00000000
  ---------------------------------------------------
  free energy    TOTEN  =     10680.14868196 eV

  energy without entropy =    10680.63736079  energy(sigma->0) =    10680.39302137


--------------------------------------------------------------------------------------------------------




--------------------------------------- Iteration      1(   2)  ---------------------------------------


     EDDAV:  cpu time    2.1245: real time    2.1310
       DOS:  cpu time    0.0016: real time    0.0016
    --------------------------------------------
      LOOP:  cpu time    2.1261: real time    2.1326

 eigenvalue-minimisations  :  1088
 total energy-change (2. order) :-0.9982746E+04  (-0.9645516E+04)
 number of electron     858.0000000 magnetization 
 augmentation part      858.0000000 magnetization 

 Free energy of the ion-electron system (eV)
  ---------------------------------------------------
  alpha Z        PSCENC =      2101.59301765
  Ewald energy   TEWEN  =    177051.70562559
  -Hartree energ DENC   =   -310026.69176888
  -exchange      EXHF   =         0.00000000
  -V(xc)+E(xc)   XCENC  =      3957.22897489
  PAW double counting   =    122123.66111200  -127444.97121129
  entropy T*S    EENTRO =        -0.75075413
  eigenvalues    EBANDS =    -14400.52818584
  atomic energy  EATOM  =    147336.15547490
  Solvation  Ediel_sol  =         0.00000000
  ---------------------------------------------------
  free energy    TOTEN  =       697.40228490 eV

  energy without entropy =      698.15303903  energy(sigma->0) =      697.77766196


--------------------------------------------------------------------------------------------------------




--------------------------------------- Iteration      1(   3)  ---------------------------------------


     EDDAV:  cpu time    2.2655: real time    2.2709
       DOS:  cpu time    0.0019: real time    0.0019
    --------------------------------------------
      LOOP:  cpu time    2.2674: real time    2.2727

 eigenvalue-minimisations  :  1184
 total energy-change (2. order) :-0.1063428E+04  (-0.9985652E+03)
 number of electron     858.0000000 magnetization 
 augmentation part      858.0000000 magnetization 

 Free energy of the ion-electron system (eV)
  ---------------------------------------------------
  alpha Z        PSCENC =      2101.59301765
  Ewald energy   TEWEN  =    177051.70562559
  -Hartree energ DENC   =   -310026.69176888
  -exchange      EXHF   =         0.00000000
  -V(xc)+E(xc)   XCENC  =      3957.22897489
  PAW double counting   =    122123.66111200  -127444.97121129
  entropy T*S    EENTRO =        -1.30185835
  eigenvalues    EBANDS =    -15463.40554151
  atomic energy  EATOM  =    147336.15547490
  Solvation  Ediel_sol  =         0.00000000
  ---------------------------------------------------
  free energy    TOTEN  =      -366.02617499 eV

  energy without entropy =     -364.72431665  energy(sigma->0) =     -365.37524582


--------------------------------------------------------------------------------------------------------




--------------------------------------- Iteration      1(   4)  ---------------------------------------


     EDDAV:  cpu time    2.2953: real time    2.3024
       DOS:  cpu time    0.0020: real time    0.0020
    --------------------------------------------
      LOOP:  cpu time    2.2974: real time    2.3044

 eigenvalue-minimisations  :  1192
 total energy-change (2. order) :-0.7109329E+02  (-0.7007302E+02)
 number of electron     858.0000000 magnetization 
 augmentation part      858.0000000 magnetization 

 Free energy of the ion-electron system (eV)
  ---------------------------------------------------
  alpha Z        PSCENC =      2101.59301765
  Ewald energy   TEWEN  =    177051.70562559
  -Hartree energ DENC   =   -310026.69176888
  -exchange      EXHF   =         0.00000000
  -V(xc)+E(xc)   XCENC  =      3957.22897489
  PAW double counting   =    122123.66111200  -127444.97121129
  entropy T*S    EENTRO =        -1.44355231
  eigenvalues    EBANDS =    -15534.35713441
  atomic energy  EATOM  =    147336.15547490
  Solvation  Ediel_sol  =         0.00000000
  ---------------------------------------------------
  free energy    TOTEN  =      -437.11946185 eV

  energy without entropy =     -435.67590954  energy(sigma->0) =     -436.39768570


--------------------------------------------------------------------------------------------------------




--------------------------------------- Iteration      1(   5)  ---------------------------------------


     EDDAV:  cpu time    2.5066: real time    2.5136
       DOS:  cpu time    0.0018: real time    0.0018
    CHARGE:  cpu time    0.0812: real time    0.0814
    MIXING:  cpu time    0.0021: real time    0.0025
    --------------------------------------------
      LOOP:  cpu time    2.5918: real time    2.5994

 eigenvalue-minimisations  :  1344
 total energy-change (2. order) :-0.3070614E+01  (-0.3066603E+01)
 number of electron     857.9999985 magnetization 
 augmentation part      310.1155160 magnetization 

 Broyden mixing:
  rms(total) = 0.86052E+01    rms(broyden)= 0.85888E+01
  rms(prec ) = 0.90256E+01
  weight for this iteration     100.00

 Free energy of the ion-electron system (eV)
  ---------------------------------------------------
  alpha Z        PSCENC =      2101.59301765
  Ewald energy   TEWEN  =    177051.70562559
  -Hartree energ DENC   =   -310026.69176888
  -exchange      EXHF   =         0.00000000
  -V(xc)+E(xc)   XCENC  =      3957.22897489
  PAW double counting   =    122123.66111200  -127444.97121129
  entropy T*S    EENTRO =        -1.42903259
  eigenvalues    EBANDS =    -15537.44226783
  atomic energy  EATOM  =    147336.15547490
  Solvation  Ediel_sol  =         0.00000000
  ---------------------------------------------------
  free energy    TOTEN  =      -440.19007555 eV

  energy without entropy =     -438.76104297  energy(sigma->0) =     -439.47555926


--------------------------------------------------------------------------------------------------------




--------------------------------------- Iteration      1(   6)  ---------------------------------------


    POTLOK:  cpu time    0.0443: real time    0.0444
    SETDIJ:  cpu time    0.0064: real time    0.0064
     EDDAV:  cpu time    2.3235: real time    2.3291
       DOS:  cpu time    0.0015: real time    0.0015
    CHARGE:  cpu time    0.0856: real time    0.0858
    MIXING:  cpu time    0.0019: real time    0.0021
    --------------------------------------------
      LOOP:  cpu time    2.4632: real time    2.4693

 eigenvalue-minimisations  :  1232
 total energy-change (2. order) :-0.8998789E+02  (-0.1055013E+03)
 number of electron     857.9999938 magnetization 
 augmentation part      380.6279808 magnetization 

 Broyden mixing:
  rms(total) = 0.16465E+02    rms(broyden)= 0.16461E+02
  rms(prec ) = 0.17188E+02
  weight for this iteration     100.00

 eigenvalues of (default mixing * dielectric matrix)
  average eigenvalue GAMMA=   0.2247
  0.2247

 Free energy of the ion-electron system (eV)
  ---------------------------------------------------
  alpha Z        PSCENC =      2101.59301765
  Ewald energy   TEWEN  =    177051.70562559
  -Hartree energ DENC   =   -307044.74639691
  -exchange      EXHF   =         0.00000000
  -V(xc)+E(xc)   XCENC  =      3874.00267527
  PAW double counting   =    124167.90437636  -129229.71219453
  entropy T*S    EENTRO =        -1.00656309
  eigenvalues    EBANDS =    -18786.07398390
  atomic energy  EATOM  =    147336.15547490
  Solvation  Ediel_sol  =         0.00000000
  ---------------------------------------------------
  free energy    TOTEN  =      -530.17796866 eV

  energy without entropy =     -529.17140557  energy(sigma->0) =     -529.67468711


--------------------------------------------------------------------------------------------------------




--------------------------------------- Iteration      1(   7)  ---------------------------------------


    POTLOK:  cpu time    0.0441: real time    0.0442
    SETDIJ:  cpu time    0.0050: real time    0.0050
     EDDAV:  cpu time    2.3456: real time    2.3526
       DOS:  cpu time    0.0016: real time    0.0016
    CHARGE:  cpu time    0.0912: real time    0.0914
    MIXING:  cpu time    0.0017: real time    0.0017
    --------------------------------------------
      LOOP:  cpu time    2.4892: real time    2.4965

 eigenvalue-minimisations  :  1224
 total energy-change (2. order) : 0.1178886E+03  (-0.1955413E+02)
 number of electron     857.9999944 magnetization 
 augmentation part      360.3196930 magnetization 

 Broyden mixing:
  rms(total) = 0.69130E+01    rms(broyden)= 0.69110E+01
  rms(prec ) = 0.73869E+01
  weight for this iteration     100.00

 eigenvalues of (default mixing * dielectric matrix)
  average eigenvalue GAMMA=   0.4698
  0.4698  0.4698

 Free energy of the ion-electron system (eV)
  ---------------------------------------------------
  alpha Z        PSCENC =      2101.59301765
  Ewald energy   TEWEN  =    177051.70562559
  -Hartree energ DENC   =   -308374.87928424
  -exchange      EXHF   =         0.00000000
  -V(xc)+E(xc)   XCENC  =      3904.09741292
  PAW double counting   =    128489.25782964  -133702.48605642
  entropy T*S    EENTRO =        -0.95679956
  eigenvalues    EBANDS =    -17216.77656795
  atomic energy  EATOM  =    147336.15547490
  Solvation  Ediel_sol  =         0.00000000
  ---------------------------------------------------
  free energy    TOTEN  =      -412.28934747 eV

  energy without entropy =     -411.33254791  energy(sigma->0) =     -411.81094769


--------------------------------------------------------------------------------------------------------




--------------------------------------- Iteration      1(   8)  ---------------------------------------


    POTLOK:  cpu time    0.0459: real time    0.0463
    SETDIJ:  cpu time    0.0045: real time    0.0061
     EDDAV:  cpu time    2.5061: real time    2.5121
       DOS:  cpu time    0.0016: real time    0.0016
    CHARGE:  cpu time    0.0857: real time    0.0859
    MIXING:  cpu time    0.0017: real time    0.0017
    --------------------------------------------
      LOOP:  cpu time    2.6455: real time    2.6537

 eigenvalue-minimisations  :  1344
 total energy-change (2. order) :-0.1987826E+03  (-0.1540948E+02)
 number of electron     857.9999952 magnetization 
 augmentation part      330.5770483 magnetization 

 Broyden mixing:
  rms(total) = 0.19140E+02    rms(broyden)= 0.19137E+02
  rms(prec ) = 0.24193E+02
  weight for this iteration     100.00

 eigenvalues of (default mixing * dielectric matrix)
  average eigenvalue GAMMA=   0.4107
  0.6461  0.4833  0.1027

 Free energy of the ion-electron system (eV)
  ---------------------------------------------------
  alpha Z        PSCENC =      2101.59301765
  Ewald energy   TEWEN  =    177051.70562559
  -Hartree energ DENC   =   -308840.62531864
  -exchange      EXHF   =         0.00000000
  -V(xc)+E(xc)   XCENC  =      3926.55633105
  PAW double counting   =    133370.05362315  -138693.94159013
  entropy T*S    EENTRO =        -0.60858986
  eigenvalues    EBANDS =    -16861.96050064
  atomic energy  EATOM  =    147336.15547490
  Solvation  Ediel_sol  =         0.00000000
  ---------------------------------------------------
  free energy    TOTEN  =      -611.07192694 eV

  energy without entropy =     -610.46333708  energy(sigma->0) =     -610.76763201


--------------------------------------------------------------------------------------------------------




--------------------------------------- Iteration      1(   9)  ---------------------------------------


    POTLOK:  cpu time    0.0437: real time    0.0438
    SETDIJ:  cpu time    0.0051: real time    0.0051
     EDDAV:  cpu time    2.5555: real time    2.5616
       DOS:  cpu time    0.0017: real time    0.0017
    CHARGE:  cpu time    0.0865: real time    0.0867
    MIXING:  cpu time    0.0018: real time    0.0018
    --------------------------------------------
      LOOP:  cpu time    2.6942: real time    2.7007

 eigenvalue-minimisations  :  1384
 total energy-change (2. order) : 0.2033916E+03  (-0.1926050E+02)
 number of electron     857.9999923 magnetization 
 augmentation part      335.4341108 magnetization 

 Broyden mixing:
  rms(total) = 0.67357E+01    rms(broyden)= 0.67265E+01
  rms(prec ) = 0.74094E+01
  weight for this iteration     100.00

 eigenvalues of (default mixing * dielectric matrix)
  average eigenvalue GAMMA=   0.4195
  0.9429  0.3531  0.2898  0.0924

 Free energy of the ion-electron system (eV)
  ---------------------------------------------------
  alpha Z        PSCENC =      2101.59301765
  Ewald energy   TEWEN  =    177051.70562559
  -Hartree energ DENC   =   -309041.85769594
  -exchange      EXHF   =         0.00000000
  -V(xc)+E(xc)   XCENC  =      3927.61632737
  PAW double counting   =    135966.09101230  -141318.30752628
  entropy T*S    EENTRO =        -1.29473363
  eigenvalues    EBANDS =    -16429.38185632
  atomic energy  EATOM  =    147336.15547490
  Solvation  Ediel_sol  =         0.00000000
  ---------------------------------------------------
  free energy    TOTEN  =      -407.68035436 eV

  energy without entropy =     -406.38562073  energy(sigma->0) =     -407.03298754


--------------------------------------------------------------------------------------------------------




--------------------------------------- Iteration      1(  10)  ---------------------------------------


    POTLOK:  cpu time    0.0438: real time    0.0439
    SETDIJ:  cpu time    0.0050: real time    0.0050
     EDDAV:  cpu time    2.6468: real time    2.6531
       DOS:  cpu time    0.0016: real time    0.0016
    CHARGE:  cpu time    0.0866: real time    0.0868
    MIXING:  cpu time    0.0019: real time    0.0019
    --------------------------------------------
      LOOP:  cpu time    2.7857: real time    2.7923

 eigenvalue-minimisations  :  1448
 total energy-change (2. order) : 0.1576780E+00  (-0.8009211E+01)
 number of electron     858.0000020 magnetization 
 augmentation part      333.1019428 magnetization 

 Broyden mixing:
  rms(total) = 0.68201E+01    rms(broyden)= 0.68136E+01
  rms(prec ) = 0.77645E+01
  weight for this iteration     100.00

 eigenvalues of (default mixing * dielectric matrix)
  average eigenvalue GAMMA=   0.5459
  1.6969  0.4048  0.4048  0.1116  0.1116

 Free energy of the ion-electron system (eV)
  ---------------------------------------------------
  alpha Z        PSCENC =      2101.59301765
  Ewald energy   TEWEN  =    177051.70562559
  -Hartree energ DENC   =   -309146.78659564
  -exchange      EXHF   =         0.00000000
  -V(xc)+E(xc)   XCENC  =      3927.75780504
  PAW double counting   =    138157.47800014  -143532.01218798
  entropy T*S    EENTRO =        -1.32018812
  eigenvalues    EBANDS =    -16302.09362796
  atomic energy  EATOM  =    147336.15547490
  Solvation  Ediel_sol  =         0.00000000
  ---------------------------------------------------
  free energy    TOTEN  =      -407.52267638 eV

  energy without entropy =     -406.20248826  energy(sigma->0) =     -406.86258232


--------------------------------------------------------------------------------------------------------




--------------------------------------- Iteration      1(  11)  ---------------------------------------


    POTLOK:  cpu time    0.0444: real time    0.0445
    SETDIJ:  cpu time    0.0050: real time    0.0050
     EDDAV:  cpu time    2.6482: real time    2.6545
       DOS:  cpu time    0.0015: real time    0.0016
    CHARGE:  cpu time    0.0832: real time    0.0834
    MIXING:  cpu time    0.0020: real time    0.0020
    --------------------------------------------
      LOOP:  cpu time    2.7844: real time    2.7910

 eigenvalue-minimisations  :  1448
 total energy-change (2. order) :-0.2538940E+01  (-0.5555923E+01)
 number of electron     857.9999930 magnetization 
 augmentation part      335.2492743 magnetization 

 Broyden mixing:
  rms(total) = 0.84059E+01    rms(broyden)= 0.84028E+01
  rms(prec ) = 0.99036E+01
  weight for this iteration     100.00

 eigenvalues of (default mixing * dielectric matrix)
  average eigenvalue GAMMA=   0.5295
  1.9984  0.4151  0.4151  0.1291  0.1291  0.0898

 Free energy of the ion-electron system (eV)
  ---------------------------------------------------
  alpha Z        PSCENC =      2101.59301765
  Ewald energy   TEWEN  =    177051.70562559
  -Hartree energ DENC   =   -309019.31127962
  -exchange      EXHF   =         0.00000000
  -V(xc)+E(xc)   XCENC  =      3925.28075542
  PAW double counting   =    141976.80312128  -147380.13966673
  entropy T*S    EENTRO =        -1.32838631
  eigenvalues    EBANDS =    -16400.82027846
  atomic energy  EATOM  =    147336.15547490
  Solvation  Ediel_sol  =         0.00000000
  ---------------------------------------------------
  free energy    TOTEN  =      -410.06161628 eV

  energy without entropy =     -408.73322997  energy(sigma->0) =     -409.39742312


--------------------------------------------------------------------------------------------------------




--------------------------------------- Iteration      1(  12)  ---------------------------------------


    POTLOK:  cpu time    0.0438: real time    0.0439
    SETDIJ:  cpu time    0.0051: real time    0.0051
     EDDAV:  cpu time    2.5569: real time    2.5650
       DOS:  cpu time    0.0016: real time    0.0016
    CHARGE:  cpu time    0.0844: real time    0.0846
    MIXING:  cpu time    0.0022: real time    0.0022
    --------------------------------------------
      LOOP:  cpu time    2.6939: real time    2.7024

 eigenvalue-minimisations  :  1376
 total energy-change (2. order) : 0.8818112E+01  (-0.3209470E+01)
 number of electron     857.9999927 magnetization 
 augmentation part      339.1719607 magnetization 

 Broyden mixing:
  rms(total) = 0.40503E+01    rms(broyden)= 0.40477E+01
  rms(prec ) = 0.45599E+01
  weight for this iteration     100.00

 eigenvalues of (default mixing * dielectric matrix)
  average eigenvalue GAMMA=   0.5054
  2.0991  0.4227  0.4227  0.2712  0.1117  0.1117  0.0986

 Free energy of the ion-electron system (eV)
  ---------------------------------------------------
  alpha Z        PSCENC =      2101.59301765
  Ewald energy   TEWEN  =    177051.70562559
  -Hartree energ DENC   =   -309054.63400606
  -exchange      EXHF   =         0.00000000
  -V(xc)+E(xc)   XCENC  =      3922.96405611
  PAW double counting   =    143483.50495878  -148894.31394693
  entropy T*S    EENTRO =        -0.84365669
  eigenvalues    EBANDS =    -16347.37502735
  atomic energy  EATOM  =    147336.15547490
  Solvation  Ediel_sol  =         0.00000000
  ---------------------------------------------------
  free energy    TOTEN  =      -401.24350402 eV

  energy without entropy =     -400.39984732  energy(sigma->0) =     -400.82167567


--------------------------------------------------------------------------------------------------------




--------------------------------------- Iteration      1(  13)  ---------------------------------------


    POTLOK:  cpu time    0.0445: real time    0.0466
    SETDIJ:  cpu time    0.0046: real time    0.0063
     EDDAV:  cpu time    2.4481: real time    2.4539
       DOS:  cpu time    0.0016: real time    0.0016
    CHARGE:  cpu time    0.0841: real time    0.0843
    MIXING:  cpu time    0.0021: real time    0.0021
    --------------------------------------------
      LOOP:  cpu time    2.5850: real time    2.5948

 eigenvalue-minimisations  :  1312
 total energy-change (2. order) : 0.7927939E+01  (-0.1805752E+01)
 number of electron     857.9999955 magnetization 
 augmentation part      339.9287205 magnetization 

 Broyden mixing:
  rms(total) = 0.31056E+01    rms(broyden)= 0.31020E+01
  rms(prec ) = 0.37060E+01
  weight for this iteration     100.00

 eigenvalues of (default mixing * dielectric matrix)
  average eigenvalue GAMMA=   0.4829
  2.0130  0.4636  0.4407  0.4407  0.1655  0.0921  0.1238  0.1238

 Free energy of the ion-electron system (eV)
  ---------------------------------------------------
  alpha Z        PSCENC =      2101.59301765
  Ewald energy   TEWEN  =    177051.70562559
  -Hartree energ DENC   =   -309018.42079635
  -exchange      EXHF   =         0.00000000
  -V(xc)+E(xc)   XCENC  =      3923.48091514
  PAW double counting   =    143965.73751316  -149384.05069941
  entropy T*S    EENTRO =        -1.02794211
  eigenvalues    EBANDS =    -16368.48867382
  atomic energy  EATOM  =    147336.15547490
  Solvation  Ediel_sol  =         0.00000000
  ---------------------------------------------------
  free energy    TOTEN  =      -393.31556525 eV

  energy without entropy =     -392.28762314  energy(sigma->0) =     -392.80159420


--------------------------------------------------------------------------------------------------------




--------------------------------------- Iteration      1(  14)  ---------------------------------------


    POTLOK:  cpu time    0.0444: real time    0.0445
    SETDIJ:  cpu time    0.0051: real time    0.0051
     EDDAV:  cpu time    2.4868: real time    2.4927
       DOS:  cpu time    0.0017: real time    0.0017
    CHARGE:  cpu time    0.0832: real time    0.0834
    MIXING:  cpu time    0.0023: real time    0.0023
    --------------------------------------------
      LOOP:  cpu time    2.6235: real time    2.6297

 eigenvalue-minimisations  :  1336
 total energy-change (2. order) : 0.9271856E+00  (-0.1311978E+01)
 number of electron     857.9999959 magnetization 
 augmentation part      339.1839376 magnetization 

 Broyden mixing:
  rms(total) = 0.30430E+01    rms(broyden)= 0.30405E+01
  rms(prec ) = 0.35370E+01
  weight for this iteration     100.00

 eigenvalues of (default mixing * dielectric matrix)
  average eigenvalue GAMMA=   0.4557
  1.8789  0.5154  0.5154  0.4405  0.2732  0.1590  0.1143  0.1143  0.0903

 Free energy of the ion-electron system (eV)
  ---------------------------------------------------
  alpha Z        PSCENC =      2101.59301765
  Ewald energy   TEWEN  =    177051.70562559
  -Hartree energ DENC   =   -309083.29802221
  -exchange      EXHF   =         0.00000000
  -V(xc)+E(xc)   XCENC  =      3923.96109494
  PAW double counting   =    143737.00316215  -149154.29329689
  entropy T*S    EENTRO =        -1.04566453
  eigenvalues    EBANDS =    -16304.16977128
  atomic energy  EATOM  =    147336.15547490
  Solvation  Ediel_sol  =         0.00000000
  ---------------------------------------------------
  free energy    TOTEN  =      -392.38837967 eV

  energy without entropy =     -391.34271514  energy(sigma->0) =     -391.86554741


--------------------------------------------------------------------------------------------------------




--------------------------------------- Iteration      1(  15)  ---------------------------------------


    POTLOK:  cpu time    0.0443: real time    0.0444
    SETDIJ:  cpu time    0.0050: real time    0.0050
     EDDAV:  cpu time    2.6104: real time    2.6167
       DOS:  cpu time    0.0016: real time    0.0016
    CHARGE:  cpu time    0.0829: real time    0.0831
    MIXING:  cpu time    0.0024: real time    0.0024
    --------------------------------------------
      LOOP:  cpu time    2.7465: real time    2.7531

 eigenvalue-minimisations  :  1416
 total energy-change (2. order) : 0.2885290E+01  (-0.4884956E+00)
 number of electron     857.9999951 magnetization 
 augmentation part      338.7685025 magnetization 

 Broyden mixing:
  rms(total) = 0.23631E+01    rms(broyden)= 0.23620E+01
  rms(prec ) = 0.26436E+01
  weight for this iteration     100.00

 eigenvalues of (default mixing * dielectric matrix)
  average eigenvalue GAMMA=   0.4404
  1.8792  0.5753  0.5753  0.3713  0.3713  0.1537  0.1537  0.1166  0.1166  0.0907

 Free energy of the ion-electron system (eV)
  ---------------------------------------------------
  alpha Z        PSCENC =      2101.59301765
  Ewald energy   TEWEN  =    177051.70562559
  -Hartree energ DENC   =   -309087.09630097
  -exchange      EXHF   =         0.00000000
  -V(xc)+E(xc)   XCENC  =      3924.76281482
  PAW double counting   =    143246.62638058  -148660.63171483
  entropy T*S    EENTRO =        -0.97971589
  eigenvalues    EBANDS =    -16301.63867197
  atomic energy  EATOM  =    147336.15547490
  Solvation  Ediel_sol  =         0.00000000
  ---------------------------------------------------
  free energy    TOTEN  =      -389.50309013 eV

  energy without entropy =     -388.52337424  energy(sigma->0) =     -389.01323218


--------------------------------------------------------------------------------------------------------




--------------------------------------- Iteration      1(  16)  ---------------------------------------


    POTLOK:  cpu time    0.0445: real time    0.0446
    SETDIJ:  cpu time    0.0049: real time    0.0049
     EDDAV:  cpu time    2.6002: real time    2.6064
       DOS:  cpu time    0.0007: real time    0.0007
    CHARGE:  cpu time    0.0813: real time    0.0815
    MIXING:  cpu time    0.0024: real time    0.0024
    --------------------------------------------
      LOOP:  cpu time    2.7341: real time    2.7406

 eigenvalue-minimisations  :  1392
 total energy-change (2. order) : 0.1257146E+01  (-0.2712830E+00)
 number of electron     857.9999954 magnetization 
 augmentation part      338.6748603 magnetization 

 Broyden mixing:
  rms(total) = 0.17925E+01    rms(broyden)= 0.17916E+01
  rms(prec ) = 0.20537E+01
  weight for this iteration     100.00

 eigenvalues of (default mixing * dielectric matrix)
  average eigenvalue GAMMA=   0.4553
  1.8736  0.7472  0.7472  0.4005  0.4005  0.2336  0.1585  0.0905  0.1181  0.1181
  0.1204

 Free energy of the ion-electron system (eV)
  ---------------------------------------------------
  alpha Z        PSCENC =      2101.59301765
  Ewald energy   TEWEN  =    177051.70562559
  -Hartree energ DENC   =   -309100.38542185
  -exchange      EXHF   =         0.00000000
  -V(xc)+E(xc)   XCENC  =      3924.95608969
  PAW double counting   =    143137.44693049  -148549.72045134
  entropy T*S    EENTRO =        -1.05039079
  eigenvalues    EBANDS =    -16288.94681884
  atomic energy  EATOM  =    147336.15547490
  Solvation  Ediel_sol  =         0.00000000
  ---------------------------------------------------
  free energy    TOTEN  =      -388.24594449 eV

  energy without entropy =     -387.19555371  energy(sigma->0) =     -387.72074910


--------------------------------------------------------------------------------------------------------




--------------------------------------- Iteration      1(  17)  ---------------------------------------


    POTLOK:  cpu time    0.0447: real time    0.0448
    SETDIJ:  cpu time    0.0050: real time    0.0051
     EDDAV:  cpu time    2.5936: real time    2.5998
       DOS:  cpu time    0.0006: real time    0.0006
    CHARGE:  cpu time    0.0809: real time    0.0811
    MIXING:  cpu time    0.0024: real time    0.0024
    --------------------------------------------
      LOOP:  cpu time    2.7274: real time    2.7338

 eigenvalue-minimisations  :  1384
 total energy-change (2. order) : 0.1043258E+01  (-0.1113260E+00)
 number of electron     857.9999963 magnetization 
 augmentation part      338.3415143 magnetization 

 Broyden mixing:
  rms(total) = 0.14832E+01    rms(broyden)= 0.14828E+01
  rms(prec ) = 0.16558E+01
  weight for this iteration     100.00

 eigenvalues of (default mixing * dielectric matrix)
  average eigenvalue GAMMA=   0.4766
  1.9007  0.9169  0.9169  0.4173  0.4173  0.3672  0.1698  0.1698  0.0905  0.1152
  0.1152  0.1230

 Free energy of the ion-electron system (eV)
  ---------------------------------------------------
  alpha Z        PSCENC =      2101.59301765
  Ewald energy   TEWEN  =    177051.70562559
  -Hartree energ DENC   =   -309111.44289465
  -exchange      EXHF   =         0.00000000
  -V(xc)+E(xc)   XCENC  =      3925.29793375
  PAW double counting   =    142928.44776677  -148337.57666344
  entropy T*S    EENTRO =        -1.02381925
  eigenvalues    EBANDS =    -16280.35912744
  atomic energy  EATOM  =    147336.15547490
  Solvation  Ediel_sol  =         0.00000000
  ---------------------------------------------------
  free energy    TOTEN  =      -387.20268612 eV

  energy without entropy =     -386.17886687  energy(sigma->0) =     -386.69077649


--------------------------------------------------------------------------------------------------------




--------------------------------------- Iteration      1(  18)  ---------------------------------------


    POTLOK:  cpu time    0.0450: real time    0.0451
    SETDIJ:  cpu time    0.0050: real time    0.0050
     EDDAV:  cpu time    2.6532: real time    2.6594
       DOS:  cpu time    0.0007: real time    0.0007
    CHARGE:  cpu time    0.0809: real time    0.0811
    MIXING:  cpu time    0.0026: real time    0.0026
    --------------------------------------------
      LOOP:  cpu time    2.7872: real time    2.7939

 eigenvalue-minimisations  :  1424
 total energy-change (2. order) : 0.2918119E+00  (-0.1028440E+00)
 number of electron     857.9999968 magnetization 
 augmentation part      338.1725365 magnetization 

 Broyden mixing:
  rms(total) = 0.14004E+01    rms(broyden)= 0.13999E+01
  rms(prec ) = 0.15696E+01
  weight for this iteration     100.00

 eigenvalues of (default mixing * dielectric matrix)
  average eigenvalue GAMMA=   0.5151
  1.9766  1.1985  1.1985  0.4697  0.4442  0.4442  0.2039  0.1621  0.1621  0.0904
  0.1162  0.1162  0.1141

 Free energy of the ion-electron system (eV)
  ---------------------------------------------------
  alpha Z        PSCENC =      2101.59301765
  Ewald energy   TEWEN  =    177051.70562559
  -Hartree energ DENC   =   -309127.95274008
  -exchange      EXHF   =         0.00000000
  -V(xc)+E(xc)   XCENC  =      3925.30587479
  PAW double counting   =    142765.29260941  -148170.29687938
  entropy T*S    EENTRO =        -1.04937430
  eigenvalues    EBANDS =    -16267.66448276
  atomic energy  EATOM  =    147336.15547490
  Solvation  Ediel_sol  =         0.00000000
  ---------------------------------------------------
  free energy    TOTEN  =      -386.91087418 eV

  energy without entropy =     -385.86149988  energy(sigma->0) =     -386.38618703


--------------------------------------------------------------------------------------------------------




--------------------------------------- Iteration      1(  19)  ---------------------------------------


    POTLOK:  cpu time    0.0450: real time    0.0451
    SETDIJ:  cpu time    0.0049: real time    0.0049
     EDDAV:  cpu time    2.6769: real time    2.6833
       DOS:  cpu time    0.0006: real time    0.0006
    CHARGE:  cpu time    0.0808: real time    0.0810
    MIXING:  cpu time    0.0027: real time    0.0027
    --------------------------------------------
      LOOP:  cpu time    2.8110: real time    2.8177

 eigenvalue-minimisations  :  1440
 total energy-change (2. order) : 0.4521810E+00  (-0.8408018E-01)
 number of electron     857.9999955 magnetization 
 augmentation part      338.1417497 magnetization 

 Broyden mixing:
  rms(total) = 0.10234E+01    rms(broyden)= 0.10227E+01
  rms(prec ) = 0.11537E+01
  weight for this iteration     100.00

 eigenvalues of (default mixing * dielectric matrix)
  average eigenvalue GAMMA=   0.5279
  2.0144  1.3504  1.3504  0.4833  0.4833  0.3942  0.3942  0.1731  0.1731  0.0904
  0.1159  0.1159  0.1291  0.1231

 Free energy of the ion-electron system (eV)
  ---------------------------------------------------
  alpha Z        PSCENC =      2101.59301765
  Ewald energy   TEWEN  =    177051.70562559
  -Hartree energ DENC   =   -309144.47315558
  -exchange      EXHF   =         0.00000000
  -V(xc)+E(xc)   XCENC  =      3925.21619500
  PAW double counting   =    142572.42696995  -147972.25336400
  entropy T*S    EENTRO =        -1.12546721
  eigenvalues    EBANDS =    -16255.70398945
  atomic energy  EATOM  =    147336.15547490
  Solvation  Ediel_sol  =         0.00000000
  ---------------------------------------------------
  free energy    TOTEN  =      -386.45869315 eV

  energy without entropy =     -385.33322595  energy(sigma->0) =     -385.89595955


--------------------------------------------------------------------------------------------------------




--------------------------------------- Iteration      1(  20)  ---------------------------------------


    POTLOK:  cpu time    0.0452: real time    0.0453
    SETDIJ:  cpu time    0.0051: real time    0.0051
     EDDAV:  cpu time    2.6611: real time    2.6693
       DOS:  cpu time    0.0006: real time    0.0006
    CHARGE:  cpu time    0.0816: real time    0.0818
    MIXING:  cpu time    0.0029: real time    0.0029
    --------------------------------------------
      LOOP:  cpu time    2.7965: real time    2.8051

 eigenvalue-minimisations  :  1432
 total energy-change (2. order) : 0.2809155E+00  (-0.4935198E-01)
 number of electron     857.9999963 magnetization 
 augmentation part      338.2118381 magnetization 

 Broyden mixing:
  rms(total) = 0.76617E+00    rms(broyden)= 0.76529E+00
  rms(prec ) = 0.85159E+00
  weight for this iteration     100.00

 eigenvalues of (default mixing * dielectric matrix)
  average eigenvalue GAMMA=   0.5316
  2.0462  1.4714  1.4714  0.5239  0.5239  0.4037  0.4037  0.2097  0.1810  0.0904
  0.1158  0.1158  0.1501  0.1501  0.1170

 Free energy of the ion-electron system (eV)
  ---------------------------------------------------
  alpha Z        PSCENC =      2101.59301765
  Ewald energy   TEWEN  =    177051.70562559
  -Hartree energ DENC   =   -309149.60511849
  -exchange      EXHF   =         0.00000000
  -V(xc)+E(xc)   XCENC  =      3925.12563407
  PAW double counting   =    142358.45318698  -147753.66856485
  entropy T*S    EENTRO =        -1.12462437
  eigenvalues    EBANDS =    -16254.81240914
  atomic energy  EATOM  =    147336.15547490
  Solvation  Ediel_sol  =         0.00000000
  ---------------------------------------------------
  free energy    TOTEN  =      -386.17777766 eV

  energy without entropy =     -385.05315329  energy(sigma->0) =     -385.61546547


--------------------------------------------------------------------------------------------------------




--------------------------------------- Iteration      1(  21)  ---------------------------------------


    POTLOK:  cpu time    0.0457: real time    0.0476
    SETDIJ:  cpu time    0.0045: real time    0.0063
     EDDAV:  cpu time    2.5830: real time    2.5891
       DOS:  cpu time    0.0006: real time    0.0006
    CHARGE:  cpu time    0.0811: real time    0.0813
    MIXING:  cpu time    0.0028: real time    0.0028
    --------------------------------------------
      LOOP:  cpu time    2.7177: real time    2.7277

 eigenvalue-minimisations  :  1392
[...]
  in kB     -19.78294   -25.94794   -20.19762    -3.60126    -9.95137    -4.58113
  external pressure =      -21.98 kB  Pullay stress =        0.00 kB


 VOLUME and BASIS-vectors are now :
 -----------------------------------------------------------------------------
  energy-cutoff  :      450.00
  volume of cell :     2077.34
      direct lattice vectors                 reciprocal lattice vectors
     8.700730798 -4.005399070  0.000000000     0.114932874  0.000000000  0.000000000
     0.000000000 11.452783670  0.000000000     0.040195645  0.087315017  0.000000000
     0.000000000  0.000000000 20.846830137     0.000000000  0.000000000  0.047968923

  length of vectors
     9.578410000 11.452783670 20.846830137     0.114932874  0.096122849  0.047968923


 FORCES acting on ions
    electron-ion (+dipol)            ewald-force                    non-local-force                 convergence-correction
 -----------------------------------------------------------------------------------------------
   0.153E+03 -.217E+03 0.444E+04   -.156E+03 0.218E+03 -.444E+04   0.223E+01 -.874E+00 0.164E+01   0.117E-01 -.248E-02 -.242E-01
   0.207E+03 -.440E+03 0.189E+04   -.208E+03 0.440E+03 -.190E+04   0.647E+00 0.292E+00 0.193E+01   -.576E-02 -.441E-02 -.236E-01
   0.289E+03 -.418E+03 -.876E+03   -.290E+03 0.418E+03 0.874E+03   0.651E+00 -.102E+00 0.129E+01   -.395E-03 0.281E-02 0.255E-01
   0.191E+03 -.518E+03 -.382E+04   -.188E+03 0.518E+03 0.382E+04   -.190E+01 -.308E-01 0.804E+00   0.509E-02 -.580E-01 0.536E-01
   0.317E+03 -.394E+03 0.211E+02   -.318E+03 0.394E+03 -.223E+02   0.858E+00 -.151E+00 0.106E+01   -.389E-02 0.181E-02 -.164E-02
   0.386E+03 -.378E+03 -.269E+04   -.387E+03 0.378E+03 0.269E+04   0.153E+01 -.150E-01 -.131E+01   -.292E-02 0.144E-01 0.191E-01
   0.292E+03 -.307E+03 -.480E+04   -.294E+03 0.300E+03 0.479E+04   0.114E+01 0.617E+01 0.612E+01   0.258E-01 0.112E-01 0.280E-01
   0.475E+03 -.494E+03 0.476E+04   -.473E+03 0.487E+03 -.476E+04   -.179E+01 0.701E+01 -.274E+01   -.439E-02 0.206E-04 -.231E-01
   0.310E+03 -.486E+03 0.272E+04   -.312E+03 0.487E+03 -.272E+04   0.119E+01 -.105E+01 0.181E+01   -.314E-02 0.257E-02 -.186E-01
   0.393E+03 -.396E+03 0.346E+04   -.396E+03 0.397E+03 -.347E+04   0.272E+01 -.147E+01 0.247E+01   0.480E-03 0.217E-02 -.303E-01
   0.326E+03 -.384E+03 0.884E+03   -.327E+03 0.383E+03 -.885E+03   0.994E+00 0.174E+00 0.870E+00   0.767E-02 -.508E-02 -.751E-02
   0.274E+03 -.365E+03 -.186E+04   -.276E+03 0.366E+03 0.186E+04   0.131E+01 -.359E+00 -.387E-01   -.303E-02 0.843E-02 0.927E-02
   0.168E+03 -.191E+03 -.451E+04   -.166E+03 0.191E+03 0.451E+04   -.181E+01 0.265E+00 0.199E+01   -.186E-01 0.131E-01 0.309E-01
   0.533E+03 0.334E+01 0.458E+04   -.522E+03 -.450E+01 -.457E+04   -.101E+02 0.159E+01 -.910E+01   0.230E-01 -.156E-01 -.308E-01
   0.213E+03 0.462E+03 0.281E+04   -.214E+03 -.464E+03 -.281E+04   0.996E+00 0.216E+01 0.319E+01   0.734E-02 0.159E-01 -.316E-01
   0.158E+03 0.344E+03 -.517E+02   -.159E+03 -.346E+03 0.512E+02   0.760E+00 0.165E+01 0.431E+00   -.922E-03 -.200E-02 -.717E-02
   0.148E+03 0.322E+03 -.275E+04   -.149E+03 -.324E+03 0.275E+04   0.553E+00 0.120E+01 -.344E-01   0.861E-02 0.187E-01 0.615E-01
   0.506E+02 0.110E+03 -.512E+04   -.493E+02 -.107E+03 0.510E+04   -.142E+01 -.308E+01 0.131E+02   -.527E-02 -.114E-01 0.302E-01
   0.174E+03 0.378E+03 -.449E+04   -.174E+03 -.378E+03 0.449E+04   0.363E+00 0.789E+00 -.329E+01   -.264E-02 -.572E-02 0.300E-01
   0.206E+03 0.448E+03 0.339E+04   -.207E+03 -.450E+03 -.339E+04   0.116E+01 0.253E+01 0.307E+01   -.346E-03 -.751E-03 -.224E-01
   0.149E+03 0.323E+03 0.788E+03   -.149E+03 -.325E+03 -.788E+03   0.671E+00 0.146E+01 0.319E+00   -.323E-02 -.702E-02 -.394E-02
   0.160E+03 0.348E+03 -.190E+04   -.161E+03 -.349E+03 0.190E+04   0.564E+00 0.122E+01 -.309E-01   -.256E-02 -.555E-02 0.108E-01
   0.170E+03 0.368E+03 -.104E+04   -.170E+03 -.370E+03 0.104E+04   0.653E+00 0.142E+01 -.106E+00   0.280E-02 0.608E-02 -.476E-02
   0.179E+03 0.389E+03 -.388E+04   -.180E+03 -.391E+03 0.388E+04   0.918E+00 0.200E+01 -.239E+01   0.986E-03 0.214E-02 0.183E-01
   0.232E+03 0.504E+03 0.182E+04   -.233E+03 -.506E+03 -.182E+04   0.751E+00 0.163E+01 0.990E+00   0.330E-02 0.716E-02 -.165E-01
   -.506E+03 -.524E+02 -.876E+03   0.506E+03 0.522E+02 0.874E+03   -.501E+00 0.429E+00 0.129E+01   0.239E-02 0.153E-02 0.255E-01
   -.518E+03 -.192E+03 -.382E+04   0.516E+03 0.194E+03 0.382E+04   0.121E+01 -.146E+01 0.804E+00   -.474E-01 -.339E-01 0.536E-01
   -.265E+03 -.248E+02 0.444E+04   0.267E+03 0.231E+02 -.444E+04   -.212E+01 0.113E+01 0.164E+01   -.949E-02 0.728E-02 -.242E-01
   -.469E+03 -.129E+03 0.189E+04   0.469E+03 0.128E+03 -.190E+04   -.198E+00 0.681E+00 0.193E+01   0.395E-03 -.724E-02 -.236E-01
   -.506E+03 -.152E+02 0.211E+02   0.506E+03 0.147E+02 -.223E+02   -.673E+00 0.554E+00 0.106E+01   0.390E-02 -.178E-02 -.164E-02
   -.538E+03 0.473E+02 -.269E+04   0.539E+03 -.484E+02 0.269E+04   -.100E+01 0.115E+01 -.131E+01   0.129E-01 0.717E-02 0.191E-01
   -.423E+03 0.220E+02 -.480E+04   0.419E+03 -.280E+02 0.479E+04   0.395E+01 0.488E+01 0.612E+01   -.829E-02 0.269E-01 0.280E-01
   -.685E+03 0.394E+02 0.476E+04   0.678E+03 -.427E+02 -.476E+04   0.649E+01 0.320E+01 -.274E+01   0.287E-02 -.332E-02 -.231E-01
   -.571E+03 -.801E+02 0.272E+04   0.572E+03 0.798E+02 -.272E+04   -.157E+01 0.225E+00 0.181E+01   0.399E-02 -.714E-03 -.186E-01
   -.557E+03 0.413E+02 0.346E+04   0.560E+03 -.425E+02 -.347E+04   -.289E+01 0.112E+01 0.247E+01   0.134E-02 0.177E-02 -.303E-01
   -.503E+03 -.210E+01 0.884E+03   0.504E+03 0.115E+01 -.885E+03   -.515E+00 0.868E+00 0.870E+00   -.885E-02 0.252E-02 -.751E-02
   -.456E+03 -.291E+02 -.186E+04   0.457E+03 0.283E+02 0.186E+04   -.113E+01 0.762E+00 -.387E-01   0.837E-02 0.318E-02 0.927E-02
   -.254E+03 0.356E+01 -.451E+04   0.253E+03 -.182E+01 0.451E+04   0.138E+01 -.120E+01 0.199E+01   0.220E-01 -.560E-02 0.309E-01
   -.344E+03 0.407E+03 0.458E+04   0.336E+03 -.399E+03 -.457E+04   0.780E+01 -.667E+01 -.910E+01   -.268E-01 0.731E-02 -.308E-01
   -.965E+02 0.138E+03 -.315E+03   0.977E+02 -.140E+03 0.316E+03   -.129E+01 0.217E+01 -.706E+00   0.285E-02 -.714E-03 0.451E-02
   -.116E+03 0.116E+03 -.132E+04   0.117E+03 -.118E+03 0.132E+04   -.140E+01 0.272E+01 0.624E+00   -.160E-01 0.112E-01 0.309E-01
   0.117E+03 0.123E+03 0.177E+04   -.119E+03 -.124E+03 -.177E+04   0.209E+01 0.237E+01 0.334E+01   0.189E-02 0.486E-02 -.995E-02
   -.755E+02 0.138E+03 0.698E+03   0.769E+02 -.141E+03 -.698E+03   -.159E+01 0.256E+01 -.262E+00   0.274E-02 -.268E-02 -.124E-01
   -.115E+03 0.152E+03 -.102E+04   0.116E+03 -.154E+03 0.102E+04   -.134E+01 0.207E+01 -.100E+01   0.317E-02 -.721E-02 0.378E-02
   -.153E+03 0.236E+03 -.189E+04   0.155E+03 -.239E+03 0.189E+04   -.292E+01 0.383E+01 -.316E+01   0.506E-02 0.707E-02 0.149E-01
   0.104E+02 0.201E+03 0.188E+04   -.123E+02 -.203E+03 -.188E+04   0.280E+01 0.252E+01 0.377E+01   0.427E-02 -.139E-02 -.445E-02
   -.146E+03 0.143E+03 0.100E+04   0.147E+03 -.146E+03 -.100E+04   -.143E+01 0.275E+01 -.536E+00   -.207E-02 -.433E-02 -.108E-01
   -.103E+03 0.140E+03 0.191E+02   0.104E+03 -.143E+03 -.189E+02   -.141E+01 0.237E+01 -.271E+00   0.137E-04 0.484E-03 0.178E-02
   -.902E+02 0.155E+03 0.352E+03   0.914E+02 -.157E+03 -.352E+03   -.124E+01 0.249E+01 -.332E-01   0.133E-02 0.489E-02 -.189E-03
   -.735E+02 0.146E+03 -.685E+03   0.748E+02 -.148E+03 0.686E+03   -.148E+01 0.230E+01 -.839E+00   -.110E-02 -.108E-02 -.310E-02
   0.533E+02 0.563E+02 -.168E+04   -.534E+02 -.574E+02 0.168E+04   0.212E+00 0.157E+01 -.187E+01   0.117E-01 0.435E-03 0.149E-01
   0.491E+02 0.211E+03 0.135E+04   -.507E+02 -.214E+03 -.135E+04   0.170E+01 0.286E+01 -.619E+00   -.262E-02 0.138E-02 -.232E-01
   -.372E+02 -.808E+02 -.175E+04   0.373E+02 0.809E+02 0.176E+04   -.613E+00 -.133E+01 -.395E+01   -.439E-02 -.954E-02 0.124E-01
   -.515E+02 -.112E+03 -.529E+03   0.521E+02 0.113E+03 0.527E+03   -.658E+00 -.143E+01 0.186E+01   -.457E-03 -.995E-03 0.963E-02
   -.125E+03 -.271E+03 0.159E+04   0.127E+03 0.276E+03 -.159E+04   -.269E+01 -.584E+01 0.315E+01   -.294E-02 -.638E-02 -.153E-01
   -.475E+02 -.103E+03 0.572E+03   0.480E+02 0.104E+03 -.573E+03   -.479E+00 -.104E+01 0.145E+01   -.447E-03 -.972E-03 -.293E-02
   -.496E+02 -.108E+03 0.900E+03   0.499E+02 0.108E+03 -.901E+03   -.399E+00 -.866E+00 0.123E+01   0.122E-02 0.264E-02 -.439E-02
   -.424E+02 -.922E+02 -.160E+03   0.432E+02 0.938E+02 0.159E+03   -.778E+00 -.169E+01 0.146E+01   -.727E-03 -.158E-02 -.167E-02
   -.421E+02 -.915E+02 -.114E+04   0.426E+02 0.925E+02 0.114E+04   -.321E+00 -.696E+00 0.231E+01   0.360E-02 0.783E-02 0.226E-01
   -.140E+03 -.305E+03 0.177E+04   0.143E+03 0.310E+03 -.177E+04   -.277E+01 -.601E+01 0.239E+01   -.789E-03 -.171E-02 -.140E-01
   -.115E+03 -.249E+03 0.187E+04   0.117E+03 0.255E+03 -.187E+04   -.297E+01 -.645E+01 0.239E+01   -.656E-02 -.143E-01 -.164E-01
   -.433E+02 -.940E+02 0.118E+04   0.437E+02 0.950E+02 -.118E+04   -.506E+00 -.110E+01 0.516E+00   0.111E-02 0.240E-02 -.359E-02
   -.452E+02 -.982E+02 0.158E+03   0.457E+02 0.993E+02 -.160E+03   -.425E+00 -.924E+00 0.184E+01   -.190E-02 -.413E-02 -.407E-02
   -.397E+02 -.863E+02 -.871E+03   0.402E+02 0.872E+02 0.869E+03   -.459E+00 -.997E+00 0.260E+01   0.734E-03 0.160E-02 0.937E-02
   -.323E+02 -.701E+02 -.187E+04   0.323E+02 0.702E+02 0.187E+04   -.792E+00 -.172E+01 -.417E+01   -.306E-02 -.666E-02 0.121E-01
   0.172E+02 0.168E+03 0.177E+04   -.171E+02 -.171E+03 -.177E+04   0.446E+00 0.313E+01 0.334E+01   0.246E-02 0.460E-02 -.995E-02
   0.154E+03 0.326E+02 0.698E+03   -.157E+03 -.331E+02 -.698E+03   0.298E+01 0.456E+00 -.262E+00   -.382E-02 0.338E-03 -.124E-01
   0.167E+03 0.163E+02 -.315E+03   -.170E+03 -.168E+02 0.316E+03   0.249E+01 0.432E+00 -.706E+00   -.239E-02 0.170E-02 0.451E-02
   0.163E+03 -.126E+02 -.132E+04   -.166E+03 0.121E+02 0.132E+04   0.298E+01 0.702E+00 0.624E+00   0.189E-01 -.493E-02 0.309E-01
   0.190E+03 0.114E+02 -.102E+04   -.192E+03 -.117E+02 0.102E+04   0.245E+01 0.332E+00 -.100E+01   -.754E-02 -.228E-02 0.378E-02
   0.278E+03 0.374E+02 -.189E+04   -.283E+03 -.376E+02 0.189E+04   0.481E+01 0.269E+00 -.316E+01   0.209E-02 0.844E-02 0.149E-01
   0.146E+03 0.138E+03 0.188E+04   -.146E+03 -.141E+03 -.188E+04   0.911E-01 0.376E+01 0.377E+01   -.383E-02 0.234E-02 -.445E-02
   0.203E+03 -.177E+02 0.100E+04   -.206E+03 0.169E+02 -.100E+04   0.302E+01 0.704E+00 -.536E+00   -.195E-02 -.439E-02 -.108E-01
   0.173E+03 0.129E+02 0.191E+02   -.176E+03 -.135E+02 -.189E+02   0.271E+01 0.469E+00 -.271E+00   0.358E-03 0.326E-03 0.178E-02
   0.159E+03 0.393E+02 -.685E+03   -.161E+03 -.398E+02 0.686E+03   0.271E+01 0.372E+00 -.839E+00   -.101E-03 -.154E-02 -.310E-02
   0.810E+01 0.772E+02 -.168E+04   -.889E+01 -.779E+02 0.168E+04   0.106E+01 0.118E+01 -.187E+01   -.731E-02 0.921E-02 0.149E-01
   0.176E+03 0.323E+02 0.352E+03   -.179E+03 -.330E+02 -.352E+03   0.270E+01 0.677E+00 -.332E-01   0.285E-02 0.419E-02 -.189E-03
   0.129E+03 0.175E+03 0.135E+04   -.130E+03 -.178E+03 -.135E+04   0.107E+01 0.315E+01 -.619E+00   0.275E-02 -.109E-02 -.232E-01
 -----------------------------------------------------------------------------------------------
   -.222E+02 -.482E+02 -.389E+02   0.136E-11 0.105E-11 -.932E-11   0.222E+02 0.482E+02 0.388E+02   -.390E-02 -.847E-02 0.950E-01
 
 
 POSITION                                       TOTAL-FORCE (eV/Angst)
 -----------------------------------------------------------------------------------
      5.55051      2.35858      1.66874        -0.675118      0.036954      0.531220
      6.34277      4.07957      4.17186        -0.039848     -0.218030     -0.167951
      7.13503      5.80056      6.67497         0.177504      0.107121     -0.058369
      7.92730      7.52156      9.17809         0.667979      0.308896     -0.668163
      3.97070     -1.07316      5.84060         0.132054     -0.048452     -0.070499
      4.76297      0.64784      8.34372        -0.024395      0.138388      0.378027
      5.55523      2.36883     10.84683        -0.550252     -0.953159     -1.719010
      2.38618      6.93764      0.83437         0.103521     -0.378202      1.149869
      3.17844      8.65863      3.33749        -0.079533     -0.134079     -0.214375
      0.01411      1.78491      2.50311        -0.228510      0.059723     -0.312116
      0.80637      3.50591      5.00623        -0.074605     -0.026077     -0.081888
      1.59863      5.22690      7.50934        -0.109846     -0.037597      0.131684
      2.39090      6.94789     10.01246         0.543916      0.184358     -0.871504
      7.92258      7.51131      0.00000         1.224409      0.415336      1.929666
      5.96915      0.24208      2.99142        -0.034629     -0.075223     -0.516968
      6.76141      1.96307      5.49453         0.058544      0.127172     -0.069293
      7.55367      3.68406      7.99765         0.018652      0.040516      0.232998
      8.34594      5.40506     10.50076        -0.179485     -0.389886     -1.684981
      5.18161     -1.46866      9.66639         0.146239      0.317669      0.703230
      2.80482      4.82114      2.15705        -0.121310     -0.263515     -0.193968
      3.59708      6.54213      4.66016         0.053828      0.116927      0.033495
      4.38934      8.26313      7.16328         0.041219      0.089538     -0.040682
      1.22501      1.38941      6.32891         0.092517      0.200970     -0.197949
      2.01727      3.11040      8.83202         0.036340      0.078940      0.494408
      0.43275     11.12120      3.82579        -0.135042     -0.293345     -0.372935
      0.73309      8.74771      6.67497        -0.034045      0.204508     -0.058369
      1.52535     10.46871      9.17809        -0.199696      0.708332     -0.668163
      7.84929      1.30033      1.66874         0.467082     -0.488860      0.531220
      8.64156      3.02132      4.17186        -0.139727     -0.172051     -0.167951
      6.26949     -2.13141      5.84060        -0.122680      0.068815     -0.070499
      7.06175     -0.41041      8.34372         0.120997      0.071456      0.378027
      7.85401      1.31058     10.84683        -0.366307     -1.037838     -1.719010
      4.68496      5.87939      0.83437        -0.354638     -0.167287      1.149869
      5.47723      7.60038      3.33749        -0.050143     -0.147609     -0.214375
      2.31289      0.72666      2.50311         0.193965     -0.134764     -0.312116
      3.10516      2.44766      5.00623         0.028703     -0.073635     -0.081888
      3.89742      4.16865      7.50934         0.042867     -0.107899      0.131684
      4.68968      5.88964     10.01246        -0.213634      0.533098     -0.871504
      1.52063     10.45845      0.00000        -0.480662      1.200269      1.929666
      0.11665      6.58149      6.48654        -0.060077      0.064955      0.103034
      0.90891      8.30248      8.98965        -0.112055      0.427255      1.357489
      7.23286     -0.86589      1.48031         0.130297      0.817229      0.116787
      8.02512      0.85510      3.98342        -0.220511      0.163963      0.167308
      6.44531     -2.57663      8.15528        -0.061560      0.024334      0.288562
      7.23758     -0.85564     10.65839        -0.223120      0.359255     -0.558174
      4.06853      3.71317      0.64594         0.883380      0.743395     -0.025614
      4.86079      5.43416      3.14905        -0.192063      0.179603     -0.008222
      5.65305      7.15516      5.65216        -0.059160     -0.046109      0.016199
      2.48872      0.28144      4.81779        -0.079704     -0.003226      0.161012
      3.28098      2.00243      7.32091        -0.190972      0.078280      0.095011
      4.07325      3.72342      9.82402         0.185912      0.492120      0.460553
      1.69646     10.01323      2.31468         0.119693      0.057617     -0.743797
      1.16809      1.26577      9.80852        -0.550544     -1.195919      0.534613
      0.37583     10.99756      7.30541        -0.085787     -0.186350      0.129155
      7.49204      3.55017      2.29918        -0.347812     -0.755535     -1.224227
      8.28430      5.27117      4.80229         0.000062      0.000135     -0.087209
      5.11997     -1.60255      3.96792        -0.043178     -0.093794     -0.128539
      5.91223      0.11844      6.47103        -0.008531     -0.018531      0.206127
      6.70449      1.83943      8.97415         0.167107      0.362999      1.217146
      4.32771      8.12924      1.46480        -0.350527     -0.761432     -1.449522
      1.16338      1.25552      0.63043        -0.580134     -1.260197     -1.114229
      1.95564      2.97651      3.13355        -0.045823     -0.099539     -0.235921
      2.74790      4.69750      5.63666         0.077183      0.167661      0.150602
      3.54016      6.41849      8.13978        -0.038934     -0.084574      0.470810
      4.33243      8.13949     10.64289        -0.722900     -1.570320      0.370363
      4.30567      0.48164      1.48031         0.536124      0.630405      0.116787
      5.09793      2.20264      3.98342         0.267955     -0.060903      0.167308
      5.89020      3.92363      6.48654         0.088413     -0.003403      0.103034
      6.68246      5.64462      8.98965         0.397453      0.192702      1.357489
      3.51813     -1.22910      8.15528         0.058518     -0.030944      0.288562
      4.31039      0.49189     10.65839         0.418015      0.064107     -0.558174
      1.14134      5.06071      0.64594        -0.009674      1.154515     -0.025614
      1.93360      6.78170      3.14905         0.261338     -0.029120     -0.008222
      2.72586      8.50269      5.65216         0.003440     -0.074928      0.016199
      0.35380      3.34996      7.32091         0.183653     -0.094179      0.095011
      1.14606      5.07096      9.82402         0.252973      0.461248      0.460553
      8.26226     -2.37643      4.81779         0.049378     -0.062650      0.161012
      7.47000      7.35536      2.31468        -0.034061      0.128397     -0.743797
 -----------------------------------------------------------------------------------
    total drift:                               -0.007231     -0.017510     -0.038681


--------------------------------------------------------------------------------------------------------



  FREE ENERGIE OF THE ION-ELECTRON SYSTEM (eV)
  ---------------------------------------------------
  free  energy   TOTEN  =      -385.91481813 eV

  energy  without entropy=     -384.75968817  energy(sigma->0) =     -385.33725315
 


--------------------------------------------------------------------------------------------------------


    POTLOK:  cpu time    0.0494: real time    0.0503


--------------------------------------------------------------------------------------------------------


     LOOP+:  cpu time  108.5737: real time  108.9003
    4ORBIT:  cpu time    0.0000: real time    0.0000

 total amount of memory used by VASP MPI-rank0    47141. kBytes
=======================================================================

   base      :      30000. kBytes
   nonlr-proj:       2595. kBytes
   fftplans  :       3720. kBytes
   grid      :       6724. kBytes
   one-center:        101. kBytes
   wavefun   :       4001. kBytes
 
  
  
 General timing and accounting informations for this job:
 ========================================================
  
                  Total CPU time used (sec):      110.840
                            User time (sec):      110.093
                          System time (sec):        0.747
                         Elapsed time (sec):      111.566
  
                   Maximum memory used (kb):      241556.
                   Average memory used (kb):           0.
  
                          Minor page faults:        82481
                          Major page faults:            0
                 Voluntary context switches:          846
