  96  96   0   0
  0.2565633E+02  0.1125646E-08  0.1125646E-08  0.2174423E-08  0.5000000E-15
  1.000000000000000E-004
  CAR 
 "Millerite NiS"                         
     11.50311924    -66.19010654  301      1.48805152      1.00000000
    -66.190  0.0000E+00  0.0000E+00
    -65.931  0.0000E+00  0.0000E+00
    -65.672  0.0000E+00  0.0000E+00
    -65.413  0.0000E+00  0.0000E+00
    -65.154  0.0000E+00  0.0000E+00
    -64.895  0.0000E+00  0.0000E+00
    -64.636  0.0000E+00  0.0000E+00
    -64.377  0.0000E+00  0.0000E+00
    -64.118  0.0000E+00  0.0000E+00
    -63.859  0.0000E+00  0.0000E+00
    -63.600  0.1595E-09  0.4130E-10
    -63.341  0.1184E-04  0.3066E-05
    -63.082  0.4706E-01  0.1219E-01
    -62.823  0.1124E+02  0.2922E+01
    -62.564  0.1896E+03  0.5202E+02
    -62.305  0.4055E+03  0.1570E+03
    -62.046  0.2919E+03  0.2326E+03
    -61.787  0.1371E+03  0.2681E+03
    -61.529  0.6389E+02  0.2847E+03
    -61.270  0.1225E+02  0.2879E+03
    -61.011  0.5625E+00  0.2880E+03
    -60.752  0.2096E-02  0.2880E+03
    -60.493  0.3884E-06  0.2880E+03
    -60.234  0.2978E-11  0.2880E+03
    -59.975  0.0000E+00  0.2880E+03
    -59.716  0.0000E+00  0.2880E+03
    -59.457  0.0000E+00  0.2880E+03
    -59.198  0.0000E+00  0.2880E+03
    -58.939  0.0000E+00  0.2880E+03
    -58.680  0.0000E+00  0.2880E+03
    -58.421  0.0000E+00  0.2880E+03
    -58.162  0.0000E+00  0.2880E+03
    -57.903  0.0000E+00  0.2880E+03
    -57.644  0.0000E+00  0.2880E+03
    -57.385  0.0000E+00  0.2880E+03
    -57.126  0.0000E+00  0.2880E+03
    -56.867  0.0000E+00  0.2880E+03
    -56.608  0.0000E+00  0.2880E+03
    -56.349  0.0000E+00  0.2880E+03
    -56.090  0.0000E+00  0.2880E+03
    -55.831  0.0000E+00  0.2880E+03
    -55.572  0.0000E+00  0.2880E+03
    -55.313  0.0000E+00  0.2880E+03
    -55.054  0.0000E+00  0.2880E+03
    -54.795  0.0000E+00  0.2880E+03
    -54.536  0.0000E+00  0.2880E+03
    -54.277  0.0000E+00  0.2880E+03
    -54.018  0.0000E+00  0.2880E+03
    -53.759  0.0000E+00  0.2880E+03
    -53.500  0.0000E+00  0.2880E+03
    -53.241  0.0000E+00  0.2880E+03
    -52.982  0.0000E+00  0.2880E+03
    -52.723  0.0000E+00  0.2880E+03
    -52.464  0.0000E+00  0.2880E+03
    -52.205  0.0000E+00  0.2880E+03
    -51.946  0.0000E+00  0.2880E+03
    -51.687  0.0000E+00  0.2880E+03
    -51.428  0.0000E+00  0.2880E+03
    -51.169  0.0000E+00  0.2880E+03
    -50.910  0.0000E+00  0.2880E+03
    -50.651  0.0000E+00  0.2880E+03
    -50.392  0.0000E+00  0.2880E+03
    -50.134  0.0000E+00  0.2880E+03
    -49.875  0.0000E+00  0.2880E+03
    -49.616  0.0000E+00  0.2880E+03
    -49.357  0.0000E+00  0.2880E+03
    -49.098  0.0000E+00  0.2880E+03
    -48.839  0.0000E+00  0.2880E+03
    -48.580  0.0000E+00  0.2880E+03
    -48.321  0.0000E+00  0.2880E+03
    -48.062  0.0000E+00  0.2880E+03
    -47.803  0.0000E+00  0.2880E+03
    -47.544  0.0000E+00  0.2880E+03
    -47.285  0.0000E+00  0.2880E+03
    -47.026  0.0000E+00  0.2880E+03
    -46.767  0.0000E+00  0.2880E+03
    -46.508  0.0000E+00  0.2880E+03
    -46.249  0.0000E+00  0.2880E+03
    -45.990  0.0000E+00  0.2880E+03
    -45.731  0.0000E+00  0.2880E+03
    -45.472  0.0000E+00  0.2880E+03
    -45.213  0.0000E+00  0.2880E+03
    -44.954  0.0000E+00  0.2880E+03
    -44.695  0.0000E+00  0.2880E+03
    -44.436  0.0000E+00  0.2880E+03
    -44.177  0.0000E+00  0.2880E+03
    -43.918  0.0000E+00  0.2880E+03
    -43.659  0.0000E+00  0.2880E+03
    -43.400  0.0000E+00  0.2880E+03
    -43.141  0.0000E+00  0.2880E+03
    -42.882  0.0000E+00  0.2880E+03
    -42.623  0.0000E+00  0.2880E+03
    -42.364  0.0000E+00  0.2880E+03
    -42.105  0.0000E+00  0.2880E+03
    -41.846  0.0000E+00  0.2880E+03
    -41.587  0.0000E+00  0.2880E+03
    -41.328  0.0000E+00  0.2880E+03
    -41.069  0.0000E+00  0.2880E+03
    -40.810  0.0000E+00  0.2880E+03
    -40.551  0.0000E+00  0.2880E+03
    -40.292  0.0000E+00  0.2880E+03
    -40.033  0.0000E+00  0.2880E+03
    -39.774  0.0000E+00  0.2880E+03
    -39.515  0.0000E+00  0.2880E+03
    -39.256  0.0000E+00  0.2880E+03
    -38.997  0.0000E+00  0.2880E+03
    -38.739  0.0000E+00  0.2880E+03
    -38.480  0.0000E+00  0.2880E+03
    -38.221  0.0000E+00  0.2880E+03
    -37.962  0.0000E+00  0.2880E+03
    -37.703  0.0000E+00  0.2880E+03
    -37.444  0.0000E+00  0.2880E+03
    -37.185  0.0000E+00  0.2880E+03
    -36.926  0.0000E+00  0.2880E+03
    -36.667  0.0000E+00  0.2880E+03
    -36.408  0.0000E+00  0.2880E+03
    -36.149  0.0000E+00  0.2880E+03
    -35.890  0.0000E+00  0.2880E+03
    -35.631  0.0000E+00  0.2880E+03
    -35.372  0.0000E+00  0.2880E+03
    -35.113  0.0000E+00  0.2880E+03
    -34.854  0.0000E+00  0.2880E+03
    -34.595  0.0000E+00  0.2880E+03
    -34.336  0.0000E+00  0.2880E+03
    -34.077  0.0000E+00  0.2880E+03
    -33.818  0.0000E+00  0.2880E+03
    -33.559  0.0000E+00  0.2880E+03
    -33.300  0.0000E+00  0.2880E+03
    -33.041  0.0000E+00  0.2880E+03
    -32.782  0.0000E+00  0.2880E+03
    -32.523  0.0000E+00  0.2880E+03
    -32.264  0.0000E+00  0.2880E+03
    -32.005  0.0000E+00  0.2880E+03
    -31.746  0.0000E+00  0.2880E+03
    -31.487  0.0000E+00  0.2880E+03
    -31.228  0.0000E+00  0.2880E+03
    -30.969  0.0000E+00  0.2880E+03
    -30.710  0.0000E+00  0.2880E+03
    -30.451  0.0000E+00  0.2880E+03
    -30.192  0.0000E+00  0.2880E+03
    -29.933  0.0000E+00  0.2880E+03
    -29.674  0.0000E+00  0.2880E+03
    -29.415  0.0000E+00  0.2880E+03
    -29.156  0.0000E+00  0.2880E+03
    -28.897  0.0000E+00  0.2880E+03
    -28.638  0.0000E+00  0.2880E+03
    -28.379  0.0000E+00  0.2880E+03
    -28.120  0.0000E+00  0.2880E+03
    -27.861  0.0000E+00  0.2880E+03
    -27.602  0.0000E+00  0.2880E+03
    -27.343  0.0000E+00  0.2880E+03
    -27.085  0.0000E+00  0.2880E+03
    -26.826  0.0000E+00  0.2880E+03
    -26.567  0.0000E+00  0.2880E+03
    -26.308  0.0000E+00  0.2880E+03
    -26.049  0.0000E+00  0.2880E+03
    -25.790  0.0000E+00  0.2880E+03
    -25.531  0.0000E+00  0.2880E+03
    -25.272  0.0000E+00  0.2880E+03
    -25.013  0.0000E+00  0.2880E+03
    -24.754  0.0000E+00  0.2880E+03
    -24.495  0.0000E+00  0.2880E+03
    -24.236  0.0000E+00  0.2880E+03
    -23.977  0.0000E+00  0.2880E+03
    -23.718  0.0000E+00  0.2880E+03
    -23.459  0.0000E+00  0.2880E+03
    -23.200  0.0000E+00  0.2880E+03
    -22.941  0.0000E+00  0.2880E+03
    -22.682  0.0000E+00  0.2880E+03
    -22.423  0.0000E+00  0.2880E+03
    -22.164  0.0000E+00  0.2880E+03
    -21.905  0.0000E+00  0.2880E+03
    -21.646  0.0000E+00  0.2880E+03
    -21.387  0.0000E+00  0.2880E+03
    -21.128  0.0000E+00  0.2880E+03
    -20.869  0.0000E+00  0.2880E+03
    -20.610  0.0000E+00  0.2880E+03
    -20.351  0.0000E+00  0.2880E+03
    -20.092  0.0000E+00  0.2880E+03
    -19.833  0.0000E+00  0.2880E+03
    -19.574  0.0000E+00  0.2880E+03
    -19.315  0.0000E+00  0.2880E+03
    -19.056  0.0000E+00  0.2880E+03
    -18.797  0.0000E+00  0.2880E+03
    -18.538  0.0000E+00  0.2880E+03
    -18.279  0.0000E+00  0.2880E+03
    -18.020  0.0000E+00  0.2880E+03
    -17.761  0.0000E+00  0.2880E+03
    -17.502  0.0000E+00  0.2880E+03
    -17.243  0.0000E+00  0.2880E+03
    -16.984  0.0000E+00  0.2880E+03
    -16.725  0.0000E+00  0.2880E+03
    -16.466  0.0000E+00  0.2880E+03
    -16.207  0.0000E+00  0.2880E+03
    -15.948  0.0000E+00  0.2880E+03
    -15.690  0.0000E+00  0.2880E+03
    -15.431  0.0000E+00  0.2880E+03
    -15.172  0.0000E+00  0.2880E+03
    -14.913  0.8712E-10  0.2880E+03
    -14.654  0.4598E-05  0.2880E+03
    -14.395  0.9567E-02  0.2880E+03
    -14.136  0.8871E+00  0.2882E+03
    -13.877  0.4807E+01  0.2895E+03
    -13.618  0.2745E+01  0.2902E+03
    -13.359  0.8472E+01  0.2924E+03
    -13.100  0.2184E+02  0.2980E+03
    -12.841  0.2599E+02  0.3048E+03
    -12.582  0.3475E+02  0.3138E+03
    -12.323  0.2964E+02  0.3214E+03
    -12.064  0.4881E+02  0.3341E+03
    -11.805  0.5800E+02  0.3491E+03
    -11.546  0.3450E+02  0.3580E+03
    -11.287  0.1680E+02  0.3624E+03
    -11.028  0.1573E+02  0.3665E+03
    -10.769  0.2230E+02  0.3722E+03
    -10.510  0.2174E+02  0.3779E+03
    -10.251  0.1449E+02  0.3816E+03
     -9.992  0.8453E+01  0.3838E+03
     -9.733  0.7185E+00  0.3840E+03
     -9.474  0.4757E-02  0.3840E+03
     -9.215  0.1529E-05  0.3840E+03
     -8.956  0.1963E-10  0.3840E+03
     -8.697  0.0000E+00  0.3840E+03
     -8.438  0.0000E+00  0.3840E+03
     -8.179  0.0000E+00  0.3840E+03
     -7.920  0.0000E+00  0.3840E+03
     -7.661  0.0000E+00  0.3840E+03
     -7.402  0.0000E+00  0.3840E+03
     -7.143  0.0000E+00  0.3840E+03
     -6.884  0.1072E-13  0.3840E+03
     -6.625  0.6933E-08  0.3840E+03
     -6.366  0.1692E-03  0.3840E+03
     -6.107  0.1721E+00  0.3840E+03
     -5.848  0.8614E+01  0.3863E+03
     -5.589  0.2949E+02  0.3939E+03
     -5.330  0.1740E+02  0.3984E+03
     -5.071  0.2886E+02  0.4059E+03
     -4.812  0.4824E+02  0.4184E+03
     -4.553  0.6178E+02  0.4344E+03
     -4.295  0.6427E+02  0.4510E+03
     -4.036  0.3463E+02  0.4600E+03
     -3.777  0.4793E+02  0.4724E+03
     -3.518  0.6717E+02  0.4898E+03
     -3.259  0.6824E+02  0.5075E+03
     -3.000  0.9097E+02  0.5310E+03
     -2.741  0.8599E+02  0.5533E+03
     -2.482  0.8787E+02  0.5761E+03
     -2.223  0.1037E+03  0.6029E+03
     -1.964  0.6622E+02  0.6201E+03
     -1.705  0.4927E+02  0.6328E+03
     -1.446  0.6725E+02  0.6503E+03
     -1.187  0.8709E+02  0.6728E+03
     -0.928  0.1028E+03  0.6994E+03
     -0.669  0.1355E+03  0.7345E+03
     -0.410  0.1667E+03  0.7777E+03
     -0.151  0.1997E+03  0.8294E+03
      0.108  0.2289E+03  0.8887E+03
      0.367  0.2054E+03  0.9419E+03
      0.626  0.1484E+03  0.9803E+03
      0.885  0.1130E+03  0.1010E+04
      1.144  0.8495E+02  0.1032E+04
      1.403  0.7098E+02  0.1050E+04
      1.662  0.7166E+02  0.1069E+04
      1.921  0.6578E+02  0.1086E+04
      2.180  0.7801E+02  0.1106E+04
      2.439  0.7996E+02  0.1126E+04
      2.698  0.6716E+02  0.1144E+04
      2.957  0.2868E+02  0.1151E+04
      3.216  0.3718E+01  0.1152E+04
      3.475  0.6209E+01  0.1154E+04
      3.734  0.7009E+01  0.1156E+04
      3.993  0.4834E+01  0.1157E+04
      4.252  0.5619E+01  0.1158E+04
      4.511  0.1305E+02  0.1162E+04
      4.770  0.1555E+02  0.1166E+04
      5.029  0.1860E+02  0.1171E+04
      5.288  0.1780E+02  0.1175E+04
      5.547  0.1940E+02  0.1180E+04
      5.806  0.2336E+02  0.1186E+04
      6.065  0.2708E+02  0.1193E+04
      6.324  0.3743E+02  0.1203E+04
      6.583  0.3123E+02  0.1211E+04
      6.842  0.3694E+02  0.1221E+04
      7.101  0.4378E+02  0.1232E+04
      7.359  0.5253E+02  0.1246E+04
      7.618  0.4876E+02  0.1258E+04
      7.877  0.5693E+02  0.1273E+04
      8.136  0.2531E+02  0.1280E+04
      8.395  0.1845E+01  0.1280E+04
      8.654  0.1328E-01  0.1280E+04
      8.913  0.5730E-05  0.1280E+04
      9.172  0.1088E-09  0.1280E+04
      9.431  0.0000E+00  0.1280E+04
      9.690  0.0000E+00  0.1280E+04
      9.949  0.0000E+00  0.1280E+04
     10.208  0.0000E+00  0.1280E+04
     10.467  0.0000E+00  0.1280E+04
     10.726  0.0000E+00  0.1280E+04
     10.985  0.0000E+00  0.1280E+04
     11.244  0.0000E+00  0.1280E+04
     11.503  0.0000E+00  0.1280E+04
