       N       E                     dE             d eps       ncg     rms          rms(c)
DAV:   1     0.699351299936E+04    0.69935E+04   -0.37894E+05   880   0.159E+03
DAV:   2     0.397650142836E+03   -0.65959E+04   -0.63594E+04   768   0.508E+02
DAV:   3    -0.259073505567E+03   -0.65672E+03   -0.62215E+03   824   0.169E+02
DAV:   4    -0.299310525983E+03   -0.40237E+02   -0.39791E+02   864   0.378E+01
DAV:   5    -0.300610225965E+03   -0.12997E+01   -0.12971E+01   856   0.719E+00    0.705E+01
DAV:   6    -0.374027055101E+03   -0.73417E+02   -0.73223E+02   880   0.117E+02    0.138E+02
DAV:   7    -0.278849007810E+03    0.95178E+02   -0.13475E+02   840   0.616E+01    0.570E+01
DAV:   8    -0.350754944844E+03   -0.71906E+02   -0.12538E+02  1016   0.928E+01    0.138E+02
DAV:   9    -0.288347878206E+03    0.62407E+02   -0.11471E+02   928   0.507E+01    0.624E+01
DAV:  10    -0.270413696443E+03    0.17934E+02   -0.45759E+01  1024   0.447E+01    0.457E+01
DAV:  11    -0.283521854305E+03   -0.13108E+02   -0.48758E+01  1000   0.427E+01    0.774E+01
DAV:  12    -0.271221235703E+03    0.12301E+02   -0.11243E+01   976   0.145E+01    0.375E+01
DAV:  13    -0.268895782322E+03    0.23255E+01   -0.28333E+01   952   0.227E+01    0.265E+01
DAV:  14    -0.265601547856E+03    0.32942E+01   -0.58594E+00   976   0.160E+01    0.212E+01
DAV:  15    -0.264392708564E+03    0.12088E+01   -0.27799E+00   960   0.115E+01    0.165E+01
DAV:  16    -0.263536306868E+03    0.85640E+00   -0.11513E+00   968   0.717E+00    0.122E+01
DAV:  17    -0.263369204297E+03    0.16710E+00   -0.11934E+00   992   0.754E+00    0.119E+01
DAV:  18    -0.263274761307E+03    0.94443E-01   -0.14217E+00   944   0.665E+00    0.102E+01
DAV:  19    -0.263090640001E+03    0.18412E+00   -0.49291E-01   984   0.479E+00    0.828E+00
DAV:  20    -0.262989871606E+03    0.10077E+00   -0.35118E-01   968   0.375E+00    0.756E+00
DAV:  21    -0.262837635853E+03    0.15224E+00   -0.30719E-01   984   0.336E+00    0.485E+00
DAV:  22    -0.262835049587E+03    0.25863E-02   -0.21319E-01   976   0.296E+00    0.477E+00
DAV:  23    -0.262787272629E+03    0.47777E-01   -0.83767E-02   944   0.168E+00    0.308E+00
DAV:  24    -0.262787034974E+03    0.23765E-03   -0.35663E-02   944   0.150E+00    0.318E+00
DAV:  25    -0.262773072125E+03    0.13963E-01   -0.20445E-02   952   0.103E+00    0.250E+00
DAV:  26    -0.262775474927E+03   -0.24028E-02   -0.35009E-02   992   0.139E+00    0.300E+00
DAV:  27    -0.262773064720E+03    0.24102E-02   -0.23283E-02   976   0.125E+00    0.303E+00
DAV:  28    -0.262747686144E+03    0.25379E-01   -0.26299E-02  1040   0.921E-01    0.133E+00
DAV:  29    -0.262745707788E+03    0.19784E-02   -0.79689E-03   968   0.644E-01    0.785E-01
DAV:  30    -0.262745122444E+03    0.58534E-03   -0.41608E-03   960   0.469E-01    0.612E-01
DAV:  31    -0.262745053514E+03    0.68930E-04   -0.14906E-03   832   0.214E-01    0.490E-01
DAV:  32    -0.262744959317E+03    0.94197E-04   -0.55409E-04   696   0.192E-01
   1 F= -.26274496E+03 E0= -.26234131E+03  d E =-.807303E+00
