<?xml version="1.0" encoding="ISO-8859-1"?>
<modeling>
 <generator>
  <i name="program" type="string">vasp </i>
  <i name="version" type="string">6.1.0  </i>
  <i name="subversion" type="string">28Jan20 (build Mar 31 2020 17:42:31) gamma-only                       parallel </i>
  <i name="platform" type="string">LinuxIFC </i>
  <i name="date" type="string">2020 04 13 </i>
  <i name="time" type="string">03:19:57 </i>
 </generator>
 <incar>
  <i type="string" name="SYSTEM">"Millerite NiS"</i>
  <i type="int" name="NSIM">     4</i>
  <i type="int" name="NELM">   100</i>
  <i name="ENCUT">    450.00000000</i>
  <i type="string" name="LREAL">A</i>
  <i type="int" name="ISMEAR">     0</i>
  <i type="int" name="NWRITE">     2</i>
  <i type="logical" name="LWAVE"> F  </i>
  <i type="logical" name="LCHARG"> F  </i>
  <i type="int" name="NCORE">     6</i>
  <i type="int" name="NELM">   100</i>
 </incar>
 <structure name="primitive_cell" >
  <crystal>
   <varray name="basis" >
    <v>      10.40335375      -4.78920500       0.00000000 </v>
    <v>       0.00000000       9.57841000       0.00000000 </v>
    <v>       0.00000000       0.00000000      20.50076286 </v>
   </varray>
   <i name="volume">   2042.85156262 </i>
   <varray name="rec_basis" >
    <v>       0.09612285       0.00000000       0.00000000 </v>
    <v>       0.04806142       0.10440146       0.00000000 </v>
    <v>       0.00000000       0.00000000       0.04877867 </v>
   </varray>
  </crystal>
  <varray name="positions" >
   <v>       0.58044680       0.07437514       0.34941513 </v>
   <v>       0.76256081       0.16543215       0.22731652 </v>
   <v>       0.94467483       0.25648915       0.10521791 </v>
   <v>       0.39833278       0.98331813       0.47151374 </v>
   <v>       0.03518947       0.80174648       0.26801605 </v>
   <v>       0.21730349       0.89280348       0.14591744 </v>
   <v>       0.67096144       0.61963246       0.51221327 </v>
   <v>       0.85307546       0.71068947       0.39011466 </v>
   <v>       0.12570412       0.34700380       0.43081420 </v>
   <v>       0.30781813       0.43806081       0.30871559 </v>
   <v>       0.48993215       0.52911781       0.18661698 </v>
   <v>       0.67204616       0.62017482       0.06451837 </v>
   <v>       0.23035801       0.03143375       0.40699537 </v>
   <v>       0.41247203       0.12249075       0.28489676 </v>
   <v>       0.59458604       0.21354776       0.16279815 </v>
   <v>       0.77670006       0.30460477       0.04069954 </v>
   <v>       0.04932872       0.94091910       0.08139907 </v>
   <v>       0.50298667       0.66774808       0.44769490 </v>
   <v>       0.68510069       0.75880508       0.32559629 </v>
   <v>       0.86721470       0.84986209       0.20349768 </v>
   <v>       0.13984337       0.48617642       0.24419722 </v>
   <v>       0.32195738       0.57723343       0.12209861 </v>
   <v>       0.50407140       0.66829044       0.00000000 </v>
   <v>       0.95772935       0.39511942       0.36629583 </v>
   <v>       0.39833278       0.24752413       0.47151374 </v>
   <v>       0.58044680       0.33858114       0.34941513 </v>
   <v>       0.76256081       0.42963815       0.22731652 </v>
   <v>       0.03518947       0.06595248       0.26801605 </v>
   <v>       0.21730349       0.15700948       0.14591744 </v>
   <v>       0.39941750       0.24806649       0.02381883 </v>
   <v>       0.67096144       0.88383846       0.51221327 </v>
   <v>       0.85307546       0.97489547       0.39011466 </v>
   <v>       0.12570412       0.61120980       0.43081420 </v>
   <v>       0.30781813       0.70226681       0.30871559 </v>
   <v>       0.48993215       0.79332382       0.18661698 </v>
   <v>       0.67204616       0.88438082       0.06451837 </v>
   <v>       0.18441112       0.17667530       0.48070540 </v>
   <v>       0.36652513       0.26773231       0.35860679 </v>
   <v>       0.54863915       0.35878931       0.23650818 </v>
   <v>       0.73075316       0.44984632       0.11440957 </v>
   <v>       0.00338182       0.08616065       0.15510911 </v>
   <v>       0.18549584       0.17721766       0.03301050 </v>
   <v>       0.63915379       0.90404664       0.39930633 </v>
   <v>       0.82126781       0.99510365       0.27720772 </v>
   <v>       0.09389647       0.63141797       0.31790726 </v>
   <v>       0.27601049       0.72247498       0.19580864 </v>
   <v>       0.45812450       0.81353199       0.07371003 </v>
   <v>       0.91178246       0.54036097       0.44000587 </v>
   <v>       0.12675994       0.47963471       0.07446623 </v>
   <v>       0.58041790       0.20646369       0.44076206 </v>
   <v>       0.76253191       0.29752070       0.31866345 </v>
   <v>       0.94464593       0.38857770       0.19656484 </v>
   <v>       0.21727459       0.02489203       0.23726438 </v>
   <v>       0.39938860       0.11594904       0.11516577 </v>
   <v>       0.03516057       0.93383503       0.35936299 </v>
   <v>       0.85304656       0.84277802       0.48146160 </v>
   <v>       0.30778923       0.57014936       0.40006253 </v>
   <v>       0.48990325       0.66120636       0.27796392 </v>
   <v>       0.67201726       0.75226337       0.15586531 </v>
   <v>       0.85413128       0.84332038       0.03376670 </v>
   <v>       0.54863915       0.02235931       0.23650818 </v>
   <v>       0.73075316       0.11341632       0.11440957 </v>
   <v>       0.18441112       0.84024530       0.48070540 </v>
   <v>       0.36652513       0.93130231       0.35860679 </v>
   <v>       0.00338182       0.74973065       0.15510911 </v>
   <v>       0.18549584       0.84078766       0.03301050 </v>
   <v>       0.63915379       0.56761664       0.39930633 </v>
   <v>       0.82126781       0.65867365       0.27720772 </v>
   <v>       0.09389647       0.29498797       0.31790726 </v>
   <v>       0.27601049       0.38604498       0.19580864 </v>
   <v>       0.45812450       0.47710199       0.07371003 </v>
   <v>       0.91178246       0.20393097       0.44000587 </v>
  </varray>
 </structure>
 <varray name="primitive_index" >
  <v type="int" >        1 </v>
  <v type="int" >        2 </v>
  <v type="int" >        3 </v>
  <v type="int" >        4 </v>
  <v type="int" >        5 </v>
  <v type="int" >        6 </v>
  <v type="int" >        7 </v>
  <v type="int" >        8 </v>
  <v type="int" >        9 </v>
  <v type="int" >       10 </v>
  <v type="int" >       11 </v>
  <v type="int" >       12 </v>
  <v type="int" >       13 </v>
  <v type="int" >       14 </v>
  <v type="int" >       15 </v>
  <v type="int" >       16 </v>
  <v type="int" >       17 </v>
  <v type="int" >       18 </v>
  <v type="int" >       19 </v>
  <v type="int" >       20 </v>
  <v type="int" >       21 </v>
  <v type="int" >       22 </v>
  <v type="int" >       23 </v>
  <v type="int" >       24 </v>
  <v type="int" >       25 </v>
  <v type="int" >       26 </v>
  <v type="int" >       27 </v>
  <v type="int" >       28 </v>
  <v type="int" >       29 </v>
  <v type="int" >       30 </v>
  <v type="int" >       31 </v>
  <v type="int" >       32 </v>
  <v type="int" >       33 </v>
  <v type="int" >       34 </v>
  <v type="int" >       35 </v>
  <v type="int" >       36 </v>
  <v type="int" >       37 </v>
  <v type="int" >       38 </v>
  <v type="int" >       39 </v>
  <v type="int" >       40 </v>
  <v type="int" >       41 </v>
  <v type="int" >       42 </v>
  <v type="int" >       43 </v>
  <v type="int" >       44 </v>
  <v type="int" >       45 </v>
  <v type="int" >       46 </v>
  <v type="int" >       47 </v>
  <v type="int" >       48 </v>
  <v type="int" >       49 </v>
  <v type="int" >       50 </v>
  <v type="int" >       51 </v>
  <v type="int" >       52 </v>
  <v type="int" >       53 </v>
  <v type="int" >       54 </v>
  <v type="int" >       55 </v>
  <v type="int" >       56 </v>
  <v type="int" >       57 </v>
  <v type="int" >       58 </v>
  <v type="int" >       59 </v>
  <v type="int" >       60 </v>
  <v type="int" >       61 </v>
  <v type="int" >       62 </v>
  <v type="int" >       63 </v>
  <v type="int" >       64 </v>
  <v type="int" >       65 </v>
  <v type="int" >       66 </v>
  <v type="int" >       67 </v>
  <v type="int" >       68 </v>
  <v type="int" >       69 </v>
  <v type="int" >       70 </v>
  <v type="int" >       71 </v>
  <v type="int" >       72 </v>
 </varray>
 <kpoints>
  <generation param="Gamma">
   <v type="int" name="divisions">       1        1        1 </v>
   <v name="usershift">      0.00000000       0.00000000       0.00000000 </v>
   <v name="genvec1">      1.00000000       0.00000000       0.00000000 </v>
   <v name="genvec2">      0.00000000       1.00000000       0.00000000 </v>
   <v name="genvec3">      0.00000000       0.00000000       1.00000000 </v>
   <v name="shift">      0.00000000       0.00000000       0.00000000 </v>
  </generation>
  <varray name="kpointlist" >
   <v>       0.00000000       0.00000000       0.00000000 </v>
  </varray>
  <varray name="weights" >
   <v>       1.00000000 </v>
  </varray>
 </kpoints>
 <parameters>
  <separator name="general" >
   <i type="string" name="SYSTEM">"Millerite NiS"</i>
   <i type="logical" name="LCOMPAT"> F  </i>
  </separator>
  <separator name="electronic" >
   <i type="string" name="PREC">normal</i>
   <i name="ENMAX">    450.00000000</i>
   <i name="ENAUG">    703.44300000</i>
   <i name="EDIFF">      0.00010000</i>
   <i type="int" name="IALGO">    38</i>
   <i type="int" name="IWAVPR">    10</i>
   <i type="int" name="NBANDS">   480</i>
   <i type="int" name="NBANDSLOW">    -1</i>
   <i type="int" name="NBANDSHIGH">    -1</i>
   <i name="NELECT">    792.00000000</i>
   <i type="int" name="TURBO">     0</i>
   <i type="int" name="IRESTART">     0</i>
   <i type="int" name="NREBOOT">     0</i>
   <i type="int" name="NMIN">     0</i>
   <i name="EREF">      0.00000000</i>
   <separator name="electronic smearing" >
    <i type="int" name="ISMEAR">     0</i>
    <i name="SIGMA">      0.20000000</i>
    <i name="KSPACING">      0.50000000</i>
    <i type="logical" name="KGAMMA"> T  </i>
    <i type="logical" name="KBLOWUP"> T  </i>
   </separator>
   <separator name="electronic projectors" >
    <i type="logical" name="LREAL"> T  </i>
    <v name="ROPT">     -0.00050000     -0.00050000</v>
    <i type="int" name="LMAXPAW">  -100</i>
    <i type="int" name="LMAXMIX">     2</i>
    <i type="logical" name="NLSPLINE"> F  </i>
   </separator>
   <separator name="electronic startup" >
    <i type="int" name="ISTART">     0</i>
    <i type="int" name="ICHARG">     2</i>
    <i type="int" name="INIWAV">     1</i>
   </separator>
   <separator name="electronic spin" >
    <i type="int" name="ISPIN">     1</i>
    <i type="logical" name="LNONCOLLINEAR"> F  </i>
    <v name="MAGMOM">      1.00000000      1.00000000      1.00000000      1.00000000      1.00000000      1.00000000      1.00000000      1.00000000      1.00000000      1.00000000      1.00000000      1.00000000      1.00000000      1.00000000      1.00000000      1.00000000      1.00000000      1.00000000      1.00000000      1.00000000
      1.00000000      1.00000000      1.00000000      1.00000000      1.00000000      1.00000000      1.00000000      1.00000000      1.00000000      1.00000000      1.00000000      1.00000000      1.00000000      1.00000000      1.00000000      1.00000000      1.00000000      1.00000000      1.00000000      1.00000000
      1.00000000      1.00000000      1.00000000      1.00000000      1.00000000      1.00000000      1.00000000      1.00000000      1.00000000      1.00000000      1.00000000      1.00000000      1.00000000      1.00000000      1.00000000      1.00000000      1.00000000      1.00000000      1.00000000      1.00000000
      1.00000000      1.00000000      1.00000000      1.00000000      1.00000000      1.00000000      1.00000000      1.00000000      1.00000000      1.00000000      1.00000000      1.00000000</v>
    <i name="NUPDOWN">     -1.00000000</i>
    <i type="logical" name="LSORBIT"> F  </i>
    <v name="SAXIS">      0.00000000      0.00000000      1.00000000</v>
    <i type="logical" name="LSPIRAL"> F  </i>
    <v name="QSPIRAL">      0.00000000      0.00000000      0.00000000</v>
    <i type="logical" name="LZEROZ"> F  </i>
   </separator>
   <separator name="electronic exchange-correlation" >
    <i type="logical" name="LASPH"> F  </i>
    <i type="logical" name="LMETAGGA"> F  </i>
   </separator>
   <separator name="electronic convergence" >
    <i type="int" name="NELM">   100</i>
    <i type="int" name="NELMDL">    -5</i>
    <i type="int" name="NELMIN">     2</i>
    <i name="ENINI">    450.00000000</i>
    <separator name="electronic convergence detail" >
     <i type="logical" name="LDIAG"> T  </i>
     <i type="logical" name="LSUBROT"> F  </i>
     <i name="WEIMIN">      0.00000000</i>
     <i name="EBREAK">      0.00000005</i>
     <i name="DEPER">      0.30000000</i>
     <i type="int" name="NRMM">     4</i>
     <i name="TIME">      0.40000000</i>
    </separator>
   </separator>
   <separator name="electronic mixer" >
    <i name="AMIX">      0.40000000</i>
    <i name="BMIX">      1.00000000</i>
    <i name="AMIN">      0.10000000</i>
    <i name="AMIX_MAG">      1.60000000</i>
    <i name="BMIX_MAG">      1.00000000</i>
    <separator name="electronic mixer details" >
     <i type="int" name="IMIX">     4</i>
     <i type="logical" name="MIXFIRST"> F  </i>
     <i type="int" name="MAXMIX">   -45</i>
     <i name="WC">    100.00000000</i>
     <i type="int" name="INIMIX">     1</i>
     <i type="int" name="MIXPRE">     1</i>
     <i type="int" name="MREMOVE">     5</i>
    </separator>
   </separator>
   <separator name="electronic dipolcorrection" >
    <i type="logical" name="LDIPOL"> F  </i>
    <i type="logical" name="LMONO"> F  </i>
    <i type="int" name="IDIPOL">     0</i>
    <i name="EPSILON">      1.00000000</i>
    <v name="DIPOL">   -100.00000000   -100.00000000   -100.00000000</v>
    <i name="EFIELD">      0.00000000</i>
   </separator>
  </separator>
  <separator name="grids" >
   <i type="int" name="NGX">    60</i>
   <i type="int" name="NGY">    50</i>
   <i type="int" name="NGZ">   108</i>
   <i type="int" name="NGXF">   120</i>
   <i type="int" name="NGYF">   100</i>
   <i type="int" name="NGZF">   216</i>
   <i type="logical" name="ADDGRID"> F  </i>
  </separator>
  <separator name="ionic" >
   <i type="int" name="NSW">     0</i>
   <i type="int" name="IBRION">    -1</i>
   <i type="int" name="MDALGO">     0</i>
   <i type="int" name="ISIF">     2</i>
   <i name="PSTRESS">      0.00000000</i>
   <i name="EDIFFG">      0.00100000</i>
   <i type="int" name="NFREE">     0</i>
   <i name="POTIM">      0.50000000</i>
   <i name="SMASS">     -3.00000000</i>
   <i name="SCALEE">      1.00000000</i>
  </separator>
  <separator name="ionic md" >
   <i name="TEBEG">      0.00010000</i>
   <i name="TEEND">      0.00010000</i>
   <i type="int" name="NBLOCK">     1</i>
   <i type="int" name="KBLOCK">     1</i>
   <i type="int" name="NPACO">   256</i>
   <i name="APACO">     16.00000000</i>
  </separator>
  <separator name="symmetry" >
   <i type="int" name="ISYM">     2</i>
   <i name="SYMPREC">      0.00001000</i>
  </separator>
  <separator name="dos" >
   <i type="int" name="LORBIT">     0</i>
   <v name="RWIGS">     -1.00000000     -1.00000000</v>
   <i type="int" name="NEDOS">   301</i>
   <i name="EMIN">     10.00000000</i>
   <i name="EMAX">    -10.00000000</i>
   <i name="EFERMI">      0.00000000</i>
  </separator>
  <separator name="writing" >
   <i type="int" name="NWRITE">     2</i>
   <i type="logical" name="LWAVE"> F  </i>
   <i type="logical" name="LDOWNSAMPLE"> F  </i>
   <i type="logical" name="LCHARG"> F  </i>
   <i type="logical" name="LPARD"> F  </i>
   <i type="logical" name="LVTOT"> F  </i>
   <i type="logical" name="LVHAR"> F  </i>
   <i type="logical" name="LELF"> F  </i>
   <i type="logical" name="LOPTICS"> F  </i>
   <v name="STM">      0.00000000      0.00000000      0.00000000      0.00000000      0.00000000      0.00000000      0.00000000</v>
  </separator>
  <separator name="performance" >
   <i type="int" name="NPAR">     8</i>
   <i type="int" name="NSIM">     4</i>
   <i type="int" name="NBLK">    -1</i>
   <i type="logical" name="LPLANE"> T  </i>
   <i type="logical" name="LSCALAPACK"> T  </i>
   <i type="logical" name="LSCAAWARE"> F  </i>
   <i type="logical" name="LSCALU"> F  </i>
   <i type="logical" name="LASYNC"> F  </i>
   <i type="logical" name="LORBITALREAL"> F  </i>
  </separator>
  <separator name="miscellaneous" >
   <i type="int" name="IDIOT">     3</i>
   <i type="int" name="PHON_NSTRUCT">    -1</i>
   <i type="logical" name="LMUSIC"> F  </i>
   <v name="POMASS">     58.69000000     32.06600000</v>
   <v name="DARWINR">      0.00000000      0.00000000</v>
   <v name="DARWINV">      1.00000000      1.00000000</v>
   <i type="logical" name="LCORR"> T  </i>
  </separator>
  <i type="logical" name="GGA_COMPAT"> T  </i>
  <i type="logical" name="LBERRY"> F  </i>
  <i type="int" name="ICORELEVEL">     0</i>
  <i type="logical" name="LDAU"> F  </i>
  <i type="int" name="I_CONSTRAINED_M">     0</i>
  <separator name="electronic exchange-correlation" >
   <i type="string" name="GGA">--</i>
   <i type="int" name="VOSKOWN">     0</i>
   <i type="logical" name="LHFCALC"> F  </i>
   <i type="string" name="PRECFOCK"></i>
   <i type="logical" name="LSYMGRAD"> F  </i>
   <i type="logical" name="LHFONE"> F  </i>
   <i type="logical" name="LRHFCALC"> F  </i>
   <i type="logical" name="LTHOMAS"> F  </i>
   <i type="logical" name="LMODELHF"> F  </i>
   <i type="logical" name="LFOCKACE"> F  </i>
   <i name="ENCUT4O">     -1.00000000</i>
   <i type="int" name="EXXOEP">     0</i>
   <i type="int" name="FOURORBIT">     0</i>
   <i name="AEXX">      0.00000000</i>
   <i name="HFALPHA">      0.00000000</i>
   <i name="MCALPHA">      0.00000000</i>
   <i name="ALDAX">      1.00000000</i>
   <i name="AGGAX">      1.00000000</i>
   <i name="ALDAC">      1.00000000</i>
   <i name="AGGAC">      1.00000000</i>
   <i type="int" name="NKREDX">     1</i>
   <i type="int" name="NKREDY">     1</i>
   <i type="int" name="NKREDZ">     1</i>
   <i type="logical" name="SHIFTRED"> F  </i>
   <i type="logical" name="ODDONLY"> F  </i>
   <i type="logical" name="EVENONLY"> F  </i>
   <i type="int" name="LMAXFOCK">     0</i>
   <i type="int" name="NMAXFOCKAE">     0</i>
   <i type="logical" name="LFOCKAEDFT"> F  </i>
   <i name="HFSCREEN">      0.00000000</i>
   <i name="HFSCREENC">      0.00000000</i>
   <i type="int" name="NBANDSGWLOW">     0</i>
  </separator>
  <separator name="vdW DFT" >
   <i type="logical" name="LUSE_VDW"> F  </i>
   <i name="Zab_VDW">     -0.84910000</i>
   <i name="PARAM1">      0.12340000</i>
   <i name="PARAM2">      1.00000000</i>
   <i name="PARAM3">      0.00000000</i>
  </separator>
  <separator name="model GW" >
   <i type="int" name="MODEL_GW">     0</i>
   <i name="MODEL_EPS0">     17.02376302</i>
   <i name="MODEL_ALPHA">      1.00000000</i>
  </separator>
  <separator name="linear response parameters" >
   <i type="logical" name="LEPSILON"> F  </i>
   <i type="logical" name="LRPA"> F  </i>
   <i type="logical" name="LNABLA"> F  </i>
   <i type="logical" name="LVEL"> F  </i>
   <i type="int" name="KINTER">     0</i>
   <i name="CSHIFT">      0.10000000</i>
   <i name="OMEGAMAX">     -1.00000000</i>
   <i name="DEG_THRESHOLD">      0.00200000</i>
   <i name="RTIME">     -0.10000000</i>
   <i name="WPLASMAI">      0.00000000</i>
   <v name="DFIELD">      0.00000000      0.00000000      0.00000000</v>
   <v name="WPLASMA">      0.00000000      0.00000000      0.00000000      0.00000000      0.00000000      0.00000000      0.00000000      0.00000000      0.00000000</v>
  </separator>
  <separator name="orbital magnetization" >
   <i type="logical" name="NUCIND"> F  </i>
   <v name="MAGPOS">      0.00000000      0.00000000      0.00000000</v>
   <i type="logical" name="LNICSALL"> T  </i>
   <i type="logical" name="ORBITALMAG"> F  </i>
   <i type="logical" name="LMAGBLOCH"> F  </i>
   <i type="logical" name="LCHIMAG"> F  </i>
   <i type="logical" name="LGAUGE"> T  </i>
   <i type="int" name="MAGATOM">     0</i>
   <v name="MAGDIPOL">      0.00000000      0.00000000      0.00000000</v>
   <v name="AVECCONST">      0.00000000      0.00000000      0.00000000</v>
  </separator>
  <separator name="response functions" >
   <i type="logical" name="LFINITE_TEMPERATURE"> F  </i>
   <i type="logical" name="LADDER"> F  </i>
   <i type="logical" name="LRPAFORCE"> F  </i>
   <i type="logical" name="LFXC"> F  </i>
   <i type="logical" name="LHARTREE"> T  </i>
   <i type="int" name="IBSE">     0</i>
   <v type="int" name="KPOINT">    -1     0     0     0</v>
   <i type="logical" name="LTCTC"> F  </i>
   <i type="logical" name="LTCTE"> F  </i>
   <i type="logical" name="LTETE"> F  </i>
   <i type="logical" name="LTRIPLET"> F  </i>
   <i type="logical" name="LFXCEPS"> F  </i>
   <i type="logical" name="LFXHEG"> F  </i>
   <i type="int" name="NATURALO">     2</i>
   <i type="logical" name="LHOLEGF"> F  </i>
   <i type="logical" name="L2ORDER"> F  </i>
   <i type="logical" name="LDMP1"> F  </i>
   <i type="logical" name="LMP2LT"> F  </i>
   <i type="logical" name="LSMP2LT"> F  </i>
   <i type="logical" name="LGWLF"> F  </i>
   <i name="ENCUTGW">     -2.00000000</i>
   <i name="ENCUTGWSOFT">     -2.00000000</i>
   <i name="ENCUTLF">     -1.00000000</i>
   <i type="logical" name="LESF_SPLINES"> F  </i>
   <i type="int" name="LMAXMP2">    -1</i>
   <i name="SCISSOR">      0.00000000</i>
   <i type="int" name="NOMEGA">     0</i>
   <i type="int" name="NOMEGAR">     0</i>
   <i type="int" name="NBANDSGW">    -1</i>
   <i type="int" name="NBANDSO">    -1</i>
   <i type="int" name="NBANDSV">    -1</i>
   <i type="int" name="NELM">   100</i>
   <i type="int" name="NELMHF">     1</i>
   <i type="int" name="DIM">     3</i>
   <i type="int" name="IESPILON">     4</i>
   <i type="int" name="ANTIRES">     0</i>
   <i name="OMEGAMAX">    -30.00000000</i>
   <i name="OMEGAMIN">    -30.00000000</i>
   <i name="OMEGATL">   -200.00000000</i>
   <i type="int" name="OMEGAGRID">     0</i>
   <i name="CSHIFT">     -0.10000000</i>
   <i type="logical" name="LSELFENERGY"> F  </i>
   <i type="logical" name="LSPECTRAL"> F  </i>
   <i type="logical" name="LSPECTRALGW"> F  </i>
   <i type="logical" name="LSINGLES"> F  </i>
   <i type="logical" name="LFERMIGW"> F  </i>
   <i type="logical" name="ODDONLYGW"> F  </i>
   <i type="logical" name="EVENONLYGW"> F  </i>
   <i type="int" name="NKREDLFX">     1</i>
   <i type="int" name="NKREDLFY">     1</i>
   <i type="int" name="NKREDLFZ">     1</i>
   <i type="int" name="MAXMEM">  2800</i>
   <i type="int" name="TELESCOPE">     0</i>
   <i type="int" name="NTAUPAR">    -1</i>
   <i type="int" name="NOMEGAPAR">    -1</i>
   <i name="LAMBDA">      1.00000000</i>
  </separator>
  <separator name="External order field" >
   <i name="OFIELD_KAPPA">      0.00000000</i>
   <v name="OFIELD_K">      0.00000000      0.00000000      0.00000000</v>
   <i name="OFIELD_Q6_NEAR">      0.00000000</i>
   <i name="OFIELD_Q6_FAR">      0.00000000</i>
   <i name="OFIELD_A">      0.00000000</i>
  </separator>
 </parameters>
 <atominfo>
  <atoms>      72 </atoms>
  <types>       2 </types>
  <array name="atoms" >
   <dimension dim="1">ion</dimension>
   <field type="string">element</field>
   <field type="int">atomtype</field>
   <set>
    <rc><c>Ni</c><c>   1</c></rc>
    <rc><c>Ni</c><c>   1</c></rc>
    <rc><c>Ni</c><c>   1</c></rc>
    <rc><c>Ni</c><c>   1</c></rc>
    <rc><c>Ni</c><c>   1</c></rc>
    <rc><c>Ni</c><c>   1</c></rc>
    <rc><c>Ni</c><c>   1</c></rc>
    <rc><c>Ni</c><c>   1</c></rc>
    <rc><c>Ni</c><c>   1</c></rc>
    <rc><c>Ni</c><c>   1</c></rc>
    <rc><c>Ni</c><c>   1</c></rc>
    <rc><c>Ni</c><c>   1</c></rc>
    <rc><c>Ni</c><c>   1</c></rc>
    <rc><c>Ni</c><c>   1</c></rc>
    <rc><c>Ni</c><c>   1</c></rc>
    <rc><c>Ni</c><c>   1</c></rc>
    <rc><c>Ni</c><c>   1</c></rc>
    <rc><c>Ni</c><c>   1</c></rc>
    <rc><c>Ni</c><c>   1</c></rc>
    <rc><c>Ni</c><c>   1</c></rc>
    <rc><c>Ni</c><c>   1</c></rc>
    <rc><c>Ni</c><c>   1</c></rc>
    <rc><c>Ni</c><c>   1</c></rc>
    <rc><c>Ni</c><c>   1</c></rc>
    <rc><c>Ni</c><c>   1</c></rc>
    <rc><c>Ni</c><c>   1</c></rc>
    <rc><c>Ni</c><c>   1</c></rc>
    <rc><c>Ni</c><c>   1</c></rc>
    <rc><c>Ni</c><c>   1</c></rc>
    <rc><c>Ni</c><c>   1</c></rc>
    <rc><c>Ni</c><c>   1</c></rc>
    <rc><c>Ni</c><c>   1</c></rc>
    <rc><c>Ni</c><c>   1</c></rc>
    <rc><c>Ni</c><c>   1</c></rc>
    <rc><c>Ni</c><c>   1</c></rc>
    <rc><c>Ni</c><c>   1</c></rc>
    <rc><c>S </c><c>   2</c></rc>
    <rc><c>S </c><c>   2</c></rc>
    <rc><c>S </c><c>   2</c></rc>
    <rc><c>S </c><c>   2</c></rc>
    <rc><c>S </c><c>   2</c></rc>
    <rc><c>S </c><c>   2</c></rc>
    <rc><c>S </c><c>   2</c></rc>
    <rc><c>S </c><c>   2</c></rc>
    <rc><c>S </c><c>   2</c></rc>
    <rc><c>S </c><c>   2</c></rc>
    <rc><c>S </c><c>   2</c></rc>
    <rc><c>S </c><c>   2</c></rc>
    <rc><c>S </c><c>   2</c></rc>
    <rc><c>S </c><c>   2</c></rc>
    <rc><c>S </c><c>   2</c></rc>
    <rc><c>S </c><c>   2</c></rc>
    <rc><c>S </c><c>   2</c></rc>
    <rc><c>S </c><c>   2</c></rc>
    <rc><c>S </c><c>   2</c></rc>
    <rc><c>S </c><c>   2</c></rc>
    <rc><c>S </c><c>   2</c></rc>
    <rc><c>S </c><c>   2</c></rc>
    <rc><c>S </c><c>   2</c></rc>
    <rc><c>S </c><c>   2</c></rc>
    <rc><c>S </c><c>   2</c></rc>
    <rc><c>S </c><c>   2</c></rc>
    <rc><c>S </c><c>   2</c></rc>
    <rc><c>S </c><c>   2</c></rc>
    <rc><c>S </c><c>   2</c></rc>
    <rc><c>S </c><c>   2</c></rc>
    <rc><c>S </c><c>   2</c></rc>
    <rc><c>S </c><c>   2</c></rc>
    <rc><c>S </c><c>   2</c></rc>
    <rc><c>S </c><c>   2</c></rc>
    <rc><c>S </c><c>   2</c></rc>
    <rc><c>S </c><c>   2</c></rc>
   </set>
  </array>
  <array name="atomtypes" >
   <dimension dim="1">type</dimension>
   <field type="int">atomspertype</field>
   <field type="string">element</field>
   <field>mass</field>
   <field>valence</field>
   <field type="string">pseudopotential</field>
   <set>
    <rc><c>  36</c><c>Ni</c><c>     58.69000000</c><c>     16.00000000</c><c>  PAW_PBE Ni_pv 06Sep2000               </c></rc>
    <rc><c>  36</c><c>S </c><c>     32.06600000</c><c>      6.00000000</c><c>  PAW_PBE S 06Sep2000                   </c></rc>
   </set>
  </array>
 </atominfo>
 <structure name="initialpos" >
  <crystal>
   <varray name="basis" >
    <v>      10.40335375      -4.78920500       0.00000000 </v>
    <v>       0.00000000       9.57841000       0.00000000 </v>
    <v>       0.00000000       0.00000000      20.50076286 </v>
   </varray>
   <i name="volume">   2042.85156262 </i>
   <varray name="rec_basis" >
    <v>       0.09612285       0.00000000       0.00000000 </v>
    <v>       0.04806142       0.10440146       0.00000000 </v>
    <v>       0.00000000       0.00000000       0.04877867 </v>
   </varray>
  </crystal>
  <varray name="positions" >
   <v>       0.58044680       0.07437514       0.34941513 </v>
   <v>       0.76256081       0.16543215       0.22731652 </v>
   <v>       0.94467483       0.25648915       0.10521791 </v>
   <v>       0.39833278       0.98331813       0.47151374 </v>
   <v>       0.03518947       0.80174648       0.26801605 </v>
   <v>       0.21730349       0.89280348       0.14591744 </v>
   <v>       0.67096144       0.61963246       0.51221327 </v>
   <v>       0.85307546       0.71068947       0.39011466 </v>
   <v>       0.12570412       0.34700380       0.43081420 </v>
   <v>       0.30781813       0.43806081       0.30871559 </v>
   <v>       0.48993215       0.52911781       0.18661698 </v>
   <v>       0.67204616       0.62017482       0.06451837 </v>
   <v>       0.23035801       0.03143375       0.40699537 </v>
   <v>       0.41247203       0.12249075       0.28489676 </v>
   <v>       0.59458604       0.21354776       0.16279815 </v>
   <v>       0.77670006       0.30460477       0.04069954 </v>
   <v>       0.04932872       0.94091910       0.08139907 </v>
   <v>       0.50298667       0.66774808       0.44769490 </v>
   <v>       0.68510069       0.75880508       0.32559629 </v>
   <v>       0.86721470       0.84986209       0.20349768 </v>
   <v>       0.13984337       0.48617642       0.24419722 </v>
   <v>       0.32195738       0.57723343       0.12209861 </v>
   <v>       0.50407140       0.66829044       0.00000000 </v>
   <v>       0.95772935       0.39511942       0.36629583 </v>
   <v>       0.39833278       0.24752413       0.47151374 </v>
   <v>       0.58044680       0.33858114       0.34941513 </v>
   <v>       0.76256081       0.42963815       0.22731652 </v>
   <v>       0.03518947       0.06595248       0.26801605 </v>
   <v>       0.21730349       0.15700948       0.14591744 </v>
   <v>       0.39941750       0.24806649       0.02381883 </v>
   <v>       0.67096144       0.88383846       0.51221327 </v>
   <v>       0.85307546       0.97489547       0.39011466 </v>
   <v>       0.12570412       0.61120980       0.43081420 </v>
   <v>       0.30781813       0.70226681       0.30871559 </v>
   <v>       0.48993215       0.79332382       0.18661698 </v>
   <v>       0.67204616       0.88438082       0.06451837 </v>
   <v>       0.18441112       0.17667530       0.48070540 </v>
   <v>       0.36652513       0.26773231       0.35860679 </v>
   <v>       0.54863915       0.35878931       0.23650818 </v>
   <v>       0.73075316       0.44984632       0.11440957 </v>
   <v>       0.00338182       0.08616065       0.15510911 </v>
   <v>       0.18549584       0.17721766       0.03301050 </v>
   <v>       0.63915379       0.90404664       0.39930633 </v>
   <v>       0.82126781       0.99510365       0.27720772 </v>
   <v>       0.09389647       0.63141797       0.31790726 </v>
   <v>       0.27601049       0.72247498       0.19580864 </v>
   <v>       0.45812450       0.81353199       0.07371003 </v>
   <v>       0.91178246       0.54036097       0.44000587 </v>
   <v>       0.12675994       0.47963471       0.07446623 </v>
   <v>       0.58041790       0.20646369       0.44076206 </v>
   <v>       0.76253191       0.29752070       0.31866345 </v>
   <v>       0.94464593       0.38857770       0.19656484 </v>
   <v>       0.21727459       0.02489203       0.23726438 </v>
   <v>       0.39938860       0.11594904       0.11516577 </v>
   <v>       0.03516057       0.93383503       0.35936299 </v>
   <v>       0.85304656       0.84277802       0.48146160 </v>
   <v>       0.30778923       0.57014936       0.40006253 </v>
   <v>       0.48990325       0.66120636       0.27796392 </v>
   <v>       0.67201726       0.75226337       0.15586531 </v>
   <v>       0.85413128       0.84332038       0.03376670 </v>
   <v>       0.54863915       0.02235931       0.23650818 </v>
   <v>       0.73075316       0.11341632       0.11440957 </v>
   <v>       0.18441112       0.84024530       0.48070540 </v>
   <v>       0.36652513       0.93130231       0.35860679 </v>
   <v>       0.00338182       0.74973065       0.15510911 </v>
   <v>       0.18549584       0.84078766       0.03301050 </v>
   <v>       0.63915379       0.56761664       0.39930633 </v>
   <v>       0.82126781       0.65867365       0.27720772 </v>
   <v>       0.09389647       0.29498797       0.31790726 </v>
   <v>       0.27601049       0.38604498       0.19580864 </v>
   <v>       0.45812450       0.47710199       0.07371003 </v>
   <v>       0.91178246       0.20393097       0.44000587 </v>
  </varray>
 </structure>
 <calculation>
  <scstep>
   <time name="dav">    2.19    2.20</time>
   <time name="total">    2.25    2.26</time>
   <energy>
    <i name="alphaZ">   1820.93486007 </i>
    <i name="ewald"> 167290.03579533 </i>
    <i name="hartreedc">-289598.62774199 </i>
    <i name="XCdc">   3650.22148556 </i>
    <i name="pawpsdc"> 112729.53333415 </i>
    <i name="pawaedc">-117641.51188735 </i>
    <i name="eentropy">     -0.36099960 </i>
    <i name="bandstr">  -4663.80864916 </i>
    <i name="atom"> 136002.60505376 </i>
    <i name="e_fr_energy">   9589.02125078 </i>
    <i name="e_wo_entrp">   9589.38225038 </i>
    <i name="e_0_energy">   9589.20175058 </i>
   </energy>
  </scstep>
  <scstep>
   <time name="dav">    1.96    1.97</time>
   <time name="total">    1.96    1.97</time>
   <energy>
    <i name="e_fr_energy">    575.01578886 </i>
    <i name="e_wo_entrp">    575.79170209 </i>
    <i name="e_0_energy">    575.40374547 </i>
   </energy>
  </scstep>
  <scstep>
   <time name="dav">    2.05    2.06</time>
   <time name="total">    2.05    2.06</time>
   <energy>
    <i name="e_fr_energy">   -344.47268771 </i>
    <i name="e_wo_entrp">   -343.17612330 </i>
    <i name="e_0_energy">   -343.82440551 </i>
   </energy>
  </scstep>
  <scstep>
   <time name="dav">    2.15    2.16</time>
   <time name="total">    2.16    2.16</time>
   <energy>
    <i name="e_fr_energy">   -402.20619134 </i>
    <i name="e_wo_entrp">   -400.82152952 </i>
    <i name="e_0_energy">   -401.51386043 </i>
   </energy>
  </scstep>
  <scstep>
   <time name="dav">    2.18    2.18</time>
   <time name="total">    2.23    2.23</time>
   <energy>
    <i name="e_fr_energy">   -404.04452439 </i>
    <i name="e_wo_entrp">   -402.67267759 </i>
    <i name="e_0_energy">   -403.35860099 </i>
   </energy>
  </scstep>
  <scstep>
   <time name="dav">    2.11    2.12</time>
   <time name="total">    2.20    2.21</time>
   <energy>
    <i name="e_fr_energy">   -494.39163149 </i>
    <i name="e_wo_entrp">   -493.44146935 </i>
    <i name="e_0_energy">   -493.91655042 </i>
   </energy>
  </scstep>
  <scstep>
   <time name="dav">    2.03    2.03</time>
   <time name="total">    2.12    2.13</time>
   <energy>
    <i name="e_fr_energy">   -374.61833761 </i>
    <i name="e_wo_entrp">   -373.72659569 </i>
    <i name="e_0_energy">   -374.17246665 </i>
   </energy>
  </scstep>
  <scstep>
   <time name="dav">    2.38    2.39</time>
   <time name="total">    2.48    2.48</time>
   <energy>
    <i name="e_fr_energy">   -395.42255250 </i>
    <i name="e_wo_entrp">   -393.95478109 </i>
    <i name="e_0_energy">   -394.68866680 </i>
   </energy>
  </scstep>
  <scstep>
   <time name="dav">    2.24    2.24</time>
   <time name="total">    2.33    2.34</time>
   <energy>
    <i name="e_fr_energy">   -369.28167757 </i>
    <i name="e_wo_entrp">   -367.98873681 </i>
    <i name="e_0_energy">   -368.63520719 </i>
   </energy>
  </scstep>
  <scstep>
   <time name="dav">    2.34    2.34</time>
   <time name="total">    2.43    2.44</time>
   <energy>
    <i name="e_fr_energy">   -378.57373643 </i>
    <i name="e_wo_entrp">   -377.32578665 </i>
    <i name="e_0_energy">   -377.94976154 </i>
   </energy>
  </scstep>
  <scstep>
   <time name="dav">    2.37    2.37</time>
   <time name="total">    2.46    2.46</time>
   <energy>
    <i name="e_fr_energy">   -363.93738941 </i>
    <i name="e_wo_entrp">   -362.74450104 </i>
    <i name="e_0_energy">   -363.34094522 </i>
   </energy>
  </scstep>
  <scstep>
   <time name="dav">    2.28    2.28</time>
   <time name="total">    2.37    2.38</time>
   <energy>
    <i name="e_fr_energy">   -359.30822994 </i>
    <i name="e_wo_entrp">   -358.01555354 </i>
    <i name="e_0_energy">   -358.66189174 </i>
   </energy>
  </scstep>
  <scstep>
   <time name="dav">    2.34    2.35</time>
   <time name="total">    2.43    2.44</time>
   <energy>
    <i name="e_fr_energy">   -360.63827462 </i>
    <i name="e_wo_entrp">   -359.75009079 </i>
    <i name="e_0_energy">   -360.19418271 </i>
   </energy>
  </scstep>
  <scstep>
   <time name="dav">    2.16    2.16</time>
   <time name="total">    2.25    2.26</time>
   <energy>
    <i name="e_fr_energy">   -355.47835931 </i>
    <i name="e_wo_entrp">   -354.45616311 </i>
    <i name="e_0_energy">   -354.96726121 </i>
   </energy>
  </scstep>
  <scstep>
   <time name="dav">    2.13    2.13</time>
   <time name="total">    2.22    2.23</time>
   <energy>
    <i name="e_fr_energy">   -355.48073966 </i>
    <i name="e_wo_entrp">   -354.59839321 </i>
    <i name="e_0_energy">   -355.03956643 </i>
   </energy>
  </scstep>
  <scstep>
   <time name="dav">    2.26    2.27</time>
   <time name="total">    2.36    2.36</time>
   <energy>
    <i name="e_fr_energy">   -354.32478383 </i>
    <i name="e_wo_entrp">   -353.35754097 </i>
    <i name="e_0_energy">   -353.84116240 </i>
   </energy>
  </scstep>
  <scstep>
   <time name="dav">    2.34    2.35</time>
   <time name="total">    2.43    2.44</time>
   <energy>
    <i name="e_fr_energy">   -353.73528646 </i>
    <i name="e_wo_entrp">   -352.71754084 </i>
    <i name="e_0_energy">   -353.22641365 </i>
   </energy>
  </scstep>
  <scstep>
   <time name="dav">    2.31    2.32</time>
   <time name="total">    2.41    2.41</time>
   <energy>
    <i name="e_fr_energy">   -353.45977839 </i>
    <i name="e_wo_entrp">   -352.43317440 </i>
    <i name="e_0_energy">   -352.94647640 </i>
   </energy>
  </scstep>
  <scstep>
   <time name="dav">    2.28    2.29</time>
   <time name="total">    2.38    2.38</time>
   <energy>
    <i name="e_fr_energy">   -353.16352228 </i>
    <i name="e_wo_entrp">   -352.09037423 </i>
    <i name="e_0_energy">   -352.62694825 </i>
   </energy>
  </scstep>
  <scstep>
   <time name="dav">    2.31    2.32</time>
   <time name="total">    2.41    2.41</time>
   <energy>
    <i name="e_fr_energy">   -353.10179209 </i>
    <i name="e_wo_entrp">   -351.96691456 </i>
    <i name="e_0_energy">   -352.53435333 </i>
   </energy>
  </scstep>
  <scstep>
   <time name="dav">    2.31    2.31</time>
   <time name="total">    2.41    2.41</time>
   <energy>
    <i name="e_fr_energy">   -353.03591772 </i>
    <i name="e_wo_entrp">   -351.85802624 </i>
    <i name="e_0_energy">   -352.44697198 </i>
   </energy>
  </scstep>
  <scstep>
   <time name="dav">    2.19    2.19</time>
   <time name="total">    2.29    2.29</time>
   <energy>
    <i name="e_fr_energy">   -352.94815312 </i>
    <i name="e_wo_entrp">   -351.77800051 </i>
    <i name="e_0_energy">   -352.36307682 </i>
   </energy>
  </scstep>
  <scstep>
   <time name="dav">    2.22    2.23</time>
   <time name="total">    2.32    2.33</time>
   <energy>
    <i name="e_fr_energy">   -352.89726852 </i>
    <i name="e_wo_entrp">   -351.73257194 </i>
    <i name="e_0_energy">   -352.31492023 </i>
   </energy>
  </scstep>
  <scstep>
   <time name="dav">    2.30    2.31</time>
   <time name="total">    2.40    2.41</time>
   <energy>
    <i name="e_fr_energy">   -352.87574206 </i>
    <i name="e_wo_entrp">   -351.70046766 </i>
    <i name="e_0_energy">   -352.28810486 </i>
   </energy>
  </scstep>
  <scstep>
   <time name="dav">    2.32    2.32</time>
   <time name="total">    2.42    2.42</time>
   <energy>
    <i name="e_fr_energy">   -352.86416346 </i>
    <i name="e_wo_entrp">   -351.69644521 </i>
    <i name="e_0_energy">   -352.28030434 </i>
   </energy>
  </scstep>
  <scstep>
   <time name="dav">    2.29    2.30</time>
   <time name="total">    2.39    2.40</time>
   <energy>
    <i name="e_fr_energy">   -352.85268582 </i>
    <i name="e_wo_entrp">   -351.68156669 </i>
    <i name="e_0_energy">   -352.26712625 </i>
   </energy>
  </scstep>
  <scstep>
   <time name="dav">    2.32    2.33</time>
   <time name="total">    2.42    2.42</time>
   <energy>
    <i name="e_fr_energy">   -352.83824749 </i>
    <i name="e_wo_entrp">   -351.67797253 </i>
    <i name="e_0_energy">   -352.25811001 </i>
   </energy>
  </scstep>
  <scstep>
   <time name="dav">    2.29    2.29</time>
   <time name="total">    2.39    2.39</time>
   <energy>
    <i name="e_fr_energy">   -352.82781986 </i>
    <i name="e_wo_entrp">   -351.67371392 </i>
    <i name="e_0_energy">   -352.25076689 </i>
   </energy>
  </scstep>
  <scstep>
   <time name="dav">    2.32    2.33</time>
   <time name="total">    2.42    2.43</time>
   <energy>
    <i name="e_fr_energy">   -352.82657072 </i>
    <i name="e_wo_entrp">   -351.68401269 </i>
    <i name="e_0_energy">   -352.25529170 </i>
   </energy>
  </scstep>
  <scstep>
   <time name="dav">    2.21    2.21</time>
   <time name="total">    2.31    2.31</time>
   <energy>
    <i name="e_fr_energy">   -352.82303840 </i>
    <i name="e_wo_entrp">   -351.67370630 </i>
    <i name="e_0_energy">   -352.24837235 </i>
   </energy>
  </scstep>
  <scstep>
   <time name="dav">    2.28    2.29</time>
   <time name="total">    2.38    2.39</time>
   <energy>
    <i name="e_fr_energy">   -352.82398078 </i>
    <i name="e_wo_entrp">   -351.67980733 </i>
    <i name="e_0_energy">   -352.25189406 </i>
   </energy>
  </scstep>
  <scstep>
   <time name="dav">    2.15    2.16</time>
   <time name="total">    2.26    2.26</time>
   <energy>
    <i name="e_fr_energy">   -352.82300267 </i>
    <i name="e_wo_entrp">   -351.67705336 </i>
    <i name="e_0_energy">   -352.25002802 </i>
   </energy>
  </scstep>
  <scstep>
   <time name="dav">    1.96    1.96</time>
   <time name="total">    2.06    2.07</time>
   <energy>
    <i name="e_fr_energy">   -352.82338549 </i>
    <i name="e_wo_entrp">   -351.67515702 </i>
    <i name="e_0_energy">   -352.24927125 </i>
   </energy>
  </scstep>
  <scstep>
   <time name="dav">    1.71    1.71</time>
   <time name="total">    1.76    1.76</time>
   <energy>
    <i name="alphaZ">   1820.93486007 </i>
    <i name="ewald"> 167290.03579533 </i>
    <i name="hartreedc">-288930.02222426 </i>
    <i name="XCdc">   3621.04025450 </i>
    <i name="pawpsdc"> 130304.81708449 </i>
    <i name="pawaedc">-135274.05450662 </i>
    <i name="eentropy">     -1.14557411 </i>
    <i name="bandstr"> -15187.03409188 </i>
    <i name="atom"> 136002.60505376 </i>
    <i name="e_fr_energy">   -352.82334871 </i>
    <i name="e_wo_entrp">   -351.67777460 </i>
    <i name="e_0_energy">   -352.25056166 </i>
   </energy>
  </scstep>
  <structure>
   <crystal>
    <varray name="basis" >
     <v>      10.40335375      -4.78920500       0.00000000 </v>
     <v>       0.00000000       9.57841000       0.00000000 </v>
     <v>       0.00000000       0.00000000      20.50076286 </v>
    </varray>
    <i name="volume">   2042.85156262 </i>
    <varray name="rec_basis" >
     <v>       0.09612285       0.00000000       0.00000000 </v>
     <v>       0.04806142       0.10440146       0.00000000 </v>
     <v>       0.00000000       0.00000000       0.04877867 </v>
    </varray>
   </crystal>
   <varray name="positions" >
    <v>       0.58044680       0.07437514       0.34941513 </v>
    <v>       0.76256081       0.16543215       0.22731652 </v>
    <v>       0.94467483       0.25648915       0.10521791 </v>
    <v>       0.39833278       0.98331813       0.47151374 </v>
    <v>       0.03518947       0.80174648       0.26801605 </v>
    <v>       0.21730349       0.89280348       0.14591744 </v>
    <v>       0.67096144       0.61963246       0.51221327 </v>
    <v>       0.85307546       0.71068947       0.39011466 </v>
    <v>       0.12570412       0.34700380       0.43081420 </v>
    <v>       0.30781813       0.43806081       0.30871559 </v>
    <v>       0.48993215       0.52911781       0.18661698 </v>
    <v>       0.67204616       0.62017482       0.06451837 </v>
    <v>       0.23035801       0.03143375       0.40699537 </v>
    <v>       0.41247203       0.12249075       0.28489676 </v>
    <v>       0.59458604       0.21354776       0.16279815 </v>
    <v>       0.77670006       0.30460477       0.04069954 </v>
    <v>       0.04932872       0.94091910       0.08139907 </v>
    <v>       0.50298667       0.66774808       0.44769490 </v>
    <v>       0.68510069       0.75880508       0.32559629 </v>
    <v>       0.86721470       0.84986209       0.20349768 </v>
    <v>       0.13984337       0.48617642       0.24419722 </v>
    <v>       0.32195738       0.57723343       0.12209861 </v>
    <v>       0.50407140       0.66829044       0.00000000 </v>
    <v>       0.95772935       0.39511942       0.36629583 </v>
    <v>       0.39833278       0.24752413       0.47151374 </v>
    <v>       0.58044680       0.33858114       0.34941513 </v>
    <v>       0.76256081       0.42963815       0.22731652 </v>
    <v>       0.03518947       0.06595248       0.26801605 </v>
    <v>       0.21730349       0.15700948       0.14591744 </v>
    <v>       0.39941750       0.24806649       0.02381883 </v>
    <v>       0.67096144       0.88383846       0.51221327 </v>
    <v>       0.85307546       0.97489547       0.39011466 </v>
    <v>       0.12570412       0.61120980       0.43081420 </v>
    <v>       0.30781813       0.70226681       0.30871559 </v>
    <v>       0.48993215       0.79332382       0.18661698 </v>
    <v>       0.67204616       0.88438082       0.06451837 </v>
    <v>       0.18441112       0.17667530       0.48070540 </v>
    <v>       0.36652513       0.26773231       0.35860679 </v>
    <v>       0.54863915       0.35878931       0.23650818 </v>
    <v>       0.73075316       0.44984632       0.11440957 </v>
    <v>       0.00338182       0.08616065       0.15510911 </v>
    <v>       0.18549584       0.17721766       0.03301050 </v>
    <v>       0.63915379       0.90404664       0.39930633 </v>
    <v>       0.82126781       0.99510365       0.27720772 </v>
    <v>       0.09389647       0.63141797       0.31790726 </v>
    <v>       0.27601049       0.72247498       0.19580864 </v>
    <v>       0.45812450       0.81353199       0.07371003 </v>
    <v>       0.91178246       0.54036097       0.44000587 </v>
    <v>       0.12675994       0.47963471       0.07446623 </v>
    <v>       0.58041790       0.20646369       0.44076206 </v>
    <v>       0.76253191       0.29752070       0.31866345 </v>
    <v>       0.94464593       0.38857770       0.19656484 </v>
    <v>       0.21727459       0.02489203       0.23726438 </v>
    <v>       0.39938860       0.11594904       0.11516577 </v>
    <v>       0.03516057       0.93383503       0.35936299 </v>
    <v>       0.85304656       0.84277802       0.48146160 </v>
    <v>       0.30778923       0.57014936       0.40006253 </v>
    <v>       0.48990325       0.66120636       0.27796392 </v>
    <v>       0.67201726       0.75226337       0.15586531 </v>
    <v>       0.85413128       0.84332038       0.03376670 </v>
    <v>       0.54863915       0.02235931       0.23650818 </v>
    <v>       0.73075316       0.11341632       0.11440957 </v>
    <v>       0.18441112       0.84024530       0.48070540 </v>
    <v>       0.36652513       0.93130231       0.35860679 </v>
    <v>       0.00338182       0.74973065       0.15510911 </v>
    <v>       0.18549584       0.84078766       0.03301050 </v>
    <v>       0.63915379       0.56761664       0.39930633 </v>
    <v>       0.82126781       0.65867365       0.27720772 </v>
    <v>       0.09389647       0.29498797       0.31790726 </v>
    <v>       0.27601049       0.38604498       0.19580864 </v>
    <v>       0.45812450       0.47710199       0.07371003 </v>
    <v>       0.91178246       0.20393097       0.44000587 </v>
   </varray>
  </structure>
  <varray name="forces" >
   <v>      -0.28514236       0.05602250       0.12606290 </v>
   <v>       0.26651196       0.19440567       0.10383197 </v>
   <v>       0.57423268       0.84220219       0.78530973 </v>
   <v>      -0.28974526       0.15770706      -1.11312557 </v>
   <v>       0.03367989       0.21116153      -0.10131534 </v>
   <v>       0.05544566       0.08058419      -0.55159559 </v>
   <v>       0.65227873       0.84975284      -1.81244415 </v>
   <v>      -0.01141940      -0.20751947       0.30977185 </v>
   <v>      -0.30065498      -0.77927025      -0.42752743 </v>
   <v>      -0.10474528      -0.07538549       0.08438660 </v>
   <v>       0.03801634       0.11104313       0.00492163 </v>
   <v>       0.47210422       0.03776384       0.70269057 </v>
   <v>      -0.24819977      -0.03088435       0.19096276 </v>
   <v>       0.16325599       0.02213771       0.14240711 </v>
   <v>       0.05111935       0.25267576      -0.25107345 </v>
   <v>      -0.23470468       0.21159495       2.00786105 </v>
   <v>       0.14024520      -0.31493947      -0.58445249 </v>
   <v>       0.45382363       0.00245213      -0.68836515 </v>
   <v>      -0.07909305       0.00303146       0.17719246 </v>
   <v>       0.32608092      -0.08772045       0.08002532 </v>
   <v>       0.04906233      -0.02352568       0.16848182 </v>
   <v>      -0.18215289      -0.01710744      -0.65494505 </v>
   <v>      -0.41751533      -0.03656485       1.97413375 </v>
   <v>      -0.05598935      -0.01459588       0.59644393 </v>
   <v>      -0.29659241      -0.15291410      -1.09211655 </v>
   <v>      -0.27713615      -0.09260319       0.11721101 </v>
   <v>       0.32262873      -0.23351919      -0.10370494 </v>
   <v>      -0.02939572      -0.02788201       0.17234017 </v>
   <v>       0.17528799      -0.13867374      -0.25407778 </v>
   <v>      -1.12258211       0.56653011       1.92103889 </v>
   <v>       0.65436851      -0.85314569      -1.81088577 </v>
   <v>      -0.02096233       0.21555181       0.34729283 </v>
   <v>      -0.26681334       0.75140789      -0.40161426 </v>
   <v>      -0.08758538       0.10833872       0.05077865 </v>
   <v>       0.07274738      -0.20612193      -0.22801415 </v>
   <v>       0.46239952      -0.28482417       0.70812485 </v>
   <v>       1.04401625       0.42939821       0.02008528 </v>
   <v>       0.05840177      -0.19742483      -0.02090204 </v>
   <v>      -0.08004184      -0.10014200      -0.12323849 </v>
   <v>       0.05891142      -0.71679244      -1.17092942 </v>
   <v>       0.16122334       0.04117450      -0.40542327 </v>
   <v>       0.30783982      -0.50402739       0.56542547 </v>
   <v>      -0.39265905      -0.15187342       0.91137149 </v>
   <v>      -0.10204586      -0.09524689      -0.09174322 </v>
   <v>       0.07111935      -0.27069270      -0.25516174 </v>
   <v>      -0.08543576      -0.13229792      -0.08463312 </v>
   <v>       0.28956283      -0.40295514      -0.60304582 </v>
   <v>       0.75649579      -0.23083450      -0.11656962 </v>
   <v>      -0.38915939      -0.76406530      -0.61333729 </v>
   <v>      -0.81052460      -0.00675886       1.43661957 </v>
   <v>       0.01978941       0.10991732       0.06788365 </v>
   <v>      -0.31159993      -0.16285606      -0.29406750 </v>
   <v>      -0.00424285      -0.08849007      -0.24253535 </v>
   <v>      -0.04313913       0.23692126      -0.93712610 </v>
   <v>       0.05603078      -0.01986421       0.09665586 </v>
   <v>      -1.23160235       0.00432684       1.20204387 </v>
   <v>      -0.05597947      -0.00307062       1.64799512 </v>
   <v>      -0.08777246       0.01192280      -0.02162107 </v>
   <v>      -0.01530509      -0.02357645      -0.23321339 </v>
   <v>      -1.54768176      -0.00576356      -0.31179197 </v>
   <v>       0.06823429       0.05369347      -0.22610002 </v>
   <v>       0.43584680       0.43887586      -1.39278903 </v>
   <v>       1.03018373      -0.43217969       0.01012467 </v>
   <v>       0.02720766       0.22549626      -0.01970008 </v>
   <v>      -0.03507106       0.25218490       0.25796829 </v>
   <v>      -0.74924191       0.60122141       1.43746206 </v>
   <v>      -0.36990578       0.12853559       0.90646788 </v>
   <v>      -0.02817333       0.05838783      -0.09833993 </v>
   <v>       0.02560984       0.33606722      -0.21066925 </v>
   <v>      -0.05182514       0.14849184      -0.06513226 </v>
   <v>       0.55594800      -0.09630459      -1.60299560 </v>
   <v>       0.77212646       0.23143517      -0.11504980 </v>
  </varray>
  <varray name="stress" >
   <v>     -28.35012625      -1.66679101      11.02463818 </v>
   <v>      -1.66679117     -20.98935796       0.08940906 </v>
   <v>      11.02463811       0.08940944     -21.27379109 </v>
  </varray>
  <energy>
   <i name="e_fr_energy">   -352.82334871 </i>
   <i name="e_wo_entrp">   -351.67777460 </i>
   <i name="e_0_energy">   -352.25056166 </i>
  </energy>
  <time name="totalsc">   79.88   80.17</time>
  <eigenvalues>
   <array>
    <dimension dim="1">band</dimension>
    <dimension dim="2">kpoint</dimension>
    <dimension dim="3">spin</dimension>
    <field>eigene</field>
    <field>occ</field>
    <set>
     <set comment="spin 1">
      <set comment="kpoint 1">
       <r>  -62.9718    1.0000 </r>
       <r>  -62.9476    1.0000 </r>
       <r>  -62.9421    1.0000 </r>
       <r>  -62.9372    1.0000 </r>
       <r>  -62.9362    1.0000 </r>
       <r>  -62.9219    1.0000 </r>
       <r>  -62.9214    1.0000 </r>
       <r>  -62.9188    1.0000 </r>
       <r>  -62.9095    1.0000 </r>
       <r>  -62.9026    1.0000 </r>
       <r>  -62.9000    1.0000 </r>
       <r>  -62.8921    1.0000 </r>
       <r>  -62.8907    1.0000 </r>
       <r>  -62.8874    1.0000 </r>
       <r>  -62.8855    1.0000 </r>
       <r>  -62.8841    1.0000 </r>
       <r>  -62.8835    1.0000 </r>
       <r>  -62.8816    1.0000 </r>
       <r>  -62.8805    1.0000 </r>
       <r>  -62.8802    1.0000 </r>
       <r>  -62.8786    1.0000 </r>
       <r>  -62.8776    1.0000 </r>
       <r>  -62.8737    1.0000 </r>
       <r>  -62.8693    1.0000 </r>
       <r>  -62.8692    1.0000 </r>
       <r>  -62.8662    1.0000 </r>
       <r>  -62.8620    1.0000 </r>
       <r>  -62.8605    1.0000 </r>
       <r>  -62.8603    1.0000 </r>
       <r>  -62.8584    1.0000 </r>
       <r>  -62.8562    1.0000 </r>
       <r>  -62.8517    1.0000 </r>
       <r>  -62.8460    1.0000 </r>
       <r>  -62.8416    1.0000 </r>
       <r>  -62.8404    1.0000 </r>
       <r>  -62.8387    1.0000 </r>
       <r>  -62.8311    1.0000 </r>
       <r>  -62.8301    1.0000 </r>
       <r>  -62.8210    1.0000 </r>
       <r>  -62.8142    1.0000 </r>
       <r>  -62.8087    1.0000 </r>
       <r>  -62.8084    1.0000 </r>
       <r>  -62.7954    1.0000 </r>
       <r>  -62.7879    1.0000 </r>
       <r>  -62.7871    1.0000 </r>
       <r>  -62.7780    1.0000 </r>
       <r>  -62.7770    1.0000 </r>
       <r>  -62.7765    1.0000 </r>
       <r>  -62.7704    1.0000 </r>
       <r>  -62.7475    1.0000 </r>
       <r>  -62.7347    1.0000 </r>
       <r>  -62.7336    1.0000 </r>
       <r>  -62.7256    1.0000 </r>
       <r>  -62.7202    1.0000 </r>
       <r>  -62.7170    1.0000 </r>
       <r>  -62.6867    1.0000 </r>
       <r>  -62.6779    1.0000 </r>
       <r>  -62.6713    1.0000 </r>
       <r>  -62.6684    1.0000 </r>
       <r>  -62.6681    1.0000 </r>
       <r>  -62.6604    1.0000 </r>
       <r>  -62.6587    1.0000 </r>
       <r>  -62.6585    1.0000 </r>
       <r>  -62.6513    1.0000 </r>
       <r>  -62.6484    1.0000 </r>
       <r>  -62.6407    1.0000 </r>
       <r>  -62.6193    1.0000 </r>
       <r>  -62.6175    1.0000 </r>
       <r>  -62.6094    1.0000 </r>
       <r>  -62.5763    1.0000 </r>
       <r>  -62.5710    1.0000 </r>
       <r>  -62.5602    1.0000 </r>
       <r>  -62.5306    1.0000 </r>
       <r>  -62.5260    1.0000 </r>
       <r>  -62.5074    1.0000 </r>
       <r>  -62.4789    1.0000 </r>
       <r>  -62.4698    1.0000 </r>
       <r>  -62.4672    1.0000 </r>
       <r>  -62.4642    1.0000 </r>
       <r>  -62.4512    1.0000 </r>
       <r>  -62.3740    1.0000 </r>
       <r>  -62.3285    1.0000 </r>
       <r>  -62.2178    1.0000 </r>
       <r>  -62.2086    1.0000 </r>
       <r>  -62.1420    1.0000 </r>
       <r>  -62.1211    1.0000 </r>
       <r>  -62.1193    1.0000 </r>
       <r>  -62.1132    1.0000 </r>
       <r>  -62.0403    1.0000 </r>
       <r>  -61.9455    1.0000 </r>
       <r>  -61.9295    1.0000 </r>
       <r>  -61.9177    1.0000 </r>
       <r>  -61.9162    1.0000 </r>
       <r>  -61.9091    1.0000 </r>
       <r>  -61.8417    1.0000 </r>
       <r>  -61.8376    1.0000 </r>
       <r>  -61.8008    1.0000 </r>
       <r>  -61.7615    1.0000 </r>
       <r>  -61.7231    1.0000 </r>
       <r>  -61.7156    1.0000 </r>
       <r>  -61.7056    1.0000 </r>
       <r>  -61.6927    1.0000 </r>
       <r>  -61.5916    1.0000 </r>
       <r>  -61.5847    1.0000 </r>
       <r>  -61.5467    1.0000 </r>
       <r>  -61.5399    1.0000 </r>
       <r>  -61.4990    1.0000 </r>
       <r>  -61.4032    1.0000 </r>
       <r>  -14.1908    1.0000 </r>
       <r>  -13.5295    1.0000 </r>
       <r>  -13.4295    1.0000 </r>
       <r>  -13.4221    1.0000 </r>
       <r>  -13.2870    1.0000 </r>
       <r>  -13.1282    1.0000 </r>
       <r>  -13.0289    1.0000 </r>
       <r>  -12.9584    1.0000 </r>
       <r>  -12.9191    1.0000 </r>
       <r>  -12.8103    1.0000 </r>
       <r>  -12.7664    1.0000 </r>
       <r>  -12.6863    1.0000 </r>
       <r>  -12.5703    1.0000 </r>
       <r>  -12.4907    1.0000 </r>
       <r>  -12.4280    1.0000 </r>
       <r>  -12.3995    1.0000 </r>
       <r>  -12.3392    1.0000 </r>
       <r>  -12.3098    1.0000 </r>
       <r>  -12.2192    1.0000 </r>
       <r>  -12.1299    1.0000 </r>
       <r>  -12.1069    1.0000 </r>
       <r>  -12.0327    1.0000 </r>
       <r>  -11.9423    1.0000 </r>
       <r>  -11.8910    1.0000 </r>
       <r>  -11.8757    1.0000 </r>
       <r>  -11.8179    1.0000 </r>
       <r>  -11.7127    1.0000 </r>
       <r>  -11.6785    1.0000 </r>
       <r>  -11.5998    1.0000 </r>
       <r>  -11.3946    1.0000 </r>
       <r>  -11.3719    1.0000 </r>
       <r>  -11.3012    1.0000 </r>
       <r>  -11.0179    1.0000 </r>
       <r>  -10.9792    1.0000 </r>
       <r>  -10.7111    1.0000 </r>
       <r>  -10.5411    1.0000 </r>
       <r>   -6.0941    1.0000 </r>
       <r>   -6.0768    1.0000 </r>
       <r>   -5.6458    1.0000 </r>
       <r>   -5.5905    1.0000 </r>
       <r>   -5.5741    1.0000 </r>
       <r>   -5.3722    1.0000 </r>
       <r>   -5.3394    1.0000 </r>
       <r>   -5.3232    1.0000 </r>
       <r>   -5.2361    1.0000 </r>
       <r>   -5.2074    1.0000 </r>
       <r>   -5.1581    1.0000 </r>
       <r>   -5.1392    1.0000 </r>
       <r>   -5.0415    1.0000 </r>
       <r>   -5.0223    1.0000 </r>
       <r>   -4.9697    1.0000 </r>
       <r>   -4.9446    1.0000 </r>
       <r>   -4.9256    1.0000 </r>
       <r>   -4.9015    1.0000 </r>
       <r>   -4.8149    1.0000 </r>
       <r>   -4.7944    1.0000 </r>
       <r>   -4.7796    1.0000 </r>
       <r>   -4.7070    1.0000 </r>
       <r>   -4.6417    1.0000 </r>
       <r>   -4.5666    1.0000 </r>
       <r>   -4.5582    1.0000 </r>
       <r>   -4.5095    1.0000 </r>
       <r>   -4.4400    1.0000 </r>
       <r>   -4.4087    1.0000 </r>
       <r>   -4.3777    1.0000 </r>
       <r>   -4.3108    1.0000 </r>
       <r>   -4.2740    1.0000 </r>
       <r>   -4.2389    1.0000 </r>
       <r>   -4.1059    1.0000 </r>
       <r>   -4.0650    1.0000 </r>
       <r>   -4.0295    1.0000 </r>
       <r>   -3.9344    1.0000 </r>
       <r>   -3.8863    1.0000 </r>
       <r>   -3.8753    1.0000 </r>
       <r>   -3.7825    1.0000 </r>
       <r>   -3.7170    1.0000 </r>
       <r>   -3.6920    1.0000 </r>
       <r>   -3.6639    1.0000 </r>
       <r>   -3.6443    1.0000 </r>
       <r>   -3.5748    1.0000 </r>
       <r>   -3.5516    1.0000 </r>
       <r>   -3.5153    1.0000 </r>
       <r>   -3.4647    1.0000 </r>
       <r>   -3.4348    1.0000 </r>
       <r>   -3.4135    1.0000 </r>
       <r>   -3.3817    1.0000 </r>
       <r>   -3.3713    1.0000 </r>
       <r>   -3.3313    1.0000 </r>
       <r>   -3.2911    1.0000 </r>
       <r>   -3.2835    1.0000 </r>
       <r>   -3.2383    1.0000 </r>
       <r>   -3.2124    1.0000 </r>
       <r>   -3.1832    1.0000 </r>
       <r>   -3.1725    1.0000 </r>
       <r>   -3.1448    1.0000 </r>
       <r>   -3.0877    1.0000 </r>
       <r>   -3.0635    1.0000 </r>
       <r>   -3.0113    1.0000 </r>
       <r>   -2.9864    1.0000 </r>
       <r>   -2.9629    1.0000 </r>
       <r>   -2.9251    1.0000 </r>
       <r>   -2.9154    1.0000 </r>
       <r>   -2.8798    1.0000 </r>
       <r>   -2.8758    1.0000 </r>
       <r>   -2.8484    1.0000 </r>
       <r>   -2.8013    1.0000 </r>
       <r>   -2.7777    1.0000 </r>
       <r>   -2.7578    1.0000 </r>
       <r>   -2.7209    1.0000 </r>
       <r>   -2.6908    1.0000 </r>
       <r>   -2.6712    1.0000 </r>
       <r>   -2.6432    1.0000 </r>
       <r>   -2.5926    1.0000 </r>
       <r>   -2.5764    1.0000 </r>
       <r>   -2.5556    1.0000 </r>
       <r>   -2.5058    1.0000 </r>
       <r>   -2.4758    1.0000 </r>
       <r>   -2.4302    1.0000 </r>
       <r>   -2.4143    1.0000 </r>
       <r>   -2.3883    1.0000 </r>
       <r>   -2.3620    1.0000 </r>
       <r>   -2.2882    1.0000 </r>
       <r>   -2.2649    1.0000 </r>
       <r>   -2.2420    1.0000 </r>
       <r>   -2.1659    1.0000 </r>
       <r>   -2.1376    1.0000 </r>
       <r>   -2.1237    1.0000 </r>
       <r>   -2.0559    1.0000 </r>
       <r>   -2.0013    1.0000 </r>
       <r>   -1.9587    1.0000 </r>
       <r>   -1.9371    1.0000 </r>
       <r>   -1.8937    1.0000 </r>
       <r>   -1.8525    1.0000 </r>
       <r>   -1.8329    1.0000 </r>
       <r>   -1.8219    1.0000 </r>
       <r>   -1.7534    1.0000 </r>
       <r>   -1.7143    1.0000 </r>
       <r>   -1.6971    1.0000 </r>
       <r>   -1.6681    1.0000 </r>
       <r>   -1.6339    1.0000 </r>
       <r>   -1.5944    1.0000 </r>
       <r>   -1.5783    1.0000 </r>
       <r>   -1.5332    1.0000 </r>
       <r>   -1.5235    1.0000 </r>
       <r>   -1.4758    1.0000 </r>
       <r>   -1.4609    1.0000 </r>
       <r>   -1.3997    1.0000 </r>
       <r>   -1.3693    1.0000 </r>
       <r>   -1.3429    1.0000 </r>
       <r>   -1.3277    1.0000 </r>
       <r>   -1.2642    1.0000 </r>
       <r>   -1.2395    1.0000 </r>
       <r>   -1.2165    1.0000 </r>
       <r>   -1.1977    1.0000 </r>
       <r>   -1.1562    1.0000 </r>
       <r>   -1.1396    1.0000 </r>
       <r>   -1.1133    1.0000 </r>
       <r>   -1.0980    1.0000 </r>
       <r>   -1.0849    1.0000 </r>
       <r>   -1.0608    1.0000 </r>
       <r>   -1.0292    1.0000 </r>
       <r>   -1.0058    1.0000 </r>
       <r>   -0.9864    1.0000 </r>
       <r>   -0.9827    1.0000 </r>
       <r>   -0.9670    1.0000 </r>
       <r>   -0.9416    1.0000 </r>
       <r>   -0.9296    1.0000 </r>
       <r>   -0.9114    1.0000 </r>
       <r>   -0.8901    1.0000 </r>
       <r>   -0.8741    1.0000 </r>
       <r>   -0.8565    1.0000 </r>
       <r>   -0.8504    1.0000 </r>
       <r>   -0.8101    1.0000 </r>
       <r>   -0.8019    1.0000 </r>
       <r>   -0.7800    1.0000 </r>
       <r>   -0.7562    1.0000 </r>
       <r>   -0.7533    1.0000 </r>
       <r>   -0.7171    1.0000 </r>
       <r>   -0.7080    1.0000 </r>
       <r>   -0.6954    1.0000 </r>
       <r>   -0.6649    1.0000 </r>
       <r>   -0.6571    1.0000 </r>
       <r>   -0.6493    1.0000 </r>
       <r>   -0.6323    1.0000 </r>
       <r>   -0.6212    1.0000 </r>
       <r>   -0.6118    1.0000 </r>
       <r>   -0.6069    1.0000 </r>
       <r>   -0.5987    1.0000 </r>
       <r>   -0.5873    1.0000 </r>
       <r>   -0.5834    1.0000 </r>
       <r>   -0.5594    1.0000 </r>
       <r>   -0.5548    1.0000 </r>
       <r>   -0.5364    1.0000 </r>
       <r>   -0.5242    1.0000 </r>
       <r>   -0.5115    1.0000 </r>
       <r>   -0.4936    1.0000 </r>
       <r>   -0.4875    1.0000 </r>
       <r>   -0.4801    1.0000 </r>
       <r>   -0.4650    1.0000 </r>
       <r>   -0.4628    1.0000 </r>
       <r>   -0.4486    1.0000 </r>
       <r>   -0.4397    1.0000 </r>
       <r>   -0.4207    1.0000 </r>
       <r>   -0.4188    1.0000 </r>
       <r>   -0.4094    1.0000 </r>
       <r>   -0.4009    1.0000 </r>
       <r>   -0.3742    1.0000 </r>
       <r>   -0.3702    1.0000 </r>
       <r>   -0.3659    1.0000 </r>
       <r>   -0.3521    1.0000 </r>
       <r>   -0.3396    1.0000 </r>
       <r>   -0.3278    1.0000 </r>
       <r>   -0.3211    1.0000 </r>
       <r>   -0.3069    1.0000 </r>
       <r>   -0.3051    1.0000 </r>
       <r>   -0.2915    1.0000 </r>
       <r>   -0.2890    1.0000 </r>
       <r>   -0.2599    1.0000 </r>
       <r>   -0.2487    1.0000 </r>
       <r>   -0.2410    1.0000 </r>
       <r>   -0.2261    1.0000 </r>
       <r>   -0.2116    1.0000 </r>
       <r>   -0.2005    1.0000 </r>
       <r>   -0.1867    1.0000 </r>
       <r>   -0.1801    1.0000 </r>
       <r>   -0.1579    1.0000 </r>
       <r>   -0.1498    1.0000 </r>
       <r>   -0.1306    1.0000 </r>
       <r>   -0.0920    1.0000 </r>
       <r>   -0.0804    1.0000 </r>
       <r>   -0.0677    1.0000 </r>
       <r>   -0.0527    1.0000 </r>
       <r>   -0.0444    1.0000 </r>
       <r>   -0.0322    1.0000 </r>
       <r>   -0.0173    1.0000 </r>
       <r>   -0.0033    1.0000 </r>
       <r>    0.0236    1.0000 </r>
       <r>    0.0281    1.0000 </r>
       <r>    0.0470    1.0000 </r>
       <r>    0.0704    1.0000 </r>
       <r>    0.0870    1.0000 </r>
       <r>    0.1046    1.0000 </r>
       <r>    0.1242    1.0000 </r>
       <r>    0.1843    1.0000 </r>
       <r>    0.2019    1.0000 </r>
       <r>    0.2265    1.0000 </r>
       <r>    0.2435    1.0000 </r>
       <r>    0.2643    1.0000 </r>
       <r>    0.2724    1.0000 </r>
       <r>    0.2871    1.0000 </r>
       <r>    0.2943    1.0000 </r>
       <r>    0.3165    1.0000 </r>
       <r>    0.3443    1.0000 </r>
       <r>    0.3565    1.0000 </r>
       <r>    0.3650    1.0000 </r>
       <r>    0.3763    1.0000 </r>
       <r>    0.3957    1.0000 </r>
       <r>    0.4117    1.0000 </r>
       <r>    0.4177    1.0000 </r>
       <r>    0.4527    1.0000 </r>
       <r>    0.4752    1.0000 </r>
       <r>    0.4991    1.0000 </r>
       <r>    0.5121    1.0000 </r>
       <r>    0.5229    1.0000 </r>
       <r>    0.5409    1.0000 </r>
       <r>    0.5603    1.0000 </r>
       <r>    0.5802    1.0000 </r>
       <r>    0.6018    1.0000 </r>
       <r>    0.6133    1.0000 </r>
       <r>    0.6179    1.0000 </r>
       <r>    0.6490    1.0000 </r>
       <r>    0.6686    1.0000 </r>
       <r>    0.6795    0.9999 </r>
       <r>    0.6887    0.9999 </r>
       <r>    0.7085    0.9999 </r>
       <r>    0.7710    0.9993 </r>
       <r>    0.7851    0.9990 </r>
       <r>    0.8361    0.9969 </r>
       <r>    0.8692    0.9939 </r>
       <r>    0.8929    0.9903 </r>
       <r>    0.9302    0.9809 </r>
       <r>    0.9539    0.9717 </r>
       <r>    0.9690    0.9640 </r>
       <r>    1.0654    0.8680 </r>
       <r>    1.1174    0.7732 </r>
       <r>    1.1627    0.6662 </r>
       <r>    1.1994    0.5674 </r>
       <r>    1.2111    0.5346 </r>
       <r>    1.2500    0.4256 </r>
       <r>    1.2635    0.3883 </r>
       <r>    1.3029    0.2870 </r>
       <r>    1.3344    0.2162 </r>
       <r>    1.3786    0.1363 </r>
       <r>    1.4137    0.0892 </r>
       <r>    1.4460    0.0578 </r>
       <r>    1.4660    0.0431 </r>
       <r>    1.5059    0.0229 </r>
       <r>    1.5462    0.0112 </r>
       <r>    1.5720    0.0068 </r>
       <r>    1.5760    0.0063 </r>
       <r>    1.6309    0.0020 </r>
       <r>    1.6659    0.0009 </r>
       <r>    1.6758    0.0007 </r>
       <r>    1.7077    0.0003 </r>
       <r>    1.7341    0.0002 </r>
       <r>    1.8145    0.0000 </r>
       <r>    1.8179    0.0000 </r>
       <r>    1.8347    0.0000 </r>
       <r>    1.8653    0.0000 </r>
       <r>    1.8836    0.0000 </r>
       <r>    1.8898    0.0000 </r>
       <r>    1.9309    0.0000 </r>
       <r>    1.9744    0.0000 </r>
       <r>    2.0657    0.0000 </r>
       <r>    2.1038    0.0000 </r>
       <r>    2.1259    0.0000 </r>
       <r>    2.1832    0.0000 </r>
       <r>    2.2263    0.0000 </r>
       <r>    2.2334    0.0000 </r>
       <r>    2.2524    0.0000 </r>
       <r>    2.3130    0.0000 </r>
       <r>    2.3551    0.0000 </r>
       <r>    2.4246    0.0000 </r>
       <r>    2.4359    0.0000 </r>
       <r>    2.4999    0.0000 </r>
       <r>    2.8742    0.0000 </r>
       <r>    3.1764    0.0000 </r>
       <r>    3.4140    0.0000 </r>
       <r>    3.7307    0.0000 </r>
       <r>    3.9783    0.0000 </r>
       <r>    4.2559    0.0000 </r>
       <r>    4.4273    0.0000 </r>
       <r>    4.4987    0.0000 </r>
       <r>    4.6457    0.0000 </r>
       <r>    4.7446    0.0000 </r>
       <r>    4.8056    0.0000 </r>
       <r>    4.9700    0.0000 </r>
       <r>    5.1594    0.0000 </r>
       <r>    5.2879    0.0000 </r>
       <r>    5.3289    0.0000 </r>
       <r>    5.4161    0.0000 </r>
       <r>    5.5461    0.0000 </r>
       <r>    5.6115    0.0000 </r>
       <r>    5.7446    0.0000 </r>
       <r>    5.8663    0.0000 </r>
       <r>    5.9753    0.0000 </r>
       <r>    6.0153    0.0000 </r>
       <r>    6.0955    0.0000 </r>
       <r>    6.1290    0.0000 </r>
       <r>    6.2066    0.0000 </r>
       <r>    6.2793    0.0000 </r>
       <r>    6.3583    0.0000 </r>
       <r>    6.3972    0.0000 </r>
       <r>    6.4152    0.0000 </r>
       <r>    6.4347    0.0000 </r>
       <r>    6.4859    0.0000 </r>
       <r>    6.5771    0.0000 </r>
       <r>    6.7098    0.0000 </r>
       <r>    6.7380    0.0000 </r>
       <r>    6.7644    0.0000 </r>
       <r>    6.8546    0.0000 </r>
       <r>    6.8798    0.0000 </r>
       <r>    6.9053    0.0000 </r>
       <r>    6.9635    0.0000 </r>
       <r>    6.9802    0.0000 </r>
       <r>    7.0255    0.0000 </r>
       <r>    7.1194    0.0000 </r>
       <r>    7.1375    0.0000 </r>
       <r>    7.1710    0.0000 </r>
       <r>    7.2091    0.0000 </r>
       <r>    7.2503    0.0000 </r>
       <r>    7.3181    0.0000 </r>
      </set>
     </set>
    </set>
   </array>
  </eigenvalues>
  <separator name="orbital magnetization" >
   <v name="MAGDIPOLOUT">      0.00000000      0.00000000      0.00000000</v>
  </separator>
  <dos>
   <i name="efermi">      1.22341949 </i>
   <total>
    <array>
     <dimension dim="1">gridpoints</dimension>
     <dimension dim="2">spin</dimension>
     <field>energy</field>
     <field>total</field>
     <field>integrated</field>
     <set>
      <set comment="spin 1">
       <r>   -66.4863     0.0000     0.0000 </r>
       <r>   -66.2286     0.0000     0.0000 </r>
       <r>   -65.9709     0.0000     0.0000 </r>
       <r>   -65.7131     0.0000     0.0000 </r>
       <r>   -65.4554     0.0000     0.0000 </r>
       <r>   -65.1977     0.0000     0.0000 </r>
       <r>   -64.9400     0.0000     0.0000 </r>
       <r>   -64.6822     0.0000     0.0000 </r>
       <r>   -64.4245     0.0000     0.0000 </r>
       <r>   -64.1668     0.0000     0.0000 </r>
       <r>   -63.9090     0.0000     0.0000 </r>
       <r>   -63.6513     0.0000     0.0000 </r>
       <r>   -63.3936     0.0718     0.0185 </r>
       <r>   -63.1358    13.0904     3.3923 </r>
       <r>   -62.8781   175.9557    48.7413 </r>
       <r>   -62.6204   291.4358   123.8531 </r>
       <r>   -62.3627   134.8617   158.6110 </r>
       <r>   -62.1049    56.3855   173.1432 </r>
       <r>   -61.8472    63.0330   189.3887 </r>
       <r>   -61.5895    64.3796   205.9812 </r>
       <r>   -61.3317    33.8492   214.7052 </r>
       <r>   -61.0740     4.9271   215.9750 </r>
       <r>   -60.8163     0.0968   216.0000 </r>
       <r>   -60.5585     0.0001   216.0000 </r>
       <r>   -60.3008     0.0000   216.0000 </r>
       <r>   -60.0431     0.0000   216.0000 </r>
       <r>   -59.7854     0.0000   216.0000 </r>
       <r>   -59.5276     0.0000   216.0000 </r>
       <r>   -59.2699     0.0000   216.0000 </r>
       <r>   -59.0122     0.0000   216.0000 </r>
       <r>   -58.7544     0.0000   216.0000 </r>
       <r>   -58.4967     0.0000   216.0000 </r>
       <r>   -58.2390     0.0000   216.0000 </r>
       <r>   -57.9813     0.0000   216.0000 </r>
       <r>   -57.7235     0.0000   216.0000 </r>
       <r>   -57.4658     0.0000   216.0000 </r>
       <r>   -57.2081     0.0000   216.0000 </r>
       <r>   -56.9503     0.0000   216.0000 </r>
       <r>   -56.6926     0.0000   216.0000 </r>
       <r>   -56.4349     0.0000   216.0000 </r>
       <r>   -56.1771     0.0000   216.0000 </r>
       <r>   -55.9194     0.0000   216.0000 </r>
       <r>   -55.6617     0.0000   216.0000 </r>
       <r>   -55.4040     0.0000   216.0000 </r>
       <r>   -55.1462     0.0000   216.0000 </r>
       <r>   -54.8885     0.0000   216.0000 </r>
       <r>   -54.6308     0.0000   216.0000 </r>
       <r>   -54.3730     0.0000   216.0000 </r>
       <r>   -54.1153     0.0000   216.0000 </r>
       <r>   -53.8576     0.0000   216.0000 </r>
       <r>   -53.5998     0.0000   216.0000 </r>
       <r>   -53.3421     0.0000   216.0000 </r>
       <r>   -53.0844     0.0000   216.0000 </r>
       <r>   -52.8267     0.0000   216.0000 </r>
       <r>   -52.5689     0.0000   216.0000 </r>
       <r>   -52.3112     0.0000   216.0000 </r>
       <r>   -52.0535     0.0000   216.0000 </r>
       <r>   -51.7957     0.0000   216.0000 </r>
       <r>   -51.5380     0.0000   216.0000 </r>
       <r>   -51.2803     0.0000   216.0000 </r>
       <r>   -51.0225     0.0000   216.0000 </r>
       <r>   -50.7648     0.0000   216.0000 </r>
       <r>   -50.5071     0.0000   216.0000 </r>
       <r>   -50.2494     0.0000   216.0000 </r>
       <r>   -49.9916     0.0000   216.0000 </r>
       <r>   -49.7339     0.0000   216.0000 </r>
       <r>   -49.4762     0.0000   216.0000 </r>
       <r>   -49.2184     0.0000   216.0000 </r>
       <r>   -48.9607     0.0000   216.0000 </r>
       <r>   -48.7030     0.0000   216.0000 </r>
       <r>   -48.4452     0.0000   216.0000 </r>
       <r>   -48.1875     0.0000   216.0000 </r>
       <r>   -47.9298     0.0000   216.0000 </r>
       <r>   -47.6721     0.0000   216.0000 </r>
       <r>   -47.4143     0.0000   216.0000 </r>
       <r>   -47.1566     0.0000   216.0000 </r>
       <r>   -46.8989     0.0000   216.0000 </r>
       <r>   -46.6411     0.0000   216.0000 </r>
       <r>   -46.3834     0.0000   216.0000 </r>
       <r>   -46.1257     0.0000   216.0000 </r>
       <r>   -45.8679     0.0000   216.0000 </r>
       <r>   -45.6102     0.0000   216.0000 </r>
       <r>   -45.3525     0.0000   216.0000 </r>
       <r>   -45.0948     0.0000   216.0000 </r>
       <r>   -44.8370     0.0000   216.0000 </r>
       <r>   -44.5793     0.0000   216.0000 </r>
       <r>   -44.3216     0.0000   216.0000 </r>
       <r>   -44.0638     0.0000   216.0000 </r>
       <r>   -43.8061     0.0000   216.0000 </r>
       <r>   -43.5484     0.0000   216.0000 </r>
       <r>   -43.2906     0.0000   216.0000 </r>
       <r>   -43.0329     0.0000   216.0000 </r>
       <r>   -42.7752     0.0000   216.0000 </r>
       <r>   -42.5175     0.0000   216.0000 </r>
       <r>   -42.2597     0.0000   216.0000 </r>
       <r>   -42.0020     0.0000   216.0000 </r>
       <r>   -41.7443     0.0000   216.0000 </r>
       <r>   -41.4865     0.0000   216.0000 </r>
       <r>   -41.2288     0.0000   216.0000 </r>
       <r>   -40.9711     0.0000   216.0000 </r>
       <r>   -40.7133     0.0000   216.0000 </r>
       <r>   -40.4556     0.0000   216.0000 </r>
       <r>   -40.1979     0.0000   216.0000 </r>
       <r>   -39.9402     0.0000   216.0000 </r>
       <r>   -39.6824     0.0000   216.0000 </r>
       <r>   -39.4247     0.0000   216.0000 </r>
       <r>   -39.1670     0.0000   216.0000 </r>
       <r>   -38.9092     0.0000   216.0000 </r>
       <r>   -38.6515     0.0000   216.0000 </r>
       <r>   -38.3938     0.0000   216.0000 </r>
       <r>   -38.1360     0.0000   216.0000 </r>
       <r>   -37.8783     0.0000   216.0000 </r>
       <r>   -37.6206     0.0000   216.0000 </r>
       <r>   -37.3629     0.0000   216.0000 </r>
       <r>   -37.1051     0.0000   216.0000 </r>
       <r>   -36.8474     0.0000   216.0000 </r>
       <r>   -36.5897     0.0000   216.0000 </r>
       <r>   -36.3319     0.0000   216.0000 </r>
       <r>   -36.0742     0.0000   216.0000 </r>
       <r>   -35.8165     0.0000   216.0000 </r>
       <r>   -35.5587     0.0000   216.0000 </r>
       <r>   -35.3010     0.0000   216.0000 </r>
       <r>   -35.0433     0.0000   216.0000 </r>
       <r>   -34.7856     0.0000   216.0000 </r>
       <r>   -34.5278     0.0000   216.0000 </r>
       <r>   -34.2701     0.0000   216.0000 </r>
       <r>   -34.0124     0.0000   216.0000 </r>
       <r>   -33.7546     0.0000   216.0000 </r>
       <r>   -33.4969     0.0000   216.0000 </r>
       <r>   -33.2392     0.0000   216.0000 </r>
       <r>   -32.9814     0.0000   216.0000 </r>
       <r>   -32.7237     0.0000   216.0000 </r>
       <r>   -32.4660     0.0000   216.0000 </r>
       <r>   -32.2083     0.0000   216.0000 </r>
       <r>   -31.9505     0.0000   216.0000 </r>
       <r>   -31.6928     0.0000   216.0000 </r>
       <r>   -31.4351     0.0000   216.0000 </r>
       <r>   -31.1773     0.0000   216.0000 </r>
       <r>   -30.9196     0.0000   216.0000 </r>
       <r>   -30.6619     0.0000   216.0000 </r>
       <r>   -30.4041     0.0000   216.0000 </r>
       <r>   -30.1464     0.0000   216.0000 </r>
       <r>   -29.8887     0.0000   216.0000 </r>
       <r>   -29.6310     0.0000   216.0000 </r>
       <r>   -29.3732     0.0000   216.0000 </r>
       <r>   -29.1155     0.0000   216.0000 </r>
       <r>   -28.8578     0.0000   216.0000 </r>
       <r>   -28.6000     0.0000   216.0000 </r>
       <r>   -28.3423     0.0000   216.0000 </r>
       <r>   -28.0846     0.0000   216.0000 </r>
       <r>   -27.8268     0.0000   216.0000 </r>
       <r>   -27.5691     0.0000   216.0000 </r>
       <r>   -27.3114     0.0000   216.0000 </r>
       <r>   -27.0537     0.0000   216.0000 </r>
       <r>   -26.7959     0.0000   216.0000 </r>
       <r>   -26.5382     0.0000   216.0000 </r>
       <r>   -26.2805     0.0000   216.0000 </r>
       <r>   -26.0227     0.0000   216.0000 </r>
       <r>   -25.7650     0.0000   216.0000 </r>
       <r>   -25.5073     0.0000   216.0000 </r>
       <r>   -25.2495     0.0000   216.0000 </r>
       <r>   -24.9918     0.0000   216.0000 </r>
       <r>   -24.7341     0.0000   216.0000 </r>
       <r>   -24.4764     0.0000   216.0000 </r>
       <r>   -24.2186     0.0000   216.0000 </r>
       <r>   -23.9609     0.0000   216.0000 </r>
       <r>   -23.7032     0.0000   216.0000 </r>
       <r>   -23.4454     0.0000   216.0000 </r>
       <r>   -23.1877     0.0000   216.0000 </r>
       <r>   -22.9300     0.0000   216.0000 </r>
       <r>   -22.6722     0.0000   216.0000 </r>
       <r>   -22.4145     0.0000   216.0000 </r>
       <r>   -22.1568     0.0000   216.0000 </r>
       <r>   -21.8991     0.0000   216.0000 </r>
       <r>   -21.6413     0.0000   216.0000 </r>
       <r>   -21.3836     0.0000   216.0000 </r>
       <r>   -21.1259     0.0000   216.0000 </r>
       <r>   -20.8681     0.0000   216.0000 </r>
       <r>   -20.6104     0.0000   216.0000 </r>
       <r>   -20.3527     0.0000   216.0000 </r>
       <r>   -20.0949     0.0000   216.0000 </r>
       <r>   -19.8372     0.0000   216.0000 </r>
       <r>   -19.5795     0.0000   216.0000 </r>
       <r>   -19.3218     0.0000   216.0000 </r>
       <r>   -19.0640     0.0000   216.0000 </r>
       <r>   -18.8063     0.0000   216.0000 </r>
       <r>   -18.5486     0.0000   216.0000 </r>
       <r>   -18.2908     0.0000   216.0000 </r>
       <r>   -18.0331     0.0000   216.0000 </r>
       <r>   -17.7754     0.0000   216.0000 </r>
       <r>   -17.5176     0.0000   216.0000 </r>
       <r>   -17.2599     0.0000   216.0000 </r>
       <r>   -17.0022     0.0000   216.0000 </r>
       <r>   -16.7445     0.0000   216.0000 </r>
       <r>   -16.4867     0.0000   216.0000 </r>
       <r>   -16.2290     0.0000   216.0000 </r>
       <r>   -15.9713     0.0000   216.0000 </r>
       <r>   -15.7135     0.0000   216.0000 </r>
       <r>   -15.4558     0.0000   216.0000 </r>
       <r>   -15.1981     0.0000   216.0000 </r>
       <r>   -14.9404     0.0000   216.0000 </r>
       <r>   -14.6826     0.0020   216.0005 </r>
       <r>   -14.4249     0.3779   216.0979 </r>
       <r>   -14.1672     4.0158   217.1329 </r>
       <r>   -13.9094     3.2165   217.9619 </r>
       <r>   -13.6517     2.5468   218.6183 </r>
       <r>   -13.3940    15.2181   222.5404 </r>
       <r>   -13.1362    18.8318   227.3939 </r>
       <r>   -12.8785    23.9011   233.5540 </r>
       <r>   -12.6208    26.0451   240.2666 </r>
       <r>   -12.3631    30.3723   248.0944 </r>
       <r>   -12.1053    32.8236   256.5540 </r>
       <r>   -11.8476    33.0425   265.0701 </r>
       <r>   -11.5899    27.9501   272.2737 </r>
       <r>   -11.3321    19.6870   277.3476 </r>
       <r>   -11.0744    14.2974   281.0324 </r>
       <r>   -10.8167    11.9039   284.1004 </r>
       <r>   -10.5589     9.7495   286.6132 </r>
       <r>   -10.3012     5.0176   287.9064 </r>
       <r>   -10.0435     0.3616   287.9996 </r>
       <r>    -9.7858     0.0017   288.0000 </r>
       <r>    -9.5280     0.0000   288.0000 </r>
       <r>    -9.2703     0.0000   288.0000 </r>
       <r>    -9.0126     0.0000   288.0000 </r>
       <r>    -8.7548     0.0000   288.0000 </r>
       <r>    -8.4971     0.0000   288.0000 </r>
       <r>    -8.2394     0.0000   288.0000 </r>
       <r>    -7.9816     0.0000   288.0000 </r>
       <r>    -7.7239     0.0000   288.0000 </r>
       <r>    -7.4662     0.0000   288.0000 </r>
       <r>    -7.2085     0.0000   288.0000 </r>
       <r>    -6.9507     0.0000   288.0000 </r>
       <r>    -6.6930     0.0001   288.0000 </r>
       <r>    -6.4353     0.1050   288.0271 </r>
       <r>    -6.1775     3.8972   289.0315 </r>
       <r>    -5.9198     9.9750   291.6024 </r>
       <r>    -5.6621     9.8208   294.1335 </r>
       <r>    -5.4043    23.1077   300.0891 </r>
       <r>    -5.1466    37.5791   309.7743 </r>
       <r>    -4.8889    47.7740   322.0871 </r>
       <r>    -4.6312    44.8047   333.6346 </r>
       <r>    -4.3734    41.7129   344.3853 </r>
       <r>    -4.1157    36.0696   353.6815 </r>
       <r>    -3.8580    35.2376   362.7633 </r>
       <r>    -3.6002    45.9980   374.6184 </r>
       <r>    -3.3425    60.7975   390.2877 </r>
       <r>    -3.0848    66.8543   407.5180 </r>
       <r>    -2.8270    69.3191   425.3837 </r>
       <r>    -2.5693    68.3107   442.9894 </r>
       <r>    -2.3116    59.1462   458.2331 </r>
       <r>    -2.0539    50.4888   471.2456 </r>
       <r>    -1.7961    54.1846   485.2106 </r>
       <r>    -1.5384    61.5484   501.0734 </r>
       <r>    -1.2807    64.2694   517.6376 </r>
       <r>    -1.0229    84.3995   539.3899 </r>
       <r>    -0.7652   111.9017   568.2303 </r>
       <r>    -0.5075   150.6658   607.0614 </r>
       <r>    -0.2497   170.7331   651.0644 </r>
       <r>     0.0080   136.0029   686.1164 </r>
       <r>     0.2657   107.2141   713.7487 </r>
       <r>     0.5234   111.7703   742.5553 </r>
       <r>     0.7812    94.0235   766.7879 </r>
       <r>     1.0389    59.7040   782.1754 </r>
       <r>     1.2966    54.8223   796.3048 </r>
       <r>     1.5544    62.5480   812.4253 </r>
       <r>     1.8121    65.6719   829.3509 </r>
       <r>     2.0698    57.4831   844.1660 </r>
       <r>     2.3276    49.2157   856.8504 </r>
       <r>     2.5853    30.6190   864.7418 </r>
       <r>     2.8430     8.0661   866.8207 </r>
       <r>     3.1007     6.5552   868.5101 </r>
       <r>     3.3585     7.7374   870.5043 </r>
       <r>     3.6162     6.8670   872.2741 </r>
       <r>     3.8739     7.3003   874.1556 </r>
       <r>     4.1317     7.7134   876.1436 </r>
       <r>     4.3894    10.9469   878.9649 </r>
       <r>     4.6471    17.0700   883.3644 </r>
       <r>     4.9049    17.6576   887.9153 </r>
       <r>     5.1626    14.0104   891.5262 </r>
       <r>     5.4203    19.9332   896.6635 </r>
       <r>     5.6780    19.9508   901.8055 </r>
       <r>     5.9358    20.2788   907.0319 </r>
       <r>     6.1935    29.4639   914.6257 </r>
       <r>     6.4512    36.6094   924.0610 </r>
       <r>     6.7090    33.8420   932.7831 </r>
       <r>     6.9667    41.4022   943.4537 </r>
       <r>     7.2244    42.4248   954.3878 </r>
       <r>     7.4822    20.0073   959.5443 </r>
       <r>     7.7399     1.7539   959.9963 </r>
       <r>     7.9976     0.0142   960.0000 </r>
       <r>     8.2553     0.0000   960.0000 </r>
       <r>     8.5131     0.0000   960.0000 </r>
       <r>     8.7708     0.0000   960.0000 </r>
       <r>     9.0285     0.0000   960.0000 </r>
       <r>     9.2863     0.0000   960.0000 </r>
       <r>     9.5440     0.0000   960.0000 </r>
       <r>     9.8017     0.0000   960.0000 </r>
       <r>    10.0595     0.0000   960.0000 </r>
       <r>    10.3172     0.0000   960.0000 </r>
       <r>    10.5749     0.0000   960.0000 </r>
       <r>    10.8326     0.0000   960.0000 </r>
      </set>
     </set>
    </array>
   </total>
  </dos>
 </calculation>
 <structure name="finalpos" >
  <crystal>
   <varray name="basis" >
    <v>      10.40335375      -4.78920500       0.00000000 </v>
    <v>       0.00000000       9.57841000       0.00000000 </v>
    <v>       0.00000000       0.00000000      20.50076286 </v>
   </varray>
   <i name="volume">   2042.85156262 </i>
   <varray name="rec_basis" >
    <v>       0.09612285       0.00000000       0.00000000 </v>
    <v>       0.04806142       0.10440146       0.00000000 </v>
    <v>       0.00000000       0.00000000       0.04877867 </v>
   </varray>
  </crystal>
  <varray name="positions" >
   <v>       0.58044680       0.07437514       0.34941513 </v>
   <v>       0.76256081       0.16543215       0.22731652 </v>
   <v>       0.94467483       0.25648915       0.10521791 </v>
   <v>       0.39833278       0.98331813       0.47151374 </v>
   <v>       0.03518947       0.80174648       0.26801605 </v>
   <v>       0.21730349       0.89280348       0.14591744 </v>
   <v>       0.67096144       0.61963246       0.51221327 </v>
   <v>       0.85307546       0.71068947       0.39011466 </v>
   <v>       0.12570412       0.34700380       0.43081420 </v>
   <v>       0.30781813       0.43806081       0.30871559 </v>
   <v>       0.48993215       0.52911781       0.18661698 </v>
   <v>       0.67204616       0.62017482       0.06451837 </v>
   <v>       0.23035801       0.03143375       0.40699537 </v>
   <v>       0.41247203       0.12249075       0.28489676 </v>
   <v>       0.59458604       0.21354776       0.16279815 </v>
   <v>       0.77670006       0.30460477       0.04069954 </v>
   <v>       0.04932872       0.94091910       0.08139907 </v>
   <v>       0.50298667       0.66774808       0.44769490 </v>
   <v>       0.68510069       0.75880508       0.32559629 </v>
   <v>       0.86721470       0.84986209       0.20349768 </v>
   <v>       0.13984337       0.48617642       0.24419722 </v>
   <v>       0.32195738       0.57723343       0.12209861 </v>
   <v>       0.50407140       0.66829044       0.00000000 </v>
   <v>       0.95772935       0.39511942       0.36629583 </v>
   <v>       0.39833278       0.24752413       0.47151374 </v>
   <v>       0.58044680       0.33858114       0.34941513 </v>
   <v>       0.76256081       0.42963815       0.22731652 </v>
   <v>       0.03518947       0.06595248       0.26801605 </v>
   <v>       0.21730349       0.15700948       0.14591744 </v>
   <v>       0.39941750       0.24806649       0.02381883 </v>
   <v>       0.67096144       0.88383846       0.51221327 </v>
   <v>       0.85307546       0.97489547       0.39011466 </v>
   <v>       0.12570412       0.61120980       0.43081420 </v>
   <v>       0.30781813       0.70226681       0.30871559 </v>
   <v>       0.48993215       0.79332382       0.18661698 </v>
   <v>       0.67204616       0.88438082       0.06451837 </v>
   <v>       0.18441112       0.17667530       0.48070540 </v>
   <v>       0.36652513       0.26773231       0.35860679 </v>
   <v>       0.54863915       0.35878931       0.23650818 </v>
   <v>       0.73075316       0.44984632       0.11440957 </v>
   <v>       0.00338182       0.08616065       0.15510911 </v>
   <v>       0.18549584       0.17721766       0.03301050 </v>
   <v>       0.63915379       0.90404664       0.39930633 </v>
   <v>       0.82126781       0.99510365       0.27720772 </v>
   <v>       0.09389647       0.63141797       0.31790726 </v>
   <v>       0.27601049       0.72247498       0.19580864 </v>
   <v>       0.45812450       0.81353199       0.07371003 </v>
   <v>       0.91178246       0.54036097       0.44000587 </v>
   <v>       0.12675994       0.47963471       0.07446623 </v>
   <v>       0.58041790       0.20646369       0.44076206 </v>
   <v>       0.76253191       0.29752070       0.31866345 </v>
   <v>       0.94464593       0.38857770       0.19656484 </v>
   <v>       0.21727459       0.02489203       0.23726438 </v>
   <v>       0.39938860       0.11594904       0.11516577 </v>
   <v>       0.03516057       0.93383503       0.35936299 </v>
   <v>       0.85304656       0.84277802       0.48146160 </v>
   <v>       0.30778923       0.57014936       0.40006253 </v>
   <v>       0.48990325       0.66120636       0.27796392 </v>
   <v>       0.67201726       0.75226337       0.15586531 </v>
   <v>       0.85413128       0.84332038       0.03376670 </v>
   <v>       0.54863915       0.02235931       0.23650818 </v>
   <v>       0.73075316       0.11341632       0.11440957 </v>
   <v>       0.18441112       0.84024530       0.48070540 </v>
   <v>       0.36652513       0.93130231       0.35860679 </v>
   <v>       0.00338182       0.74973065       0.15510911 </v>
   <v>       0.18549584       0.84078766       0.03301050 </v>
   <v>       0.63915379       0.56761664       0.39930633 </v>
   <v>       0.82126781       0.65867365       0.27720772 </v>
   <v>       0.09389647       0.29498797       0.31790726 </v>
   <v>       0.27601049       0.38604498       0.19580864 </v>
   <v>       0.45812450       0.47710199       0.07371003 </v>
   <v>       0.91178246       0.20393097       0.44000587 </v>
  </varray>
 </structure>
</modeling>
