<?xml version="1.0" encoding="ISO-8859-1"?>
<modeling>
 <generator>
  <i name="program" type="string">vasp </i>
  <i name="version" type="string">5.4.4.18Apr17-6-g9f103f2a35  </i>
  <i name="subversion" type="string">(build Aug 13 2019 17:33:20) gamma-only         parallel </i>
  <i name="platform" type="string">LinuxIFC </i>
  <i name="date" type="string">2020 05 12 </i>
  <i name="time" type="string">16:04:38 </i>
 </generator>
 <incar>
  <i type="string" name="SYSTEM">"Millerite NiS"</i>
  <i type="string" name="PREC">normal</i>
  <i type="int" name="NSIM">     4</i>
  <i type="int" name="NELM">   100</i>
  <i name="ENCUT">    450.00000000</i>
  <i type="string" name="LREAL">A</i>
  <i type="int" name="ISMEAR">     0</i>
  <i type="int" name="NWRITE">     2</i>
  <i type="logical" name="LWAVE"> F  </i>
  <i type="logical" name="LCHARG"> F  </i>
  <v type="int" name="KPOINT_BSE">    -1     0     0     0</v>
  <i type="int" name="NELM">   100</i>
 </incar>
 <structure name="primitive_cell" >
  <crystal>
   <varray name="basis" >
    <v>      10.07973298       0.00000000       0.00000000 </v>
    <v>       3.57329804       9.42510255       0.00000000 </v>
    <v>       0.00000000       0.00000000      20.51013988 </v>
   </varray>
   <i name="volume">   1948.51491473 </i>
   <varray name="rec_basis" >
    <v>       0.09920898      -0.03761267       0.00000000 </v>
    <v>       0.00000000       0.10609964       0.00000000 </v>
    <v>       0.00000000       0.00000000       0.04875637 </v>
   </varray>
  </crystal>
  <varray name="positions" >
   <v>       0.34400154      -0.27186884       0.15407644 </v>
   <v>       0.14670739      -0.15413438       0.12800997 </v>
   <v>       0.47740939      -0.48793304       0.12840637 </v>
   <v>       0.29697590      -0.30440289       0.25601994 </v>
   <v>       0.35837242      -0.26233814       0.04681479 </v>
   <v>      -0.47203578      -0.20205788       0.17147277 </v>
   <v>      -0.47539934      -0.39890632       0.22312232 </v>
   <v>      -0.44729294      -0.33725506       0.09093947 </v>
   <v>       0.20166063      -0.34137845       0.07220039 </v>
   <v>       0.09282582      -0.30046480       0.19815030 </v>
   <v>       0.13252766      -0.07596064       0.23197130 </v>
   <v>       0.14454139      -0.48530171       0.12880278 </v>
   <v>       0.24425506       0.07855462       0.21374635 </v>
   <v>       0.36568198       0.35755170       0.14663132 </v>
   <v>       0.47624865      -0.01722097       0.24082029 </v>
   <v>      -0.29059702       0.41629137       0.15548031 </v>
   <v>      -0.25089518      -0.35920447       0.18930132 </v>
   <v>       0.33494549       0.12960723       0.13028272 </v>
   <v>      -0.05744270      -0.15019629       0.07014033 </v>
   <v>      -0.01774085       0.07430787       0.10396133 </v>
   <v>      -0.23671545      -0.43737821       0.08533998 </v>
   <v>      -0.28576563      -0.20138772       0.09788223 </v>
   <v>       0.24309433      -0.45073331       0.32616027 </v>
   <v>       0.28279617      -0.22622916       0.35998128 </v>
   <v>      -0.37232210       0.36179845       0.25641634 </v>
   <v>      -0.32176726      -0.35232639       0.29948274 </v>
   <v>       0.04348252      -0.30769176       0.00764543 </v>
   <v>       0.29480990       0.36442978       0.25681275 </v>
   <v>       0.39452358      -0.07171389       0.34175632 </v>
   <v>      -0.01262507      -0.00456839       0.01499242 </v>
   <v>      -0.13916777      -0.20468921       0.17107636 </v>
   <v>      -0.09197650      -0.11566249       0.26579231 </v>
   <v>      -0.08861294       0.08118595       0.21414276 </v>
   <v>       0.01110074      -0.35495773       0.29908634 </v>
   <v>       0.06165557      -0.06908256       0.34215273 </v>
   <v>       0.08368834       0.22752047       0.10076028 </v>
   <v>      -0.46986977       0.12910945       0.17067996 </v>
   <v>       0.44724441      -0.45467140       0.38402991 </v>
   <v>       0.35732718       0.26275702       0.05885488 </v>
   <v>       0.14117783       0.31784985       0.18045233 </v>
   <v>      -0.39348331      -0.16206950       0.36028598 </v>
   <v>       0.29144634       0.16758134       0.30846230 </v>
   <v>      -0.32513082       0.45082517       0.35113229 </v>
   <v>      -0.24105615       0.22625106       0.09903911 </v>
   <v>      -0.43038985       0.18066553       0.07435518 </v>
   <v>       0.06081402      -0.26528594       0.38223139 </v>
   <v>      -0.48404950       0.20728318       0.27464130 </v>
   <v>      -0.03964457       0.45052651       0.11514599 </v>
   <v>      -0.08644694       0.41235328       0.21334995 </v>
   <v>      -0.24224501       0.03460603       0.13778234 </v>
   <v>      -0.28289311      -0.02661915       0.04625935 </v>
   <v>      -0.31960126      -0.02115906       0.29868993 </v>
   <v>      -0.14032851       0.26602286       0.28349028 </v>
   <v>      -0.10062667       0.49052701       0.31731128 </v>
   <v>       0.17791514      -0.20517296       0.45033354 </v>
   <v>       0.16261898      -0.49246580       0.41449913 </v>
   <v>       0.06382158       0.26208477       0.34135992 </v>
   <v>      -0.38715708      -0.39517712       0.44182176 </v>
   <v>       0.48999191      -0.18523463       0.45298594 </v>
   <v>       0.41752278       0.03349931       0.42336478 </v>
   <v>       0.37580695      -0.34150730       0.47055474 </v>
   <v>       0.38008123       0.41215076       0.43791834 </v>
   <v>       0.00994000       0.11575434       0.41150025 </v>
   <v>       0.44507841       0.21416127       0.38482272 </v>
   <v>       0.20149431       0.13768669       0.44298594 </v>
   <v>      -0.22205359       0.21152993       0.38442632 </v>
   <v>      -0.17149875       0.49740510       0.42749271 </v>
   <v>      -0.34857280       0.08469534       0.38425476 </v>
   <v>      -0.46191390       0.46499048       0.49760882 </v>
   <v>      -0.25211983       0.34799072       0.46299670 </v>
   <v>       0.03834758       0.34497449       0.43370782 </v>
   <v>      -0.05164517       0.23473498       0.49463775 </v>
  </varray>
 </structure>
 <varray name="primitive_index" >
  <v type="int" >        1 </v>
  <v type="int" >       41 </v>
  <v type="int" >       61 </v>
  <v type="int" >       42 </v>
  <v type="int" >       60 </v>
  <v type="int" >       49 </v>
  <v type="int" >        2 </v>
  <v type="int" >       14 </v>
  <v type="int" >       33 </v>
  <v type="int" >       17 </v>
  <v type="int" >       30 </v>
  <v type="int" >       56 </v>
  <v type="int" >       70 </v>
  <v type="int" >       34 </v>
  <v type="int" >       22 </v>
  <v type="int" >       15 </v>
  <v type="int" >       27 </v>
  <v type="int" >       21 </v>
  <v type="int" >       20 </v>
  <v type="int" >       29 </v>
  <v type="int" >       39 </v>
  <v type="int" >       26 </v>
  <v type="int" >       18 </v>
  <v type="int" >       31 </v>
  <v type="int" >       62 </v>
  <v type="int" >       50 </v>
  <v type="int" >       59 </v>
  <v type="int" >       57 </v>
  <v type="int" >       71 </v>
  <v type="int" >       45 </v>
  <v type="int" >       68 </v>
  <v type="int" >        8 </v>
  <v type="int" >       53 </v>
  <v type="int" >       65 </v>
  <v type="int" >       54 </v>
  <v type="int" >       69 </v>
  <v type="int" >       47 </v>
  <v type="int" >       43 </v>
  <v type="int" >       46 </v>
  <v type="int" >        9 </v>
  <v type="int" >       23 </v>
  <v type="int" >       10 </v>
  <v type="int" >        3 </v>
  <v type="int" >       52 </v>
  <v type="int" >        5 </v>
  <v type="int" >        7 </v>
  <v type="int" >       35 </v>
  <v type="int" >       12 </v>
  <v type="int" >       40 </v>
  <v type="int" >        6 </v>
  <v type="int" >       67 </v>
  <v type="int" >       48 </v>
  <v type="int" >       16 </v>
  <v type="int" >       28 </v>
  <v type="int" >       55 </v>
  <v type="int" >       66 </v>
  <v type="int" >       37 </v>
  <v type="int" >       24 </v>
  <v type="int" >       72 </v>
  <v type="int" >       11 </v>
  <v type="int" >       32 </v>
  <v type="int" >       19 </v>
  <v type="int" >       13 </v>
  <v type="int" >       58 </v>
  <v type="int" >       38 </v>
  <v type="int" >       63 </v>
  <v type="int" >       51 </v>
  <v type="int" >       36 </v>
  <v type="int" >       44 </v>
  <v type="int" >        4 </v>
  <v type="int" >       25 </v>
  <v type="int" >       64 </v>
 </varray>
 <kpoints>
  <generation param="Gamma">
   <v type="int" name="divisions">       1        1        1 </v>
   <v name="usershift">      0.00000000       0.00000000       0.00000000 </v>
   <v name="genvec1">      1.00000000       0.00000000       0.00000000 </v>
   <v name="genvec2">      0.00000000       1.00000000       0.00000000 </v>
   <v name="genvec3">      0.00000000       0.00000000       1.00000000 </v>
   <v name="shift">      0.00000000       0.00000000       0.00000000 </v>
  </generation>
  <varray name="kpointlist" >
   <v>       0.00000000       0.00000000       0.00000000 </v>
  </varray>
  <varray name="weights" >
   <v>       1.00000000 </v>
  </varray>
 </kpoints>
 <parameters>
  <separator name="general" >
   <i type="string" name="SYSTEM">"Millerite NiS"</i>
   <i type="logical" name="LCOMPAT"> F  </i>
  </separator>
  <separator name="electronic" >
   <i type="string" name="PREC">normal</i>
   <i name="ENMAX">    450.00000000</i>
   <i name="ENAUG">    703.44300000</i>
   <i name="EDIFF">      0.00010000</i>
   <i type="int" name="IALGO">    38</i>
   <i type="int" name="IWAVPR">    10</i>
   <i type="int" name="NBANDS">   476</i>
   <i name="NELECT">    792.00000000</i>
   <i type="int" name="TURBO">     0</i>
   <i type="int" name="IRESTART">     0</i>
   <i type="int" name="NREBOOT">     0</i>
   <i type="int" name="NMIN">     0</i>
   <i name="EREF">      0.00000000</i>
   <separator name="electronic smearing" >
    <i type="int" name="ISMEAR">     0</i>
    <i name="SIGMA">      0.20000000</i>
    <i name="KSPACING">      0.50000000</i>
    <i type="logical" name="KGAMMA"> T  </i>
   </separator>
   <separator name="electronic projectors" >
    <i type="logical" name="LREAL"> T  </i>
    <v name="ROPT">     -0.00050000     -0.00050000</v>
    <i type="int" name="LMAXPAW">  -100</i>
    <i type="int" name="LMAXMIX">     2</i>
    <i type="logical" name="NLSPLINE"> F  </i>
   </separator>
   <separator name="electronic startup" >
    <i type="int" name="ISTART">     0</i>
    <i type="int" name="ICHARG">     2</i>
    <i type="int" name="INIWAV">     1</i>
   </separator>
   <separator name="electronic spin" >
    <i type="int" name="ISPIN">     1</i>
    <i type="logical" name="LNONCOLLINEAR"> F  </i>
    <v name="MAGMOM">      1.00000000      1.00000000      1.00000000      1.00000000      1.00000000      1.00000000      1.00000000      1.00000000      1.00000000      1.00000000      1.00000000      1.00000000      1.00000000      1.00000000      1.00000000      1.00000000      1.00000000      1.00000000      1.00000000      1.00000000
      1.00000000      1.00000000      1.00000000      1.00000000      1.00000000      1.00000000      1.00000000      1.00000000      1.00000000      1.00000000      1.00000000      1.00000000      1.00000000      1.00000000      1.00000000      1.00000000      1.00000000      1.00000000      1.00000000      1.00000000
      1.00000000      1.00000000      1.00000000      1.00000000      1.00000000      1.00000000      1.00000000      1.00000000      1.00000000      1.00000000      1.00000000      1.00000000      1.00000000      1.00000000      1.00000000      1.00000000      1.00000000      1.00000000      1.00000000      1.00000000
      1.00000000      1.00000000      1.00000000      1.00000000      1.00000000      1.00000000      1.00000000      1.00000000      1.00000000      1.00000000      1.00000000      1.00000000</v>
    <i name="NUPDOWN">     -1.00000000</i>
    <i type="logical" name="LSORBIT"> F  </i>
    <v name="SAXIS">      0.00000000      0.00000000      1.00000000</v>
    <i type="logical" name="LSPIRAL"> F  </i>
    <v name="QSPIRAL">      0.00000000      0.00000000      0.00000000</v>
    <i type="logical" name="LZEROZ"> F  </i>
   </separator>
   <separator name="electronic exchange-correlation" >
    <i type="logical" name="LASPH"> F  </i>
    <i type="logical" name="LMETAGGA"> F  </i>
   </separator>
   <separator name="electronic convergence" >
    <i type="int" name="NELM">   100</i>
    <i type="int" name="NELMDL">    -5</i>
    <i type="int" name="NELMIN">     2</i>
    <i name="ENINI">    450.00000000</i>
    <separator name="electronic convergence detail" >
     <i type="logical" name="LDIAG"> T  </i>
     <i type="logical" name="LSUBROT"> F  </i>
     <i name="WEIMIN">      0.00000000</i>
     <i name="EBREAK">      0.00000005</i>
     <i name="DEPER">      0.30000000</i>
     <i type="int" name="NRMM">     4</i>
     <i name="TIME">      0.40000000</i>
    </separator>
   </separator>
   <separator name="electronic mixer" >
    <i name="AMIX">      0.40000000</i>
    <i name="BMIX">      1.00000000</i>
    <i name="AMIN">      0.10000000</i>
    <i name="AMIX_MAG">      1.60000000</i>
    <i name="BMIX_MAG">      1.00000000</i>
    <separator name="electronic mixer details" >
     <i type="int" name="IMIX">     4</i>
     <i type="logical" name="MIXFIRST"> F  </i>
     <i type="int" name="MAXMIX">   -45</i>
     <i name="WC">    100.00000000</i>
     <i type="int" name="INIMIX">     1</i>
     <i type="int" name="MIXPRE">     1</i>
     <i type="int" name="MREMOVE">     5</i>
    </separator>
   </separator>
   <separator name="electronic dipolcorrection" >
    <i type="logical" name="LDIPOL"> F  </i>
    <i type="logical" name="LMONO"> F  </i>
    <i type="int" name="IDIPOL">     0</i>
    <i name="EPSILON">      1.00000000</i>
    <v name="DIPOL">   -100.00000000   -100.00000000   -100.00000000</v>
    <i name="EFIELD">      0.00000000</i>
   </separator>
  </separator>
  <separator name="grids" >
   <i type="int" name="NGX">    54</i>
   <i type="int" name="NGY">    54</i>
   <i type="int" name="NGZ">   108</i>
   <i type="int" name="NGXF">   108</i>
   <i type="int" name="NGYF">   108</i>
   <i type="int" name="NGZF">   216</i>
   <i type="logical" name="ADDGRID"> F  </i>
  </separator>
  <separator name="ionic" >
   <i type="int" name="NSW">     0</i>
   <i type="int" name="IBRION">    -1</i>
   <i type="int" name="MDALGO">     0</i>
   <i type="int" name="ISIF">     2</i>
   <i name="PSTRESS">      0.00000000</i>
   <i name="EDIFFG">      0.00100000</i>
   <i type="int" name="NFREE">     0</i>
   <i name="POTIM">      0.50000000</i>
   <i name="SMASS">     -3.00000000</i>
   <i name="SCALEE">      1.00000000</i>
  </separator>
  <separator name="ionic md" >
   <i name="TEBEG">      0.00010000</i>
   <i name="TEEND">      0.00010000</i>
   <i type="int" name="NBLOCK">     1</i>
   <i type="int" name="KBLOCK">     1</i>
   <i type="int" name="NPACO">   256</i>
   <i name="APACO">     16.00000000</i>
  </separator>
  <separator name="symmetry" >
   <i type="int" name="ISYM">     2</i>
   <i name="SYMPREC">      0.00001000</i>
  </separator>
  <separator name="dos" >
   <i type="int" name="LORBIT">     0</i>
   <v name="RWIGS">     -1.00000000     -1.00000000</v>
   <i type="int" name="NEDOS">   301</i>
   <i name="EMIN">     10.00000000</i>
   <i name="EMAX">    -10.00000000</i>
   <i name="EFERMI">      0.00000000</i>
  </separator>
  <separator name="writing" >
   <i type="int" name="NWRITE">     2</i>
   <i type="logical" name="LWAVE"> F  </i>
   <i type="logical" name="LDOWNSAMPLE"> F  </i>
   <i type="logical" name="LCHARG"> F  </i>
   <i type="logical" name="LPARD"> F  </i>
   <i type="logical" name="LVTOT"> F  </i>
   <i type="logical" name="LVHAR"> F  </i>
   <i type="logical" name="LELF"> F  </i>
   <i type="logical" name="LOPTICS"> F  </i>
   <v name="STM">      0.00000000      0.00000000      0.00000000      0.00000000      0.00000000      0.00000000      0.00000000</v>
  </separator>
  <separator name="performance" >
   <i type="int" name="NPAR">     2</i>
   <i type="int" name="NSIM">     4</i>
   <i type="int" name="NBLK">    -1</i>
   <i type="logical" name="LPLANE"> T  </i>
   <i type="logical" name="LSCALAPACK"> T  </i>
   <i type="logical" name="LSCAAWARE"> F  </i>
   <i type="logical" name="LSCALU"> F  </i>
   <i type="logical" name="LASYNC"> F  </i>
   <i type="logical" name="LORBITALREAL"> F  </i>
  </separator>
  <separator name="miscellaneous" >
   <i type="int" name="IDIOT">     3</i>
   <i type="int" name="ISPECIAL">     0</i>
   <i type="logical" name="LMUSIC"> F  </i>
   <v name="POMASS">     58.69000000     32.06600000</v>
   <v name="DARWINR">      0.00000000      0.00000000</v>
   <v name="DARWINV">      1.00000000      1.00000000</v>
   <i type="logical" name="LCORR"> T  </i>
  </separator>
  <i type="logical" name="GGA_COMPAT"> T  </i>
  <i type="logical" name="LBERRY"> F  </i>
  <i type="int" name="ICORELEVEL">     0</i>
  <i type="logical" name="LDAU"> F  </i>
  <i type="int" name="I_CONSTRAINED_M">     0</i>
  <separator name="electronic exchange-correlation" >
   <i type="string" name="GGA">--</i>
   <i type="int" name="VOSKOWN">     0</i>
   <i type="logical" name="LHFCALC"> F  </i>
   <i type="string" name="PRECFOCK"></i>
   <i type="logical" name="LSYMGRAD"> F  </i>
   <i type="logical" name="LHFONE"> F  </i>
   <i type="logical" name="LRHFCALC"> F  </i>
   <i type="logical" name="LTHOMAS"> F  </i>
   <i type="logical" name="LMODELHF"> F  </i>
   <i name="ENCUT4O">     -1.00000000</i>
   <i type="int" name="EXXOEP">     0</i>
   <i type="int" name="FOURORBIT">     0</i>
   <i name="AEXX">      0.00000000</i>
   <i name="HFALPHA">      0.00000000</i>
   <i name="MCALPHA">      0.00000000</i>
   <i name="ALDAX">      1.00000000</i>
   <i name="AGGAX">      1.00000000</i>
   <i name="ALDAC">      1.00000000</i>
   <i name="AGGAC">      1.00000000</i>
   <i type="int" name="NKREDX">     1</i>
   <i type="int" name="NKREDY">     1</i>
   <i type="int" name="NKREDZ">     1</i>
   <i type="logical" name="SHIFTRED"> F  </i>
   <i type="logical" name="ODDONLY"> F  </i>
   <i type="logical" name="EVENONLY"> F  </i>
   <i type="int" name="LMAXFOCK">     0</i>
   <i type="int" name="NMAXFOCKAE">     0</i>
   <i type="logical" name="LFOCKAEDFT"> F  </i>
   <i name="HFSCREEN">      0.00000000</i>
   <i name="HFSCREENC">      0.00000000</i>
   <i type="int" name="NBANDSGWLOW">     0</i>
  </separator>
  <separator name="vdW DFT" >
   <i type="logical" name="LUSE_VDW"> F  </i>
   <i name="Zab_VDW">     -0.84910000</i>
   <i name="PARAM1">      0.12340000</i>
   <i name="PARAM2">      1.00000000</i>
   <i name="PARAM3">      0.00000000</i>
  </separator>
  <separator name="model GW" >
   <i type="int" name="MODEL_GW">     0</i>
   <i name="MODEL_EPS0">     16.23762429</i>
   <i name="MODEL_ALPHA">      1.00000000</i>
  </separator>
  <separator name="linear response parameters" >
   <i type="logical" name="LEPSILON"> F  </i>
   <i type="logical" name="LRPA"> F  </i>
   <i type="logical" name="LNABLA"> F  </i>
   <i type="logical" name="LVEL"> F  </i>
   <i type="int" name="KINTER">     0</i>
   <i name="CSHIFT">      0.10000000</i>
   <i name="OMEGAMAX">     -1.00000000</i>
   <i name="DEG_THRESHOLD">      0.00200000</i>
   <i name="RTIME">     -0.10000000</i>
   <i name="WPLASMAI">      0.00000000</i>
   <v name="DFIELD">      0.00000000      0.00000000      0.00000000</v>
   <v name="WPLASMA">      0.00000000      0.00000000      0.00000000      0.00000000      0.00000000      0.00000000      0.00000000      0.00000000      0.00000000</v>
  </separator>
  <separator name="orbital magnetization" >
   <i type="logical" name="NUCIND"> F  </i>
   <v name="MAGPOS">      0.00000000      0.00000000      0.00000000</v>
   <i type="logical" name="LNICSALL"> T  </i>
   <i type="logical" name="ORBITALMAG"> F  </i>
   <i type="logical" name="LMAGBLOCH"> F  </i>
   <i type="logical" name="LCHIMAG"> F  </i>
   <i type="logical" name="LGAUGE"> T  </i>
   <i type="int" name="MAGATOM">     0</i>
   <v name="MAGDIPOL">      0.00000000      0.00000000      0.00000000</v>
   <v name="AVECCONST">      0.00000000      0.00000000      0.00000000</v>
  </separator>
  <separator name="response functions" >
   <i type="logical" name="LADDER"> F  </i>
   <i type="logical" name="LRPAFORCE"> F  </i>
   <i type="logical" name="LFXC"> F  </i>
   <i type="logical" name="LHARTREE"> T  </i>
   <i type="int" name="IBSE">     0</i>
   <v type="int" name="KPOINT">    -1     0     0     0</v>
   <i type="logical" name="LTCTE"> F  </i>
   <i type="logical" name="LTETE"> F  </i>
   <i type="logical" name="LTRIPLET"> F  </i>
   <i type="logical" name="LFXCEPS"> F  </i>
   <i type="logical" name="LFXHEG"> F  </i>
   <i type="int" name="NATURALO">     2</i>
   <i type="logical" name="L2ORDER"> F  </i>
   <i type="logical" name="LMP2LT"> F  </i>
   <i type="logical" name="LUSEW"> F  </i>
   <i name="ENCUTGW">     -2.00000000</i>
   <i name="ENCUTGWSOFT">     -2.00000000</i>
   <i name="ENCUTLF">     -1.00000000</i>
   <i type="int" name="LMAXMP2">    -1</i>
   <i name="SCISSOR">      0.00000000</i>
   <i type="int" name="NOMEGA">     0</i>
   <i type="int" name="NOMEGAR">     0</i>
   <i type="int" name="NBANDSGW">    -1</i>
   <i type="int" name="NBANDSO">    -1</i>
   <i type="int" name="NBANDSV">    -1</i>
   <i type="int" name="NELM">   100</i>
   <i type="int" name="NELMHF">     1</i>
   <i type="int" name="DIM">     3</i>
   <i type="int" name="ANTIRES">     0</i>
   <i name="OMEGAMAX">    -30.00000000</i>
   <i name="OMEGAMIN">    -30.00000000</i>
   <i name="OMEGATL">   -200.00000000</i>
   <i type="int" name="OMEGAGRID">   140</i>
   <i name="CSHIFT">     -0.10000000</i>
   <i type="logical" name="SELFENERGY"> F  </i>
   <i type="logical" name="LSPECTRAL"> F  </i>
   <i type="logical" name="LSPECTRALGW"> F  </i>
   <i type="logical" name="LSINGLES"> F  </i>
   <i type="logical" name="LFERMIGW"> F  </i>
   <i type="logical" name="ODDONLYGW"> F  </i>
   <i type="logical" name="EVENONLYGW"> F  </i>
   <i type="int" name="NKREDLFX">     1</i>
   <i type="int" name="NKREDLFY">     1</i>
   <i type="int" name="NKREDLFZ">     1</i>
   <i type="int" name="MAXMEM">  2800</i>
   <i type="int" name="TELESCOPE">     0</i>
   <i type="int" name="TAUPAR">     1</i>
   <i type="int" name="OMEGAPAR">    -1</i>
   <i name="LAMBDA">      1.00000000</i>
  </separator>
  <separator name="External order field" >
   <i name="OFIELD_KAPPA">      0.00000000</i>
   <v name="OFIELD_K">      0.00000000      0.00000000      0.00000000</v>
   <i name="OFIELD_Q6_NEAR">      0.00000000</i>
   <i name="OFIELD_Q6_FAR">      0.00000000</i>
   <i name="OFIELD_A">      0.00000000</i>
  </separator>
 </parameters>
 <atominfo>
  <atoms>      72 </atoms>
  <types>       2 </types>
  <array name="atoms" >
   <dimension dim="1">ion</dimension>
   <field type="string">element</field>
   <field type="int">atomtype</field>
   <set>
    <rc><c>Ni</c><c>   1</c></rc>
    <rc><c>Ni</c><c>   1</c></rc>
    <rc><c>Ni</c><c>   1</c></rc>
    <rc><c>Ni</c><c>   1</c></rc>
    <rc><c>Ni</c><c>   1</c></rc>
    <rc><c>Ni</c><c>   1</c></rc>
    <rc><c>Ni</c><c>   1</c></rc>
    <rc><c>Ni</c><c>   1</c></rc>
    <rc><c>Ni</c><c>   1</c></rc>
    <rc><c>Ni</c><c>   1</c></rc>
    <rc><c>Ni</c><c>   1</c></rc>
    <rc><c>Ni</c><c>   1</c></rc>
    <rc><c>Ni</c><c>   1</c></rc>
    <rc><c>Ni</c><c>   1</c></rc>
    <rc><c>Ni</c><c>   1</c></rc>
    <rc><c>Ni</c><c>   1</c></rc>
    <rc><c>Ni</c><c>   1</c></rc>
    <rc><c>Ni</c><c>   1</c></rc>
    <rc><c>Ni</c><c>   1</c></rc>
    <rc><c>Ni</c><c>   1</c></rc>
    <rc><c>Ni</c><c>   1</c></rc>
    <rc><c>Ni</c><c>   1</c></rc>
    <rc><c>Ni</c><c>   1</c></rc>
    <rc><c>Ni</c><c>   1</c></rc>
    <rc><c>Ni</c><c>   1</c></rc>
    <rc><c>Ni</c><c>   1</c></rc>
    <rc><c>Ni</c><c>   1</c></rc>
    <rc><c>Ni</c><c>   1</c></rc>
    <rc><c>Ni</c><c>   1</c></rc>
    <rc><c>Ni</c><c>   1</c></rc>
    <rc><c>Ni</c><c>   1</c></rc>
    <rc><c>Ni</c><c>   1</c></rc>
    <rc><c>Ni</c><c>   1</c></rc>
    <rc><c>Ni</c><c>   1</c></rc>
    <rc><c>Ni</c><c>   1</c></rc>
    <rc><c>Ni</c><c>   1</c></rc>
    <rc><c>S </c><c>   2</c></rc>
    <rc><c>S </c><c>   2</c></rc>
    <rc><c>S </c><c>   2</c></rc>
    <rc><c>S </c><c>   2</c></rc>
    <rc><c>S </c><c>   2</c></rc>
    <rc><c>S </c><c>   2</c></rc>
    <rc><c>S </c><c>   2</c></rc>
    <rc><c>S </c><c>   2</c></rc>
    <rc><c>S </c><c>   2</c></rc>
    <rc><c>S </c><c>   2</c></rc>
    <rc><c>S </c><c>   2</c></rc>
    <rc><c>S </c><c>   2</c></rc>
    <rc><c>S </c><c>   2</c></rc>
    <rc><c>S </c><c>   2</c></rc>
    <rc><c>S </c><c>   2</c></rc>
    <rc><c>S </c><c>   2</c></rc>
    <rc><c>S </c><c>   2</c></rc>
    <rc><c>S </c><c>   2</c></rc>
    <rc><c>S </c><c>   2</c></rc>
    <rc><c>S </c><c>   2</c></rc>
    <rc><c>S </c><c>   2</c></rc>
    <rc><c>S </c><c>   2</c></rc>
    <rc><c>S </c><c>   2</c></rc>
    <rc><c>S </c><c>   2</c></rc>
    <rc><c>S </c><c>   2</c></rc>
    <rc><c>S </c><c>   2</c></rc>
    <rc><c>S </c><c>   2</c></rc>
    <rc><c>S </c><c>   2</c></rc>
    <rc><c>S </c><c>   2</c></rc>
    <rc><c>S </c><c>   2</c></rc>
    <rc><c>S </c><c>   2</c></rc>
    <rc><c>S </c><c>   2</c></rc>
    <rc><c>S </c><c>   2</c></rc>
    <rc><c>S </c><c>   2</c></rc>
    <rc><c>S </c><c>   2</c></rc>
    <rc><c>S </c><c>   2</c></rc>
   </set>
  </array>
  <array name="atomtypes" >
   <dimension dim="1">type</dimension>
   <field type="int">atomspertype</field>
   <field type="string">element</field>
   <field>mass</field>
   <field>valence</field>
   <field type="string">pseudopotential</field>
   <set>
    <rc><c>  36</c><c>Ni</c><c>     58.69000000</c><c>     16.00000000</c><c>  PAW_PBE Ni_pv 06Sep2000               </c></rc>
    <rc><c>  36</c><c>S </c><c>     32.06600000</c><c>      6.00000000</c><c>  PAW_PBE S 06Sep2000                   </c></rc>
   </set>
  </array>
 </atominfo>
 <structure name="initialpos" >
  <crystal>
   <varray name="basis" >
    <v>      10.07973298       0.00000000       0.00000000 </v>
    <v>       3.57329804       9.42510255       0.00000000 </v>
    <v>       0.00000000       0.00000000      20.51013988 </v>
   </varray>
   <i name="volume">   1948.51491473 </i>
   <varray name="rec_basis" >
    <v>       0.09920898      -0.03761267       0.00000000 </v>
    <v>       0.00000000       0.10609964       0.00000000 </v>
    <v>       0.00000000       0.00000000       0.04875637 </v>
   </varray>
  </crystal>
  <varray name="positions" >
   <v>       0.34400154       0.72813116       0.15407644 </v>
   <v>       0.52460066       0.60109368       0.22312232 </v>
   <v>       0.67486918       0.45082517       0.35113229 </v>
   <v>       0.74788017       0.34799072       0.46299670 </v>
   <v>       0.56961015       0.18066553       0.07435518 </v>
   <v>       0.75775499       0.03460603       0.13778234 </v>
   <v>       0.06081402       0.73471406       0.38223139 </v>
   <v>       0.90802350       0.88433751       0.26579231 </v>
   <v>       0.14117783       0.31784985       0.18045233 </v>
   <v>       0.29144634       0.16758134       0.30846230 </v>
   <v>       0.41752278       0.03349931       0.42336478 </v>
   <v>       0.96035543       0.45052651       0.11514599 </v>
   <v>       0.00994000       0.11575434       0.41150025 </v>
   <v>       0.55270706       0.66274494       0.09093947 </v>
   <v>       0.70940298       0.41629137       0.15548031 </v>
   <v>       0.85967149       0.26602286       0.28349028 </v>
   <v>       0.09282582       0.69953520       0.19815030 </v>
   <v>       0.24309433       0.54926669       0.32616027 </v>
   <v>       0.38008123       0.41215076       0.43791834 </v>
   <v>       0.94255730       0.84980371       0.07014033 </v>
   <v>       0.33494549       0.12960723       0.13028272 </v>
   <v>       0.47624865       0.98277903       0.24082029 </v>
   <v>       0.60651669       0.83793050       0.36028598 </v>
   <v>       0.61284292       0.60482288       0.44182176 </v>
   <v>       0.03834758       0.34497449       0.43370782 </v>
   <v>       0.71423437       0.79861228       0.09788223 </v>
   <v>       0.74910482       0.64079553       0.18930132 </v>
   <v>       0.89937333       0.49052701       0.31731128 </v>
   <v>       0.98225915       0.07430787       0.10396133 </v>
   <v>       0.13252766       0.92403936       0.23197130 </v>
   <v>       0.28279617       0.77377084       0.35998128 </v>
   <v>       0.37580695       0.65849270       0.47055474 </v>
   <v>       0.20166063       0.65862155       0.07220039 </v>
   <v>       0.36568198       0.35755170       0.14663132 </v>
   <v>       0.51595050       0.20728318       0.27464130 </v>
   <v>       0.65142720       0.08469534       0.38425476 </v>
   <v>       0.06382158       0.26208477       0.34135992 </v>
   <v>       0.20149431       0.13768669       0.44298594 </v>
   <v>       0.76328455       0.56262179       0.08533998 </v>
   <v>       0.91355306       0.41235328       0.21334995 </v>
   <v>       0.14670739       0.84586562       0.12800997 </v>
   <v>       0.29697590       0.69559711       0.25601994 </v>
   <v>       0.44724441       0.54532860       0.38402991 </v>
   <v>       0.53808610       0.46499048       0.49760882 </v>
   <v>       0.98737493       0.99543161       0.01499242 </v>
   <v>       0.35732718       0.26275702       0.05885488 </v>
   <v>       0.53013023       0.12910945       0.17067996 </v>
   <v>       0.68039874       0.97884094       0.29868993 </v>
   <v>       0.52796422       0.79794212       0.17147277 </v>
   <v>       0.67823274       0.64767361       0.29948274 </v>
   <v>       0.82850125       0.49740510       0.42749271 </v>
   <v>       0.75894385       0.22625106       0.09903911 </v>
   <v>       0.91138706       0.08118595       0.21414276 </v>
   <v>       0.06165557       0.93091744       0.34215273 </v>
   <v>       0.17791514       0.79482704       0.45033354 </v>
   <v>       0.14454139       0.51469829       0.12880278 </v>
   <v>       0.29480990       0.36442978       0.25681275 </v>
   <v>       0.44507841       0.21416127       0.38482272 </v>
   <v>       0.04348252       0.69230824       0.00764543 </v>
   <v>       0.35837242       0.73766186       0.04681479 </v>
   <v>       0.47740939       0.51206696       0.12840637 </v>
   <v>       0.62767790       0.36179845       0.25641634 </v>
   <v>       0.77794641       0.21152993       0.38442632 </v>
   <v>       0.94835483       0.23473498       0.49463775 </v>
   <v>       0.01110074       0.64504227       0.29908634 </v>
   <v>       0.16261898       0.50753420       0.41449913 </v>
   <v>       0.71710689       0.97338085       0.04625935 </v>
   <v>       0.86083223       0.79531079       0.17107636 </v>
   <v>       0.08368834       0.22752047       0.10076028 </v>
   <v>       0.24425506       0.07855462       0.21374635 </v>
   <v>       0.39452358       0.92828611       0.34175632 </v>
   <v>       0.48999191       0.81476537       0.45298594 </v>
  </varray>
 </structure>
 <calculation>
  <scstep>
   <time name="dav">    6.77    6.77</time>
   <time name="total">    7.05    7.05</time>
   <energy>
    <i name="alphaZ">   1909.09476555 </i>
    <i name="ewald"> 221545.38951169 </i>
    <i name="hartreedc">-343763.46041717 </i>
    <i name="XCdc">   3682.96982791 </i>
    <i name="pawpsdc"> 112729.53333415 </i>
    <i name="pawaedc">-117641.51188735 </i>
    <i name="eentropy">     -0.27662495 </i>
    <i name="bandstr">  -4449.49282935 </i>
    <i name="atom"> 136002.60505376 </i>
    <i name="e_fr_energy">  10014.85073425 </i>
    <i name="e_wo_entrp">  10015.12735920 </i>
    <i name="e_0_energy">  10014.98904673 </i>
   </energy>
  </scstep>
  <scstep>
   <time name="dav">    6.15    6.15</time>
   <time name="total">    6.15    6.15</time>
   <energy>
    <i name="e_fr_energy">    617.04227765 </i>
    <i name="e_wo_entrp">    617.85277715 </i>
    <i name="e_0_energy">    617.44752740 </i>
   </energy>
  </scstep>
  <scstep>
   <time name="dav">    6.44    6.44</time>
   <time name="total">    6.44    6.44</time>
   <energy>
    <i name="e_fr_energy">   -337.33605547 </i>
    <i name="e_wo_entrp">   -336.32868794 </i>
    <i name="e_0_energy">   -336.83237170 </i>
   </energy>
  </scstep>
  <scstep>
   <time name="dav">    6.89    6.89</time>
   <time name="total">    6.89    6.89</time>
   <energy>
    <i name="e_fr_energy">   -396.09793427 </i>
    <i name="e_wo_entrp">   -395.08100477 </i>
    <i name="e_0_energy">   -395.58946952 </i>
   </energy>
  </scstep>
  <scstep>
   <time name="dav">    7.08    7.08</time>
   <time name="total">    7.30    7.30</time>
   <energy>
    <i name="e_fr_energy">   -398.20561242 </i>
    <i name="e_wo_entrp">   -397.18843356 </i>
    <i name="e_0_energy">   -397.69702299 </i>
   </energy>
  </scstep>
  <scstep>
   <time name="dav">    6.89    6.89</time>
   <time name="total">    7.38    7.38</time>
   <energy>
    <i name="e_fr_energy">   -463.27373285 </i>
    <i name="e_wo_entrp">   -462.55445823 </i>
    <i name="e_0_energy">   -462.91409554 </i>
   </energy>
  </scstep>
  <scstep>
   <time name="dav">    6.78    6.79</time>
   <time name="total">    7.27    7.27</time>
   <energy>
    <i name="e_fr_energy">   -363.50094514 </i>
    <i name="e_wo_entrp">   -362.65318936 </i>
    <i name="e_0_energy">   -363.07706725 </i>
   </energy>
  </scstep>
  <scstep>
   <time name="dav">    7.36    7.37</time>
   <time name="total">    7.84    7.84</time>
   <energy>
    <i name="e_fr_energy">   -480.02883409 </i>
    <i name="e_wo_entrp">   -479.32586697 </i>
    <i name="e_0_energy">   -479.67735053 </i>
   </energy>
  </scstep>
  <scstep>
   <time name="dav">    7.03    7.03</time>
   <time name="total">    7.59    7.60</time>
   <energy>
    <i name="e_fr_energy">   -373.05352554 </i>
    <i name="e_wo_entrp">   -372.10214560 </i>
    <i name="e_0_energy">   -372.57783557 </i>
   </energy>
  </scstep>
  <scstep>
   <time name="dav">    7.69    7.69</time>
   <time name="total">    8.17    8.17</time>
   <energy>
    <i name="e_fr_energy">   -403.32823986 </i>
    <i name="e_wo_entrp">   -402.14679721 </i>
    <i name="e_0_energy">   -402.73751853 </i>
   </energy>
  </scstep>
  <scstep>
   <time name="dav">    7.55    7.55</time>
   <time name="total">    8.12    8.12</time>
   <energy>
    <i name="e_fr_energy">   -381.53245423 </i>
    <i name="e_wo_entrp">   -380.47774845 </i>
    <i name="e_0_energy">   -381.00510134 </i>
   </energy>
  </scstep>
  <scstep>
   <time name="dav">    7.21    7.21</time>
   <time name="total">    7.69    7.69</time>
   <energy>
    <i name="e_fr_energy">   -360.49585839 </i>
    <i name="e_wo_entrp">   -359.70553024 </i>
    <i name="e_0_energy">   -360.10069432 </i>
   </energy>
  </scstep>
  <scstep>
   <time name="dav">    7.50    7.50</time>
   <time name="total">    8.06    8.07</time>
   <energy>
    <i name="e_fr_energy">   -358.17235483 </i>
    <i name="e_wo_entrp">   -357.22570719 </i>
    <i name="e_0_energy">   -357.69903101 </i>
   </energy>
  </scstep>
  <scstep>
   <time name="dav">    7.39    7.40</time>
   <time name="total">    7.96    7.96</time>
   <energy>
    <i name="e_fr_energy">   -353.55259940 </i>
    <i name="e_wo_entrp">   -352.72809335 </i>
    <i name="e_0_energy">   -353.14034637 </i>
   </energy>
  </scstep>
  <scstep>
   <time name="dav">    7.19    7.19</time>
   <time name="total">    7.68    7.68</time>
   <energy>
    <i name="e_fr_energy">   -351.74343811 </i>
    <i name="e_wo_entrp">   -350.90289443 </i>
    <i name="e_0_energy">   -351.32316627 </i>
   </energy>
  </scstep>
  <scstep>
   <time name="dav">    7.57    7.57</time>
   <time name="total">    8.08    8.08</time>
   <energy>
    <i name="e_fr_energy">   -351.15294377 </i>
    <i name="e_wo_entrp">   -350.29752636 </i>
    <i name="e_0_energy">   -350.72523507 </i>
   </energy>
  </scstep>
  <scstep>
   <time name="dav">    7.22    7.22</time>
   <time name="total">    7.70    7.70</time>
   <energy>
    <i name="e_fr_energy">   -350.81789618 </i>
    <i name="e_wo_entrp">   -349.95284029 </i>
    <i name="e_0_energy">   -350.38536823 </i>
   </energy>
  </scstep>
  <scstep>
   <time name="dav">    7.58    7.58</time>
   <time name="total">    8.07    8.07</time>
   <energy>
    <i name="e_fr_energy">   -350.61086114 </i>
    <i name="e_wo_entrp">   -349.71515298 </i>
    <i name="e_0_energy">   -350.16300706 </i>
   </energy>
  </scstep>
  <scstep>
   <time name="dav">    7.42    7.42</time>
   <time name="total">    7.91    7.92</time>
   <energy>
    <i name="e_fr_energy">   -349.89033260 </i>
    <i name="e_wo_entrp">   -348.97909910 </i>
    <i name="e_0_energy">   -349.43471585 </i>
   </energy>
  </scstep>
  <scstep>
   <time name="dav">    7.60    7.60</time>
   <time name="total">    8.09    8.10</time>
   <energy>
    <i name="e_fr_energy">   -349.71372152 </i>
    <i name="e_wo_entrp">   -348.77012235 </i>
    <i name="e_0_energy">   -349.24192193 </i>
   </energy>
  </scstep>
  <scstep>
   <time name="dav">    7.36    7.36</time>
   <time name="total">    7.86    7.86</time>
   <energy>
    <i name="e_fr_energy">   -349.61912880 </i>
    <i name="e_wo_entrp">   -348.68069285 </i>
    <i name="e_0_energy">   -349.14991082 </i>
   </energy>
  </scstep>
  <scstep>
   <time name="dav">    7.02    7.02</time>
   <time name="total">    7.73    7.74</time>
   <energy>
    <i name="e_fr_energy">   -349.61508933 </i>
    <i name="e_wo_entrp">   -348.67138179 </i>
    <i name="e_0_energy">   -349.14323556 </i>
   </energy>
  </scstep>
  <scstep>
   <time name="dav">    7.11    7.11</time>
   <time name="total">    7.61    7.61</time>
   <energy>
    <i name="e_fr_energy">   -349.59041897 </i>
    <i name="e_wo_entrp">   -348.64313765 </i>
    <i name="e_0_energy">   -349.11677831 </i>
   </energy>
  </scstep>
  <scstep>
   <time name="dav">    7.49    7.49</time>
   <time name="total">    8.01    8.01</time>
   <energy>
    <i name="e_fr_energy">   -349.59631928 </i>
    <i name="e_wo_entrp">   -348.64844768 </i>
    <i name="e_0_energy">   -349.12238348 </i>
   </energy>
  </scstep>
  <scstep>
   <time name="dav">    7.35    7.35</time>
   <time name="total">    7.85    7.86</time>
   <energy>
    <i name="e_fr_energy">   -349.58109538 </i>
    <i name="e_wo_entrp">   -348.63922238 </i>
    <i name="e_0_energy">   -349.11015888 </i>
   </energy>
  </scstep>
  <scstep>
   <time name="dav">    7.36    7.36</time>
   <time name="total">    7.86    7.87</time>
   <energy>
    <i name="e_fr_energy">   -349.57869942 </i>
    <i name="e_wo_entrp">   -348.63202502 </i>
    <i name="e_0_energy">   -349.10536222 </i>
   </energy>
  </scstep>
  <scstep>
   <time name="dav">    7.10    7.10</time>
   <time name="total">    7.61    7.61</time>
   <energy>
    <i name="e_fr_energy">   -349.57413901 </i>
    <i name="e_wo_entrp">   -348.62835301 </i>
    <i name="e_0_energy">   -349.10124601 </i>
   </energy>
  </scstep>
  <scstep>
   <time name="dav">    7.36    7.36</time>
   <time name="total">    7.87    7.87</time>
   <energy>
    <i name="e_fr_energy">   -349.57414194 </i>
    <i name="e_wo_entrp">   -348.62894813 </i>
    <i name="e_0_energy">   -349.10154504 </i>
   </energy>
  </scstep>
  <scstep>
   <time name="dav">    6.85    6.85</time>
   <time name="total">    7.47    7.48</time>
   <energy>
    <i name="e_fr_energy">   -349.57354591 </i>
    <i name="e_wo_entrp">   -348.62833896 </i>
    <i name="e_0_energy">   -349.10094244 </i>
   </energy>
  </scstep>
  <scstep>
   <time name="dav">    6.97    6.97</time>
   <time name="total">    7.53    7.53</time>
   <energy>
    <i name="e_fr_energy">   -349.57373941 </i>
    <i name="e_wo_entrp">   -348.62815035 </i>
    <i name="e_0_energy">   -349.10094488 </i>
   </energy>
  </scstep>
  <scstep>
   <time name="dav">    6.15    6.15</time>
   <time name="total">    6.66    6.66</time>
   <energy>
    <i name="e_fr_energy">   -349.57358437 </i>
    <i name="e_wo_entrp">   -348.62740141 </i>
    <i name="e_0_energy">   -349.10049289 </i>
   </energy>
  </scstep>
  <scstep>
   <time name="dav">    5.14    5.14</time>
   <time name="total">    5.64    5.70</time>
   <energy>
    <i name="e_fr_energy">   -349.57401218 </i>
    <i name="e_wo_entrp">   -348.62841396 </i>
    <i name="e_0_energy">   -349.10121307 </i>
   </energy>
  </scstep>
  <scstep>
   <time name="dav">    4.98    4.98</time>
   <time name="total">    5.48    5.48</time>
   <energy>
    <i name="e_fr_energy">   -349.57413992 </i>
    <i name="e_wo_entrp">   -348.62870167 </i>
    <i name="e_0_energy">   -349.10142080 </i>
   </energy>
  </scstep>
  <scstep>
   <time name="dav">    4.27    4.27</time>
   <time name="total">    4.78    4.78</time>
   <energy>
    <i name="e_fr_energy">   -349.57440403 </i>
    <i name="e_wo_entrp">   -348.62863510 </i>
    <i name="e_0_energy">   -349.10151956 </i>
   </energy>
  </scstep>
  <scstep>
   <time name="dav">    4.26    4.27</time>
   <time name="total">    4.78    4.82</time>
   <energy>
    <i name="e_fr_energy">   -349.57453915 </i>
    <i name="e_wo_entrp">   -348.62869021 </i>
    <i name="e_0_energy">   -349.10161468 </i>
   </energy>
  </scstep>
  <scstep>
   <time name="dav">    4.50    4.54</time>
   <time name="total">    5.01    5.05</time>
   <energy>
    <i name="e_fr_energy">   -349.57501617 </i>
    <i name="e_wo_entrp">   -348.62950839 </i>
    <i name="e_0_energy">   -349.10226228 </i>
   </energy>
  </scstep>
  <scstep>
   <time name="dav">    4.24    4.24</time>
   <time name="total">    4.75    4.75</time>
   <energy>
    <i name="e_fr_energy">   -349.57526553 </i>
    <i name="e_wo_entrp">   -348.62985034 </i>
    <i name="e_0_energy">   -349.10255794 </i>
   </energy>
  </scstep>
  <scstep>
   <time name="dav">    4.12    4.12</time>
   <time name="total">    4.71    4.71</time>
   <energy>
    <i name="e_fr_energy">   -349.57548736 </i>
    <i name="e_wo_entrp">   -348.62991110 </i>
    <i name="e_0_energy">   -349.10269923 </i>
   </energy>
  </scstep>
  <scstep>
   <time name="dav">    3.99    3.99</time>
   <time name="total">    4.51    4.51</time>
   <energy>
    <i name="e_fr_energy">   -349.57559284 </i>
    <i name="e_wo_entrp">   -348.62997853 </i>
    <i name="e_0_energy">   -349.10278568 </i>
   </energy>
  </scstep>
  <scstep>
   <time name="dav">    4.17    4.20</time>
   <time name="total">    4.73    4.75</time>
   <energy>
    <i name="e_fr_energy">   -349.57588489 </i>
    <i name="e_wo_entrp">   -348.63029230 </i>
    <i name="e_0_energy">   -349.10308860 </i>
   </energy>
  </scstep>
  <scstep>
   <time name="dav">    4.23    4.23</time>
   <time name="total">    4.77    4.77</time>
   <energy>
    <i name="e_fr_energy">   -349.57601099 </i>
    <i name="e_wo_entrp">   -348.63042295 </i>
    <i name="e_0_energy">   -349.10321697 </i>
   </energy>
  </scstep>
  <scstep>
   <time name="dav">    4.23    4.23</time>
   <time name="total">    4.75    4.75</time>
   <energy>
    <i name="e_fr_energy">   -349.57617568 </i>
    <i name="e_wo_entrp">   -348.63059388 </i>
    <i name="e_0_energy">   -349.10338478 </i>
   </energy>
  </scstep>
  <scstep>
   <time name="dav">    4.22    4.22</time>
   <time name="total">    4.49    4.54</time>
   <energy>
    <i name="alphaZ">   1909.09476555 </i>
    <i name="ewald"> 221545.38951169 </i>
    <i name="hartreedc">-342997.11766686 </i>
    <i name="XCdc">   3652.88636603 </i>
    <i name="pawpsdc"> 139504.83151400 </i>
    <i name="pawaedc">-144492.34656943 </i>
    <i name="eentropy">     -0.94559720 </i>
    <i name="bandstr"> -15473.97361117 </i>
    <i name="atom"> 136002.60505376 </i>
    <i name="e_fr_energy">   -349.57623362 </i>
    <i name="e_wo_entrp">   -348.63063643 </i>
    <i name="e_0_energy">   -349.10343503 </i>
   </energy>
  </scstep>
  <structure>
   <crystal>
    <varray name="basis" >
     <v>      10.07973298       0.00000000       0.00000000 </v>
     <v>       3.57329804       9.42510255       0.00000000 </v>
     <v>       0.00000000       0.00000000      20.51013988 </v>
    </varray>
    <i name="volume">   1948.51491473 </i>
    <varray name="rec_basis" >
     <v>       0.09920898      -0.03761267       0.00000000 </v>
     <v>       0.00000000       0.10609964       0.00000000 </v>
     <v>       0.00000000       0.00000000       0.04875637 </v>
    </varray>
   </crystal>
   <varray name="positions" >
    <v>       0.34400154       0.72813116       0.15407644 </v>
    <v>       0.52460066       0.60109368       0.22312232 </v>
    <v>       0.67486918       0.45082517       0.35113229 </v>
    <v>       0.74788017       0.34799072       0.46299670 </v>
    <v>       0.56961015       0.18066553       0.07435518 </v>
    <v>       0.75775499       0.03460603       0.13778234 </v>
    <v>       0.06081402       0.73471406       0.38223139 </v>
    <v>       0.90802350       0.88433751       0.26579231 </v>
    <v>       0.14117783       0.31784985       0.18045233 </v>
    <v>       0.29144634       0.16758134       0.30846230 </v>
    <v>       0.41752278       0.03349931       0.42336478 </v>
    <v>       0.96035543       0.45052651       0.11514599 </v>
    <v>       0.00994000       0.11575434       0.41150025 </v>
    <v>       0.55270706       0.66274494       0.09093947 </v>
    <v>       0.70940298       0.41629137       0.15548031 </v>
    <v>       0.85967149       0.26602286       0.28349028 </v>
    <v>       0.09282582       0.69953520       0.19815030 </v>
    <v>       0.24309433       0.54926669       0.32616027 </v>
    <v>       0.38008123       0.41215076       0.43791834 </v>
    <v>       0.94255730       0.84980371       0.07014033 </v>
    <v>       0.33494549       0.12960723       0.13028272 </v>
    <v>       0.47624865       0.98277903       0.24082029 </v>
    <v>       0.60651669       0.83793050       0.36028598 </v>
    <v>       0.61284292       0.60482288       0.44182176 </v>
    <v>       0.03834758       0.34497449       0.43370782 </v>
    <v>       0.71423437       0.79861228       0.09788223 </v>
    <v>       0.74910482       0.64079553       0.18930132 </v>
    <v>       0.89937333       0.49052701       0.31731128 </v>
    <v>       0.98225915       0.07430787       0.10396133 </v>
    <v>       0.13252766       0.92403936       0.23197130 </v>
    <v>       0.28279617       0.77377084       0.35998128 </v>
    <v>       0.37580695       0.65849270       0.47055474 </v>
    <v>       0.20166063       0.65862155       0.07220039 </v>
    <v>       0.36568198       0.35755170       0.14663132 </v>
    <v>       0.51595050       0.20728318       0.27464130 </v>
    <v>       0.65142720       0.08469534       0.38425476 </v>
    <v>       0.06382158       0.26208477       0.34135992 </v>
    <v>       0.20149431       0.13768669       0.44298594 </v>
    <v>       0.76328455       0.56262179       0.08533998 </v>
    <v>       0.91355306       0.41235328       0.21334995 </v>
    <v>       0.14670739       0.84586562       0.12800997 </v>
    <v>       0.29697590       0.69559711       0.25601994 </v>
    <v>       0.44724441       0.54532860       0.38402991 </v>
    <v>       0.53808610       0.46499048       0.49760882 </v>
    <v>       0.98737493       0.99543161       0.01499242 </v>
    <v>       0.35732718       0.26275702       0.05885488 </v>
    <v>       0.53013023       0.12910945       0.17067996 </v>
    <v>       0.68039874       0.97884094       0.29868993 </v>
    <v>       0.52796422       0.79794212       0.17147277 </v>
    <v>       0.67823274       0.64767361       0.29948274 </v>
    <v>       0.82850125       0.49740510       0.42749271 </v>
    <v>       0.75894385       0.22625106       0.09903911 </v>
    <v>       0.91138706       0.08118595       0.21414276 </v>
    <v>       0.06165557       0.93091744       0.34215273 </v>
    <v>       0.17791514       0.79482704       0.45033354 </v>
    <v>       0.14454139       0.51469829       0.12880278 </v>
    <v>       0.29480990       0.36442978       0.25681275 </v>
    <v>       0.44507841       0.21416127       0.38482272 </v>
    <v>       0.04348252       0.69230824       0.00764543 </v>
    <v>       0.35837242       0.73766186       0.04681479 </v>
    <v>       0.47740939       0.51206696       0.12840637 </v>
    <v>       0.62767790       0.36179845       0.25641634 </v>
    <v>       0.77794641       0.21152993       0.38442632 </v>
    <v>       0.94835483       0.23473498       0.49463775 </v>
    <v>       0.01110074       0.64504227       0.29908634 </v>
    <v>       0.16261898       0.50753420       0.41449913 </v>
    <v>       0.71710689       0.97338085       0.04625935 </v>
    <v>       0.86083223       0.79531079       0.17107636 </v>
    <v>       0.08368834       0.22752047       0.10076028 </v>
    <v>       0.24425506       0.07855462       0.21374635 </v>
    <v>       0.39452358       0.92828611       0.34175632 </v>
    <v>       0.48999191       0.81476537       0.45298594 </v>
   </varray>
  </structure>
  <varray name="forces" >
   <v>       0.44086428      -0.09753151       0.10991066 </v>
   <v>       0.92383878      -0.87588253       1.12515305 </v>
   <v>       0.02452771      -0.63733118      -1.24545224 </v>
   <v>      -1.20804479       0.60435496       0.96145357 </v>
   <v>       0.74905844      -0.29248979      -0.69522686 </v>
   <v>       0.81267548      -0.88987265       2.53680318 </v>
   <v>      -0.86784541      -0.40154972       0.96945911 </v>
   <v>       0.00003670       0.05221953       0.34867089 </v>
   <v>       1.02091824      -0.32356808       2.78153976 </v>
   <v>       0.38080451       0.01115360      -0.14349971 </v>
   <v>       0.43183628       0.08827020       1.12570294 </v>
   <v>       0.35152792      -0.27425391      -0.61973155 </v>
   <v>      -0.77742930      -1.28307791      -1.84829774 </v>
   <v>       0.45975513       0.14596207      -1.20467768 </v>
   <v>       0.04888346      -0.30049998       0.68136115 </v>
   <v>      -0.11243287      -0.16253530      -0.12741882 </v>
   <v>      -0.11905820      -0.20331257       0.32224337 </v>
   <v>       0.57121437      -0.69100349      -1.75756394 </v>
   <v>      -0.20498724      -0.39037536       0.90217501 </v>
   <v>      -1.40531519       0.41448153       1.35541557 </v>
   <v>      -1.20569732      -0.81631610      -0.67889285 </v>
   <v>      -0.06614259      -0.27433201       0.21321523 </v>
   <v>       1.00974374      -0.44466504       0.28215070 </v>
   <v>       1.04605609       0.78740618       0.29150046 </v>
   <v>       2.09205027       2.10916567       0.70752102 </v>
   <v>      -0.87844443      -0.26569355      -0.34431661 </v>
   <v>       0.19344966      -0.27121742       0.82601826 </v>
   <v>       0.14660965       0.15187344       0.09042402 </v>
   <v>       0.01953664       0.91725388       2.20814285 </v>
   <v>      -0.08224181      -0.01166955       0.17925901 </v>
   <v>       0.61776194       0.48364059      -1.36400317 </v>
   <v>       0.53589250       0.24002240       0.93229160 </v>
   <v>       0.70900492      -0.72631891       0.01293335 </v>
   <v>       0.23392975       0.83611215       1.49412306 </v>
   <v>       0.06091550       0.15786899      -0.04080909 </v>
   <v>       0.74551602      -0.24137697       0.88924024 </v>
   <v>      -0.51653512      -0.06739077      -2.68298195 </v>
   <v>       0.78241749      -0.73770595       2.31889669 </v>
   <v>       1.31878821       0.14398905      -2.52623923 </v>
   <v>      -0.20293249       0.01140297       1.28435988 </v>
   <v>      -1.95219346       2.89261235       0.77856734 </v>
   <v>      -0.01594046      -0.07437430       0.65362660 </v>
   <v>       0.41204111       0.47443187      -3.45371801 </v>
   <v>      -0.78867675      -1.78145224       2.86946757 </v>
   <v>       0.81349367       0.64713358      -3.83256928 </v>
   <v>      -0.74015366       0.74085354      -3.98901059 </v>
   <v>       0.37526143       0.00637135       1.83822426 </v>
   <v>       0.26047067      -1.13331515      -1.21666984 </v>
   <v>       0.87554665       1.92691248       1.35844682 </v>
   <v>      -0.16104292      -0.32767318      -0.58454832 </v>
   <v>       1.37373151       1.71058628      -0.79260411 </v>
   <v>       0.55126361       1.91061705      -1.59037587 </v>
   <v>       0.01577269      -0.26339700       0.56101075 </v>
   <v>      -0.41798876       0.43825783      -0.89360350 </v>
   <v>      -1.01297599       1.72962566       2.62711502 </v>
   <v>      -0.35557227      -0.11593204       0.69359236 </v>
   <v>       0.10579140       0.07944657      -0.12595032 </v>
   <v>      -0.41452477       1.62925931      -0.07424395 </v>
   <v>      -0.97372465      -1.21715661      -2.88486436 </v>
   <v>       0.35019025       1.30343769      -2.89756058 </v>
   <v>      -1.09591060      -2.65767237       0.69043876 </v>
   <v>       0.08572955       0.18371673       0.36564889 </v>
   <v>      -0.35313059      -1.30030558      -0.77698539 </v>
   <v>      -0.10125672      -0.69318572       3.76312848 </v>
   <v>      -1.02139065      -0.12003711      -1.26138611 </v>
   <v>      -1.74521627      -0.62937847       1.81767893 </v>
   <v>      -1.26004364      -0.52857228      -3.07219231 </v>
   <v>       0.47854405      -0.22680860       1.16435320 </v>
   <v>      -0.00927520      -1.27888257      -2.21371856 </v>
   <v>      -0.44003762      -0.66182292       1.66628760 </v>
   <v>      -2.04199881       0.03356835      -2.82647081 </v>
   <v>       1.12271030       0.82792856       1.96803213 </v>
  </varray>
  <varray name="stress" >
   <v>      80.24533797      -8.64308001       6.69893287 </v>
   <v>      -8.64308000      77.05424536       2.45736852 </v>
   <v>       6.69893279       2.45736856      88.42085752 </v>
  </varray>
  <energy>
   <i name="e_fr_energy">   -349.57623362 </i>
   <i name="e_wo_entrp">   -349.10343503 </i>
   <i name="e_0_energy">     -0.94559720 </i>
  </energy>
  <time name="totalsc">  300.26  300.53</time>
  <eigenvalues>
   <array>
    <dimension dim="1">band</dimension>
    <dimension dim="2">kpoint</dimension>
    <dimension dim="3">spin</dimension>
    <field>eigene</field>
    <field>occ</field>
    <set>
     <set comment="spin 1">
      <set comment="kpoint 1">
       <r>  -63.5094    1.0000 </r>
       <r>  -63.3702    1.0000 </r>
       <r>  -63.3401    1.0000 </r>
       <r>  -63.3022    1.0000 </r>
       <r>  -63.2775    1.0000 </r>
       <r>  -63.2770    1.0000 </r>
       <r>  -63.2684    1.0000 </r>
       <r>  -63.2459    1.0000 </r>
       <r>  -63.2458    1.0000 </r>
       <r>  -63.2457    1.0000 </r>
       <r>  -63.2395    1.0000 </r>
       <r>  -63.2331    1.0000 </r>
       <r>  -63.2121    1.0000 </r>
       <r>  -63.1402    1.0000 </r>
       <r>  -63.1329    1.0000 </r>
       <r>  -63.0985    1.0000 </r>
       <r>  -63.0710    1.0000 </r>
       <r>  -63.0644    1.0000 </r>
       <r>  -63.0598    1.0000 </r>
       <r>  -63.0368    1.0000 </r>
       <r>  -63.0361    1.0000 </r>
       <r>  -63.0132    1.0000 </r>
       <r>  -63.0118    1.0000 </r>
       <r>  -63.0101    1.0000 </r>
       <r>  -63.0029    1.0000 </r>
       <r>  -62.9945    1.0000 </r>
       <r>  -62.9727    1.0000 </r>
       <r>  -62.9644    1.0000 </r>
       <r>  -62.9442    1.0000 </r>
       <r>  -62.9325    1.0000 </r>
       <r>  -62.9116    1.0000 </r>
       <r>  -62.9063    1.0000 </r>
       <r>  -62.9047    1.0000 </r>
       <r>  -62.9030    1.0000 </r>
       <r>  -62.8991    1.0000 </r>
       <r>  -62.8962    1.0000 </r>
       <r>  -62.8620    1.0000 </r>
       <r>  -62.8570    1.0000 </r>
       <r>  -62.8433    1.0000 </r>
       <r>  -62.8288    1.0000 </r>
       <r>  -62.8115    1.0000 </r>
       <r>  -62.8092    1.0000 </r>
       <r>  -62.8049    1.0000 </r>
       <r>  -62.8046    1.0000 </r>
       <r>  -62.7981    1.0000 </r>
       <r>  -62.7969    1.0000 </r>
       <r>  -62.7668    1.0000 </r>
       <r>  -62.7621    1.0000 </r>
       <r>  -62.7589    1.0000 </r>
       <r>  -62.7368    1.0000 </r>
       <r>  -62.7349    1.0000 </r>
       <r>  -62.7328    1.0000 </r>
       <r>  -62.7188    1.0000 </r>
       <r>  -62.7156    1.0000 </r>
       <r>  -62.7112    1.0000 </r>
       <r>  -62.6950    1.0000 </r>
       <r>  -62.6941    1.0000 </r>
       <r>  -62.6859    1.0000 </r>
       <r>  -62.6839    1.0000 </r>
       <r>  -62.6829    1.0000 </r>
       <r>  -62.6794    1.0000 </r>
       <r>  -62.6789    1.0000 </r>
       <r>  -62.6615    1.0000 </r>
       <r>  -62.6551    1.0000 </r>
       <r>  -62.6393    1.0000 </r>
       <r>  -62.6257    1.0000 </r>
       <r>  -62.6235    1.0000 </r>
       <r>  -62.6235    1.0000 </r>
       <r>  -62.6152    1.0000 </r>
       <r>  -62.6104    1.0000 </r>
       <r>  -62.6068    1.0000 </r>
       <r>  -62.6052    1.0000 </r>
       <r>  -62.6022    1.0000 </r>
       <r>  -62.5953    1.0000 </r>
       <r>  -62.5892    1.0000 </r>
       <r>  -62.5866    1.0000 </r>
       <r>  -62.5837    1.0000 </r>
       <r>  -62.5780    1.0000 </r>
       <r>  -62.5725    1.0000 </r>
       <r>  -62.5713    1.0000 </r>
       <r>  -62.5603    1.0000 </r>
       <r>  -62.5554    1.0000 </r>
       <r>  -62.5509    1.0000 </r>
       <r>  -62.5479    1.0000 </r>
       <r>  -62.5421    1.0000 </r>
       <r>  -62.5413    1.0000 </r>
       <r>  -62.5374    1.0000 </r>
       <r>  -62.5349    1.0000 </r>
       <r>  -62.5282    1.0000 </r>
       <r>  -62.5277    1.0000 </r>
       <r>  -62.5147    1.0000 </r>
       <r>  -62.4958    1.0000 </r>
       <r>  -62.4889    1.0000 </r>
       <r>  -62.4714    1.0000 </r>
       <r>  -62.4691    1.0000 </r>
       <r>  -62.4664    1.0000 </r>
       <r>  -62.4187    1.0000 </r>
       <r>  -62.4123    1.0000 </r>
       <r>  -62.3764    1.0000 </r>
       <r>  -62.3763    1.0000 </r>
       <r>  -62.3732    1.0000 </r>
       <r>  -62.3617    1.0000 </r>
       <r>  -62.3452    1.0000 </r>
       <r>  -62.3187    1.0000 </r>
       <r>  -62.2790    1.0000 </r>
       <r>  -62.2072    1.0000 </r>
       <r>  -62.1975    1.0000 </r>
       <r>  -62.1896    1.0000 </r>
       <r>  -14.9920    1.0000 </r>
       <r>  -14.7901    1.0000 </r>
       <r>  -14.3934    1.0000 </r>
       <r>  -14.1898    1.0000 </r>
       <r>  -14.1034    1.0000 </r>
       <r>  -14.0173    1.0000 </r>
       <r>  -13.7914    1.0000 </r>
       <r>  -13.6869    1.0000 </r>
       <r>  -13.6170    1.0000 </r>
       <r>  -13.4303    1.0000 </r>
       <r>  -13.3683    1.0000 </r>
       <r>  -13.3154    1.0000 </r>
       <r>  -13.2317    1.0000 </r>
       <r>  -13.1423    1.0000 </r>
       <r>  -13.0154    1.0000 </r>
       <r>  -12.9975    1.0000 </r>
       <r>  -12.9350    1.0000 </r>
       <r>  -12.8576    1.0000 </r>
       <r>  -12.6669    1.0000 </r>
       <r>  -12.6171    1.0000 </r>
       <r>  -12.5985    1.0000 </r>
       <r>  -12.5695    1.0000 </r>
       <r>  -12.4933    1.0000 </r>
       <r>  -12.4157    1.0000 </r>
       <r>  -12.3048    1.0000 </r>
       <r>  -12.2029    1.0000 </r>
       <r>  -12.1465    1.0000 </r>
       <r>  -12.1176    1.0000 </r>
       <r>  -12.0580    1.0000 </r>
       <r>  -12.0433    1.0000 </r>
       <r>  -11.9712    1.0000 </r>
       <r>  -11.9618    1.0000 </r>
       <r>  -11.8411    1.0000 </r>
       <r>  -11.6843    1.0000 </r>
       <r>  -11.4648    1.0000 </r>
       <r>  -11.2170    1.0000 </r>
       <r>   -6.6980    1.0000 </r>
       <r>   -6.5946    1.0000 </r>
       <r>   -6.4568    1.0000 </r>
       <r>   -6.4281    1.0000 </r>
       <r>   -6.2868    1.0000 </r>
       <r>   -6.1981    1.0000 </r>
       <r>   -6.1409    1.0000 </r>
       <r>   -6.1078    1.0000 </r>
       <r>   -6.0912    1.0000 </r>
       <r>   -6.0186    1.0000 </r>
       <r>   -5.9920    1.0000 </r>
       <r>   -5.9286    1.0000 </r>
       <r>   -5.8552    1.0000 </r>
       <r>   -5.7616    1.0000 </r>
       <r>   -5.6896    1.0000 </r>
       <r>   -5.6771    1.0000 </r>
       <r>   -5.6389    1.0000 </r>
       <r>   -5.5874    1.0000 </r>
       <r>   -5.5528    1.0000 </r>
       <r>   -5.4985    1.0000 </r>
       <r>   -5.4635    1.0000 </r>
       <r>   -5.4035    1.0000 </r>
       <r>   -5.3732    1.0000 </r>
       <r>   -5.2921    1.0000 </r>
       <r>   -5.2661    1.0000 </r>
       <r>   -5.1920    1.0000 </r>
       <r>   -5.1218    1.0000 </r>
       <r>   -5.0663    1.0000 </r>
       <r>   -5.0294    1.0000 </r>
       <r>   -4.9184    1.0000 </r>
       <r>   -4.8970    1.0000 </r>
       <r>   -4.8692    1.0000 </r>
       <r>   -4.7951    1.0000 </r>
       <r>   -4.7762    1.0000 </r>
       <r>   -4.7509    1.0000 </r>
       <r>   -4.6594    1.0000 </r>
       <r>   -4.6189    1.0000 </r>
       <r>   -4.5412    1.0000 </r>
       <r>   -4.5186    1.0000 </r>
       <r>   -4.4790    1.0000 </r>
       <r>   -4.4358    1.0000 </r>
       <r>   -4.4082    1.0000 </r>
       <r>   -4.3675    1.0000 </r>
       <r>   -4.3142    1.0000 </r>
       <r>   -4.2256    1.0000 </r>
       <r>   -4.1774    1.0000 </r>
       <r>   -4.1591    1.0000 </r>
       <r>   -4.1166    1.0000 </r>
       <r>   -4.0420    1.0000 </r>
       <r>   -4.0077    1.0000 </r>
       <r>   -3.9871    1.0000 </r>
       <r>   -3.9566    1.0000 </r>
       <r>   -3.9286    1.0000 </r>
       <r>   -3.9018    1.0000 </r>
       <r>   -3.8811    1.0000 </r>
       <r>   -3.8374    1.0000 </r>
       <r>   -3.7849    1.0000 </r>
       <r>   -3.7797    1.0000 </r>
       <r>   -3.7406    1.0000 </r>
       <r>   -3.7333    1.0000 </r>
       <r>   -3.7089    1.0000 </r>
       <r>   -3.6784    1.0000 </r>
       <r>   -3.6339    1.0000 </r>
       <r>   -3.5550    1.0000 </r>
       <r>   -3.5256    1.0000 </r>
       <r>   -3.4938    1.0000 </r>
       <r>   -3.4836    1.0000 </r>
       <r>   -3.4565    1.0000 </r>
       <r>   -3.4137    1.0000 </r>
       <r>   -3.3781    1.0000 </r>
       <r>   -3.3628    1.0000 </r>
       <r>   -3.3390    1.0000 </r>
       <r>   -3.3232    1.0000 </r>
       <r>   -3.2796    1.0000 </r>
       <r>   -3.2457    1.0000 </r>
       <r>   -3.1948    1.0000 </r>
       <r>   -3.1803    1.0000 </r>
       <r>   -3.1639    1.0000 </r>
       <r>   -3.1428    1.0000 </r>
       <r>   -3.1092    1.0000 </r>
       <r>   -3.0452    1.0000 </r>
       <r>   -3.0228    1.0000 </r>
       <r>   -3.0005    1.0000 </r>
       <r>   -2.9641    1.0000 </r>
       <r>   -2.9195    1.0000 </r>
       <r>   -2.9033    1.0000 </r>
       <r>   -2.8795    1.0000 </r>
       <r>   -2.8309    1.0000 </r>
       <r>   -2.8150    1.0000 </r>
       <r>   -2.7870    1.0000 </r>
       <r>   -2.7370    1.0000 </r>
       <r>   -2.7211    1.0000 </r>
       <r>   -2.6746    1.0000 </r>
       <r>   -2.5780    1.0000 </r>
       <r>   -2.5515    1.0000 </r>
       <r>   -2.5181    1.0000 </r>
       <r>   -2.3911    1.0000 </r>
       <r>   -2.3545    1.0000 </r>
       <r>   -2.2961    1.0000 </r>
       <r>   -2.2653    1.0000 </r>
       <r>   -2.2502    1.0000 </r>
       <r>   -2.1895    1.0000 </r>
       <r>   -2.1508    1.0000 </r>
       <r>   -2.1476    1.0000 </r>
       <r>   -2.0833    1.0000 </r>
       <r>   -2.0318    1.0000 </r>
       <r>   -2.0078    1.0000 </r>
       <r>   -1.9766    1.0000 </r>
       <r>   -1.9270    1.0000 </r>
       <r>   -1.9217    1.0000 </r>
       <r>   -1.8092    1.0000 </r>
       <r>   -1.7692    1.0000 </r>
       <r>   -1.7415    1.0000 </r>
       <r>   -1.7070    1.0000 </r>
       <r>   -1.6816    1.0000 </r>
       <r>   -1.6555    1.0000 </r>
       <r>   -1.6490    1.0000 </r>
       <r>   -1.5974    1.0000 </r>
       <r>   -1.5739    1.0000 </r>
       <r>   -1.5692    1.0000 </r>
       <r>   -1.5516    1.0000 </r>
       <r>   -1.5022    1.0000 </r>
       <r>   -1.4905    1.0000 </r>
       <r>   -1.4616    1.0000 </r>
       <r>   -1.4362    1.0000 </r>
       <r>   -1.4128    1.0000 </r>
       <r>   -1.3941    1.0000 </r>
       <r>   -1.3869    1.0000 </r>
       <r>   -1.3325    1.0000 </r>
       <r>   -1.3168    1.0000 </r>
       <r>   -1.2958    1.0000 </r>
       <r>   -1.2748    1.0000 </r>
       <r>   -1.2589    1.0000 </r>
       <r>   -1.2126    1.0000 </r>
       <r>   -1.2076    1.0000 </r>
       <r>   -1.1918    1.0000 </r>
       <r>   -1.1754    1.0000 </r>
       <r>   -1.1560    1.0000 </r>
       <r>   -1.1524    1.0000 </r>
       <r>   -1.1320    1.0000 </r>
       <r>   -1.1103    1.0000 </r>
       <r>   -1.0667    1.0000 </r>
       <r>   -1.0526    1.0000 </r>
       <r>   -1.0307    1.0000 </r>
       <r>   -1.0206    1.0000 </r>
       <r>   -0.9958    1.0000 </r>
       <r>   -0.9796    1.0000 </r>
       <r>   -0.9465    1.0000 </r>
       <r>   -0.9226    1.0000 </r>
       <r>   -0.9029    1.0000 </r>
       <r>   -0.8739    1.0000 </r>
       <r>   -0.8635    1.0000 </r>
       <r>   -0.8557    1.0000 </r>
       <r>   -0.8488    1.0000 </r>
       <r>   -0.8236    1.0000 </r>
       <r>   -0.8104    1.0000 </r>
       <r>   -0.7942    1.0000 </r>
       <r>   -0.7641    1.0000 </r>
       <r>   -0.7601    1.0000 </r>
       <r>   -0.7483    1.0000 </r>
       <r>   -0.7272    1.0000 </r>
       <r>   -0.7037    1.0000 </r>
       <r>   -0.6713    1.0000 </r>
       <r>   -0.6592    1.0000 </r>
       <r>   -0.6489    1.0000 </r>
       <r>   -0.6408    1.0000 </r>
       <r>   -0.6230    1.0000 </r>
       <r>   -0.6101    1.0000 </r>
       <r>   -0.6030    1.0000 </r>
       <r>   -0.5830    1.0000 </r>
       <r>   -0.5643    1.0000 </r>
       <r>   -0.5490    1.0000 </r>
       <r>   -0.5426    1.0000 </r>
       <r>   -0.5137    1.0000 </r>
       <r>   -0.4908    1.0000 </r>
       <r>   -0.4786    1.0000 </r>
       <r>   -0.4683    1.0000 </r>
       <r>   -0.4548    1.0000 </r>
       <r>   -0.4449    1.0000 </r>
       <r>   -0.4263    1.0000 </r>
       <r>   -0.4204    1.0000 </r>
       <r>   -0.4010    1.0000 </r>
       <r>   -0.3983    1.0000 </r>
       <r>   -0.3838    1.0000 </r>
       <r>   -0.3558    1.0000 </r>
       <r>   -0.3467    1.0000 </r>
       <r>   -0.3358    1.0000 </r>
       <r>   -0.3266    1.0000 </r>
       <r>   -0.3057    1.0000 </r>
       <r>   -0.2930    1.0000 </r>
       <r>   -0.2621    1.0000 </r>
       <r>   -0.2573    1.0000 </r>
       <r>   -0.2526    1.0000 </r>
       <r>   -0.2348    1.0000 </r>
       <r>   -0.2300    1.0000 </r>
       <r>   -0.2208    1.0000 </r>
       <r>   -0.2101    1.0000 </r>
       <r>   -0.1733    1.0000 </r>
       <r>   -0.1691    1.0000 </r>
       <r>   -0.1664    1.0000 </r>
       <r>   -0.1446    1.0000 </r>
       <r>   -0.1213    1.0000 </r>
       <r>   -0.1072    1.0000 </r>
       <r>   -0.0963    1.0000 </r>
       <r>   -0.0735    1.0000 </r>
       <r>   -0.0575    1.0000 </r>
       <r>   -0.0500    1.0000 </r>
       <r>   -0.0164    1.0000 </r>
       <r>   -0.0030    1.0000 </r>
       <r>    0.0082    1.0000 </r>
       <r>    0.0376    1.0000 </r>
       <r>    0.0539    1.0000 </r>
       <r>    0.0741    1.0000 </r>
       <r>    0.0957    1.0000 </r>
       <r>    0.1081    1.0000 </r>
       <r>    0.1351    1.0000 </r>
       <r>    0.1379    1.0000 </r>
       <r>    0.1686    1.0000 </r>
       <r>    0.1807    1.0000 </r>
       <r>    0.2018    1.0000 </r>
       <r>    0.2276    1.0000 </r>
       <r>    0.2646    1.0000 </r>
       <r>    0.2943    1.0000 </r>
       <r>    0.3631    1.0000 </r>
       <r>    0.4073    1.0000 </r>
       <r>    0.4361    1.0000 </r>
       <r>    0.5167    1.0000 </r>
       <r>    0.5311    1.0000 </r>
       <r>    0.5584    1.0000 </r>
       <r>    0.5748    1.0000 </r>
       <r>    0.5771    1.0000 </r>
       <r>    0.6175    1.0000 </r>
       <r>    0.6877    1.0000 </r>
       <r>    0.7068    1.0000 </r>
       <r>    0.7425    1.0000 </r>
       <r>    0.7551    1.0000 </r>
       <r>    0.8132    1.0000 </r>
       <r>    0.8324    1.0000 </r>
       <r>    0.8810    1.0000 </r>
       <r>    0.9334    0.9999 </r>
       <r>    0.9704    0.9997 </r>
       <r>    0.9800    0.9996 </r>
       <r>    1.0131    0.9990 </r>
       <r>    1.0468    0.9979 </r>
       <r>    1.1214    0.9903 </r>
       <r>    1.1769    0.9740 </r>
       <r>    1.2059    0.9590 </r>
       <r>    1.2889    0.8754 </r>
       <r>    1.3308    0.8039 </r>
       <r>    1.3370    0.7917 </r>
       <r>    1.4004    0.6418 </r>
       <r>    1.4245    0.5766 </r>
       <r>    1.4452    0.5188 </r>
       <r>    1.5071    0.3478 </r>
       <r>    1.5815    0.1797 </r>
       <r>    1.5869    0.1698 </r>
       <r>    1.6193    0.1181 </r>
       <r>    1.7121    0.0328 </r>
       <r>    1.7636    0.0138 </r>
       <r>    1.8155    0.0051 </r>
       <r>    1.8460    0.0027 </r>
       <r>    1.8814    0.0012 </r>
       <r>    1.8966    0.0008 </r>
       <r>    1.9124    0.0006 </r>
       <r>    1.9655    0.0001 </r>
       <r>    2.0209    0.0000 </r>
       <r>    2.0532    0.0000 </r>
       <r>    2.0807    0.0000 </r>
       <r>    2.1321    0.0000 </r>
       <r>    2.1543    0.0000 </r>
       <r>    2.1729    0.0000 </r>
       <r>    2.2230    0.0000 </r>
       <r>    2.2772    0.0000 </r>
       <r>    2.3248    0.0000 </r>
       <r>    2.3396    0.0000 </r>
       <r>    2.3915    0.0000 </r>
       <r>    2.4086    0.0000 </r>
       <r>    2.4622    0.0000 </r>
       <r>    2.5080    0.0000 </r>
       <r>    2.5236    0.0000 </r>
       <r>    2.5754    0.0000 </r>
       <r>    2.6869    0.0000 </r>
       <r>    2.7072    0.0000 </r>
       <r>    2.7721    0.0000 </r>
       <r>    2.8665    0.0000 </r>
       <r>    2.9422    0.0000 </r>
       <r>    3.0109    0.0000 </r>
       <r>    3.0935    0.0000 </r>
       <r>    4.1468    0.0000 </r>
       <r>    4.5322    0.0000 </r>
       <r>    4.5928    0.0000 </r>
       <r>    4.7058    0.0000 </r>
       <r>    4.9993    0.0000 </r>
       <r>    5.1055    0.0000 </r>
       <r>    5.4058    0.0000 </r>
       <r>    5.4744    0.0000 </r>
       <r>    5.6001    0.0000 </r>
       <r>    5.6989    0.0000 </r>
       <r>    5.7490    0.0000 </r>
       <r>    5.8199    0.0000 </r>
       <r>    5.8921    0.0000 </r>
       <r>    5.9540    0.0000 </r>
       <r>    5.9948    0.0000 </r>
       <r>    6.0223    0.0000 </r>
       <r>    6.1800    0.0000 </r>
       <r>    6.1984    0.0000 </r>
       <r>    6.2950    0.0000 </r>
       <r>    6.3316    0.0000 </r>
       <r>    6.4153    0.0000 </r>
       <r>    6.4603    0.0000 </r>
       <r>    6.5688    0.0000 </r>
       <r>    6.6260    0.0000 </r>
       <r>    6.6546    0.0000 </r>
       <r>    6.6627    0.0000 </r>
       <r>    6.7563    0.0000 </r>
       <r>    6.8236    0.0000 </r>
       <r>    6.9332    0.0000 </r>
       <r>    6.9998    0.0000 </r>
       <r>    7.0282    0.0000 </r>
       <r>    7.0862    0.0000 </r>
       <r>    7.1180    0.0000 </r>
       <r>    7.1662    0.0000 </r>
       <r>    7.1991    0.0000 </r>
       <r>    7.2211    0.0000 </r>
       <r>    7.2604    0.0000 </r>
       <r>    7.3333    0.0000 </r>
       <r>    7.3862    0.0000 </r>
       <r>    7.4037    0.0000 </r>
       <r>    7.4807    0.0000 </r>
       <r>    7.5036    0.0000 </r>
       <r>    7.5517    0.0000 </r>
       <r>    7.6041    0.0000 </r>
      </set>
     </set>
    </set>
   </array>
  </eigenvalues>
  <separator name="orbital magnetization" >
   <v name="MAGDIPOLOUT">      0.00000000      0.00000000      0.00000000</v>
  </separator>
  <dos>
   <i name="efermi">      1.45182119 </i>
   <total>
    <array>
     <dimension dim="1">gridpoints</dimension>
     <dimension dim="2">spin</dimension>
     <field>energy</field>
     <field>total</field>
     <field>integrated</field>
     <set>
      <set comment="spin 1">
       <r>   -67.0650     0.0000     0.0000 </r>
       <r>   -66.8043     0.0000     0.0000 </r>
       <r>   -66.5435     0.0000     0.0000 </r>
       <r>   -66.2828     0.0000     0.0000 </r>
       <r>   -66.0220     0.0000     0.0000 </r>
       <r>   -65.7613     0.0000     0.0000 </r>
       <r>   -65.5005     0.0000     0.0000 </r>
       <r>   -65.2398     0.0000     0.0000 </r>
       <r>   -64.9790     0.0000     0.0000 </r>
       <r>   -64.7183     0.0000     0.0000 </r>
       <r>   -64.4575     0.0000     0.0000 </r>
       <r>   -64.1968     0.0000     0.0000 </r>
       <r>   -63.9361     0.0102     0.0027 </r>
       <r>   -63.6753     1.2325     0.3240 </r>
       <r>   -63.4146    20.6728     5.7145 </r>
       <r>   -63.1538    87.7491    28.5950 </r>
       <r>   -62.8931   160.7418    70.5084 </r>
       <r>   -62.6323   250.4403   135.8106 </r>
       <r>   -62.3716   224.2786   194.2911 </r>
       <r>   -62.1108    73.6898   213.5057 </r>
       <r>   -61.8501     9.3864   215.9532 </r>
       <r>   -61.5893     0.1793   215.9999 </r>
       <r>   -61.3286     0.0002   216.0000 </r>
       <r>   -61.0678     0.0000   216.0000 </r>
       <r>   -60.8071     0.0000   216.0000 </r>
       <r>   -60.5463     0.0000   216.0000 </r>
       <r>   -60.2856     0.0000   216.0000 </r>
       <r>   -60.0248     0.0000   216.0000 </r>
       <r>   -59.7641     0.0000   216.0000 </r>
       <r>   -59.5033     0.0000   216.0000 </r>
       <r>   -59.2426     0.0000   216.0000 </r>
       <r>   -58.9818     0.0000   216.0000 </r>
       <r>   -58.7211     0.0000   216.0000 </r>
       <r>   -58.4603     0.0000   216.0000 </r>
       <r>   -58.1996     0.0000   216.0000 </r>
       <r>   -57.9388     0.0000   216.0000 </r>
       <r>   -57.6781     0.0000   216.0000 </r>
       <r>   -57.4173     0.0000   216.0000 </r>
       <r>   -57.1566     0.0000   216.0000 </r>
       <r>   -56.8958     0.0000   216.0000 </r>
       <r>   -56.6351     0.0000   216.0000 </r>
       <r>   -56.3743     0.0000   216.0000 </r>
       <r>   -56.1136     0.0000   216.0000 </r>
       <r>   -55.8528     0.0000   216.0000 </r>
       <r>   -55.5921     0.0000   216.0000 </r>
       <r>   -55.3313     0.0000   216.0000 </r>
       <r>   -55.0706     0.0000   216.0000 </r>
       <r>   -54.8098     0.0000   216.0000 </r>
       <r>   -54.5491     0.0000   216.0000 </r>
       <r>   -54.2883     0.0000   216.0000 </r>
       <r>   -54.0276     0.0000   216.0000 </r>
       <r>   -53.7668     0.0000   216.0000 </r>
       <r>   -53.5061     0.0000   216.0000 </r>
       <r>   -53.2453     0.0000   216.0000 </r>
       <r>   -52.9846     0.0000   216.0000 </r>
       <r>   -52.7238     0.0000   216.0000 </r>
       <r>   -52.4631     0.0000   216.0000 </r>
       <r>   -52.2023     0.0000   216.0000 </r>
       <r>   -51.9416     0.0000   216.0000 </r>
       <r>   -51.6808     0.0000   216.0000 </r>
       <r>   -51.4201     0.0000   216.0000 </r>
       <r>   -51.1593     0.0000   216.0000 </r>
       <r>   -50.8986     0.0000   216.0000 </r>
       <r>   -50.6378     0.0000   216.0000 </r>
       <r>   -50.3771     0.0000   216.0000 </r>
       <r>   -50.1163     0.0000   216.0000 </r>
       <r>   -49.8556     0.0000   216.0000 </r>
       <r>   -49.5948     0.0000   216.0000 </r>
       <r>   -49.3341     0.0000   216.0000 </r>
       <r>   -49.0733     0.0000   216.0000 </r>
       <r>   -48.8126     0.0000   216.0000 </r>
       <r>   -48.5518     0.0000   216.0000 </r>
       <r>   -48.2911     0.0000   216.0000 </r>
       <r>   -48.0303     0.0000   216.0000 </r>
       <r>   -47.7696     0.0000   216.0000 </r>
       <r>   -47.5088     0.0000   216.0000 </r>
       <r>   -47.2481     0.0000   216.0000 </r>
       <r>   -46.9873     0.0000   216.0000 </r>
       <r>   -46.7266     0.0000   216.0000 </r>
       <r>   -46.4658     0.0000   216.0000 </r>
       <r>   -46.2051     0.0000   216.0000 </r>
       <r>   -45.9443     0.0000   216.0000 </r>
       <r>   -45.6836     0.0000   216.0000 </r>
       <r>   -45.4228     0.0000   216.0000 </r>
       <r>   -45.1621     0.0000   216.0000 </r>
       <r>   -44.9013     0.0000   216.0000 </r>
       <r>   -44.6406     0.0000   216.0000 </r>
       <r>   -44.3798     0.0000   216.0000 </r>
       <r>   -44.1191     0.0000   216.0000 </r>
       <r>   -43.8583     0.0000   216.0000 </r>
       <r>   -43.5976     0.0000   216.0000 </r>
       <r>   -43.3368     0.0000   216.0000 </r>
       <r>   -43.0761     0.0000   216.0000 </r>
       <r>   -42.8153     0.0000   216.0000 </r>
       <r>   -42.5546     0.0000   216.0000 </r>
       <r>   -42.2938     0.0000   216.0000 </r>
       <r>   -42.0331     0.0000   216.0000 </r>
       <r>   -41.7723     0.0000   216.0000 </r>
       <r>   -41.5116     0.0000   216.0000 </r>
       <r>   -41.2508     0.0000   216.0000 </r>
       <r>   -40.9901     0.0000   216.0000 </r>
       <r>   -40.7293     0.0000   216.0000 </r>
       <r>   -40.4686     0.0000   216.0000 </r>
       <r>   -40.2078     0.0000   216.0000 </r>
       <r>   -39.9471     0.0000   216.0000 </r>
       <r>   -39.6863     0.0000   216.0000 </r>
       <r>   -39.4256     0.0000   216.0000 </r>
       <r>   -39.1648     0.0000   216.0000 </r>
       <r>   -38.9041     0.0000   216.0000 </r>
       <r>   -38.6433     0.0000   216.0000 </r>
       <r>   -38.3826     0.0000   216.0000 </r>
       <r>   -38.1218     0.0000   216.0000 </r>
       <r>   -37.8611     0.0000   216.0000 </r>
       <r>   -37.6003     0.0000   216.0000 </r>
       <r>   -37.3396     0.0000   216.0000 </r>
       <r>   -37.0788     0.0000   216.0000 </r>
       <r>   -36.8181     0.0000   216.0000 </r>
       <r>   -36.5573     0.0000   216.0000 </r>
       <r>   -36.2966     0.0000   216.0000 </r>
       <r>   -36.0358     0.0000   216.0000 </r>
       <r>   -35.7751     0.0000   216.0000 </r>
       <r>   -35.5143     0.0000   216.0000 </r>
       <r>   -35.2536     0.0000   216.0000 </r>
       <r>   -34.9928     0.0000   216.0000 </r>
       <r>   -34.7321     0.0000   216.0000 </r>
       <r>   -34.4713     0.0000   216.0000 </r>
       <r>   -34.2106     0.0000   216.0000 </r>
       <r>   -33.9499     0.0000   216.0000 </r>
       <r>   -33.6891     0.0000   216.0000 </r>
       <r>   -33.4284     0.0000   216.0000 </r>
       <r>   -33.1676     0.0000   216.0000 </r>
       <r>   -32.9069     0.0000   216.0000 </r>
       <r>   -32.6461     0.0000   216.0000 </r>
       <r>   -32.3854     0.0000   216.0000 </r>
       <r>   -32.1246     0.0000   216.0000 </r>
       <r>   -31.8639     0.0000   216.0000 </r>
       <r>   -31.6031     0.0000   216.0000 </r>
       <r>   -31.3424     0.0000   216.0000 </r>
       <r>   -31.0816     0.0000   216.0000 </r>
       <r>   -30.8209     0.0000   216.0000 </r>
       <r>   -30.5601     0.0000   216.0000 </r>
       <r>   -30.2994     0.0000   216.0000 </r>
       <r>   -30.0386     0.0000   216.0000 </r>
       <r>   -29.7779     0.0000   216.0000 </r>
       <r>   -29.5171     0.0000   216.0000 </r>
       <r>   -29.2564     0.0000   216.0000 </r>
       <r>   -28.9956     0.0000   216.0000 </r>
       <r>   -28.7349     0.0000   216.0000 </r>
       <r>   -28.4741     0.0000   216.0000 </r>
       <r>   -28.2134     0.0000   216.0000 </r>
       <r>   -27.9526     0.0000   216.0000 </r>
       <r>   -27.6919     0.0000   216.0000 </r>
       <r>   -27.4311     0.0000   216.0000 </r>
       <r>   -27.1704     0.0000   216.0000 </r>
       <r>   -26.9096     0.0000   216.0000 </r>
       <r>   -26.6489     0.0000   216.0000 </r>
       <r>   -26.3881     0.0000   216.0000 </r>
       <r>   -26.1274     0.0000   216.0000 </r>
       <r>   -25.8666     0.0000   216.0000 </r>
       <r>   -25.6059     0.0000   216.0000 </r>
       <r>   -25.3451     0.0000   216.0000 </r>
       <r>   -25.0844     0.0000   216.0000 </r>
       <r>   -24.8236     0.0000   216.0000 </r>
       <r>   -24.5629     0.0000   216.0000 </r>
       <r>   -24.3021     0.0000   216.0000 </r>
       <r>   -24.0414     0.0000   216.0000 </r>
       <r>   -23.7806     0.0000   216.0000 </r>
       <r>   -23.5199     0.0000   216.0000 </r>
       <r>   -23.2591     0.0000   216.0000 </r>
       <r>   -22.9984     0.0000   216.0000 </r>
       <r>   -22.7376     0.0000   216.0000 </r>
       <r>   -22.4769     0.0000   216.0000 </r>
       <r>   -22.2161     0.0000   216.0000 </r>
       <r>   -21.9554     0.0000   216.0000 </r>
       <r>   -21.6946     0.0000   216.0000 </r>
       <r>   -21.4339     0.0000   216.0000 </r>
       <r>   -21.1731     0.0000   216.0000 </r>
       <r>   -20.9124     0.0000   216.0000 </r>
       <r>   -20.6516     0.0000   216.0000 </r>
       <r>   -20.3909     0.0000   216.0000 </r>
       <r>   -20.1301     0.0000   216.0000 </r>
       <r>   -19.8694     0.0000   216.0000 </r>
       <r>   -19.6086     0.0000   216.0000 </r>
       <r>   -19.3479     0.0000   216.0000 </r>
       <r>   -19.0871     0.0000   216.0000 </r>
       <r>   -18.8264     0.0000   216.0000 </r>
       <r>   -18.5656     0.0000   216.0000 </r>
       <r>   -18.3049     0.0000   216.0000 </r>
       <r>   -18.0441     0.0000   216.0000 </r>
       <r>   -17.7834     0.0000   216.0000 </r>
       <r>   -17.5226     0.0000   216.0000 </r>
       <r>   -17.2619     0.0000   216.0000 </r>
       <r>   -17.0011     0.0000   216.0000 </r>
       <r>   -16.7404     0.0000   216.0000 </r>
       <r>   -16.4796     0.0000   216.0000 </r>
       <r>   -16.2189     0.0000   216.0000 </r>
       <r>   -15.9581     0.0000   216.0000 </r>
       <r>   -15.6974     0.0000   216.0000 </r>
       <r>   -15.4366     0.0064   216.0017 </r>
       <r>   -15.1759     0.7602   216.1999 </r>
       <r>   -14.9151     6.0988   217.7902 </r>
       <r>   -14.6544     7.3703   219.7120 </r>
       <r>   -14.3936     5.6726   221.1911 </r>
       <r>   -14.1329    12.7403   224.5131 </r>
       <r>   -13.8721    14.9078   228.4003 </r>
       <r>   -13.6114    15.9573   232.5612 </r>
       <r>   -13.3506    20.1922   237.8263 </r>
       <r>   -13.0899    24.7786   244.2873 </r>
       <r>   -12.8291    25.0826   250.8276 </r>
       <r>   -12.5684    26.9582   257.8569 </r>
       <r>   -12.3076    28.4310   265.2703 </r>
       <r>   -12.0469    33.0590   273.8904 </r>
       <r>   -11.7861    28.1683   281.2353 </r>
       <r>   -11.5254    12.1625   284.4067 </r>
       <r>   -11.2646     8.3204   286.5762 </r>
       <r>   -11.0039     4.9505   287.8671 </r>
       <r>   -10.7431     0.5067   287.9992 </r>
       <r>   -10.4824     0.0031   288.0000 </r>
       <r>   -10.2216     0.0000   288.0000 </r>
       <r>    -9.9609     0.0000   288.0000 </r>
       <r>    -9.7001     0.0000   288.0000 </r>
       <r>    -9.4394     0.0000   288.0000 </r>
       <r>    -9.1786     0.0000   288.0000 </r>
       <r>    -8.9179     0.0000   288.0000 </r>
       <r>    -8.6571     0.0000   288.0000 </r>
       <r>    -8.3964     0.0000   288.0000 </r>
       <r>    -8.1356     0.0000   288.0000 </r>
       <r>    -7.8749     0.0000   288.0000 </r>
       <r>    -7.6141     0.0000   288.0000 </r>
       <r>    -7.3534     0.0000   288.0000 </r>
       <r>    -7.0926     0.0219   288.0057 </r>
       <r>    -6.8319     1.7026   288.4497 </r>
       <r>    -6.5711    11.8888   291.5497 </r>
       <r>    -6.3104    21.3395   297.1139 </r>
       <r>    -6.0496    33.1941   305.7693 </r>
       <r>    -5.7889    35.6962   315.0770 </r>
       <r>    -5.5281    40.6354   325.6727 </r>
       <r>    -5.2674    40.2348   336.1639 </r>
       <r>    -5.0066    35.2470   345.3545 </r>
       <r>    -4.7459    39.9832   355.7801 </r>
       <r>    -4.4851    42.3853   366.8321 </r>
       <r>    -4.2244    43.1694   378.0885 </r>
       <r>    -3.9637    50.4898   391.2537 </r>
       <r>    -3.7029    63.1177   407.7116 </r>
       <r>    -3.4422    61.6086   423.7761 </r>
       <r>    -3.1814    66.6177   441.1466 </r>
       <r>    -2.9207    63.5977   457.7297 </r>
       <r>    -2.6599    54.9401   472.0553 </r>
       <r>    -2.3992    38.7339   482.1551 </r>
       <r>    -2.1384    46.1279   494.1829 </r>
       <r>    -1.8777    50.2005   507.2727 </r>
       <r>    -1.6169    60.7564   523.1149 </r>
       <r>    -1.3562    81.8622   544.4604 </r>
       <r>    -1.0954    94.4887   569.0983 </r>
       <r>    -0.8347   104.2038   596.2694 </r>
       <r>    -0.5739   122.0763   628.1007 </r>
       <r>    -0.3132   137.6454   663.9917 </r>
       <r>    -0.0524   131.9288   698.3921 </r>
       <r>     0.2083   100.1006   724.4933 </r>
       <r>     0.4691    62.8175   740.8729 </r>
       <r>     0.7298    59.0955   756.2820 </r>
       <r>     0.9906    54.9555   770.6116 </r>
       <r>     1.2513    46.0717   782.6248 </r>
       <r>     1.5121    46.7497   794.8148 </r>
       <r>     1.7728    44.8333   806.5051 </r>
       <r>     2.0336    52.6468   820.2327 </r>
       <r>     2.2943    53.6646   834.2257 </r>
       <r>     2.5551    48.0035   846.7426 </r>
       <r>     2.8158    33.8540   855.5700 </r>
       <r>     3.0766    23.6492   861.7365 </r>
       <r>     3.3373     8.2519   863.8882 </r>
       <r>     3.5981     0.4276   863.9997 </r>
       <r>     3.8588     0.1612   864.0417 </r>
       <r>     4.1196     3.1067   864.8518 </r>
       <r>     4.3803     5.7016   866.3385 </r>
       <r>     4.6411    12.0659   869.4847 </r>
       <r>     4.9018    11.3233   872.4372 </r>
       <r>     5.1626    10.5143   875.1788 </r>
       <r>     5.4233    11.1254   878.0798 </r>
       <r>     5.6841    20.4153   883.4030 </r>
       <r>     5.9448    29.5022   891.0957 </r>
       <r>     6.2056    29.8131   898.8695 </r>
       <r>     6.4663    30.3155   906.7742 </r>
       <r>     6.7271    33.4397   915.4936 </r>
       <r>     6.9878    32.5115   923.9710 </r>
       <r>     7.2486    43.5893   935.3369 </r>
       <r>     7.5093    41.7959   946.2351 </r>
       <r>     7.7701    20.2597   951.5178 </r>
       <r>     8.0308     1.8355   951.9964 </r>
       <r>     8.2916     0.0137   952.0000 </r>
       <r>     8.5523     0.0000   952.0000 </r>
       <r>     8.8131     0.0000   952.0000 </r>
       <r>     9.0738     0.0000   952.0000 </r>
       <r>     9.3346     0.0000   952.0000 </r>
       <r>     9.5953     0.0000   952.0000 </r>
       <r>     9.8561     0.0000   952.0000 </r>
       <r>    10.1168     0.0000   952.0000 </r>
       <r>    10.3776     0.0000   952.0000 </r>
       <r>    10.6383     0.0000   952.0000 </r>
       <r>    10.8991     0.0000   952.0000 </r>
       <r>    11.1598     0.0000   952.0000 </r>
      </set>
     </set>
    </array>
   </total>
  </dos>
 </calculation>
 <structure name="finalpos" >
  <crystal>
   <varray name="basis" >
    <v>      10.07973298       0.00000000       0.00000000 </v>
    <v>       3.57329804       9.42510255       0.00000000 </v>
    <v>       0.00000000       0.00000000      20.51013988 </v>
   </varray>
   <i name="volume">   1948.51491473 </i>
   <varray name="rec_basis" >
    <v>       0.09920898      -0.03761267       0.00000000 </v>
    <v>       0.00000000       0.10609964       0.00000000 </v>
    <v>       0.00000000       0.00000000       0.04875637 </v>
   </varray>
  </crystal>
  <varray name="positions" >
   <v>       0.34400154       0.72813116       0.15407644 </v>
   <v>       0.52460066       0.60109368       0.22312232 </v>
   <v>       0.67486918       0.45082517       0.35113229 </v>
   <v>       0.74788017       0.34799072       0.46299670 </v>
   <v>       0.56961015       0.18066553       0.07435518 </v>
   <v>       0.75775499       0.03460603       0.13778234 </v>
   <v>       0.06081402       0.73471406       0.38223139 </v>
   <v>       0.90802350       0.88433751       0.26579231 </v>
   <v>       0.14117783       0.31784985       0.18045233 </v>
   <v>       0.29144634       0.16758134       0.30846230 </v>
   <v>       0.41752278       0.03349931       0.42336478 </v>
   <v>       0.96035543       0.45052651       0.11514599 </v>
   <v>       0.00994000       0.11575434       0.41150025 </v>
   <v>       0.55270706       0.66274494       0.09093947 </v>
   <v>       0.70940298       0.41629137       0.15548031 </v>
   <v>       0.85967149       0.26602286       0.28349028 </v>
   <v>       0.09282582       0.69953520       0.19815030 </v>
   <v>       0.24309433       0.54926669       0.32616027 </v>
   <v>       0.38008123       0.41215076       0.43791834 </v>
   <v>       0.94255730       0.84980371       0.07014033 </v>
   <v>       0.33494549       0.12960723       0.13028272 </v>
   <v>       0.47624865       0.98277903       0.24082029 </v>
   <v>       0.60651669       0.83793050       0.36028598 </v>
   <v>       0.61284292       0.60482288       0.44182176 </v>
   <v>       0.03834758       0.34497449       0.43370782 </v>
   <v>       0.71423437       0.79861228       0.09788223 </v>
   <v>       0.74910482       0.64079553       0.18930132 </v>
   <v>       0.89937333       0.49052701       0.31731128 </v>
   <v>       0.98225915       0.07430787       0.10396133 </v>
   <v>       0.13252766       0.92403936       0.23197130 </v>
   <v>       0.28279617       0.77377084       0.35998128 </v>
   <v>       0.37580695       0.65849270       0.47055474 </v>
   <v>       0.20166063       0.65862155       0.07220039 </v>
   <v>       0.36568198       0.35755170       0.14663132 </v>
   <v>       0.51595050       0.20728318       0.27464130 </v>
   <v>       0.65142720       0.08469534       0.38425476 </v>
   <v>       0.06382158       0.26208477       0.34135992 </v>
   <v>       0.20149431       0.13768669       0.44298594 </v>
   <v>       0.76328455       0.56262179       0.08533998 </v>
   <v>       0.91355306       0.41235328       0.21334995 </v>
   <v>       0.14670739       0.84586562       0.12800997 </v>
   <v>       0.29697590       0.69559711       0.25601994 </v>
   <v>       0.44724441       0.54532860       0.38402991 </v>
   <v>       0.53808610       0.46499048       0.49760882 </v>
   <v>       0.98737493       0.99543161       0.01499242 </v>
   <v>       0.35732718       0.26275702       0.05885488 </v>
   <v>       0.53013023       0.12910945       0.17067996 </v>
   <v>       0.68039874       0.97884094       0.29868993 </v>
   <v>       0.52796422       0.79794212       0.17147277 </v>
   <v>       0.67823274       0.64767361       0.29948274 </v>
   <v>       0.82850125       0.49740510       0.42749271 </v>
   <v>       0.75894385       0.22625106       0.09903911 </v>
   <v>       0.91138706       0.08118595       0.21414276 </v>
   <v>       0.06165557       0.93091744       0.34215273 </v>
   <v>       0.17791514       0.79482704       0.45033354 </v>
   <v>       0.14454139       0.51469829       0.12880278 </v>
   <v>       0.29480990       0.36442978       0.25681275 </v>
   <v>       0.44507841       0.21416127       0.38482272 </v>
   <v>       0.04348252       0.69230824       0.00764543 </v>
   <v>       0.35837242       0.73766186       0.04681479 </v>
   <v>       0.47740939       0.51206696       0.12840637 </v>
   <v>       0.62767790       0.36179845       0.25641634 </v>
   <v>       0.77794641       0.21152993       0.38442632 </v>
   <v>       0.94835483       0.23473498       0.49463775 </v>
   <v>       0.01110074       0.64504227       0.29908634 </v>
   <v>       0.16261898       0.50753420       0.41449913 </v>
   <v>       0.71710689       0.97338085       0.04625935 </v>
   <v>       0.86083223       0.79531079       0.17107636 </v>
   <v>       0.08368834       0.22752047       0.10076028 </v>
   <v>       0.24425506       0.07855462       0.21374635 </v>
   <v>       0.39452358       0.92828611       0.34175632 </v>
   <v>       0.48999191       0.81476537       0.45298594 </v>
  </varray>
 </structure>
</modeling>
