<?xml version="1.0" encoding="ISO-8859-1"?>
<modeling>
 <generator>
  <i name="program" type="string">vasp </i>
  <i name="version" type="string">6.1.0  </i>
  <i name="subversion" type="string">28Jan20 (build Mar 31 2020 17:42:31) gamma-only                       parallel </i>
  <i name="platform" type="string">LinuxIFC </i>
  <i name="date" type="string">2020 04 12 </i>
  <i name="time" type="string">07:50:57 </i>
 </generator>
 <incar>
  <i type="string" name="SYSTEM">"Millerite NiS"</i>
  <i type="int" name="NSIM">     4</i>
  <i type="int" name="NELM">   100</i>
  <i name="ENCUT">    450.00000000</i>
  <i type="string" name="LREAL">A</i>
  <i type="int" name="ISMEAR">     0</i>
  <i type="int" name="NWRITE">     2</i>
  <i type="logical" name="LWAVE"> F  </i>
  <i type="logical" name="LCHARG"> F  </i>
  <i type="int" name="NCORE">     6</i>
  <i type="int" name="NELM">   100</i>
 </incar>
 <structure name="primitive_cell" >
  <crystal>
   <varray name="basis" >
    <v>      10.06282034       5.04456212       0.00000000 </v>
    <v>       0.00000000      11.25646304       0.00000000 </v>
    <v>       0.00000000       0.00000000      22.51995597 </v>
   </varray>
   <i name="volume">   2550.87516496 </i>
   <varray name="rec_basis" >
    <v>       0.09937572       0.00000000       0.00000000 </v>
    <v>      -0.04453504       0.08883785       0.00000000 </v>
    <v>       0.00000000       0.00000000       0.04440506 </v>
   </varray>
  </crystal>
  <varray name="positions" >
   <v>       0.26092069       0.47878037       0.29519774 </v>
   <v>       0.35488056       0.38482051       0.42557357 </v>
   <v>       0.16696082       0.07274025       0.16482191 </v>
   <v>       0.05611868       0.05147941       0.52150332 </v>
   <v>       0.27423906       0.33335901       0.13037583 </v>
   <v>       0.36819893       0.23939914       0.26075166 </v>
   <v>       0.46215879       0.14543927       0.39112749 </v>
   <v>       0.00030194       0.37150214       0.26075166 </v>
   <v>       0.09426180       0.27754227       0.39112749 </v>
   <v>       0.40634206       0.46546200       0.13037583 </v>
   <v>       0.76092069       0.47878037       0.29519774 </v>
   <v>       0.85488056       0.38482051       0.42557357 </v>
   <v>       0.66696082       0.07274025       0.16482191 </v>
   <v>       0.55611868       0.05147941       0.52150332 </v>
   <v>       0.68027919       0.42731887       0.00000000 </v>
   <v>       0.77423906       0.33335901       0.13037583 </v>
   <v>       0.86819893       0.23939914       0.26075166 </v>
   <v>       0.96215879       0.14543927       0.39112749 </v>
   <v>       0.50030194       0.37150214       0.26075166 </v>
   <v>       0.59426180       0.27754227       0.39112749 </v>
   <v>       0.90634206       0.46546200       0.13037583 </v>
   <v>       0.81238219       0.05942188       0.00000000 </v>
   <v>       0.26092069       0.97878037       0.29519774 </v>
   <v>       0.35488056       0.88482051       0.42557357 </v>
   <v>       0.44884042       0.79086064       0.55594940 </v>
   <v>       0.16696082       0.57274025       0.16482191 </v>
   <v>       0.05611868       0.55147941       0.52150332 </v>
   <v>       0.18027919       0.92731887       0.00000000 </v>
   <v>       0.27423906       0.83335901       0.13037583 </v>
   <v>       0.36819893       0.73939914       0.26075166 </v>
   <v>       0.46215879       0.64543927       0.39112749 </v>
   <v>       0.00030194       0.87150214       0.26075166 </v>
   <v>       0.09426180       0.77754227       0.39112749 </v>
   <v>       0.18822167       0.68358240       0.52150332 </v>
   <v>       0.40634206       0.96546200       0.13037583 </v>
   <v>       0.31238219       0.55942188       0.00000000 </v>
   <v>       0.76092069       0.97878037       0.29519774 </v>
   <v>       0.85488056       0.88482051       0.42557357 </v>
   <v>       0.66696082       0.57274025       0.16482191 </v>
   <v>       0.55611868       0.55147941       0.52150332 </v>
   <v>       0.68027919       0.92731887       0.00000000 </v>
   <v>       0.77423906       0.83335901       0.13037583 </v>
   <v>       0.86819893       0.73939914       0.26075166 </v>
   <v>       0.96215879       0.64543927       0.39112749 </v>
   <v>       0.50030194       0.87150214       0.26075166 </v>
   <v>       0.59426180       0.77754227       0.39112749 </v>
   <v>       0.68822167       0.68358240       0.52150332 </v>
   <v>       0.90634206       0.96546200       0.13037583 </v>
   <v>       0.07287763       0.16682345       0.31134756 </v>
   <v>       0.16683750       0.07286358       0.44172340 </v>
   <v>       0.38495788       0.35474318       0.05059591 </v>
   <v>       0.47891775       0.26078331       0.18097173 </v>
   <v>       0.03023342       0.37768265       0.48558574 </v>
   <v>       0.43627354       0.47164252       0.35520991 </v>
   <v>       0.24835381       0.15956227       0.09445824 </v>
   <v>       0.34231367       0.06560240       0.22483408 </v>
   <v>       0.08013881       0.49134726       0.09445824 </v>
   <v>       0.17409868       0.39738739       0.22483408 </v>
   <v>       0.26805854       0.30342752       0.35520991 </v>
   <v>       0.36201841       0.20946766       0.48558574 </v>
   <v>       0.57287763       0.16682345       0.31134756 </v>
   <v>       0.66683750       0.07286358       0.44172340 </v>
   <v>       0.88495788       0.35474318       0.05059591 </v>
   <v>       0.97891775       0.26078331       0.18097173 </v>
   <v>       0.53023342       0.37768265       0.48558574 </v>
   <v>       0.93627354       0.47164252       0.35520991 </v>
   <v>       0.74835381       0.15956227       0.09445824 </v>
   <v>       0.84231367       0.06560240       0.22483408 </v>
   <v>       0.58013881       0.49134726       0.09445824 </v>
   <v>       0.67409868       0.39738739       0.22483408 </v>
   <v>       0.76805854       0.30342752       0.35520991 </v>
   <v>       0.86201841       0.20946766       0.48558574 </v>
   <v>       0.07287763       0.66682345       0.31134756 </v>
   <v>       0.16683750       0.57286358       0.44172340 </v>
   <v>       0.38495788       0.85474318       0.05059591 </v>
   <v>       0.47891775       0.76078331       0.18097173 </v>
   <v>       0.03023342       0.87768265       0.48558574 </v>
   <v>       0.43627354       0.97164252       0.35520991 </v>
   <v>       0.24835381       0.65956227       0.09445824 </v>
   <v>       0.34231367       0.56560240       0.22483408 </v>
   <v>       0.08013881       0.99134726       0.09445824 </v>
   <v>       0.17409868       0.89738739       0.22483408 </v>
   <v>       0.26805854       0.80342752       0.35520991 </v>
   <v>       0.36201841       0.70946766       0.48558574 </v>
   <v>       0.57287763       0.66682345       0.31134756 </v>
   <v>       0.66683750       0.57286358       0.44172340 </v>
   <v>       0.88495788       0.85474318       0.05059591 </v>
   <v>       0.97891775       0.76078331       0.18097173 </v>
   <v>       0.53023342       0.87768265       0.48558574 </v>
   <v>       0.93627354       0.97164252       0.35520991 </v>
   <v>       0.74835381       0.65956227       0.09445824 </v>
   <v>       0.84231367       0.56560240       0.22483408 </v>
   <v>       0.58013881       0.99134726       0.09445824 </v>
   <v>       0.67409868       0.89738739       0.22483408 </v>
   <v>       0.76805854       0.80342752       0.35520991 </v>
   <v>       0.86201841       0.70946766       0.48558574 </v>
  </varray>
 </structure>
 <varray name="primitive_index" >
  <v type="int" >        1 </v>
  <v type="int" >        2 </v>
  <v type="int" >        3 </v>
  <v type="int" >        4 </v>
  <v type="int" >        5 </v>
  <v type="int" >        6 </v>
  <v type="int" >        7 </v>
  <v type="int" >        8 </v>
  <v type="int" >        9 </v>
  <v type="int" >       10 </v>
  <v type="int" >       11 </v>
  <v type="int" >       12 </v>
  <v type="int" >       13 </v>
  <v type="int" >       14 </v>
  <v type="int" >       15 </v>
  <v type="int" >       16 </v>
  <v type="int" >       17 </v>
  <v type="int" >       18 </v>
  <v type="int" >       19 </v>
  <v type="int" >       20 </v>
  <v type="int" >       21 </v>
  <v type="int" >       22 </v>
  <v type="int" >       23 </v>
  <v type="int" >       24 </v>
  <v type="int" >       25 </v>
  <v type="int" >       26 </v>
  <v type="int" >       27 </v>
  <v type="int" >       28 </v>
  <v type="int" >       29 </v>
  <v type="int" >       30 </v>
  <v type="int" >       31 </v>
  <v type="int" >       32 </v>
  <v type="int" >       33 </v>
  <v type="int" >       34 </v>
  <v type="int" >       35 </v>
  <v type="int" >       36 </v>
  <v type="int" >       37 </v>
  <v type="int" >       38 </v>
  <v type="int" >       39 </v>
  <v type="int" >       40 </v>
  <v type="int" >       41 </v>
  <v type="int" >       42 </v>
  <v type="int" >       43 </v>
  <v type="int" >       44 </v>
  <v type="int" >       45 </v>
  <v type="int" >       46 </v>
  <v type="int" >       47 </v>
  <v type="int" >       48 </v>
  <v type="int" >       49 </v>
  <v type="int" >       50 </v>
  <v type="int" >       51 </v>
  <v type="int" >       52 </v>
  <v type="int" >       53 </v>
  <v type="int" >       54 </v>
  <v type="int" >       55 </v>
  <v type="int" >       56 </v>
  <v type="int" >       57 </v>
  <v type="int" >       58 </v>
  <v type="int" >       59 </v>
  <v type="int" >       60 </v>
  <v type="int" >       61 </v>
  <v type="int" >       62 </v>
  <v type="int" >       63 </v>
  <v type="int" >       64 </v>
  <v type="int" >       65 </v>
  <v type="int" >       66 </v>
  <v type="int" >       67 </v>
  <v type="int" >       68 </v>
  <v type="int" >       69 </v>
  <v type="int" >       70 </v>
  <v type="int" >       71 </v>
  <v type="int" >       72 </v>
  <v type="int" >       73 </v>
  <v type="int" >       74 </v>
  <v type="int" >       75 </v>
  <v type="int" >       76 </v>
  <v type="int" >       77 </v>
  <v type="int" >       78 </v>
  <v type="int" >       79 </v>
  <v type="int" >       80 </v>
  <v type="int" >       81 </v>
  <v type="int" >       82 </v>
  <v type="int" >       83 </v>
  <v type="int" >       84 </v>
  <v type="int" >       85 </v>
  <v type="int" >       86 </v>
  <v type="int" >       87 </v>
  <v type="int" >       88 </v>
  <v type="int" >       89 </v>
  <v type="int" >       90 </v>
  <v type="int" >       91 </v>
  <v type="int" >       92 </v>
  <v type="int" >       93 </v>
  <v type="int" >       94 </v>
  <v type="int" >       95 </v>
  <v type="int" >       96 </v>
 </varray>
 <kpoints>
  <generation param="Gamma">
   <v type="int" name="divisions">       1        1        1 </v>
   <v name="usershift">      0.00000000       0.00000000       0.00000000 </v>
   <v name="genvec1">      1.00000000       0.00000000       0.00000000 </v>
   <v name="genvec2">     -0.00000000       1.00000000       0.00000000 </v>
   <v name="genvec3">      0.00000000       0.00000000       1.00000000 </v>
   <v name="shift">      0.00000000       0.00000000       0.00000000 </v>
  </generation>
  <varray name="kpointlist" >
   <v>       0.00000000       0.00000000       0.00000000 </v>
  </varray>
  <varray name="weights" >
   <v>       1.00000000 </v>
  </varray>
 </kpoints>
 <parameters>
  <separator name="general" >
   <i type="string" name="SYSTEM">"Millerite NiS"</i>
   <i type="logical" name="LCOMPAT"> F  </i>
  </separator>
  <separator name="electronic" >
   <i type="string" name="PREC">normal</i>
   <i name="ENMAX">    450.00000000</i>
   <i name="ENAUG">    703.44300000</i>
   <i name="EDIFF">      0.00010000</i>
   <i type="int" name="IALGO">    38</i>
   <i type="int" name="IWAVPR">    10</i>
   <i type="int" name="NBANDS">   640</i>
   <i type="int" name="NBANDSLOW">    -1</i>
   <i type="int" name="NBANDSHIGH">    -1</i>
   <i name="NELECT">   1056.00000000</i>
   <i type="int" name="TURBO">     0</i>
   <i type="int" name="IRESTART">     0</i>
   <i type="int" name="NREBOOT">     0</i>
   <i type="int" name="NMIN">     0</i>
   <i name="EREF">      0.00000000</i>
   <separator name="electronic smearing" >
    <i type="int" name="ISMEAR">     0</i>
    <i name="SIGMA">      0.20000000</i>
    <i name="KSPACING">      0.50000000</i>
    <i type="logical" name="KGAMMA"> T  </i>
    <i type="logical" name="KBLOWUP"> T  </i>
   </separator>
   <separator name="electronic projectors" >
    <i type="logical" name="LREAL"> T  </i>
    <v name="ROPT">     -0.00050000     -0.00050000</v>
    <i type="int" name="LMAXPAW">  -100</i>
    <i type="int" name="LMAXMIX">     2</i>
    <i type="logical" name="NLSPLINE"> F  </i>
   </separator>
   <separator name="electronic startup" >
    <i type="int" name="ISTART">     0</i>
    <i type="int" name="ICHARG">     2</i>
    <i type="int" name="INIWAV">     1</i>
   </separator>
   <separator name="electronic spin" >
    <i type="int" name="ISPIN">     1</i>
    <i type="logical" name="LNONCOLLINEAR"> F  </i>
    <v name="MAGMOM">      1.00000000      1.00000000      1.00000000      1.00000000      1.00000000      1.00000000      1.00000000      1.00000000      1.00000000      1.00000000      1.00000000      1.00000000      1.00000000      1.00000000      1.00000000      1.00000000      1.00000000      1.00000000      1.00000000      1.00000000
      1.00000000      1.00000000      1.00000000      1.00000000      1.00000000      1.00000000      1.00000000      1.00000000      1.00000000      1.00000000      1.00000000      1.00000000      1.00000000      1.00000000      1.00000000      1.00000000      1.00000000      1.00000000      1.00000000      1.00000000
      1.00000000      1.00000000      1.00000000      1.00000000      1.00000000      1.00000000      1.00000000      1.00000000      1.00000000      1.00000000      1.00000000      1.00000000      1.00000000      1.00000000      1.00000000      1.00000000      1.00000000      1.00000000      1.00000000      1.00000000
      1.00000000      1.00000000      1.00000000      1.00000000      1.00000000      1.00000000      1.00000000      1.00000000      1.00000000      1.00000000      1.00000000      1.00000000      1.00000000      1.00000000      1.00000000      1.00000000      1.00000000      1.00000000      1.00000000      1.00000000
      1.00000000      1.00000000      1.00000000      1.00000000      1.00000000      1.00000000      1.00000000      1.00000000      1.00000000      1.00000000      1.00000000      1.00000000      1.00000000      1.00000000      1.00000000      1.00000000</v>
    <i name="NUPDOWN">     -1.00000000</i>
    <i type="logical" name="LSORBIT"> F  </i>
    <v name="SAXIS">      0.00000000      0.00000000      1.00000000</v>
    <i type="logical" name="LSPIRAL"> F  </i>
    <v name="QSPIRAL">      0.00000000      0.00000000      0.00000000</v>
    <i type="logical" name="LZEROZ"> F  </i>
   </separator>
   <separator name="electronic exchange-correlation" >
    <i type="logical" name="LASPH"> F  </i>
    <i type="logical" name="LMETAGGA"> F  </i>
   </separator>
   <separator name="electronic convergence" >
    <i type="int" name="NELM">   100</i>
    <i type="int" name="NELMDL">    -5</i>
    <i type="int" name="NELMIN">     2</i>
    <i name="ENINI">    450.00000000</i>
    <separator name="electronic convergence detail" >
     <i type="logical" name="LDIAG"> T  </i>
     <i type="logical" name="LSUBROT"> F  </i>
     <i name="WEIMIN">      0.00000000</i>
     <i name="EBREAK">      0.00000004</i>
     <i name="DEPER">      0.30000000</i>
     <i type="int" name="NRMM">     4</i>
     <i name="TIME">      0.40000000</i>
    </separator>
   </separator>
   <separator name="electronic mixer" >
    <i name="AMIX">      0.40000000</i>
    <i name="BMIX">      1.00000000</i>
    <i name="AMIN">      0.10000000</i>
    <i name="AMIX_MAG">      1.60000000</i>
    <i name="BMIX_MAG">      1.00000000</i>
    <separator name="electronic mixer details" >
     <i type="int" name="IMIX">     4</i>
     <i type="logical" name="MIXFIRST"> F  </i>
     <i type="int" name="MAXMIX">   -45</i>
     <i name="WC">    100.00000000</i>
     <i type="int" name="INIMIX">     1</i>
     <i type="int" name="MIXPRE">     1</i>
     <i type="int" name="MREMOVE">     5</i>
    </separator>
   </separator>
   <separator name="electronic dipolcorrection" >
    <i type="logical" name="LDIPOL"> F  </i>
    <i type="logical" name="LMONO"> F  </i>
    <i type="int" name="IDIPOL">     0</i>
    <i name="EPSILON">      1.00000000</i>
    <v name="DIPOL">   -100.00000000   -100.00000000   -100.00000000</v>
    <i name="EFIELD">      0.00000000</i>
   </separator>
  </separator>
  <separator name="grids" >
   <i type="int" name="NGX">    60</i>
   <i type="int" name="NGY">    60</i>
   <i type="int" name="NGZ">   120</i>
   <i type="int" name="NGXF">   120</i>
   <i type="int" name="NGYF">   120</i>
   <i type="int" name="NGZF">   240</i>
   <i type="logical" name="ADDGRID"> F  </i>
  </separator>
  <separator name="ionic" >
   <i type="int" name="NSW">     0</i>
   <i type="int" name="IBRION">    -1</i>
   <i type="int" name="MDALGO">     0</i>
   <i type="int" name="ISIF">     2</i>
   <i name="PSTRESS">      0.00000000</i>
   <i name="EDIFFG">      0.00100000</i>
   <i type="int" name="NFREE">     0</i>
   <i name="POTIM">      0.50000000</i>
   <i name="SMASS">     -3.00000000</i>
   <i name="SCALEE">      1.00000000</i>
  </separator>
  <separator name="ionic md" >
   <i name="TEBEG">      0.00010000</i>
   <i name="TEEND">      0.00010000</i>
   <i type="int" name="NBLOCK">     1</i>
   <i type="int" name="KBLOCK">     1</i>
   <i type="int" name="NPACO">   256</i>
   <i name="APACO">     16.00000000</i>
  </separator>
  <separator name="symmetry" >
   <i type="int" name="ISYM">     2</i>
   <i name="SYMPREC">      0.00001000</i>
  </separator>
  <separator name="dos" >
   <i type="int" name="LORBIT">     0</i>
   <v name="RWIGS">     -1.00000000     -1.00000000</v>
   <i type="int" name="NEDOS">   301</i>
   <i name="EMIN">     10.00000000</i>
   <i name="EMAX">    -10.00000000</i>
   <i name="EFERMI">      0.00000000</i>
  </separator>
  <separator name="writing" >
   <i type="int" name="NWRITE">     2</i>
   <i type="logical" name="LWAVE"> F  </i>
   <i type="logical" name="LDOWNSAMPLE"> F  </i>
   <i type="logical" name="LCHARG"> F  </i>
   <i type="logical" name="LPARD"> F  </i>
   <i type="logical" name="LVTOT"> F  </i>
   <i type="logical" name="LVHAR"> F  </i>
   <i type="logical" name="LELF"> F  </i>
   <i type="logical" name="LOPTICS"> F  </i>
   <v name="STM">      0.00000000      0.00000000      0.00000000      0.00000000      0.00000000      0.00000000      0.00000000</v>
  </separator>
  <separator name="performance" >
   <i type="int" name="NPAR">     8</i>
   <i type="int" name="NSIM">     4</i>
   <i type="int" name="NBLK">    -1</i>
   <i type="logical" name="LPLANE"> T  </i>
   <i type="logical" name="LSCALAPACK"> T  </i>
   <i type="logical" name="LSCAAWARE"> F  </i>
   <i type="logical" name="LSCALU"> F  </i>
   <i type="logical" name="LASYNC"> F  </i>
   <i type="logical" name="LORBITALREAL"> F  </i>
  </separator>
  <separator name="miscellaneous" >
   <i type="int" name="IDIOT">     3</i>
   <i type="int" name="PHON_NSTRUCT">    -1</i>
   <i type="logical" name="LMUSIC"> F  </i>
   <v name="POMASS">     58.69000000     32.06600000</v>
   <v name="DARWINR">      0.00000000      0.00000000</v>
   <v name="DARWINV">      1.00000000      1.00000000</v>
   <i type="logical" name="LCORR"> T  </i>
  </separator>
  <i type="logical" name="GGA_COMPAT"> T  </i>
  <i type="logical" name="LBERRY"> F  </i>
  <i type="int" name="ICORELEVEL">     0</i>
  <i type="logical" name="LDAU"> F  </i>
  <i type="int" name="I_CONSTRAINED_M">     0</i>
  <separator name="electronic exchange-correlation" >
   <i type="string" name="GGA">--</i>
   <i type="int" name="VOSKOWN">     0</i>
   <i type="logical" name="LHFCALC"> F  </i>
   <i type="string" name="PRECFOCK"></i>
   <i type="logical" name="LSYMGRAD"> F  </i>
   <i type="logical" name="LHFONE"> F  </i>
   <i type="logical" name="LRHFCALC"> F  </i>
   <i type="logical" name="LTHOMAS"> F  </i>
   <i type="logical" name="LMODELHF"> F  </i>
   <i type="logical" name="LFOCKACE"> F  </i>
   <i name="ENCUT4O">     -1.00000000</i>
   <i type="int" name="EXXOEP">     0</i>
   <i type="int" name="FOURORBIT">     0</i>
   <i name="AEXX">      0.00000000</i>
   <i name="HFALPHA">      0.00000000</i>
   <i name="MCALPHA">      0.00000000</i>
   <i name="ALDAX">      1.00000000</i>
   <i name="AGGAX">      1.00000000</i>
   <i name="ALDAC">      1.00000000</i>
   <i name="AGGAC">      1.00000000</i>
   <i type="int" name="NKREDX">     1</i>
   <i type="int" name="NKREDY">     1</i>
   <i type="int" name="NKREDZ">     1</i>
   <i type="logical" name="SHIFTRED"> F  </i>
   <i type="logical" name="ODDONLY"> F  </i>
   <i type="logical" name="EVENONLY"> F  </i>
   <i type="int" name="LMAXFOCK">     0</i>
   <i type="int" name="NMAXFOCKAE">     0</i>
   <i type="logical" name="LFOCKAEDFT"> F  </i>
   <i name="HFSCREEN">      0.00000000</i>
   <i name="HFSCREENC">      0.00000000</i>
   <i type="int" name="NBANDSGWLOW">     0</i>
  </separator>
  <separator name="vdW DFT" >
   <i type="logical" name="LUSE_VDW"> F  </i>
   <i name="Zab_VDW">     -0.84910000</i>
   <i name="PARAM1">      0.12340000</i>
   <i name="PARAM2">      1.00000000</i>
   <i name="PARAM3">      0.00000000</i>
  </separator>
  <separator name="model GW" >
   <i type="int" name="MODEL_GW">     0</i>
   <i name="MODEL_EPS0">     15.94296978</i>
   <i name="MODEL_ALPHA">      1.00000000</i>
  </separator>
  <separator name="linear response parameters" >
   <i type="logical" name="LEPSILON"> F  </i>
   <i type="logical" name="LRPA"> F  </i>
   <i type="logical" name="LNABLA"> F  </i>
   <i type="logical" name="LVEL"> F  </i>
   <i type="int" name="KINTER">     0</i>
   <i name="CSHIFT">      0.10000000</i>
   <i name="OMEGAMAX">     -1.00000000</i>
   <i name="DEG_THRESHOLD">      0.00200000</i>
   <i name="RTIME">     -0.10000000</i>
   <i name="WPLASMAI">      0.00000000</i>
   <v name="DFIELD">      0.00000000      0.00000000      0.00000000</v>
   <v name="WPLASMA">      0.00000000      0.00000000      0.00000000      0.00000000      0.00000000      0.00000000      0.00000000      0.00000000      0.00000000</v>
  </separator>
  <separator name="orbital magnetization" >
   <i type="logical" name="NUCIND"> F  </i>
   <v name="MAGPOS">      0.00000000      0.00000000      0.00000000</v>
   <i type="logical" name="LNICSALL"> T  </i>
   <i type="logical" name="ORBITALMAG"> F  </i>
   <i type="logical" name="LMAGBLOCH"> F  </i>
   <i type="logical" name="LCHIMAG"> F  </i>
   <i type="logical" name="LGAUGE"> T  </i>
   <i type="int" name="MAGATOM">     0</i>
   <v name="MAGDIPOL">      0.00000000      0.00000000      0.00000000</v>
   <v name="AVECCONST">      0.00000000      0.00000000      0.00000000</v>
  </separator>
  <separator name="response functions" >
   <i type="logical" name="LFINITE_TEMPERATURE"> F  </i>
   <i type="logical" name="LADDER"> F  </i>
   <i type="logical" name="LRPAFORCE"> F  </i>
   <i type="logical" name="LFXC"> F  </i>
   <i type="logical" name="LHARTREE"> T  </i>
   <i type="int" name="IBSE">     0</i>
   <v type="int" name="KPOINT">    -1     0     0     0</v>
   <i type="logical" name="LTCTC"> F  </i>
   <i type="logical" name="LTCTE"> F  </i>
   <i type="logical" name="LTETE"> F  </i>
   <i type="logical" name="LTRIPLET"> F  </i>
   <i type="logical" name="LFXCEPS"> F  </i>
   <i type="logical" name="LFXHEG"> F  </i>
   <i type="int" name="NATURALO">     2</i>
   <i type="logical" name="LHOLEGF"> F  </i>
   <i type="logical" name="L2ORDER"> F  </i>
   <i type="logical" name="LDMP1"> F  </i>
   <i type="logical" name="LMP2LT"> F  </i>
   <i type="logical" name="LSMP2LT"> F  </i>
   <i type="logical" name="LGWLF"> F  </i>
   <i name="ENCUTGW">     -2.00000000</i>
   <i name="ENCUTGWSOFT">     -2.00000000</i>
   <i name="ENCUTLF">     -1.00000000</i>
   <i type="logical" name="LESF_SPLINES"> F  </i>
   <i type="int" name="LMAXMP2">    -1</i>
   <i name="SCISSOR">      0.00000000</i>
   <i type="int" name="NOMEGA">     0</i>
   <i type="int" name="NOMEGAR">     0</i>
   <i type="int" name="NBANDSGW">    -1</i>
   <i type="int" name="NBANDSO">    -1</i>
   <i type="int" name="NBANDSV">    -1</i>
   <i type="int" name="NELM">   100</i>
   <i type="int" name="NELMHF">     1</i>
   <i type="int" name="DIM">     3</i>
   <i type="int" name="IESPILON">     4</i>
   <i type="int" name="ANTIRES">     0</i>
   <i name="OMEGAMAX">    -30.00000000</i>
   <i name="OMEGAMIN">    -30.00000000</i>
   <i name="OMEGATL">   -200.00000000</i>
   <i type="int" name="OMEGAGRID">     0</i>
   <i name="CSHIFT">     -0.10000000</i>
   <i type="logical" name="LSELFENERGY"> F  </i>
   <i type="logical" name="LSPECTRAL"> F  </i>
   <i type="logical" name="LSPECTRALGW"> F  </i>
   <i type="logical" name="LSINGLES"> F  </i>
   <i type="logical" name="LFERMIGW"> F  </i>
   <i type="logical" name="ODDONLYGW"> F  </i>
   <i type="logical" name="EVENONLYGW"> F  </i>
   <i type="int" name="NKREDLFX">     1</i>
   <i type="int" name="NKREDLFY">     1</i>
   <i type="int" name="NKREDLFZ">     1</i>
   <i type="int" name="MAXMEM">  2800</i>
   <i type="int" name="TELESCOPE">     0</i>
   <i type="int" name="NTAUPAR">    -1</i>
   <i type="int" name="NOMEGAPAR">    -1</i>
   <i name="LAMBDA">      1.00000000</i>
  </separator>
  <separator name="External order field" >
   <i name="OFIELD_KAPPA">      0.00000000</i>
   <v name="OFIELD_K">      0.00000000      0.00000000      0.00000000</v>
   <i name="OFIELD_Q6_NEAR">      0.00000000</i>
   <i name="OFIELD_Q6_FAR">      0.00000000</i>
   <i name="OFIELD_A">      0.00000000</i>
  </separator>
 </parameters>
 <atominfo>
  <atoms>      96 </atoms>
  <types>       2 </types>
  <array name="atoms" >
   <dimension dim="1">ion</dimension>
   <field type="string">element</field>
   <field type="int">atomtype</field>
   <set>
    <rc><c>Ni</c><c>   1</c></rc>
    <rc><c>Ni</c><c>   1</c></rc>
    <rc><c>Ni</c><c>   1</c></rc>
    <rc><c>Ni</c><c>   1</c></rc>
    <rc><c>Ni</c><c>   1</c></rc>
    <rc><c>Ni</c><c>   1</c></rc>
    <rc><c>Ni</c><c>   1</c></rc>
    <rc><c>Ni</c><c>   1</c></rc>
    <rc><c>Ni</c><c>   1</c></rc>
    <rc><c>Ni</c><c>   1</c></rc>
    <rc><c>Ni</c><c>   1</c></rc>
    <rc><c>Ni</c><c>   1</c></rc>
    <rc><c>Ni</c><c>   1</c></rc>
    <rc><c>Ni</c><c>   1</c></rc>
    <rc><c>Ni</c><c>   1</c></rc>
    <rc><c>Ni</c><c>   1</c></rc>
    <rc><c>Ni</c><c>   1</c></rc>
    <rc><c>Ni</c><c>   1</c></rc>
    <rc><c>Ni</c><c>   1</c></rc>
    <rc><c>Ni</c><c>   1</c></rc>
    <rc><c>Ni</c><c>   1</c></rc>
    <rc><c>Ni</c><c>   1</c></rc>
    <rc><c>Ni</c><c>   1</c></rc>
    <rc><c>Ni</c><c>   1</c></rc>
    <rc><c>Ni</c><c>   1</c></rc>
    <rc><c>Ni</c><c>   1</c></rc>
    <rc><c>Ni</c><c>   1</c></rc>
    <rc><c>Ni</c><c>   1</c></rc>
    <rc><c>Ni</c><c>   1</c></rc>
    <rc><c>Ni</c><c>   1</c></rc>
    <rc><c>Ni</c><c>   1</c></rc>
    <rc><c>Ni</c><c>   1</c></rc>
    <rc><c>Ni</c><c>   1</c></rc>
    <rc><c>Ni</c><c>   1</c></rc>
    <rc><c>Ni</c><c>   1</c></rc>
    <rc><c>Ni</c><c>   1</c></rc>
    <rc><c>Ni</c><c>   1</c></rc>
    <rc><c>Ni</c><c>   1</c></rc>
    <rc><c>Ni</c><c>   1</c></rc>
    <rc><c>Ni</c><c>   1</c></rc>
    <rc><c>Ni</c><c>   1</c></rc>
    <rc><c>Ni</c><c>   1</c></rc>
    <rc><c>Ni</c><c>   1</c></rc>
    <rc><c>Ni</c><c>   1</c></rc>
    <rc><c>Ni</c><c>   1</c></rc>
    <rc><c>Ni</c><c>   1</c></rc>
    <rc><c>Ni</c><c>   1</c></rc>
    <rc><c>Ni</c><c>   1</c></rc>
    <rc><c>S </c><c>   2</c></rc>
    <rc><c>S </c><c>   2</c></rc>
    <rc><c>S </c><c>   2</c></rc>
    <rc><c>S </c><c>   2</c></rc>
    <rc><c>S </c><c>   2</c></rc>
    <rc><c>S </c><c>   2</c></rc>
    <rc><c>S </c><c>   2</c></rc>
    <rc><c>S </c><c>   2</c></rc>
    <rc><c>S </c><c>   2</c></rc>
    <rc><c>S </c><c>   2</c></rc>
    <rc><c>S </c><c>   2</c></rc>
    <rc><c>S </c><c>   2</c></rc>
    <rc><c>S </c><c>   2</c></rc>
    <rc><c>S </c><c>   2</c></rc>
    <rc><c>S </c><c>   2</c></rc>
    <rc><c>S </c><c>   2</c></rc>
    <rc><c>S </c><c>   2</c></rc>
    <rc><c>S </c><c>   2</c></rc>
    <rc><c>S </c><c>   2</c></rc>
    <rc><c>S </c><c>   2</c></rc>
    <rc><c>S </c><c>   2</c></rc>
    <rc><c>S </c><c>   2</c></rc>
    <rc><c>S </c><c>   2</c></rc>
    <rc><c>S </c><c>   2</c></rc>
    <rc><c>S </c><c>   2</c></rc>
    <rc><c>S </c><c>   2</c></rc>
    <rc><c>S </c><c>   2</c></rc>
    <rc><c>S </c><c>   2</c></rc>
    <rc><c>S </c><c>   2</c></rc>
    <rc><c>S </c><c>   2</c></rc>
    <rc><c>S </c><c>   2</c></rc>
    <rc><c>S </c><c>   2</c></rc>
    <rc><c>S </c><c>   2</c></rc>
    <rc><c>S </c><c>   2</c></rc>
    <rc><c>S </c><c>   2</c></rc>
    <rc><c>S </c><c>   2</c></rc>
    <rc><c>S </c><c>   2</c></rc>
    <rc><c>S </c><c>   2</c></rc>
    <rc><c>S </c><c>   2</c></rc>
    <rc><c>S </c><c>   2</c></rc>
    <rc><c>S </c><c>   2</c></rc>
    <rc><c>S </c><c>   2</c></rc>
    <rc><c>S </c><c>   2</c></rc>
    <rc><c>S </c><c>   2</c></rc>
    <rc><c>S </c><c>   2</c></rc>
    <rc><c>S </c><c>   2</c></rc>
    <rc><c>S </c><c>   2</c></rc>
    <rc><c>S </c><c>   2</c></rc>
   </set>
  </array>
  <array name="atomtypes" >
   <dimension dim="1">type</dimension>
   <field type="int">atomspertype</field>
   <field type="string">element</field>
   <field>mass</field>
   <field>valence</field>
   <field type="string">pseudopotential</field>
   <set>
    <rc><c>  48</c><c>Ni</c><c>     58.69000000</c><c>     16.00000000</c><c>  PAW_PBE Ni_pv 06Sep2000               </c></rc>
    <rc><c>  48</c><c>S </c><c>     32.06600000</c><c>      6.00000000</c><c>  PAW_PBE S 06Sep2000                   </c></rc>
   </set>
  </array>
 </atominfo>
 <structure name="initialpos" >
  <crystal>
   <varray name="basis" >
    <v>      10.06282034       5.04456212       0.00000000 </v>
    <v>       0.00000000      11.25646304       0.00000000 </v>
    <v>       0.00000000       0.00000000      22.51995597 </v>
   </varray>
   <i name="volume">   2550.87516496 </i>
   <varray name="rec_basis" >
    <v>       0.09937572       0.00000000       0.00000000 </v>
    <v>      -0.04453504       0.08883785       0.00000000 </v>
    <v>       0.00000000       0.00000000       0.04440506 </v>
   </varray>
  </crystal>
  <varray name="positions" >
   <v>       0.26092069       0.47878037       0.29519774 </v>
   <v>       0.35488056       0.38482051       0.42557357 </v>
   <v>       0.16696082       0.07274025       0.16482191 </v>
   <v>       0.05611868       0.05147941       0.52150332 </v>
   <v>       0.27423906       0.33335901       0.13037583 </v>
   <v>       0.36819893       0.23939914       0.26075166 </v>
   <v>       0.46215879       0.14543927       0.39112749 </v>
   <v>       0.00030194       0.37150214       0.26075166 </v>
   <v>       0.09426180       0.27754227       0.39112749 </v>
   <v>       0.40634206       0.46546200       0.13037583 </v>
   <v>       0.76092069       0.47878037       0.29519774 </v>
   <v>       0.85488056       0.38482051       0.42557357 </v>
   <v>       0.66696082       0.07274025       0.16482191 </v>
   <v>       0.55611868       0.05147941       0.52150332 </v>
   <v>       0.68027919       0.42731887       0.00000000 </v>
   <v>       0.77423906       0.33335901       0.13037583 </v>
   <v>       0.86819893       0.23939914       0.26075166 </v>
   <v>       0.96215879       0.14543927       0.39112749 </v>
   <v>       0.50030194       0.37150214       0.26075166 </v>
   <v>       0.59426180       0.27754227       0.39112749 </v>
   <v>       0.90634206       0.46546200       0.13037583 </v>
   <v>       0.81238219       0.05942188       0.00000000 </v>
   <v>       0.26092069       0.97878037       0.29519774 </v>
   <v>       0.35488056       0.88482051       0.42557357 </v>
   <v>       0.44884042       0.79086064       0.55594940 </v>
   <v>       0.16696082       0.57274025       0.16482191 </v>
   <v>       0.05611868       0.55147941       0.52150332 </v>
   <v>       0.18027919       0.92731887       0.00000000 </v>
   <v>       0.27423906       0.83335901       0.13037583 </v>
   <v>       0.36819893       0.73939914       0.26075166 </v>
   <v>       0.46215879       0.64543927       0.39112749 </v>
   <v>       0.00030194       0.87150214       0.26075166 </v>
   <v>       0.09426180       0.77754227       0.39112749 </v>
   <v>       0.18822167       0.68358240       0.52150332 </v>
   <v>       0.40634206       0.96546200       0.13037583 </v>
   <v>       0.31238219       0.55942188       0.00000000 </v>
   <v>       0.76092069       0.97878037       0.29519774 </v>
   <v>       0.85488056       0.88482051       0.42557357 </v>
   <v>       0.66696082       0.57274025       0.16482191 </v>
   <v>       0.55611868       0.55147941       0.52150332 </v>
   <v>       0.68027919       0.92731887       0.00000000 </v>
   <v>       0.77423906       0.83335901       0.13037583 </v>
   <v>       0.86819893       0.73939914       0.26075166 </v>
   <v>       0.96215879       0.64543927       0.39112749 </v>
   <v>       0.50030194       0.87150214       0.26075166 </v>
   <v>       0.59426180       0.77754227       0.39112749 </v>
   <v>       0.68822167       0.68358240       0.52150332 </v>
   <v>       0.90634206       0.96546200       0.13037583 </v>
   <v>       0.07287763       0.16682345       0.31134756 </v>
   <v>       0.16683750       0.07286358       0.44172340 </v>
   <v>       0.38495788       0.35474318       0.05059591 </v>
   <v>       0.47891775       0.26078331       0.18097173 </v>
   <v>       0.03023342       0.37768265       0.48558574 </v>
   <v>       0.43627354       0.47164252       0.35520991 </v>
   <v>       0.24835381       0.15956227       0.09445824 </v>
   <v>       0.34231367       0.06560240       0.22483408 </v>
   <v>       0.08013881       0.49134726       0.09445824 </v>
   <v>       0.17409868       0.39738739       0.22483408 </v>
   <v>       0.26805854       0.30342752       0.35520991 </v>
   <v>       0.36201841       0.20946766       0.48558574 </v>
   <v>       0.57287763       0.16682345       0.31134756 </v>
   <v>       0.66683750       0.07286358       0.44172340 </v>
   <v>       0.88495788       0.35474318       0.05059591 </v>
   <v>       0.97891775       0.26078331       0.18097173 </v>
   <v>       0.53023342       0.37768265       0.48558574 </v>
   <v>       0.93627354       0.47164252       0.35520991 </v>
   <v>       0.74835381       0.15956227       0.09445824 </v>
   <v>       0.84231367       0.06560240       0.22483408 </v>
   <v>       0.58013881       0.49134726       0.09445824 </v>
   <v>       0.67409868       0.39738739       0.22483408 </v>
   <v>       0.76805854       0.30342752       0.35520991 </v>
   <v>       0.86201841       0.20946766       0.48558574 </v>
   <v>       0.07287763       0.66682345       0.31134756 </v>
   <v>       0.16683750       0.57286358       0.44172340 </v>
   <v>       0.38495788       0.85474318       0.05059591 </v>
   <v>       0.47891775       0.76078331       0.18097173 </v>
   <v>       0.03023342       0.87768265       0.48558574 </v>
   <v>       0.43627354       0.97164252       0.35520991 </v>
   <v>       0.24835381       0.65956227       0.09445824 </v>
   <v>       0.34231367       0.56560240       0.22483408 </v>
   <v>       0.08013881       0.99134726       0.09445824 </v>
   <v>       0.17409868       0.89738739       0.22483408 </v>
   <v>       0.26805854       0.80342752       0.35520991 </v>
   <v>       0.36201841       0.70946766       0.48558574 </v>
   <v>       0.57287763       0.66682345       0.31134756 </v>
   <v>       0.66683750       0.57286358       0.44172340 </v>
   <v>       0.88495788       0.85474318       0.05059591 </v>
   <v>       0.97891775       0.76078331       0.18097173 </v>
   <v>       0.53023342       0.87768265       0.48558574 </v>
   <v>       0.93627354       0.97164252       0.35520991 </v>
   <v>       0.74835381       0.65956227       0.09445824 </v>
   <v>       0.84231367       0.56560240       0.22483408 </v>
   <v>       0.58013881       0.99134726       0.09445824 </v>
   <v>       0.67409868       0.89738739       0.22483408 </v>
   <v>       0.76805854       0.80342752       0.35520991 </v>
   <v>       0.86201841       0.70946766       0.48558574 </v>
  </varray>
 </structure>
 <calculation>
  <scstep>
   <time name="dav">    4.25    4.26</time>
   <time name="total">    4.32    4.34</time>
   <energy>
    <i name="alphaZ">   2592.50432107 </i>
    <i name="ewald"> 252552.34371269 </i>
    <i name="hartreedc">-416258.47839966 </i>
    <i name="XCdc">   4868.91456894 </i>
    <i name="pawpsdc"> 150306.04444553 </i>
    <i name="pawaedc">-156855.34918313 </i>
    <i name="eentropy">     -0.43781287 </i>
    <i name="bandstr">  -5383.74027468 </i>
    <i name="atom"> 181336.80673834 </i>
    <i name="e_fr_energy">  13158.60811626 </i>
    <i name="e_wo_entrp">  13159.04592912 </i>
    <i name="e_0_energy">  13158.82702269 </i>
   </energy>
  </scstep>
  <scstep>
   <time name="dav">    4.00    4.01</time>
   <time name="total">    4.00    4.01</time>
   <energy>
    <i name="e_fr_energy">    835.57961005 </i>
    <i name="e_wo_entrp">    836.65691538 </i>
    <i name="e_0_energy">    836.11826272 </i>
   </energy>
  </scstep>
  <scstep>
   <time name="dav">    4.23    4.24</time>
   <time name="total">    4.23    4.24</time>
   <energy>
    <i name="e_fr_energy">   -449.48874338 </i>
    <i name="e_wo_entrp">   -447.84128161 </i>
    <i name="e_0_energy">   -448.66501249 </i>
   </energy>
  </scstep>
  <scstep>
   <time name="dav">    4.34    4.35</time>
   <time name="total">    4.34    4.35</time>
   <energy>
    <i name="e_fr_energy">   -534.71033017 </i>
    <i name="e_wo_entrp">   -532.98843593 </i>
    <i name="e_0_energy">   -533.84938305 </i>
   </energy>
  </scstep>
  <scstep>
   <time name="dav">    4.60    4.61</time>
   <time name="total">    4.69    4.70</time>
   <energy>
    <i name="e_fr_energy">   -538.07272745 </i>
    <i name="e_wo_entrp">   -536.34747723 </i>
    <i name="e_0_energy">   -537.21010234 </i>
   </energy>
  </scstep>
  <scstep>
   <time name="dav">    4.17    4.18</time>
   <time name="total">    4.34    4.35</time>
   <energy>
    <i name="e_fr_energy">   -642.94044595 </i>
    <i name="e_wo_entrp">   -641.35018923 </i>
    <i name="e_0_energy">   -642.14531759 </i>
   </energy>
  </scstep>
  <scstep>
   <time name="dav">    4.24    4.25</time>
   <time name="total">    4.40    4.41</time>
   <energy>
    <i name="e_fr_energy">   -515.82137333 </i>
    <i name="e_wo_entrp">   -514.64528617 </i>
    <i name="e_0_energy">   -515.23332975 </i>
   </energy>
  </scstep>
  <scstep>
   <time name="dav">    4.53    4.54</time>
   <time name="total">    4.68    4.70</time>
   <energy>
    <i name="e_fr_energy">   -762.99951653 </i>
    <i name="e_wo_entrp">   -761.88602676 </i>
    <i name="e_0_energy">   -762.44277165 </i>
   </energy>
  </scstep>
  <scstep>
   <time name="dav">    4.78    4.79</time>
   <time name="total">    4.94    4.95</time>
   <energy>
    <i name="e_fr_energy">   -504.67385828 </i>
    <i name="e_wo_entrp">   -503.09906510 </i>
    <i name="e_0_energy">   -503.88646169 </i>
   </energy>
  </scstep>
  <scstep>
   <time name="dav">    5.21    5.22</time>
   <time name="total">    5.37    5.38</time>
   <energy>
    <i name="e_fr_energy">   -516.85957166 </i>
    <i name="e_wo_entrp">   -514.92826211 </i>
    <i name="e_0_energy">   -515.89391688 </i>
   </energy>
  </scstep>
  <scstep>
   <time name="dav">    4.58    4.59</time>
   <time name="total">    4.74    4.75</time>
   <energy>
    <i name="e_fr_energy">   -516.10480405 </i>
    <i name="e_wo_entrp">   -514.61502506 </i>
    <i name="e_0_energy">   -515.35991456 </i>
   </energy>
  </scstep>
  <scstep>
   <time name="dav">    4.88    4.89</time>
   <time name="total">    5.05    5.06</time>
   <energy>
    <i name="e_fr_energy">   -502.45253879 </i>
    <i name="e_wo_entrp">   -501.19027618 </i>
    <i name="e_0_energy">   -501.82140748 </i>
   </energy>
  </scstep>
  <scstep>
   <time name="dav">    4.96    4.97</time>
   <time name="total">    5.12    5.14</time>
   <energy>
    <i name="e_fr_energy">   -499.61342621 </i>
    <i name="e_wo_entrp">   -498.32346257 </i>
    <i name="e_0_energy">   -498.96844439 </i>
   </energy>
  </scstep>
  <scstep>
   <time name="dav">    4.74    4.75</time>
   <time name="total">    4.91    4.92</time>
   <energy>
    <i name="e_fr_energy">   -488.14588932 </i>
    <i name="e_wo_entrp">   -486.94386915 </i>
    <i name="e_0_energy">   -487.54487923 </i>
   </energy>
  </scstep>
  <scstep>
   <time name="dav">    4.97    4.98</time>
   <time name="total">    5.13    5.15</time>
   <energy>
    <i name="e_fr_energy">   -483.48437240 </i>
    <i name="e_wo_entrp">   -482.18087977 </i>
    <i name="e_0_energy">   -482.83262609 </i>
   </energy>
  </scstep>
  <scstep>
   <time name="dav">    4.65    4.66</time>
   <time name="total">    4.82    4.83</time>
   <energy>
    <i name="e_fr_energy">   -478.43929250 </i>
    <i name="e_wo_entrp">   -477.15697943 </i>
    <i name="e_0_energy">   -477.79813597 </i>
   </energy>
  </scstep>
  <scstep>
   <time name="dav">    4.78    4.79</time>
   <time name="total">    4.95    4.96</time>
   <energy>
    <i name="e_fr_energy">   -477.45582221 </i>
    <i name="e_wo_entrp">   -476.15310209 </i>
    <i name="e_0_energy">   -476.80446215 </i>
   </energy>
  </scstep>
  <scstep>
   <time name="dav">    4.93    4.95</time>
   <time name="total">    5.10    5.12</time>
   <energy>
    <i name="e_fr_energy">   -475.28836054 </i>
    <i name="e_wo_entrp">   -474.02710380 </i>
    <i name="e_0_energy">   -474.65773217 </i>
   </energy>
  </scstep>
  <scstep>
   <time name="dav">    4.86    4.87</time>
   <time name="total">    5.02    5.04</time>
   <energy>
    <i name="e_fr_energy">   -473.77987799 </i>
    <i name="e_wo_entrp">   -472.44563119 </i>
    <i name="e_0_energy">   -473.11275459 </i>
   </energy>
  </scstep>
  <scstep>
   <time name="dav">    5.01    5.02</time>
   <time name="total">    5.18    5.20</time>
   <energy>
    <i name="e_fr_energy">   -472.81973958 </i>
    <i name="e_wo_entrp">   -471.45119680 </i>
    <i name="e_0_energy">   -472.13546819 </i>
   </energy>
  </scstep>
  <scstep>
   <time name="dav">    4.82    4.83</time>
   <time name="total">    4.98    5.00</time>
   <energy>
    <i name="e_fr_energy">   -472.48874430 </i>
    <i name="e_wo_entrp">   -471.18905980 </i>
    <i name="e_0_energy">   -471.83890205 </i>
   </energy>
  </scstep>
  <scstep>
   <time name="dav">    4.90    4.91</time>
   <time name="total">    5.06    5.08</time>
   <energy>
    <i name="e_fr_energy">   -472.08464368 </i>
    <i name="e_wo_entrp">   -470.75557704 </i>
    <i name="e_0_energy">   -471.42011036 </i>
   </energy>
  </scstep>
  <scstep>
   <time name="dav">    5.08    5.09</time>
   <time name="total">    5.24    5.26</time>
   <energy>
    <i name="e_fr_energy">   -471.85786963 </i>
    <i name="e_wo_entrp">   -470.43137501 </i>
    <i name="e_0_energy">   -471.14462232 </i>
   </energy>
  </scstep>
  <scstep>
   <time name="dav">    4.85    4.86</time>
   <time name="total">    5.02    5.03</time>
   <energy>
    <i name="e_fr_energy">   -471.57318136 </i>
    <i name="e_wo_entrp">   -470.12304121 </i>
    <i name="e_0_energy">   -470.84811129 </i>
   </energy>
  </scstep>
  <scstep>
   <time name="dav">    4.79    4.80</time>
   <time name="total">    4.96    4.97</time>
   <energy>
    <i name="e_fr_energy">   -471.37315789 </i>
    <i name="e_wo_entrp">   -469.91496655 </i>
    <i name="e_0_energy">   -470.64406222 </i>
   </energy>
  </scstep>
  <scstep>
   <time name="dav">    4.91    4.92</time>
   <time name="total">    5.08    5.09</time>
   <energy>
    <i name="e_fr_energy">   -471.36510398 </i>
    <i name="e_wo_entrp">   -469.88120875 </i>
    <i name="e_0_energy">   -470.62315637 </i>
   </energy>
  </scstep>
  <scstep>
   <time name="dav">    4.84    4.85</time>
   <time name="total">    5.01    5.02</time>
   <energy>
    <i name="e_fr_energy">   -471.33837793 </i>
    <i name="e_wo_entrp">   -469.86661167 </i>
    <i name="e_0_energy">   -470.60249480 </i>
   </energy>
  </scstep>
  <scstep>
   <time name="dav">    4.83    4.84</time>
   <time name="total">    5.00    5.01</time>
   <energy>
    <i name="e_fr_energy">   -471.34816305 </i>
    <i name="e_wo_entrp">   -469.86453648 </i>
    <i name="e_0_energy">   -470.60634977 </i>
   </energy>
  </scstep>
  <scstep>
   <time name="dav">    4.95    4.96</time>
   <time name="total">    5.12    5.14</time>
   <energy>
    <i name="e_fr_energy">   -471.39342327 </i>
    <i name="e_wo_entrp">   -469.86571458 </i>
    <i name="e_0_energy">   -470.62956892 </i>
   </energy>
  </scstep>
  <scstep>
   <time name="dav">    4.81    4.82</time>
   <time name="total">    4.98    5.00</time>
   <energy>
    <i name="e_fr_energy">   -471.27230225 </i>
    <i name="e_wo_entrp">   -469.79045712 </i>
    <i name="e_0_energy">   -470.53137969 </i>
   </energy>
  </scstep>
  <scstep>
   <time name="dav">    4.83    4.84</time>
   <time name="total">    5.00    5.01</time>
   <energy>
    <i name="e_fr_energy">   -471.27014304 </i>
    <i name="e_wo_entrp">   -469.79772333 </i>
    <i name="e_0_energy">   -470.53393319 </i>
   </energy>
  </scstep>
  <scstep>
   <time name="dav">    4.86    4.87</time>
   <time name="total">    5.03    5.05</time>
   <energy>
    <i name="e_fr_energy">   -471.27433843 </i>
    <i name="e_wo_entrp">   -469.79043231 </i>
    <i name="e_0_energy">   -470.53238537 </i>
   </energy>
  </scstep>
  <scstep>
   <time name="dav">    4.71    4.72</time>
   <time name="total">    4.88    4.89</time>
   <energy>
    <i name="e_fr_energy">   -471.25861787 </i>
    <i name="e_wo_entrp">   -469.77988103 </i>
    <i name="e_0_energy">   -470.51924945 </i>
   </energy>
  </scstep>
  <scstep>
   <time name="dav">    4.82    4.84</time>
   <time name="total">    4.99    5.01</time>
   <energy>
    <i name="e_fr_energy">   -471.26522137 </i>
    <i name="e_wo_entrp">   -469.80440118 </i>
    <i name="e_0_energy">   -470.53481128 </i>
   </energy>
  </scstep>
  <scstep>
   <time name="dav">    4.59    4.60</time>
   <time name="total">    4.76    4.77</time>
   <energy>
    <i name="e_fr_energy">   -471.25844992 </i>
    <i name="e_wo_entrp">   -469.78509210 </i>
    <i name="e_0_energy">   -470.52177101 </i>
   </energy>
  </scstep>
  <scstep>
   <time name="dav">    4.75    4.76</time>
   <time name="total">    4.91    4.93</time>
   <energy>
    <i name="e_fr_energy">   -471.25877384 </i>
    <i name="e_wo_entrp">   -469.78946256 </i>
    <i name="e_0_energy">   -470.52411820 </i>
   </energy>
  </scstep>
  <scstep>
   <time name="dav">    4.48    4.49</time>
   <time name="total">    4.65    4.66</time>
   <energy>
    <i name="e_fr_energy">   -471.25854904 </i>
    <i name="e_wo_entrp">   -469.79904031 </i>
    <i name="e_0_energy">   -470.52879468 </i>
   </energy>
  </scstep>
  <scstep>
   <time name="dav">    4.15    4.16</time>
   <time name="total">    4.32    4.33</time>
   <energy>
    <i name="e_fr_energy">   -471.25792507 </i>
    <i name="e_wo_entrp">   -469.79553644 </i>
    <i name="e_0_energy">   -470.52673075 </i>
   </energy>
  </scstep>
  <scstep>
   <time name="dav">    3.59    3.60</time>
   <time name="total">    3.67    3.67</time>
   <energy>
    <i name="alphaZ">   2592.50432107 </i>
    <i name="ewald"> 252552.34371269 </i>
    <i name="hartreedc">-415509.74639135 </i>
    <i name="XCdc">   4829.85700603 </i>
    <i name="pawpsdc"> 174322.60451541 </i>
    <i name="pawaedc">-180949.29798307 </i>
    <i name="eentropy">     -1.46217496 </i>
    <i name="bandstr"> -19644.86769660 </i>
    <i name="atom"> 181336.80673834 </i>
    <i name="e_fr_energy">   -471.25795244 </i>
    <i name="e_wo_entrp">   -469.79577748 </i>
    <i name="e_0_energy">   -470.52686496 </i>
   </energy>
  </scstep>
  <structure>
   <crystal>
    <varray name="basis" >
     <v>      10.06282034       5.04456212       0.00000000 </v>
     <v>       0.00000000      11.25646304       0.00000000 </v>
     <v>       0.00000000       0.00000000      22.51995597 </v>
    </varray>
    <i name="volume">   2550.87516496 </i>
    <varray name="rec_basis" >
     <v>       0.09937572       0.00000000       0.00000000 </v>
     <v>      -0.04453504       0.08883785       0.00000000 </v>
     <v>       0.00000000       0.00000000       0.04440506 </v>
    </varray>
   </crystal>
   <varray name="positions" >
    <v>       0.26092069       0.47878037       0.29519774 </v>
    <v>       0.35488056       0.38482051       0.42557357 </v>
    <v>       0.16696082       0.07274025       0.16482191 </v>
    <v>       0.05611868       0.05147941       0.52150332 </v>
    <v>       0.27423906       0.33335901       0.13037583 </v>
    <v>       0.36819893       0.23939914       0.26075166 </v>
    <v>       0.46215879       0.14543927       0.39112749 </v>
    <v>       0.00030194       0.37150214       0.26075166 </v>
    <v>       0.09426180       0.27754227       0.39112749 </v>
    <v>       0.40634206       0.46546200       0.13037583 </v>
    <v>       0.76092069       0.47878037       0.29519774 </v>
    <v>       0.85488056       0.38482051       0.42557357 </v>
    <v>       0.66696082       0.07274025       0.16482191 </v>
    <v>       0.55611868       0.05147941       0.52150332 </v>
    <v>       0.68027919       0.42731887       0.00000000 </v>
    <v>       0.77423906       0.33335901       0.13037583 </v>
    <v>       0.86819893       0.23939914       0.26075166 </v>
    <v>       0.96215879       0.14543927       0.39112749 </v>
    <v>       0.50030194       0.37150214       0.26075166 </v>
    <v>       0.59426180       0.27754227       0.39112749 </v>
    <v>       0.90634206       0.46546200       0.13037583 </v>
    <v>       0.81238219       0.05942188       0.00000000 </v>
    <v>       0.26092069       0.97878037       0.29519774 </v>
    <v>       0.35488056       0.88482051       0.42557357 </v>
    <v>       0.44884042       0.79086064       0.55594940 </v>
    <v>       0.16696082       0.57274025       0.16482191 </v>
    <v>       0.05611868       0.55147941       0.52150332 </v>
    <v>       0.18027919       0.92731887       0.00000000 </v>
    <v>       0.27423906       0.83335901       0.13037583 </v>
    <v>       0.36819893       0.73939914       0.26075166 </v>
    <v>       0.46215879       0.64543927       0.39112749 </v>
    <v>       0.00030194       0.87150214       0.26075166 </v>
    <v>       0.09426180       0.77754227       0.39112749 </v>
    <v>       0.18822167       0.68358240       0.52150332 </v>
    <v>       0.40634206       0.96546200       0.13037583 </v>
    <v>       0.31238219       0.55942188       0.00000000 </v>
    <v>       0.76092069       0.97878037       0.29519774 </v>
    <v>       0.85488056       0.88482051       0.42557357 </v>
    <v>       0.66696082       0.57274025       0.16482191 </v>
    <v>       0.55611868       0.55147941       0.52150332 </v>
    <v>       0.68027919       0.92731887       0.00000000 </v>
    <v>       0.77423906       0.83335901       0.13037583 </v>
    <v>       0.86819893       0.73939914       0.26075166 </v>
    <v>       0.96215879       0.64543927       0.39112749 </v>
    <v>       0.50030194       0.87150214       0.26075166 </v>
    <v>       0.59426180       0.77754227       0.39112749 </v>
    <v>       0.68822167       0.68358240       0.52150332 </v>
    <v>       0.90634206       0.96546200       0.13037583 </v>
    <v>       0.07287763       0.16682345       0.31134756 </v>
    <v>       0.16683750       0.07286358       0.44172340 </v>
    <v>       0.38495788       0.35474318       0.05059591 </v>
    <v>       0.47891775       0.26078331       0.18097173 </v>
    <v>       0.03023342       0.37768265       0.48558574 </v>
    <v>       0.43627354       0.47164252       0.35520991 </v>
    <v>       0.24835381       0.15956227       0.09445824 </v>
    <v>       0.34231367       0.06560240       0.22483408 </v>
    <v>       0.08013881       0.49134726       0.09445824 </v>
    <v>       0.17409868       0.39738739       0.22483408 </v>
    <v>       0.26805854       0.30342752       0.35520991 </v>
    <v>       0.36201841       0.20946766       0.48558574 </v>
    <v>       0.57287763       0.16682345       0.31134756 </v>
    <v>       0.66683750       0.07286358       0.44172340 </v>
    <v>       0.88495788       0.35474318       0.05059591 </v>
    <v>       0.97891775       0.26078331       0.18097173 </v>
    <v>       0.53023342       0.37768265       0.48558574 </v>
    <v>       0.93627354       0.47164252       0.35520991 </v>
    <v>       0.74835381       0.15956227       0.09445824 </v>
    <v>       0.84231367       0.06560240       0.22483408 </v>
    <v>       0.58013881       0.49134726       0.09445824 </v>
    <v>       0.67409868       0.39738739       0.22483408 </v>
    <v>       0.76805854       0.30342752       0.35520991 </v>
    <v>       0.86201841       0.20946766       0.48558574 </v>
    <v>       0.07287763       0.66682345       0.31134756 </v>
    <v>       0.16683750       0.57286358       0.44172340 </v>
    <v>       0.38495788       0.85474318       0.05059591 </v>
    <v>       0.47891775       0.76078331       0.18097173 </v>
    <v>       0.03023342       0.87768265       0.48558574 </v>
    <v>       0.43627354       0.97164252       0.35520991 </v>
    <v>       0.24835381       0.65956227       0.09445824 </v>
    <v>       0.34231367       0.56560240       0.22483408 </v>
    <v>       0.08013881       0.99134726       0.09445824 </v>
    <v>       0.17409868       0.89738739       0.22483408 </v>
    <v>       0.26805854       0.80342752       0.35520991 </v>
    <v>       0.36201841       0.70946766       0.48558574 </v>
    <v>       0.57287763       0.66682345       0.31134756 </v>
    <v>       0.66683750       0.57286358       0.44172340 </v>
    <v>       0.88495788       0.85474318       0.05059591 </v>
    <v>       0.97891775       0.76078331       0.18097173 </v>
    <v>       0.53023342       0.87768265       0.48558574 </v>
    <v>       0.93627354       0.97164252       0.35520991 </v>
    <v>       0.74835381       0.65956227       0.09445824 </v>
    <v>       0.84231367       0.56560240       0.22483408 </v>
    <v>       0.58013881       0.99134726       0.09445824 </v>
    <v>       0.67409868       0.89738739       0.22483408 </v>
    <v>       0.76805854       0.80342752       0.35520991 </v>
    <v>       0.86201841       0.70946766       0.48558574 </v>
   </varray>
  </structure>
  <varray name="forces" >
   <v>       0.14613011      -0.09342218      -0.08759365 </v>
   <v>       0.33282596       0.03913306       0.55794004 </v>
   <v>      -0.06738823       0.32668557      -0.34602423 </v>
   <v>      -0.79238347      -0.17508926      -2.23924206 </v>
   <v>      -0.44823810      -0.25373445      -0.52651220 </v>
   <v>      -0.04613101       0.13747228       0.01272848 </v>
   <v>       0.13413567      -0.00787914       0.36533842 </v>
   <v>      -0.12132635      -0.04785524       0.02424858 </v>
   <v>       0.00848124       0.03295090       0.39311785 </v>
   <v>       0.15377867       0.05379477      -0.28125806 </v>
   <v>       0.15162779      -0.06834663      -0.10213331 </v>
   <v>       0.31022044      -0.02854138       0.51073666 </v>
   <v>      -0.18249789       0.09641228      -0.34643864 </v>
   <v>      -0.86172354      -0.12959764      -2.14330474 </v>
   <v>       0.78267436       0.22141553       2.31347848 </v>
   <v>       0.03059400      -0.14313556      -0.25386526 </v>
   <v>      -0.01546505       0.16370654       0.01028073 </v>
   <v>       0.13084085       0.01474645       0.38542694 </v>
   <v>      -0.15857556      -0.08262881       0.04249272 </v>
   <v>      -0.00270185       0.00043409       0.42652916 </v>
   <v>       0.04746968       0.49998648      -0.53627379 </v>
   <v>      -0.15329512      -0.97129860       1.97775957 </v>
   <v>       0.16557210      -0.09028028      -0.10468034 </v>
   <v>      -0.25387750       0.13480461       0.24289680 </v>
   <v>       0.35830840      -0.24943396      -1.90834756 </v>
   <v>      -0.32695105      -0.11828545      -0.39094830 </v>
   <v>      -0.82057945      -0.11671865      -1.97259670 </v>
   <v>       0.80659240       0.21421341       2.24708853 </v>
   <v>      -0.00367368      -0.19696973      -0.23375782 </v>
   <v>      -0.00874917       0.15662322       0.05885892 </v>
   <v>       0.21916224       0.04586071       0.12029263 </v>
   <v>      -0.13568970      -0.05645587       0.03378147 </v>
   <v>       0.07616328       0.02441531       0.16655678 </v>
   <v>      -0.42649441       0.59169031      -1.67611741 </v>
   <v>      -0.16263025       0.37298646      -0.41426787 </v>
   <v>       0.13812035      -0.78995508       2.32373533 </v>
   <v>       0.15447670      -0.11713281      -0.06670478 </v>
   <v>      -0.13934258       0.04251055       0.35298509 </v>
   <v>      -0.06881711       0.32025693      -0.37456750 </v>
   <v>      -0.76889955      -0.11541199      -1.67963301 </v>
   <v>       1.00049525       0.73034731       2.09099860 </v>
   <v>      -0.26059022      -0.28600221      -0.26689582 </v>
   <v>      -0.03122380       0.09681268       0.04651114 </v>
   <v>       0.06683260       0.04611918       0.23228346 </v>
   <v>      -0.09239936      -0.05498404       0.02709111 </v>
   <v>       0.13353301      -0.16712162       0.07917167 </v>
   <v>      -0.30697329       0.52749056      -1.47949431 </v>
   <v>       0.00825067       0.19150825      -0.25792806 </v>
   <v>       0.02079892       0.04329221       0.21122192 </v>
   <v>      -0.32382010      -0.09632459       0.79090529 </v>
   <v>      -0.11521763       1.29238690      -0.68771734 </v>
   <v>       0.02314692      -0.01617467      -0.25697104 </v>
   <v>      -0.06710063      -0.00683579       0.11472715 </v>
   <v>       0.02755526      -0.04689143       0.11015572 </v>
   <v>       0.28986733       0.11315278       0.65294860 </v>
   <v>       0.05925875      -0.03215067      -0.08010562 </v>
   <v>       0.05921756      -0.33505658       0.63119375 </v>
   <v>       0.05923086      -0.06156706       0.01069360 </v>
   <v>       0.08012590      -0.01123817       0.26147907 </v>
   <v>       0.76116584       0.13913400      -0.31900532 </v>
   <v>       0.02977557       0.02726659       0.21494305 </v>
   <v>      -0.27704190      -0.09177164       0.77593482 </v>
   <v>      -1.20477458      -0.48425880      -0.67548629 </v>
   <v>       0.00988610       0.05464635      -0.25766098 </v>
   <v>      -0.03459521      -0.00931979       0.12348943 </v>
   <v>       0.00644032      -0.10641297       0.08120632 </v>
   <v>       0.35269920       0.12362720      -0.57134914 </v>
   <v>       0.03012440       0.00183190      -0.05238566 </v>
   <v>       0.25304738      -0.33942758      -0.71570089 </v>
   <v>      -0.04553794      -0.00978747      -0.13834127 </v>
   <v>       0.08350716      -0.01558058       0.26077511 </v>
   <v>       0.75067382       0.16077335      -0.30328550 </v>
   <v>       0.01271622       0.01212090       0.19818794 </v>
   <v>       0.04968273      -0.04948642       1.11953634 </v>
   <v>      -1.08902897      -0.42763305      -0.77941946 </v>
   <v>       0.00614509       0.02427246      -0.26781093 </v>
   <v>       0.51542262       0.06052920       0.90102214 </v>
   <v>      -0.02674182      -0.01601268      -0.02690210 </v>
   <v>       0.43510733      -0.05856982      -0.71052112 </v>
   <v>      -0.01737566       0.01665600      -0.20353678 </v>
   <v>       0.22437278      -0.37570942      -0.74151237 </v>
   <v>      -0.00752956       0.03139086      -0.22011271 </v>
   <v>      -0.00322295      -0.01349789       0.08174187 </v>
   <v>       0.15724138      -0.06469669       1.54137315 </v>
   <v>      -0.01527518       0.03319961       0.05439056 </v>
   <v>       0.19558049      -0.15234711       0.94101050 </v>
   <v>      -0.88769643       0.57509900      -1.64965465 </v>
   <v>       0.02652099       0.05007511      -0.24752163 </v>
   <v>       0.06602897       0.17017412       1.73773651 </v>
   <v>      -0.05204623      -0.05851138      -0.02149958 </v>
   <v>       0.29418665       0.09014881       0.54173961 </v>
   <v>       0.06174014      -0.03936426      -0.00404828 </v>
   <v>       0.11782414      -0.48039245      -0.63793620 </v>
   <v>       0.00607164      -0.00081694       0.04474111 </v>
   <v>       0.00571993       0.06911039       0.09549319 </v>
   <v>       0.39645393      -0.41114866       0.71809442 </v>
  </varray>
  <varray name="stress" >
   <v>     -12.44821343       0.40515298      -6.21757838 </v>
   <v>       0.40515324     -12.13941367       1.41655806 </v>
   <v>      -6.21757792       1.41655812     -33.46069272 </v>
  </varray>
  <energy>
   <i name="e_fr_energy">   -471.25795244 </i>
   <i name="e_wo_entrp">   -469.79577748 </i>
   <i name="e_0_energy">   -470.52686496 </i>
  </energy>
  <time name="totalsc">  191.29  191.84</time>
  <eigenvalues>
   <array>
    <dimension dim="1">band</dimension>
    <dimension dim="2">kpoint</dimension>
    <dimension dim="3">spin</dimension>
    <field>eigene</field>
    <field>occ</field>
    <set>
     <set comment="spin 1">
      <set comment="kpoint 1">
       <r>  -62.3518    1.0000 </r>
       <r>  -62.3426    1.0000 </r>
       <r>  -62.3145    1.0000 </r>
       <r>  -62.3128    1.0000 </r>
       <r>  -62.3120    1.0000 </r>
       <r>  -62.3063    1.0000 </r>
       <r>  -62.3055    1.0000 </r>
       <r>  -62.3052    1.0000 </r>
       <r>  -62.3051    1.0000 </r>
       <r>  -62.2998    1.0000 </r>
       <r>  -62.2995    1.0000 </r>
       <r>  -62.2968    1.0000 </r>
       <r>  -62.2939    1.0000 </r>
       <r>  -62.2934    1.0000 </r>
       <r>  -62.2882    1.0000 </r>
       <r>  -62.2881    1.0000 </r>
       <r>  -62.2879    1.0000 </r>
       <r>  -62.2874    1.0000 </r>
       <r>  -62.2836    1.0000 </r>
       <r>  -62.2832    1.0000 </r>
       <r>  -62.2823    1.0000 </r>
       <r>  -62.2823    1.0000 </r>
       <r>  -62.2817    1.0000 </r>
       <r>  -62.2806    1.0000 </r>
       <r>  -62.2803    1.0000 </r>
       <r>  -62.2725    1.0000 </r>
       <r>  -62.2710    1.0000 </r>
       <r>  -62.2710    1.0000 </r>
       <r>  -62.2698    1.0000 </r>
       <r>  -62.2681    1.0000 </r>
       <r>  -62.2644    1.0000 </r>
       <r>  -62.2637    1.0000 </r>
       <r>  -62.2626    1.0000 </r>
       <r>  -62.2609    1.0000 </r>
       <r>  -62.2584    1.0000 </r>
       <r>  -62.2571    1.0000 </r>
       <r>  -62.2551    1.0000 </r>
       <r>  -62.2544    1.0000 </r>
       <r>  -62.2512    1.0000 </r>
       <r>  -62.2510    1.0000 </r>
       <r>  -62.2504    1.0000 </r>
       <r>  -62.2504    1.0000 </r>
       <r>  -62.2483    1.0000 </r>
       <r>  -62.2463    1.0000 </r>
       <r>  -62.2438    1.0000 </r>
       <r>  -62.2420    1.0000 </r>
       <r>  -62.2380    1.0000 </r>
       <r>  -62.2369    1.0000 </r>
       <r>  -62.2361    1.0000 </r>
       <r>  -62.2295    1.0000 </r>
       <r>  -62.2294    1.0000 </r>
       <r>  -62.2294    1.0000 </r>
       <r>  -62.2253    1.0000 </r>
       <r>  -62.2231    1.0000 </r>
       <r>  -62.2220    1.0000 </r>
       <r>  -62.2194    1.0000 </r>
       <r>  -62.2191    1.0000 </r>
       <r>  -62.2181    1.0000 </r>
       <r>  -62.2178    1.0000 </r>
       <r>  -62.2175    1.0000 </r>
       <r>  -62.2158    1.0000 </r>
       <r>  -62.2146    1.0000 </r>
       <r>  -62.2142    1.0000 </r>
       <r>  -62.2113    1.0000 </r>
       <r>  -62.2098    1.0000 </r>
       <r>  -62.2019    1.0000 </r>
       <r>  -62.1996    1.0000 </r>
       <r>  -62.1980    1.0000 </r>
       <r>  -62.1894    1.0000 </r>
       <r>  -62.1866    1.0000 </r>
       <r>  -62.1866    1.0000 </r>
       <r>  -62.1864    1.0000 </r>
       <r>  -62.1856    1.0000 </r>
       <r>  -62.1817    1.0000 </r>
       <r>  -62.1502    1.0000 </r>
       <r>  -62.1316    1.0000 </r>
       <r>  -62.1231    1.0000 </r>
       <r>  -62.1222    1.0000 </r>
       <r>  -62.1221    1.0000 </r>
       <r>  -62.1173    1.0000 </r>
       <r>  -62.1141    1.0000 </r>
       <r>  -62.0973    1.0000 </r>
       <r>  -62.0939    1.0000 </r>
       <r>  -62.0932    1.0000 </r>
       <r>  -62.0915    1.0000 </r>
       <r>  -62.0818    1.0000 </r>
       <r>  -62.0762    1.0000 </r>
       <r>  -62.0758    1.0000 </r>
       <r>  -62.0677    1.0000 </r>
       <r>  -62.0674    1.0000 </r>
       <r>  -62.0646    1.0000 </r>
       <r>  -62.0640    1.0000 </r>
       <r>  -62.0589    1.0000 </r>
       <r>  -62.0568    1.0000 </r>
       <r>  -62.0565    1.0000 </r>
       <r>  -62.0422    1.0000 </r>
       <r>  -62.0414    1.0000 </r>
       <r>  -62.0306    1.0000 </r>
       <r>  -62.0220    1.0000 </r>
       <r>  -62.0135    1.0000 </r>
       <r>  -62.0118    1.0000 </r>
       <r>  -62.0093    1.0000 </r>
       <r>  -62.0040    1.0000 </r>
       <r>  -62.0036    1.0000 </r>
       <r>  -62.0032    1.0000 </r>
       <r>  -61.9943    1.0000 </r>
       <r>  -61.9898    1.0000 </r>
       <r>  -61.9898    1.0000 </r>
       <r>  -61.8386    1.0000 </r>
       <r>  -61.7613    1.0000 </r>
       <r>  -61.7108    1.0000 </r>
       <r>  -61.6692    1.0000 </r>
       <r>  -61.6337    1.0000 </r>
       <r>  -61.6269    1.0000 </r>
       <r>  -61.6232    1.0000 </r>
       <r>  -61.6007    1.0000 </r>
       <r>  -61.5915    1.0000 </r>
       <r>  -61.5573    1.0000 </r>
       <r>  -61.5336    1.0000 </r>
       <r>  -61.5304    1.0000 </r>
       <r>  -61.5270    1.0000 </r>
       <r>  -61.5242    1.0000 </r>
       <r>  -61.4564    1.0000 </r>
       <r>  -61.4508    1.0000 </r>
       <r>  -61.4473    1.0000 </r>
       <r>  -61.4334    1.0000 </r>
       <r>  -61.4306    1.0000 </r>
       <r>  -61.3587    1.0000 </r>
       <r>  -61.2403    1.0000 </r>
       <r>  -61.0347    1.0000 </r>
       <r>  -60.9900    1.0000 </r>
       <r>  -60.9466    1.0000 </r>
       <r>  -60.9289    1.0000 </r>
       <r>  -60.9235    1.0000 </r>
       <r>  -60.9206    1.0000 </r>
       <r>  -60.9185    1.0000 </r>
       <r>  -60.8931    1.0000 </r>
       <r>  -60.8886    1.0000 </r>
       <r>  -60.8879    1.0000 </r>
       <r>  -60.7978    1.0000 </r>
       <r>  -60.7199    1.0000 </r>
       <r>  -60.5252    1.0000 </r>
       <r>  -60.5211    1.0000 </r>
       <r>  -60.5104    1.0000 </r>
       <r>  -13.6350    1.0000 </r>
       <r>  -13.0643    1.0000 </r>
       <r>  -12.9088    1.0000 </r>
       <r>  -12.8989    1.0000 </r>
       <r>  -12.8501    1.0000 </r>
       <r>  -12.6733    1.0000 </r>
       <r>  -12.6552    1.0000 </r>
       <r>  -12.5436    1.0000 </r>
       <r>  -12.4822    1.0000 </r>
       <r>  -12.3481    1.0000 </r>
       <r>  -12.3374    1.0000 </r>
       <r>  -12.2982    1.0000 </r>
       <r>  -12.1805    1.0000 </r>
       <r>  -12.1002    1.0000 </r>
       <r>  -12.0534    1.0000 </r>
       <r>  -11.9732    1.0000 </r>
       <r>  -11.9379    1.0000 </r>
       <r>  -11.9184    1.0000 </r>
       <r>  -11.9014    1.0000 </r>
       <r>  -11.8518    1.0000 </r>
       <r>  -11.7930    1.0000 </r>
       <r>  -11.7237    1.0000 </r>
       <r>  -11.7090    1.0000 </r>
       <r>  -11.6765    1.0000 </r>
       <r>  -11.6574    1.0000 </r>
       <r>  -11.6114    1.0000 </r>
       <r>  -11.5848    1.0000 </r>
       <r>  -11.5259    1.0000 </r>
       <r>  -11.4925    1.0000 </r>
       <r>  -11.4535    1.0000 </r>
       <r>  -11.4334    1.0000 </r>
       <r>  -11.3865    1.0000 </r>
       <r>  -11.3555    1.0000 </r>
       <r>  -11.3113    1.0000 </r>
       <r>  -11.2340    1.0000 </r>
       <r>  -11.2206    1.0000 </r>
       <r>  -11.1157    1.0000 </r>
       <r>  -11.0685    1.0000 </r>
       <r>  -11.0570    1.0000 </r>
       <r>  -10.9178    1.0000 </r>
       <r>  -10.7294    1.0000 </r>
       <r>  -10.6714    1.0000 </r>
       <r>  -10.6617    1.0000 </r>
       <r>  -10.5972    1.0000 </r>
       <r>  -10.5360    1.0000 </r>
       <r>  -10.5253    1.0000 </r>
       <r>  -10.4791    1.0000 </r>
       <r>  -10.2488    1.0000 </r>
       <r>   -5.4478    1.0000 </r>
       <r>   -5.4262    1.0000 </r>
       <r>   -5.4062    1.0000 </r>
       <r>   -5.3723    1.0000 </r>
       <r>   -5.3577    1.0000 </r>
       <r>   -5.2691    1.0000 </r>
       <r>   -4.9745    1.0000 </r>
       <r>   -4.9177    1.0000 </r>
       <r>   -4.8776    1.0000 </r>
       <r>   -4.7507    1.0000 </r>
       <r>   -4.6814    1.0000 </r>
       <r>   -4.6397    1.0000 </r>
       <r>   -4.5775    1.0000 </r>
       <r>   -4.5558    1.0000 </r>
       <r>   -4.5434    1.0000 </r>
       <r>   -4.4755    1.0000 </r>
       <r>   -4.4450    1.0000 </r>
       <r>   -4.4419    1.0000 </r>
       <r>   -4.3937    1.0000 </r>
       <r>   -4.3774    1.0000 </r>
       <r>   -4.3612    1.0000 </r>
       <r>   -4.3234    1.0000 </r>
       <r>   -4.2916    1.0000 </r>
       <r>   -4.2803    1.0000 </r>
       <r>   -4.2696    1.0000 </r>
       <r>   -4.2228    1.0000 </r>
       <r>   -4.1966    1.0000 </r>
       <r>   -4.1793    1.0000 </r>
       <r>   -4.0563    1.0000 </r>
       <r>   -4.0361    1.0000 </r>
       <r>   -3.9905    1.0000 </r>
       <r>   -3.9620    1.0000 </r>
       <r>   -3.9075    1.0000 </r>
       <r>   -3.8894    1.0000 </r>
       <r>   -3.8482    1.0000 </r>
       <r>   -3.8285    1.0000 </r>
       <r>   -3.8189    1.0000 </r>
       <r>   -3.7680    1.0000 </r>
       <r>   -3.7034    1.0000 </r>
       <r>   -3.6565    1.0000 </r>
       <r>   -3.5957    1.0000 </r>
       <r>   -3.5192    1.0000 </r>
       <r>   -3.5072    1.0000 </r>
       <r>   -3.4657    1.0000 </r>
       <r>   -3.4241    1.0000 </r>
       <r>   -3.3832    1.0000 </r>
       <r>   -3.3416    1.0000 </r>
       <r>   -3.3384    1.0000 </r>
       <r>   -3.2982    1.0000 </r>
       <r>   -3.2746    1.0000 </r>
       <r>   -3.2312    1.0000 </r>
       <r>   -3.1832    1.0000 </r>
       <r>   -3.1666    1.0000 </r>
       <r>   -3.1523    1.0000 </r>
       <r>   -3.1299    1.0000 </r>
       <r>   -3.0793    1.0000 </r>
       <r>   -3.0494    1.0000 </r>
       <r>   -3.0321    1.0000 </r>
       <r>   -3.0145    1.0000 </r>
       <r>   -3.0109    1.0000 </r>
       <r>   -2.9672    1.0000 </r>
       <r>   -2.9591    1.0000 </r>
       <r>   -2.9143    1.0000 </r>
       <r>   -2.8837    1.0000 </r>
       <r>   -2.8798    1.0000 </r>
       <r>   -2.8659    1.0000 </r>
       <r>   -2.8439    1.0000 </r>
       <r>   -2.8313    1.0000 </r>
       <r>   -2.7938    1.0000 </r>
       <r>   -2.7764    1.0000 </r>
       <r>   -2.7461    1.0000 </r>
       <r>   -2.7328    1.0000 </r>
       <r>   -2.7157    1.0000 </r>
       <r>   -2.6916    1.0000 </r>
       <r>   -2.6496    1.0000 </r>
       <r>   -2.6267    1.0000 </r>
       <r>   -2.6088    1.0000 </r>
       <r>   -2.5962    1.0000 </r>
       <r>   -2.5740    1.0000 </r>
       <r>   -2.5180    1.0000 </r>
       <r>   -2.4931    1.0000 </r>
       <r>   -2.4547    1.0000 </r>
       <r>   -2.4373    1.0000 </r>
       <r>   -2.4303    1.0000 </r>
       <r>   -2.4228    1.0000 </r>
       <r>   -2.3900    1.0000 </r>
       <r>   -2.3520    1.0000 </r>
       <r>   -2.3326    1.0000 </r>
       <r>   -2.3199    1.0000 </r>
       <r>   -2.2976    1.0000 </r>
       <r>   -2.2696    1.0000 </r>
       <r>   -2.2530    1.0000 </r>
       <r>   -2.2393    1.0000 </r>
       <r>   -2.2136    1.0000 </r>
       <r>   -2.1874    1.0000 </r>
       <r>   -2.1744    1.0000 </r>
       <r>   -2.1699    1.0000 </r>
       <r>   -2.1605    1.0000 </r>
       <r>   -2.1396    1.0000 </r>
       <r>   -2.1296    1.0000 </r>
       <r>   -2.1037    1.0000 </r>
       <r>   -2.1007    1.0000 </r>
       <r>   -2.0792    1.0000 </r>
       <r>   -2.0546    1.0000 </r>
       <r>   -2.0472    1.0000 </r>
       <r>   -2.0400    1.0000 </r>
       <r>   -2.0298    1.0000 </r>
       <r>   -2.0107    1.0000 </r>
       <r>   -1.9838    1.0000 </r>
       <r>   -1.9684    1.0000 </r>
       <r>   -1.9633    1.0000 </r>
       <r>   -1.9402    1.0000 </r>
       <r>   -1.9009    1.0000 </r>
       <r>   -1.8464    1.0000 </r>
       <r>   -1.8209    1.0000 </r>
       <r>   -1.7745    1.0000 </r>
       <r>   -1.7456    1.0000 </r>
       <r>   -1.7217    1.0000 </r>
       <r>   -1.6743    1.0000 </r>
       <r>   -1.6551    1.0000 </r>
       <r>   -1.6147    1.0000 </r>
       <r>   -1.6084    1.0000 </r>
       <r>   -1.5304    1.0000 </r>
       <r>   -1.5068    1.0000 </r>
       <r>   -1.4992    1.0000 </r>
       <r>   -1.4463    1.0000 </r>
       <r>   -1.4385    1.0000 </r>
       <r>   -1.3993    1.0000 </r>
       <r>   -1.3697    1.0000 </r>
       <r>   -1.3305    1.0000 </r>
       <r>   -1.3067    1.0000 </r>
       <r>   -1.2608    1.0000 </r>
       <r>   -1.2188    1.0000 </r>
       <r>   -1.2035    1.0000 </r>
       <r>   -1.1639    1.0000 </r>
       <r>   -1.1054    1.0000 </r>
       <r>   -1.0735    1.0000 </r>
       <r>   -1.0474    1.0000 </r>
       <r>   -1.0211    1.0000 </r>
       <r>   -1.0100    1.0000 </r>
       <r>   -0.9798    1.0000 </r>
       <r>   -0.9716    1.0000 </r>
       <r>   -0.9555    1.0000 </r>
       <r>   -0.9376    1.0000 </r>
       <r>   -0.9326    1.0000 </r>
       <r>   -0.8875    1.0000 </r>
       <r>   -0.8196    1.0000 </r>
       <r>   -0.8111    1.0000 </r>
       <r>   -0.7917    1.0000 </r>
       <r>   -0.7708    1.0000 </r>
       <r>   -0.7266    1.0000 </r>
       <r>   -0.6877    1.0000 </r>
       <r>   -0.6750    1.0000 </r>
       <r>   -0.6596    1.0000 </r>
       <r>   -0.6432    1.0000 </r>
       <r>   -0.6078    1.0000 </r>
       <r>   -0.5983    1.0000 </r>
       <r>   -0.5779    1.0000 </r>
       <r>   -0.5699    1.0000 </r>
       <r>   -0.5429    1.0000 </r>
       <r>   -0.5374    1.0000 </r>
       <r>   -0.5302    1.0000 </r>
       <r>   -0.5176    1.0000 </r>
       <r>   -0.5071    1.0000 </r>
       <r>   -0.4808    1.0000 </r>
       <r>   -0.4746    1.0000 </r>
       <r>   -0.4614    1.0000 </r>
       <r>   -0.4353    1.0000 </r>
       <r>   -0.4223    1.0000 </r>
       <r>   -0.4080    1.0000 </r>
       <r>   -0.4030    1.0000 </r>
       <r>   -0.3904    1.0000 </r>
       <r>   -0.3793    1.0000 </r>
       <r>   -0.3651    1.0000 </r>
       <r>   -0.3617    1.0000 </r>
       <r>   -0.3419    1.0000 </r>
       <r>   -0.3337    1.0000 </r>
       <r>   -0.3082    1.0000 </r>
       <r>   -0.3028    1.0000 </r>
       <r>   -0.2920    1.0000 </r>
       <r>   -0.2879    1.0000 </r>
       <r>   -0.2763    1.0000 </r>
       <r>   -0.2615    1.0000 </r>
       <r>   -0.2399    1.0000 </r>
       <r>   -0.2314    1.0000 </r>
       <r>   -0.2120    1.0000 </r>
       <r>   -0.2022    1.0000 </r>
       <r>   -0.1776    1.0000 </r>
       <r>   -0.1622    1.0000 </r>
       <r>   -0.1499    1.0000 </r>
       <r>   -0.1248    1.0000 </r>
       <r>   -0.1012    1.0000 </r>
       <r>   -0.0962    1.0000 </r>
       <r>   -0.0844    1.0000 </r>
       <r>   -0.0666    1.0000 </r>
       <r>   -0.0470    1.0000 </r>
       <r>   -0.0304    1.0000 </r>
       <r>   -0.0282    1.0000 </r>
       <r>   -0.0154    1.0000 </r>
       <r>   -0.0058    1.0000 </r>
       <r>    0.0026    1.0000 </r>
       <r>    0.0082    1.0000 </r>
       <r>    0.0147    1.0000 </r>
       <r>    0.0249    1.0000 </r>
       <r>    0.0305    1.0000 </r>
       <r>    0.0411    1.0000 </r>
       <r>    0.0458    1.0000 </r>
       <r>    0.0509    1.0000 </r>
       <r>    0.0638    1.0000 </r>
       <r>    0.0716    1.0000 </r>
       <r>    0.0776    1.0000 </r>
       <r>    0.0785    1.0000 </r>
       <r>    0.0830    1.0000 </r>
       <r>    0.0893    1.0000 </r>
       <r>    0.0997    1.0000 </r>
       <r>    0.1108    1.0000 </r>
       <r>    0.1200    1.0000 </r>
       <r>    0.1269    1.0000 </r>
       <r>    0.1273    1.0000 </r>
       <r>    0.1466    1.0000 </r>
       <r>    0.1497    1.0000 </r>
       <r>    0.1594    1.0000 </r>
       <r>    0.1717    1.0000 </r>
       <r>    0.1744    1.0000 </r>
       <r>    0.1821    1.0000 </r>
       <r>    0.1959    1.0000 </r>
       <r>    0.2006    1.0000 </r>
       <r>    0.2103    1.0000 </r>
       <r>    0.2171    1.0000 </r>
       <r>    0.2211    1.0000 </r>
       <r>    0.2238    1.0000 </r>
       <r>    0.2433    1.0000 </r>
       <r>    0.2478    1.0000 </r>
       <r>    0.2521    1.0000 </r>
       <r>    0.2586    1.0000 </r>
       <r>    0.2697    1.0000 </r>
       <r>    0.2727    1.0000 </r>
       <r>    0.2809    1.0000 </r>
       <r>    0.2850    1.0000 </r>
       <r>    0.2963    1.0000 </r>
       <r>    0.3096    1.0000 </r>
       <r>    0.3125    1.0000 </r>
       <r>    0.3231    1.0000 </r>
       <r>    0.3363    1.0000 </r>
       <r>    0.3438    1.0000 </r>
       <r>    0.3497    1.0000 </r>
       <r>    0.3562    1.0000 </r>
       <r>    0.3639    1.0000 </r>
       <r>    0.3836    1.0000 </r>
       <r>    0.3930    1.0000 </r>
       <r>    0.4089    1.0000 </r>
       <r>    0.4345    1.0000 </r>
       <r>    0.4436    1.0000 </r>
       <r>    0.4443    1.0000 </r>
       <r>    0.4611    1.0000 </r>
       <r>    0.4703    1.0000 </r>
       <r>    0.4803    1.0000 </r>
       <r>    0.4832    1.0000 </r>
       <r>    0.4871    1.0000 </r>
       <r>    0.4965    1.0000 </r>
       <r>    0.4996    1.0000 </r>
       <r>    0.5069    1.0000 </r>
       <r>    0.5163    1.0000 </r>
       <r>    0.5352    1.0000 </r>
       <r>    0.5504    1.0000 </r>
       <r>    0.5610    1.0000 </r>
       <r>    0.5933    1.0000 </r>
       <r>    0.6095    1.0000 </r>
       <r>    0.6212    1.0000 </r>
       <r>    0.6284    1.0000 </r>
       <r>    0.6500    1.0000 </r>
       <r>    0.6602    1.0000 </r>
       <r>    0.6783    1.0000 </r>
       <r>    0.6805    1.0000 </r>
       <r>    0.6850    1.0000 </r>
       <r>    0.7137    1.0000 </r>
       <r>    0.7195    1.0000 </r>
       <r>    0.7396    1.0000 </r>
       <r>    0.7534    1.0000 </r>
       <r>    0.7624    1.0000 </r>
       <r>    0.7690    1.0000 </r>
       <r>    0.7885    1.0000 </r>
       <r>    0.8162    1.0000 </r>
       <r>    0.8240    1.0000 </r>
       <r>    0.8388    1.0000 </r>
       <r>    0.8406    1.0000 </r>
       <r>    0.8514    1.0000 </r>
       <r>    0.8748    1.0000 </r>
       <r>    0.8839    1.0000 </r>
       <r>    0.9053    1.0000 </r>
       <r>    0.9299    1.0000 </r>
       <r>    0.9454    1.0000 </r>
       <r>    0.9669    1.0000 </r>
       <r>    0.9737    1.0000 </r>
       <r>    0.9997    1.0000 </r>
       <r>    1.0098    1.0000 </r>
       <r>    1.0300    1.0000 </r>
       <r>    1.0424    1.0000 </r>
       <r>    1.0551    1.0000 </r>
       <r>    1.0569    1.0000 </r>
       <r>    1.0781    1.0000 </r>
       <r>    1.1110    1.0000 </r>
       <r>    1.1198    1.0000 </r>
       <r>    1.1488    1.0000 </r>
       <r>    1.1640    1.0000 </r>
       <r>    1.1707    1.0000 </r>
       <r>    1.1864    1.0000 </r>
[...]
       <r>   -57.8774     0.0000   288.0000 </r>
       <r>   -57.6197     0.0000   288.0000 </r>
       <r>   -57.3620     0.0000   288.0000 </r>
       <r>   -57.1043     0.0000   288.0000 </r>
       <r>   -56.8466     0.0000   288.0000 </r>
       <r>   -56.5889     0.0000   288.0000 </r>
       <r>   -56.3313     0.0000   288.0000 </r>
       <r>   -56.0736     0.0000   288.0000 </r>
       <r>   -55.8159     0.0000   288.0000 </r>
       <r>   -55.5582     0.0000   288.0000 </r>
       <r>   -55.3005     0.0000   288.0000 </r>
       <r>   -55.0428     0.0000   288.0000 </r>
       <r>   -54.7851     0.0000   288.0000 </r>
       <r>   -54.5274     0.0000   288.0000 </r>
       <r>   -54.2697     0.0000   288.0000 </r>
       <r>   -54.0120     0.0000   288.0000 </r>
       <r>   -53.7543     0.0000   288.0000 </r>
       <r>   -53.4967     0.0000   288.0000 </r>
       <r>   -53.2390     0.0000   288.0000 </r>
       <r>   -52.9813     0.0000   288.0000 </r>
       <r>   -52.7236     0.0000   288.0000 </r>
       <r>   -52.4659     0.0000   288.0000 </r>
       <r>   -52.2082     0.0000   288.0000 </r>
       <r>   -51.9505     0.0000   288.0000 </r>
       <r>   -51.6928     0.0000   288.0000 </r>
       <r>   -51.4351     0.0000   288.0000 </r>
       <r>   -51.1774     0.0000   288.0000 </r>
       <r>   -50.9198     0.0000   288.0000 </r>
       <r>   -50.6621     0.0000   288.0000 </r>
       <r>   -50.4044     0.0000   288.0000 </r>
       <r>   -50.1467     0.0000   288.0000 </r>
       <r>   -49.8890     0.0000   288.0000 </r>
       <r>   -49.6313     0.0000   288.0000 </r>
       <r>   -49.3736     0.0000   288.0000 </r>
       <r>   -49.1159     0.0000   288.0000 </r>
       <r>   -48.8582     0.0000   288.0000 </r>
       <r>   -48.6005     0.0000   288.0000 </r>
       <r>   -48.3429     0.0000   288.0000 </r>
       <r>   -48.0852     0.0000   288.0000 </r>
       <r>   -47.8275     0.0000   288.0000 </r>
       <r>   -47.5698     0.0000   288.0000 </r>
       <r>   -47.3121     0.0000   288.0000 </r>
       <r>   -47.0544     0.0000   288.0000 </r>
       <r>   -46.7967     0.0000   288.0000 </r>
       <r>   -46.5390     0.0000   288.0000 </r>
       <r>   -46.2813     0.0000   288.0000 </r>
       <r>   -46.0236     0.0000   288.0000 </r>
       <r>   -45.7659     0.0000   288.0000 </r>
       <r>   -45.5083     0.0000   288.0000 </r>
       <r>   -45.2506     0.0000   288.0000 </r>
       <r>   -44.9929     0.0000   288.0000 </r>
       <r>   -44.7352     0.0000   288.0000 </r>
       <r>   -44.4775     0.0000   288.0000 </r>
       <r>   -44.2198     0.0000   288.0000 </r>
       <r>   -43.9621     0.0000   288.0000 </r>
       <r>   -43.7044     0.0000   288.0000 </r>
       <r>   -43.4467     0.0000   288.0000 </r>
       <r>   -43.1890     0.0000   288.0000 </r>
       <r>   -42.9314     0.0000   288.0000 </r>
       <r>   -42.6737     0.0000   288.0000 </r>
       <r>   -42.4160     0.0000   288.0000 </r>
       <r>   -42.1583     0.0000   288.0000 </r>
       <r>   -41.9006     0.0000   288.0000 </r>
       <r>   -41.6429     0.0000   288.0000 </r>
       <r>   -41.3852     0.0000   288.0000 </r>
       <r>   -41.1275     0.0000   288.0000 </r>
       <r>   -40.8698     0.0000   288.0000 </r>
       <r>   -40.6121     0.0000   288.0000 </r>
       <r>   -40.3545     0.0000   288.0000 </r>
       <r>   -40.0968     0.0000   288.0000 </r>
       <r>   -39.8391     0.0000   288.0000 </r>
       <r>   -39.5814     0.0000   288.0000 </r>
       <r>   -39.3237     0.0000   288.0000 </r>
       <r>   -39.0660     0.0000   288.0000 </r>
       <r>   -38.8083     0.0000   288.0000 </r>
       <r>   -38.5506     0.0000   288.0000 </r>
       <r>   -38.2929     0.0000   288.0000 </r>
       <r>   -38.0352     0.0000   288.0000 </r>
       <r>   -37.7775     0.0000   288.0000 </r>
       <r>   -37.5199     0.0000   288.0000 </r>
       <r>   -37.2622     0.0000   288.0000 </r>
       <r>   -37.0045     0.0000   288.0000 </r>
       <r>   -36.7468     0.0000   288.0000 </r>
       <r>   -36.4891     0.0000   288.0000 </r>
       <r>   -36.2314     0.0000   288.0000 </r>
       <r>   -35.9737     0.0000   288.0000 </r>
       <r>   -35.7160     0.0000   288.0000 </r>
       <r>   -35.4583     0.0000   288.0000 </r>
       <r>   -35.2006     0.0000   288.0000 </r>
       <r>   -34.9430     0.0000   288.0000 </r>
       <r>   -34.6853     0.0000   288.0000 </r>
       <r>   -34.4276     0.0000   288.0000 </r>
       <r>   -34.1699     0.0000   288.0000 </r>
       <r>   -33.9122     0.0000   288.0000 </r>
       <r>   -33.6545     0.0000   288.0000 </r>
       <r>   -33.3968     0.0000   288.0000 </r>
       <r>   -33.1391     0.0000   288.0000 </r>
       <r>   -32.8814     0.0000   288.0000 </r>
       <r>   -32.6237     0.0000   288.0000 </r>
       <r>   -32.3661     0.0000   288.0000 </r>
       <r>   -32.1084     0.0000   288.0000 </r>
       <r>   -31.8507     0.0000   288.0000 </r>
       <r>   -31.5930     0.0000   288.0000 </r>
       <r>   -31.3353     0.0000   288.0000 </r>
       <r>   -31.0776     0.0000   288.0000 </r>
       <r>   -30.8199     0.0000   288.0000 </r>
       <r>   -30.5622     0.0000   288.0000 </r>
       <r>   -30.3045     0.0000   288.0000 </r>
       <r>   -30.0468     0.0000   288.0000 </r>
       <r>   -29.7891     0.0000   288.0000 </r>
       <r>   -29.5315     0.0000   288.0000 </r>
       <r>   -29.2738     0.0000   288.0000 </r>
       <r>   -29.0161     0.0000   288.0000 </r>
       <r>   -28.7584     0.0000   288.0000 </r>
       <r>   -28.5007     0.0000   288.0000 </r>
       <r>   -28.2430     0.0000   288.0000 </r>
       <r>   -27.9853     0.0000   288.0000 </r>
       <r>   -27.7276     0.0000   288.0000 </r>
       <r>   -27.4699     0.0000   288.0000 </r>
       <r>   -27.2122     0.0000   288.0000 </r>
       <r>   -26.9546     0.0000   288.0000 </r>
       <r>   -26.6969     0.0000   288.0000 </r>
       <r>   -26.4392     0.0000   288.0000 </r>
       <r>   -26.1815     0.0000   288.0000 </r>
       <r>   -25.9238     0.0000   288.0000 </r>
       <r>   -25.6661     0.0000   288.0000 </r>
       <r>   -25.4084     0.0000   288.0000 </r>
       <r>   -25.1507     0.0000   288.0000 </r>
       <r>   -24.8930     0.0000   288.0000 </r>
       <r>   -24.6353     0.0000   288.0000 </r>
       <r>   -24.3777     0.0000   288.0000 </r>
       <r>   -24.1200     0.0000   288.0000 </r>
       <r>   -23.8623     0.0000   288.0000 </r>
       <r>   -23.6046     0.0000   288.0000 </r>
       <r>   -23.3469     0.0000   288.0000 </r>
       <r>   -23.0892     0.0000   288.0000 </r>
       <r>   -22.8315     0.0000   288.0000 </r>
       <r>   -22.5738     0.0000   288.0000 </r>
       <r>   -22.3161     0.0000   288.0000 </r>
       <r>   -22.0584     0.0000   288.0000 </r>
       <r>   -21.8007     0.0000   288.0000 </r>
       <r>   -21.5431     0.0000   288.0000 </r>
       <r>   -21.2854     0.0000   288.0000 </r>
       <r>   -21.0277     0.0000   288.0000 </r>
       <r>   -20.7700     0.0000   288.0000 </r>
       <r>   -20.5123     0.0000   288.0000 </r>
       <r>   -20.2546     0.0000   288.0000 </r>
       <r>   -19.9969     0.0000   288.0000 </r>
       <r>   -19.7392     0.0000   288.0000 </r>
       <r>   -19.4815     0.0000   288.0000 </r>
       <r>   -19.2238     0.0000   288.0000 </r>
       <r>   -18.9662     0.0000   288.0000 </r>
       <r>   -18.7085     0.0000   288.0000 </r>
       <r>   -18.4508     0.0000   288.0000 </r>
       <r>   -18.1931     0.0000   288.0000 </r>
       <r>   -17.9354     0.0000   288.0000 </r>
       <r>   -17.6777     0.0000   288.0000 </r>
       <r>   -17.4200     0.0000   288.0000 </r>
       <r>   -17.1623     0.0000   288.0000 </r>
       <r>   -16.9046     0.0000   288.0000 </r>
       <r>   -16.6469     0.0000   288.0000 </r>
       <r>   -16.3893     0.0000   288.0000 </r>
       <r>   -16.1316     0.0000   288.0000 </r>
       <r>   -15.8739     0.0000   288.0000 </r>
       <r>   -15.6162     0.0000   288.0000 </r>
       <r>   -15.3585     0.0000   288.0000 </r>
       <r>   -15.1008     0.0000   288.0000 </r>
       <r>   -14.8431     0.0000   288.0000 </r>
       <r>   -14.5854     0.0000   288.0000 </r>
       <r>   -14.3277     0.0000   288.0000 </r>
       <r>   -14.0700     0.0081   288.0021 </r>
       <r>   -13.8123     0.8057   288.2097 </r>
       <r>   -13.5547     4.7369   289.4304 </r>
       <r>   -13.2970     2.5815   290.0956 </r>
       <r>   -13.0393     7.4503   292.0155 </r>
       <r>   -12.7816    21.2758   297.4980 </r>
       <r>   -12.5239    24.1833   303.7298 </r>
       <r>   -12.2662    27.5122   310.8195 </r>
       <r>   -12.0085    33.0560   319.3377 </r>
       <r>   -11.7508    46.9296   331.4310 </r>
       <r>   -11.4931    53.0421   345.0994 </r>
       <r>   -11.2354    46.4936   357.0804 </r>
       <r>   -10.9778    31.5209   365.2030 </r>
       <r>   -10.7201    22.8830   371.0997 </r>
       <r>   -10.4624    31.6957   379.2674 </r>
       <r>   -10.2047    15.0374   383.1424 </r>
       <r>    -9.9470     3.1997   383.9669 </r>
       <r>    -9.6893     0.1280   383.9999 </r>
       <r>    -9.4316     0.0003   384.0000 </r>
       <r>    -9.1739     0.0000   384.0000 </r>
       <r>    -8.9162     0.0000   384.0000 </r>
       <r>    -8.6585     0.0000   384.0000 </r>
       <r>    -8.4009     0.0000   384.0000 </r>
       <r>    -8.1432     0.0000   384.0000 </r>
       <r>    -7.8855     0.0000   384.0000 </r>
       <r>    -7.6278     0.0000   384.0000 </r>
       <r>    -7.3701     0.0000   384.0000 </r>
       <r>    -7.1124     0.0000   384.0000 </r>
       <r>    -6.8547     0.0000   384.0000 </r>
       <r>    -6.5970     0.0000   384.0000 </r>
       <r>    -6.3393     0.0000   384.0000 </r>
       <r>    -6.0816     0.0001   384.0000 </r>
       <r>    -5.8239     0.0711   384.0183 </r>
       <r>    -5.5663     5.0832   385.3282 </r>
       <r>    -5.3086    26.6893   392.2058 </r>
       <r>    -5.0509    18.6161   397.0030 </r>
       <r>    -4.7932    22.1155   402.7019 </r>
       <r>    -4.5355    41.4431   413.3814 </r>
       <r>    -4.2778    64.8247   430.0861 </r>
       <r>    -4.0201    55.3865   444.3587 </r>
       <r>    -3.7624    51.8233   457.7130 </r>
       <r>    -3.5047    46.0907   469.5902 </r>
       <r>    -3.2470    57.9253   484.5170 </r>
       <r>    -2.9894    75.1805   503.8902 </r>
       <r>    -2.7317    87.2432   526.3720 </r>
       <r>    -2.4740    83.0145   547.7640 </r>
       <r>    -2.2163    96.9079   572.7362 </r>
       <r>    -1.9586   109.5955   600.9779 </r>
       <r>    -1.7009    73.5792   619.9386 </r>
       <r>    -1.4432    61.9217   635.8952 </r>
       <r>    -1.1855    61.4312   651.7254 </r>
       <r>    -0.9278    72.1389   670.3149 </r>
       <r>    -0.6701    84.9604   692.2084 </r>
       <r>    -0.4125   125.4843   724.5445 </r>
       <r>    -0.1548   149.7737   763.1397 </r>
       <r>     0.1029   196.0922   813.6708 </r>
       <r>     0.3606   231.3372   873.2841 </r>
       <r>     0.6183   183.0198   920.4466 </r>
       <r>     0.8760   144.7158   957.7384 </r>
       <r>     1.1337   127.5912   990.6175 </r>
       <r>     1.3914   119.3544  1021.3739 </r>
       <r>     1.6491    96.8636  1046.3347 </r>
       <r>     1.9068    73.0515  1065.1594 </r>
       <r>     2.1645    61.1141  1080.9079 </r>
       <r>     2.4221    70.3415  1099.0342 </r>
       <r>     2.6798    93.3499  1123.0896 </r>
       <r>     2.9375    83.8292  1144.6916 </r>
       <r>     3.1952    40.2581  1155.0657 </r>
       <r>     3.4529    16.2816  1159.2613 </r>
       <r>     3.7106    11.4390  1162.2090 </r>
       <r>     3.9683    10.7742  1164.9854 </r>
       <r>     4.2260     7.8934  1167.0195 </r>
       <r>     4.4837    10.8052  1169.8039 </r>
       <r>     4.7414     7.6264  1171.7691 </r>
       <r>     4.9990     3.4899  1172.6684 </r>
       <r>     5.2567    15.1645  1176.5762 </r>
       <r>     5.5144    20.3336  1181.8160 </r>
       <r>     5.7721    19.1234  1186.7439 </r>
       <r>     6.0298    30.6893  1194.6522 </r>
       <r>     6.2875    38.7112  1204.6277 </r>
       <r>     6.5452    35.4048  1213.7512 </r>
       <r>     6.8029    45.3591  1225.4398 </r>
       <r>     7.0606    37.7479  1235.1671 </r>
       <r>     7.3183    46.2330  1247.0809 </r>
       <r>     7.5759    53.4729  1260.8603 </r>
       <r>     7.8336    51.1802  1274.0490 </r>
       <r>     8.0913    21.3374  1279.5474 </r>
       <r>     8.3490     1.7419  1279.9963 </r>
       <r>     8.6067     0.0144  1280.0000 </r>
       <r>     8.8644     0.0000  1280.0000 </r>
       <r>     9.1221     0.0000  1280.0000 </r>
       <r>     9.3798     0.0000  1280.0000 </r>
       <r>     9.6375     0.0000  1280.0000 </r>
       <r>     9.8952     0.0000  1280.0000 </r>
       <r>    10.1529     0.0000  1280.0000 </r>
       <r>    10.4105     0.0000  1280.0000 </r>
       <r>    10.6682     0.0000  1280.0000 </r>
       <r>    10.9259     0.0000  1280.0000 </r>
       <r>    11.1836     0.0000  1280.0000 </r>
       <r>    11.4413     0.0000  1280.0000 </r>
      </set>
     </set>
    </array>
   </total>
  </dos>
 </calculation>
 <structure name="finalpos" >
  <crystal>
   <varray name="basis" >
    <v>      10.06282034       5.04456212       0.00000000 </v>
    <v>       0.00000000      11.25646304       0.00000000 </v>
    <v>       0.00000000       0.00000000      22.51995597 </v>
   </varray>
   <i name="volume">   2550.87516496 </i>
   <varray name="rec_basis" >
    <v>       0.09937572       0.00000000       0.00000000 </v>
    <v>      -0.04453504       0.08883785       0.00000000 </v>
    <v>       0.00000000       0.00000000       0.04440506 </v>
   </varray>
  </crystal>
  <varray name="positions" >
   <v>       0.26092069       0.47878037       0.29519774 </v>
   <v>       0.35488056       0.38482051       0.42557357 </v>
   <v>       0.16696082       0.07274025       0.16482191 </v>
   <v>       0.05611868       0.05147941       0.52150332 </v>
   <v>       0.27423906       0.33335901       0.13037583 </v>
   <v>       0.36819893       0.23939914       0.26075166 </v>
   <v>       0.46215879       0.14543927       0.39112749 </v>
   <v>       0.00030194       0.37150214       0.26075166 </v>
   <v>       0.09426180       0.27754227       0.39112749 </v>
   <v>       0.40634206       0.46546200       0.13037583 </v>
   <v>       0.76092069       0.47878037       0.29519774 </v>
   <v>       0.85488056       0.38482051       0.42557357 </v>
   <v>       0.66696082       0.07274025       0.16482191 </v>
   <v>       0.55611868       0.05147941       0.52150332 </v>
   <v>       0.68027919       0.42731887       0.00000000 </v>
   <v>       0.77423906       0.33335901       0.13037583 </v>
   <v>       0.86819893       0.23939914       0.26075166 </v>
   <v>       0.96215879       0.14543927       0.39112749 </v>
   <v>       0.50030194       0.37150214       0.26075166 </v>
   <v>       0.59426180       0.27754227       0.39112749 </v>
   <v>       0.90634206       0.46546200       0.13037583 </v>
   <v>       0.81238219       0.05942188       0.00000000 </v>
   <v>       0.26092069       0.97878037       0.29519774 </v>
   <v>       0.35488056       0.88482051       0.42557357 </v>
   <v>       0.44884042       0.79086064       0.55594940 </v>
   <v>       0.16696082       0.57274025       0.16482191 </v>
   <v>       0.05611868       0.55147941       0.52150332 </v>
   <v>       0.18027919       0.92731887       0.00000000 </v>
   <v>       0.27423906       0.83335901       0.13037583 </v>
   <v>       0.36819893       0.73939914       0.26075166 </v>
   <v>       0.46215879       0.64543927       0.39112749 </v>
   <v>       0.00030194       0.87150214       0.26075166 </v>
   <v>       0.09426180       0.77754227       0.39112749 </v>
   <v>       0.18822167       0.68358240       0.52150332 </v>
   <v>       0.40634206       0.96546200       0.13037583 </v>
   <v>       0.31238219       0.55942188       0.00000000 </v>
   <v>       0.76092069       0.97878037       0.29519774 </v>
   <v>       0.85488056       0.88482051       0.42557357 </v>
   <v>       0.66696082       0.57274025       0.16482191 </v>
   <v>       0.55611868       0.55147941       0.52150332 </v>
   <v>       0.68027919       0.92731887       0.00000000 </v>
   <v>       0.77423906       0.83335901       0.13037583 </v>
   <v>       0.86819893       0.73939914       0.26075166 </v>
   <v>       0.96215879       0.64543927       0.39112749 </v>
   <v>       0.50030194       0.87150214       0.26075166 </v>
   <v>       0.59426180       0.77754227       0.39112749 </v>
   <v>       0.68822167       0.68358240       0.52150332 </v>
   <v>       0.90634206       0.96546200       0.13037583 </v>
   <v>       0.07287763       0.16682345       0.31134756 </v>
   <v>       0.16683750       0.07286358       0.44172340 </v>
   <v>       0.38495788       0.35474318       0.05059591 </v>
   <v>       0.47891775       0.26078331       0.18097173 </v>
   <v>       0.03023342       0.37768265       0.48558574 </v>
   <v>       0.43627354       0.47164252       0.35520991 </v>
   <v>       0.24835381       0.15956227       0.09445824 </v>
   <v>       0.34231367       0.06560240       0.22483408 </v>
   <v>       0.08013881       0.49134726       0.09445824 </v>
   <v>       0.17409868       0.39738739       0.22483408 </v>
   <v>       0.26805854       0.30342752       0.35520991 </v>
   <v>       0.36201841       0.20946766       0.48558574 </v>
   <v>       0.57287763       0.16682345       0.31134756 </v>
   <v>       0.66683750       0.07286358       0.44172340 </v>
   <v>       0.88495788       0.35474318       0.05059591 </v>
   <v>       0.97891775       0.26078331       0.18097173 </v>
   <v>       0.53023342       0.37768265       0.48558574 </v>
   <v>       0.93627354       0.47164252       0.35520991 </v>
   <v>       0.74835381       0.15956227       0.09445824 </v>
   <v>       0.84231367       0.06560240       0.22483408 </v>
   <v>       0.58013881       0.49134726       0.09445824 </v>
   <v>       0.67409868       0.39738739       0.22483408 </v>
   <v>       0.76805854       0.30342752       0.35520991 </v>
   <v>       0.86201841       0.20946766       0.48558574 </v>
   <v>       0.07287763       0.66682345       0.31134756 </v>
   <v>       0.16683750       0.57286358       0.44172340 </v>
   <v>       0.38495788       0.85474318       0.05059591 </v>
   <v>       0.47891775       0.76078331       0.18097173 </v>
   <v>       0.03023342       0.87768265       0.48558574 </v>
   <v>       0.43627354       0.97164252       0.35520991 </v>
   <v>       0.24835381       0.65956227       0.09445824 </v>
   <v>       0.34231367       0.56560240       0.22483408 </v>
   <v>       0.08013881       0.99134726       0.09445824 </v>
   <v>       0.17409868       0.89738739       0.22483408 </v>
   <v>       0.26805854       0.80342752       0.35520991 </v>
   <v>       0.36201841       0.70946766       0.48558574 </v>
   <v>       0.57287763       0.66682345       0.31134756 </v>
   <v>       0.66683750       0.57286358       0.44172340 </v>
   <v>       0.88495788       0.85474318       0.05059591 </v>
   <v>       0.97891775       0.76078331       0.18097173 </v>
   <v>       0.53023342       0.87768265       0.48558574 </v>
   <v>       0.93627354       0.97164252       0.35520991 </v>
   <v>       0.74835381       0.65956227       0.09445824 </v>
   <v>       0.84231367       0.56560240       0.22483408 </v>
   <v>       0.58013881       0.99134726       0.09445824 </v>
   <v>       0.67409868       0.89738739       0.22483408 </v>
   <v>       0.76805854       0.80342752       0.35520991 </v>
   <v>       0.86201841       0.70946766       0.48558574 </v>
  </varray>
 </structure>
</modeling>
