<?xml version="1.0" encoding="ISO-8859-1"?>
<modeling>
 <generator>
  <i name="program" type="string">vasp </i>
  <i name="version" type="string">6.1.0  </i>
  <i name="subversion" type="string">28Jan20 (build Mar 31 2020 17:42:31) gamma-only                       parallel </i>
  <i name="platform" type="string">LinuxIFC </i>
  <i name="date" type="string">2020 04 12 </i>
  <i name="time" type="string">19:05:04 </i>
 </generator>
 <incar>
  <i type="string" name="SYSTEM">"Millerite NiS"</i>
  <i type="int" name="NSIM">     4</i>
  <i type="int" name="NELM">   100</i>
  <i name="ENCUT">    450.00000000</i>
  <i type="string" name="LREAL">A</i>
  <i type="int" name="ISMEAR">     0</i>
  <i type="int" name="NWRITE">     2</i>
  <i type="logical" name="LWAVE"> F  </i>
  <i type="logical" name="LCHARG"> F  </i>
  <i type="int" name="NCORE">     6</i>
  <i type="int" name="NELM">   100</i>
 </incar>
 <structure name="primitive_cell" >
  <crystal>
   <varray name="basis" >
    <v>       9.42510255       3.57329804       0.00000000 </v>
    <v>       0.00000000      10.07973298       0.00000000 </v>
    <v>       0.00000000       0.00000000      20.68350356 </v>
   </varray>
   <i name="volume">   1964.98490008 </i>
   <varray name="rec_basis" >
    <v>       0.10609964       0.00000000       0.00000000 </v>
    <v>      -0.03761267       0.09920898       0.00000000 </v>
    <v>       0.00000000       0.00000000       0.04834771 </v>
   </varray>
  </crystal>
  <varray name="positions" >
   <v>       0.39705889       0.79495179       0.11816221 </v>
   <v>       0.54732740       0.64468328       0.24509923 </v>
   <v>       0.69759592       0.49441477       0.37203625 </v>
   <v>       0.84786443       0.34414625       0.49897328 </v>
   <v>       0.11381506       0.41152895       0.16047455 </v>
   <v>       0.26408357       0.26126044       0.28741157 </v>
   <v>       0.41435209       0.11099193       0.41434860 </v>
   <v>       0.96354655       0.56179747       0.03353752 </v>
   <v>       0.13110826       0.72756909       0.45666094 </v>
   <v>       0.68030272       0.17837463       0.07584987 </v>
   <v>       0.83057123       0.02810612       0.20278689 </v>
   <v>       0.98083974       0.87783760       0.32972391 </v>
   <v>       0.35735705       0.57044763       0.08462468 </v>
   <v>       0.50762556       0.42017912       0.21156171 </v>
   <v>       0.65789407       0.26991061       0.33849873 </v>
   <v>       0.80816258       0.11964210       0.46543576 </v>
   <v>       0.07411322       0.18702480       0.12693702 </v>
   <v>       0.22438173       0.03675628       0.25387405 </v>
   <v>       0.37465024       0.88648777       0.38081107 </v>
   <v>       0.52491876       0.73621926       0.50774810 </v>
   <v>       0.92384471       0.33729331       0.00000000 </v>
   <v>       0.79086939       0.80360196       0.16924937 </v>
   <v>       0.94113790       0.65333345       0.29618639 </v>
   <v>       0.03266674       0.15934394       0.43189823 </v>
   <v>       0.58186121       0.61014948       0.05108716 </v>
   <v>       0.73212972       0.45988096       0.17802418 </v>
   <v>       0.88239823       0.30961245       0.30496121 </v>
   <v>       0.29861738       0.22672664       0.09339950 </v>
   <v>       0.44888589       0.07645813       0.22033653 </v>
   <v>       0.59915440       0.92618961       0.34727355 </v>
   <v>       0.74942291       0.77592110       0.47421057 </v>
   <v>       0.01537355       0.84330380       0.13571184 </v>
   <v>       0.16564206       0.69303529       0.26264887 </v>
   <v>       0.31591057       0.54276678       0.38958589 </v>
   <v>       0.46617908       0.39249826       0.51652292 </v>
   <v>       0.86510503       0.99357231       0.00877482 </v>
   <v>       0.03660483       0.95519385       0.48928282 </v>
   <v>       0.58579929       0.40599939       0.10847175 </v>
   <v>       0.73606780       0.25573088       0.23540877 </v>
   <v>       0.88633632       0.10546237       0.36234580 </v>
   <v>       0.15228695       0.17284506       0.02384707 </v>
   <v>       0.30255546       0.02257655       0.15078409 </v>
   <v>       0.45282398       0.87230804       0.27772111 </v>
   <v>       0.60309249       0.72203953       0.40465814 </v>
   <v>       0.01931163       0.63915371       0.19309643 </v>
   <v>       0.16958015       0.48888520       0.32003346 </v>
   <v>       0.31984866       0.33861669       0.44697048 </v>
   <v>       0.86904312       0.78942223       0.06615941 </v>
   <v>       0.48608562       0.84214307       0.02424015 </v>
   <v>       0.63635413       0.69187455       0.15117717 </v>
   <v>       0.78662264       0.54160604       0.27811420 </v>
   <v>       0.93689115       0.39133753       0.40505122 </v>
   <v>       0.20284179       0.45872023       0.06655249 </v>
   <v>       0.35311030       0.30845172       0.19348951 </v>
   <v>       0.50337881       0.15818320       0.32042654 </v>
   <v>       0.65364732       0.00791469       0.44736356 </v>
   <v>       0.06986647       0.92502888       0.23580185 </v>
   <v>       0.22013498       0.77476037       0.36273888 </v>
   <v>       0.37040349       0.62449185       0.48967590 </v>
   <v>       0.91959796       0.07529739       0.10886483 </v>
   <v>       0.20021045       0.79158823       0.06694557 </v>
   <v>       0.35047896       0.64131972       0.19388259 </v>
   <v>       0.50074747       0.49105121       0.32081962 </v>
   <v>       0.65101599       0.34078269       0.44775664 </v>
   <v>       0.06723513       0.25789688       0.23619494 </v>
   <v>       0.21750365       0.10762837       0.36313196 </v>
   <v>       0.36777216       0.95735986       0.49006899 </v>
   <v>       0.91696662       0.40816539       0.10925791 </v>
   <v>       0.48345428       0.17501107       0.02463323 </v>
   <v>       0.63372279       0.02474256       0.15157025 </v>
   <v>       0.78399130       0.87447404       0.27850728 </v>
   <v>       0.93425982       0.72420553       0.40544430 </v>
  </varray>
 </structure>
 <varray name="primitive_index" >
  <v type="int" >        1 </v>
  <v type="int" >        2 </v>
  <v type="int" >        3 </v>
  <v type="int" >        4 </v>
  <v type="int" >        5 </v>
  <v type="int" >        6 </v>
  <v type="int" >        7 </v>
  <v type="int" >        8 </v>
  <v type="int" >        9 </v>
  <v type="int" >       10 </v>
  <v type="int" >       11 </v>
  <v type="int" >       12 </v>
  <v type="int" >       13 </v>
  <v type="int" >       14 </v>
  <v type="int" >       15 </v>
  <v type="int" >       16 </v>
  <v type="int" >       17 </v>
  <v type="int" >       18 </v>
  <v type="int" >       19 </v>
  <v type="int" >       20 </v>
  <v type="int" >       21 </v>
  <v type="int" >       22 </v>
  <v type="int" >       23 </v>
  <v type="int" >       24 </v>
  <v type="int" >       25 </v>
  <v type="int" >       26 </v>
  <v type="int" >       27 </v>
  <v type="int" >       28 </v>
  <v type="int" >       29 </v>
  <v type="int" >       30 </v>
  <v type="int" >       31 </v>
  <v type="int" >       32 </v>
  <v type="int" >       33 </v>
  <v type="int" >       34 </v>
  <v type="int" >       35 </v>
  <v type="int" >       36 </v>
  <v type="int" >       37 </v>
  <v type="int" >       38 </v>
  <v type="int" >       39 </v>
  <v type="int" >       40 </v>
  <v type="int" >       41 </v>
  <v type="int" >       42 </v>
  <v type="int" >       43 </v>
  <v type="int" >       44 </v>
  <v type="int" >       45 </v>
  <v type="int" >       46 </v>
  <v type="int" >       47 </v>
  <v type="int" >       48 </v>
  <v type="int" >       49 </v>
  <v type="int" >       50 </v>
  <v type="int" >       51 </v>
  <v type="int" >       52 </v>
  <v type="int" >       53 </v>
  <v type="int" >       54 </v>
  <v type="int" >       55 </v>
  <v type="int" >       56 </v>
  <v type="int" >       57 </v>
  <v type="int" >       58 </v>
  <v type="int" >       59 </v>
  <v type="int" >       60 </v>
  <v type="int" >       61 </v>
  <v type="int" >       62 </v>
  <v type="int" >       63 </v>
  <v type="int" >       64 </v>
  <v type="int" >       65 </v>
  <v type="int" >       66 </v>
  <v type="int" >       67 </v>
  <v type="int" >       68 </v>
  <v type="int" >       69 </v>
  <v type="int" >       70 </v>
  <v type="int" >       71 </v>
  <v type="int" >       72 </v>
 </varray>
 <kpoints>
  <generation param="Gamma">
   <v type="int" name="divisions">       1        1        1 </v>
   <v name="usershift">      0.00000000       0.00000000       0.00000000 </v>
   <v name="genvec1">      1.00000000       0.00000000       0.00000000 </v>
   <v name="genvec2">     -0.00000000       1.00000000       0.00000000 </v>
   <v name="genvec3">      0.00000000       0.00000000       1.00000000 </v>
   <v name="shift">      0.00000000       0.00000000       0.00000000 </v>
  </generation>
  <varray name="kpointlist" >
   <v>       0.00000000       0.00000000       0.00000000 </v>
  </varray>
  <varray name="weights" >
   <v>       1.00000000 </v>
  </varray>
 </kpoints>
 <parameters>
  <separator name="general" >
   <i type="string" name="SYSTEM">"Millerite NiS"</i>
   <i type="logical" name="LCOMPAT"> F  </i>
  </separator>
  <separator name="electronic" >
   <i type="string" name="PREC">normal</i>
   <i name="ENMAX">    450.00000000</i>
   <i name="ENAUG">    703.44300000</i>
   <i name="EDIFF">      0.00010000</i>
   <i type="int" name="IALGO">    38</i>
   <i type="int" name="IWAVPR">    10</i>
   <i type="int" name="NBANDS">   480</i>
   <i type="int" name="NBANDSLOW">    -1</i>
   <i type="int" name="NBANDSHIGH">    -1</i>
   <i name="NELECT">    792.00000000</i>
   <i type="int" name="TURBO">     0</i>
   <i type="int" name="IRESTART">     0</i>
   <i type="int" name="NREBOOT">     0</i>
   <i type="int" name="NMIN">     0</i>
   <i name="EREF">      0.00000000</i>
   <separator name="electronic smearing" >
    <i type="int" name="ISMEAR">     0</i>
    <i name="SIGMA">      0.20000000</i>
    <i name="KSPACING">      0.50000000</i>
    <i type="logical" name="KGAMMA"> T  </i>
    <i type="logical" name="KBLOWUP"> T  </i>
   </separator>
   <separator name="electronic projectors" >
    <i type="logical" name="LREAL"> T  </i>
    <v name="ROPT">     -0.00050000     -0.00050000</v>
    <i type="int" name="LMAXPAW">  -100</i>
    <i type="int" name="LMAXMIX">     2</i>
    <i type="logical" name="NLSPLINE"> F  </i>
   </separator>
   <separator name="electronic startup" >
    <i type="int" name="ISTART">     0</i>
    <i type="int" name="ICHARG">     2</i>
    <i type="int" name="INIWAV">     1</i>
   </separator>
   <separator name="electronic spin" >
    <i type="int" name="ISPIN">     1</i>
    <i type="logical" name="LNONCOLLINEAR"> F  </i>
    <v name="MAGMOM">      1.00000000      1.00000000      1.00000000      1.00000000      1.00000000      1.00000000      1.00000000      1.00000000      1.00000000      1.00000000      1.00000000      1.00000000      1.00000000      1.00000000      1.00000000      1.00000000      1.00000000      1.00000000      1.00000000      1.00000000
      1.00000000      1.00000000      1.00000000      1.00000000      1.00000000      1.00000000      1.00000000      1.00000000      1.00000000      1.00000000      1.00000000      1.00000000      1.00000000      1.00000000      1.00000000      1.00000000      1.00000000      1.00000000      1.00000000      1.00000000
      1.00000000      1.00000000      1.00000000      1.00000000      1.00000000      1.00000000      1.00000000      1.00000000      1.00000000      1.00000000      1.00000000      1.00000000      1.00000000      1.00000000      1.00000000      1.00000000      1.00000000      1.00000000      1.00000000      1.00000000
      1.00000000      1.00000000      1.00000000      1.00000000      1.00000000      1.00000000      1.00000000      1.00000000      1.00000000      1.00000000      1.00000000      1.00000000</v>
    <i name="NUPDOWN">     -1.00000000</i>
    <i type="logical" name="LSORBIT"> F  </i>
    <v name="SAXIS">      0.00000000      0.00000000      1.00000000</v>
    <i type="logical" name="LSPIRAL"> F  </i>
    <v name="QSPIRAL">      0.00000000      0.00000000      0.00000000</v>
    <i type="logical" name="LZEROZ"> F  </i>
   </separator>
   <separator name="electronic exchange-correlation" >
    <i type="logical" name="LASPH"> F  </i>
    <i type="logical" name="LMETAGGA"> F  </i>
   </separator>
   <separator name="electronic convergence" >
    <i type="int" name="NELM">   100</i>
    <i type="int" name="NELMDL">    -5</i>
    <i type="int" name="NELMIN">     2</i>
    <i name="ENINI">    450.00000000</i>
    <separator name="electronic convergence detail" >
     <i type="logical" name="LDIAG"> T  </i>
     <i type="logical" name="LSUBROT"> F  </i>
     <i name="WEIMIN">      0.00000000</i>
     <i name="EBREAK">      0.00000005</i>
     <i name="DEPER">      0.30000000</i>
     <i type="int" name="NRMM">     4</i>
     <i name="TIME">      0.40000000</i>
    </separator>
   </separator>
   <separator name="electronic mixer" >
    <i name="AMIX">      0.40000000</i>
    <i name="BMIX">      1.00000000</i>
    <i name="AMIN">      0.10000000</i>
    <i name="AMIX_MAG">      1.60000000</i>
    <i name="BMIX_MAG">      1.00000000</i>
    <separator name="electronic mixer details" >
     <i type="int" name="IMIX">     4</i>
     <i type="logical" name="MIXFIRST"> F  </i>
     <i type="int" name="MAXMIX">   -45</i>
     <i name="WC">    100.00000000</i>
     <i type="int" name="INIMIX">     1</i>
     <i type="int" name="MIXPRE">     1</i>
     <i type="int" name="MREMOVE">     5</i>
    </separator>
   </separator>
   <separator name="electronic dipolcorrection" >
    <i type="logical" name="LDIPOL"> F  </i>
    <i type="logical" name="LMONO"> F  </i>
    <i type="int" name="IDIPOL">     0</i>
    <i name="EPSILON">      1.00000000</i>
    <v name="DIPOL">   -100.00000000   -100.00000000   -100.00000000</v>
    <i name="EFIELD">      0.00000000</i>
   </separator>
  </separator>
  <separator name="grids" >
   <i type="int" name="NGX">    54</i>
   <i type="int" name="NGY">    54</i>
   <i type="int" name="NGZ">   108</i>
   <i type="int" name="NGXF">   108</i>
   <i type="int" name="NGYF">   108</i>
   <i type="int" name="NGZF">   216</i>
   <i type="logical" name="ADDGRID"> F  </i>
  </separator>
  <separator name="ionic" >
   <i type="int" name="NSW">     0</i>
   <i type="int" name="IBRION">    -1</i>
   <i type="int" name="MDALGO">     0</i>
   <i type="int" name="ISIF">     2</i>
   <i name="PSTRESS">      0.00000000</i>
   <i name="EDIFFG">      0.00100000</i>
   <i type="int" name="NFREE">     0</i>
   <i name="POTIM">      0.50000000</i>
   <i name="SMASS">     -3.00000000</i>
   <i name="SCALEE">      1.00000000</i>
  </separator>
  <separator name="ionic md" >
   <i name="TEBEG">      0.00010000</i>
   <i name="TEEND">      0.00010000</i>
   <i type="int" name="NBLOCK">     1</i>
   <i type="int" name="KBLOCK">     1</i>
   <i type="int" name="NPACO">   256</i>
   <i name="APACO">     16.00000000</i>
  </separator>
  <separator name="symmetry" >
   <i type="int" name="ISYM">     2</i>
   <i name="SYMPREC">      0.00001000</i>
  </separator>
  <separator name="dos" >
   <i type="int" name="LORBIT">     0</i>
   <v name="RWIGS">     -1.00000000     -1.00000000</v>
   <i type="int" name="NEDOS">   301</i>
   <i name="EMIN">     10.00000000</i>
   <i name="EMAX">    -10.00000000</i>
   <i name="EFERMI">      0.00000000</i>
  </separator>
  <separator name="writing" >
   <i type="int" name="NWRITE">     2</i>
   <i type="logical" name="LWAVE"> F  </i>
   <i type="logical" name="LDOWNSAMPLE"> F  </i>
   <i type="logical" name="LCHARG"> F  </i>
   <i type="logical" name="LPARD"> F  </i>
   <i type="logical" name="LVTOT"> F  </i>
   <i type="logical" name="LVHAR"> F  </i>
   <i type="logical" name="LELF"> F  </i>
   <i type="logical" name="LOPTICS"> F  </i>
   <v name="STM">      0.00000000      0.00000000      0.00000000      0.00000000      0.00000000      0.00000000      0.00000000</v>
  </separator>
  <separator name="performance" >
   <i type="int" name="NPAR">     8</i>
   <i type="int" name="NSIM">     4</i>
   <i type="int" name="NBLK">    -1</i>
   <i type="logical" name="LPLANE"> T  </i>
   <i type="logical" name="LSCALAPACK"> T  </i>
   <i type="logical" name="LSCAAWARE"> F  </i>
   <i type="logical" name="LSCALU"> F  </i>
   <i type="logical" name="LASYNC"> F  </i>
   <i type="logical" name="LORBITALREAL"> F  </i>
  </separator>
  <separator name="miscellaneous" >
   <i type="int" name="IDIOT">     3</i>
   <i type="int" name="PHON_NSTRUCT">    -1</i>
   <i type="logical" name="LMUSIC"> F  </i>
   <v name="POMASS">     58.69000000     32.06600000</v>
   <v name="DARWINR">      0.00000000      0.00000000</v>
   <v name="DARWINV">      1.00000000      1.00000000</v>
   <i type="logical" name="LCORR"> T  </i>
  </separator>
  <i type="logical" name="GGA_COMPAT"> T  </i>
  <i type="logical" name="LBERRY"> F  </i>
  <i type="int" name="ICORELEVEL">     0</i>
  <i type="logical" name="LDAU"> F  </i>
  <i type="int" name="I_CONSTRAINED_M">     0</i>
  <separator name="electronic exchange-correlation" >
   <i type="string" name="GGA">--</i>
   <i type="int" name="VOSKOWN">     0</i>
   <i type="logical" name="LHFCALC"> F  </i>
   <i type="string" name="PRECFOCK"></i>
   <i type="logical" name="LSYMGRAD"> F  </i>
   <i type="logical" name="LHFONE"> F  </i>
   <i type="logical" name="LRHFCALC"> F  </i>
   <i type="logical" name="LTHOMAS"> F  </i>
   <i type="logical" name="LMODELHF"> F  </i>
   <i type="logical" name="LFOCKACE"> F  </i>
   <i name="ENCUT4O">     -1.00000000</i>
   <i type="int" name="EXXOEP">     0</i>
   <i type="int" name="FOURORBIT">     0</i>
   <i name="AEXX">      0.00000000</i>
   <i name="HFALPHA">      0.00000000</i>
   <i name="MCALPHA">      0.00000000</i>
   <i name="ALDAX">      1.00000000</i>
   <i name="AGGAX">      1.00000000</i>
   <i name="ALDAC">      1.00000000</i>
   <i name="AGGAC">      1.00000000</i>
   <i type="int" name="NKREDX">     1</i>
   <i type="int" name="NKREDY">     1</i>
   <i type="int" name="NKREDZ">     1</i>
   <i type="logical" name="SHIFTRED"> F  </i>
   <i type="logical" name="ODDONLY"> F  </i>
   <i type="logical" name="EVENONLY"> F  </i>
   <i type="int" name="LMAXFOCK">     0</i>
   <i type="int" name="NMAXFOCKAE">     0</i>
   <i type="logical" name="LFOCKAEDFT"> F  </i>
   <i name="HFSCREEN">      0.00000000</i>
   <i name="HFSCREENC">      0.00000000</i>
   <i type="int" name="NBANDSGWLOW">     0</i>
  </separator>
  <separator name="vdW DFT" >
   <i type="logical" name="LUSE_VDW"> F  </i>
   <i name="Zab_VDW">     -0.84910000</i>
   <i name="PARAM1">      0.12340000</i>
   <i name="PARAM2">      1.00000000</i>
   <i name="PARAM3">      0.00000000</i>
  </separator>
  <separator name="model GW" >
   <i type="int" name="MODEL_GW">     0</i>
   <i name="MODEL_EPS0">     16.37487417</i>
   <i name="MODEL_ALPHA">      1.00000000</i>
  </separator>
  <separator name="linear response parameters" >
   <i type="logical" name="LEPSILON"> F  </i>
   <i type="logical" name="LRPA"> F  </i>
   <i type="logical" name="LNABLA"> F  </i>
   <i type="logical" name="LVEL"> F  </i>
   <i type="int" name="KINTER">     0</i>
   <i name="CSHIFT">      0.10000000</i>
   <i name="OMEGAMAX">     -1.00000000</i>
   <i name="DEG_THRESHOLD">      0.00200000</i>
   <i name="RTIME">     -0.10000000</i>
   <i name="WPLASMAI">      0.00000000</i>
   <v name="DFIELD">      0.00000000      0.00000000      0.00000000</v>
   <v name="WPLASMA">      0.00000000      0.00000000      0.00000000      0.00000000      0.00000000      0.00000000      0.00000000      0.00000000      0.00000000</v>
  </separator>
  <separator name="orbital magnetization" >
   <i type="logical" name="NUCIND"> F  </i>
   <v name="MAGPOS">      0.00000000      0.00000000      0.00000000</v>
   <i type="logical" name="LNICSALL"> T  </i>
   <i type="logical" name="ORBITALMAG"> F  </i>
   <i type="logical" name="LMAGBLOCH"> F  </i>
   <i type="logical" name="LCHIMAG"> F  </i>
   <i type="logical" name="LGAUGE"> T  </i>
   <i type="int" name="MAGATOM">     0</i>
   <v name="MAGDIPOL">      0.00000000      0.00000000      0.00000000</v>
   <v name="AVECCONST">      0.00000000      0.00000000      0.00000000</v>
  </separator>
  <separator name="response functions" >
   <i type="logical" name="LFINITE_TEMPERATURE"> F  </i>
   <i type="logical" name="LADDER"> F  </i>
   <i type="logical" name="LRPAFORCE"> F  </i>
   <i type="logical" name="LFXC"> F  </i>
   <i type="logical" name="LHARTREE"> T  </i>
   <i type="int" name="IBSE">     0</i>
   <v type="int" name="KPOINT">    -1     0     0     0</v>
   <i type="logical" name="LTCTC"> F  </i>
   <i type="logical" name="LTCTE"> F  </i>
   <i type="logical" name="LTETE"> F  </i>
   <i type="logical" name="LTRIPLET"> F  </i>
   <i type="logical" name="LFXCEPS"> F  </i>
   <i type="logical" name="LFXHEG"> F  </i>
   <i type="int" name="NATURALO">     2</i>
   <i type="logical" name="LHOLEGF"> F  </i>
   <i type="logical" name="L2ORDER"> F  </i>
   <i type="logical" name="LDMP1"> F  </i>
   <i type="logical" name="LMP2LT"> F  </i>
   <i type="logical" name="LSMP2LT"> F  </i>
   <i type="logical" name="LGWLF"> F  </i>
   <i name="ENCUTGW">     -2.00000000</i>
   <i name="ENCUTGWSOFT">     -2.00000000</i>
   <i name="ENCUTLF">     -1.00000000</i>
   <i type="logical" name="LESF_SPLINES"> F  </i>
   <i type="int" name="LMAXMP2">    -1</i>
   <i name="SCISSOR">      0.00000000</i>
   <i type="int" name="NOMEGA">     0</i>
   <i type="int" name="NOMEGAR">     0</i>
   <i type="int" name="NBANDSGW">    -1</i>
   <i type="int" name="NBANDSO">    -1</i>
   <i type="int" name="NBANDSV">    -1</i>
   <i type="int" name="NELM">   100</i>
   <i type="int" name="NELMHF">     1</i>
   <i type="int" name="DIM">     3</i>
   <i type="int" name="IESPILON">     4</i>
   <i type="int" name="ANTIRES">     0</i>
   <i name="OMEGAMAX">    -30.00000000</i>
   <i name="OMEGAMIN">    -30.00000000</i>
   <i name="OMEGATL">   -200.00000000</i>
   <i type="int" name="OMEGAGRID">     0</i>
   <i name="CSHIFT">     -0.10000000</i>
   <i type="logical" name="LSELFENERGY"> F  </i>
   <i type="logical" name="LSPECTRAL"> F  </i>
   <i type="logical" name="LSPECTRALGW"> F  </i>
   <i type="logical" name="LSINGLES"> F  </i>
   <i type="logical" name="LFERMIGW"> F  </i>
   <i type="logical" name="ODDONLYGW"> F  </i>
   <i type="logical" name="EVENONLYGW"> F  </i>
   <i type="int" name="NKREDLFX">     1</i>
   <i type="int" name="NKREDLFY">     1</i>
   <i type="int" name="NKREDLFZ">     1</i>
   <i type="int" name="MAXMEM">  2800</i>
   <i type="int" name="TELESCOPE">     0</i>
   <i type="int" name="NTAUPAR">    -1</i>
   <i type="int" name="NOMEGAPAR">    -1</i>
   <i name="LAMBDA">      1.00000000</i>
  </separator>
  <separator name="External order field" >
   <i name="OFIELD_KAPPA">      0.00000000</i>
   <v name="OFIELD_K">      0.00000000      0.00000000      0.00000000</v>
   <i name="OFIELD_Q6_NEAR">      0.00000000</i>
   <i name="OFIELD_Q6_FAR">      0.00000000</i>
   <i name="OFIELD_A">      0.00000000</i>
  </separator>
 </parameters>
 <atominfo>
  <atoms>      72 </atoms>
  <types>       2 </types>
  <array name="atoms" >
   <dimension dim="1">ion</dimension>
   <field type="string">element</field>
   <field type="int">atomtype</field>
   <set>
    <rc><c>Ni</c><c>   1</c></rc>
    <rc><c>Ni</c><c>   1</c></rc>
    <rc><c>Ni</c><c>   1</c></rc>
    <rc><c>Ni</c><c>   1</c></rc>
    <rc><c>Ni</c><c>   1</c></rc>
    <rc><c>Ni</c><c>   1</c></rc>
    <rc><c>Ni</c><c>   1</c></rc>
    <rc><c>Ni</c><c>   1</c></rc>
    <rc><c>Ni</c><c>   1</c></rc>
    <rc><c>Ni</c><c>   1</c></rc>
    <rc><c>Ni</c><c>   1</c></rc>
    <rc><c>Ni</c><c>   1</c></rc>
    <rc><c>Ni</c><c>   1</c></rc>
    <rc><c>Ni</c><c>   1</c></rc>
    <rc><c>Ni</c><c>   1</c></rc>
    <rc><c>Ni</c><c>   1</c></rc>
    <rc><c>Ni</c><c>   1</c></rc>
    <rc><c>Ni</c><c>   1</c></rc>
    <rc><c>Ni</c><c>   1</c></rc>
    <rc><c>Ni</c><c>   1</c></rc>
    <rc><c>Ni</c><c>   1</c></rc>
    <rc><c>Ni</c><c>   1</c></rc>
    <rc><c>Ni</c><c>   1</c></rc>
    <rc><c>Ni</c><c>   1</c></rc>
    <rc><c>Ni</c><c>   1</c></rc>
    <rc><c>Ni</c><c>   1</c></rc>
    <rc><c>Ni</c><c>   1</c></rc>
    <rc><c>Ni</c><c>   1</c></rc>
    <rc><c>Ni</c><c>   1</c></rc>
    <rc><c>Ni</c><c>   1</c></rc>
    <rc><c>Ni</c><c>   1</c></rc>
    <rc><c>Ni</c><c>   1</c></rc>
    <rc><c>Ni</c><c>   1</c></rc>
    <rc><c>Ni</c><c>   1</c></rc>
    <rc><c>Ni</c><c>   1</c></rc>
    <rc><c>Ni</c><c>   1</c></rc>
    <rc><c>S </c><c>   2</c></rc>
    <rc><c>S </c><c>   2</c></rc>
    <rc><c>S </c><c>   2</c></rc>
    <rc><c>S </c><c>   2</c></rc>
    <rc><c>S </c><c>   2</c></rc>
    <rc><c>S </c><c>   2</c></rc>
    <rc><c>S </c><c>   2</c></rc>
    <rc><c>S </c><c>   2</c></rc>
    <rc><c>S </c><c>   2</c></rc>
    <rc><c>S </c><c>   2</c></rc>
    <rc><c>S </c><c>   2</c></rc>
    <rc><c>S </c><c>   2</c></rc>
    <rc><c>S </c><c>   2</c></rc>
    <rc><c>S </c><c>   2</c></rc>
    <rc><c>S </c><c>   2</c></rc>
    <rc><c>S </c><c>   2</c></rc>
    <rc><c>S </c><c>   2</c></rc>
    <rc><c>S </c><c>   2</c></rc>
    <rc><c>S </c><c>   2</c></rc>
    <rc><c>S </c><c>   2</c></rc>
    <rc><c>S </c><c>   2</c></rc>
    <rc><c>S </c><c>   2</c></rc>
    <rc><c>S </c><c>   2</c></rc>
    <rc><c>S </c><c>   2</c></rc>
    <rc><c>S </c><c>   2</c></rc>
    <rc><c>S </c><c>   2</c></rc>
    <rc><c>S </c><c>   2</c></rc>
    <rc><c>S </c><c>   2</c></rc>
    <rc><c>S </c><c>   2</c></rc>
    <rc><c>S </c><c>   2</c></rc>
    <rc><c>S </c><c>   2</c></rc>
    <rc><c>S </c><c>   2</c></rc>
    <rc><c>S </c><c>   2</c></rc>
    <rc><c>S </c><c>   2</c></rc>
    <rc><c>S </c><c>   2</c></rc>
    <rc><c>S </c><c>   2</c></rc>
   </set>
  </array>
  <array name="atomtypes" >
   <dimension dim="1">type</dimension>
   <field type="int">atomspertype</field>
   <field type="string">element</field>
   <field>mass</field>
   <field>valence</field>
   <field type="string">pseudopotential</field>
   <set>
    <rc><c>  36</c><c>Ni</c><c>     58.69000000</c><c>     16.00000000</c><c>  PAW_PBE Ni_pv 06Sep2000               </c></rc>
    <rc><c>  36</c><c>S </c><c>     32.06600000</c><c>      6.00000000</c><c>  PAW_PBE S 06Sep2000                   </c></rc>
   </set>
  </array>
 </atominfo>
 <structure name="initialpos" >
  <crystal>
   <varray name="basis" >
    <v>       9.42510255       3.57329804       0.00000000 </v>
    <v>       0.00000000      10.07973298       0.00000000 </v>
    <v>       0.00000000       0.00000000      20.68350356 </v>
   </varray>
   <i name="volume">   1964.98490008 </i>
   <varray name="rec_basis" >
    <v>       0.10609964       0.00000000       0.00000000 </v>
    <v>      -0.03761267       0.09920898       0.00000000 </v>
    <v>       0.00000000       0.00000000       0.04834771 </v>
   </varray>
  </crystal>
  <varray name="positions" >
   <v>       0.39705889       0.79495179       0.11816221 </v>
   <v>       0.54732740       0.64468328       0.24509923 </v>
   <v>       0.69759592       0.49441477       0.37203625 </v>
   <v>       0.84786443       0.34414625       0.49897328 </v>
   <v>       0.11381506       0.41152895       0.16047455 </v>
   <v>       0.26408357       0.26126044       0.28741157 </v>
   <v>       0.41435209       0.11099193       0.41434860 </v>
   <v>       0.96354655       0.56179747       0.03353752 </v>
   <v>       0.13110826       0.72756909       0.45666094 </v>
   <v>       0.68030272       0.17837463       0.07584987 </v>
   <v>       0.83057123       0.02810612       0.20278689 </v>
   <v>       0.98083974       0.87783760       0.32972391 </v>
   <v>       0.35735705       0.57044763       0.08462468 </v>
   <v>       0.50762556       0.42017912       0.21156171 </v>
   <v>       0.65789407       0.26991061       0.33849873 </v>
   <v>       0.80816258       0.11964210       0.46543576 </v>
   <v>       0.07411322       0.18702480       0.12693702 </v>
   <v>       0.22438173       0.03675628       0.25387405 </v>
   <v>       0.37465024       0.88648777       0.38081107 </v>
   <v>       0.52491876       0.73621926       0.50774810 </v>
   <v>       0.92384471       0.33729331       0.00000000 </v>
   <v>       0.79086939       0.80360196       0.16924937 </v>
   <v>       0.94113790       0.65333345       0.29618639 </v>
   <v>       0.03266674       0.15934394       0.43189823 </v>
   <v>       0.58186121       0.61014948       0.05108716 </v>
   <v>       0.73212972       0.45988096       0.17802418 </v>
   <v>       0.88239823       0.30961245       0.30496121 </v>
   <v>       0.29861738       0.22672664       0.09339950 </v>
   <v>       0.44888589       0.07645813       0.22033653 </v>
   <v>       0.59915440       0.92618961       0.34727355 </v>
   <v>       0.74942291       0.77592110       0.47421057 </v>
   <v>       0.01537355       0.84330380       0.13571184 </v>
   <v>       0.16564206       0.69303529       0.26264887 </v>
   <v>       0.31591057       0.54276678       0.38958589 </v>
   <v>       0.46617908       0.39249826       0.51652292 </v>
   <v>       0.86510503       0.99357231       0.00877482 </v>
   <v>       0.03660483       0.95519385       0.48928282 </v>
   <v>       0.58579929       0.40599939       0.10847175 </v>
   <v>       0.73606780       0.25573088       0.23540877 </v>
   <v>       0.88633632       0.10546237       0.36234580 </v>
   <v>       0.15228695       0.17284506       0.02384707 </v>
   <v>       0.30255546       0.02257655       0.15078409 </v>
   <v>       0.45282398       0.87230804       0.27772111 </v>
   <v>       0.60309249       0.72203953       0.40465814 </v>
   <v>       0.01931163       0.63915371       0.19309643 </v>
   <v>       0.16958015       0.48888520       0.32003346 </v>
   <v>       0.31984866       0.33861669       0.44697048 </v>
   <v>       0.86904312       0.78942223       0.06615941 </v>
   <v>       0.48608562       0.84214307       0.02424015 </v>
   <v>       0.63635413       0.69187455       0.15117717 </v>
   <v>       0.78662264       0.54160604       0.27811420 </v>
   <v>       0.93689115       0.39133753       0.40505122 </v>
   <v>       0.20284179       0.45872023       0.06655249 </v>
   <v>       0.35311030       0.30845172       0.19348951 </v>
   <v>       0.50337881       0.15818320       0.32042654 </v>
   <v>       0.65364732       0.00791469       0.44736356 </v>
   <v>       0.06986647       0.92502888       0.23580185 </v>
   <v>       0.22013498       0.77476037       0.36273888 </v>
   <v>       0.37040349       0.62449185       0.48967590 </v>
   <v>       0.91959796       0.07529739       0.10886483 </v>
   <v>       0.20021045       0.79158823       0.06694557 </v>
   <v>       0.35047896       0.64131972       0.19388259 </v>
   <v>       0.50074747       0.49105121       0.32081962 </v>
   <v>       0.65101599       0.34078269       0.44775664 </v>
   <v>       0.06723513       0.25789688       0.23619494 </v>
   <v>       0.21750365       0.10762837       0.36313196 </v>
   <v>       0.36777216       0.95735986       0.49006899 </v>
   <v>       0.91696662       0.40816539       0.10925791 </v>
   <v>       0.48345428       0.17501107       0.02463323 </v>
   <v>       0.63372279       0.02474256       0.15157025 </v>
   <v>       0.78399130       0.87447404       0.27850728 </v>
   <v>       0.93425982       0.72420553       0.40544430 </v>
  </varray>
 </structure>
 <calculation>
  <scstep>
   <time name="dav">    2.06    2.07</time>
   <time name="total">    2.11    2.13</time>
   <energy>
    <i name="alphaZ">   1893.09323658 </i>
    <i name="ewald"> 160842.68870049 </i>
    <i name="hartreedc">-283432.84519222 </i>
    <i name="XCdc">   3650.57772666 </i>
    <i name="pawpsdc"> 112729.53333415 </i>
    <i name="pawaedc">-117641.51188735 </i>
    <i name="eentropy">     -0.36924007 </i>
    <i name="bandstr">  -4339.21296618 </i>
    <i name="atom"> 136002.60505376 </i>
    <i name="e_fr_energy">   9704.55876582 </i>
    <i name="e_wo_entrp">   9704.92800588 </i>
    <i name="e_0_energy">   9704.74338585 </i>
   </energy>
  </scstep>
  <scstep>
   <time name="dav">    1.83    1.83</time>
   <time name="total">    1.83    1.84</time>
   <energy>
    <i name="e_fr_energy">    593.55120544 </i>
    <i name="e_wo_entrp">    594.32820251 </i>
    <i name="e_0_energy">    593.93970398 </i>
   </energy>
  </scstep>
  <scstep>
   <time name="dav">    1.93    1.93</time>
   <time name="total">    1.93    1.93</time>
   <energy>
    <i name="e_fr_energy">   -341.46320307 </i>
    <i name="e_wo_entrp">   -340.23128999 </i>
    <i name="e_0_energy">   -340.84724653 </i>
   </energy>
  </scstep>
  <scstep>
   <time name="dav">    1.98    1.98</time>
   <time name="total">    1.98    1.98</time>
   <energy>
    <i name="e_fr_energy">   -401.84148308 </i>
    <i name="e_wo_entrp">   -400.55234272 </i>
    <i name="e_0_energy">   -401.19691290 </i>
   </energy>
  </scstep>
  <scstep>
   <time name="dav">    2.11    2.12</time>
   <time name="total">    2.16    2.17</time>
   <energy>
    <i name="e_fr_energy">   -404.05825059 </i>
    <i name="e_wo_entrp">   -402.75081439 </i>
    <i name="e_0_energy">   -403.40453249 </i>
   </energy>
  </scstep>
  <scstep>
   <time name="dav">    2.03    2.03</time>
   <time name="total">    2.11    2.12</time>
   <energy>
    <i name="e_fr_energy">   -490.05107439 </i>
    <i name="e_wo_entrp">   -489.21608667 </i>
    <i name="e_0_energy">   -489.63358053 </i>
   </energy>
  </scstep>
  <scstep>
   <time name="dav">    1.98    1.99</time>
   <time name="total">    2.07    2.08</time>
   <energy>
    <i name="e_fr_energy">   -371.82456552 </i>
    <i name="e_wo_entrp">   -370.87050126 </i>
    <i name="e_0_energy">   -371.34753339 </i>
   </energy>
  </scstep>
  <scstep>
   <time name="dav">    2.32    2.33</time>
   <time name="total">    2.41    2.42</time>
   <energy>
    <i name="e_fr_energy">   -467.40231833 </i>
    <i name="e_wo_entrp">   -466.69731286 </i>
    <i name="e_0_energy">   -467.04981559 </i>
   </energy>
  </scstep>
  <scstep>
   <time name="dav">    2.06    2.07</time>
   <time name="total">    2.15    2.16</time>
   <energy>
    <i name="e_fr_energy">   -369.90924100 </i>
    <i name="e_wo_entrp">   -368.77418511 </i>
    <i name="e_0_energy">   -369.34171305 </i>
   </energy>
  </scstep>
  <scstep>
   <time name="dav">    2.29    2.30</time>
   <time name="total">    2.38    2.39</time>
   <energy>
    <i name="e_fr_energy">   -371.73578246 </i>
    <i name="e_wo_entrp">   -370.48251022 </i>
    <i name="e_0_energy">   -371.10914634 </i>
   </energy>
  </scstep>
  <scstep>
   <time name="dav">    2.24    2.24</time>
   <time name="total">    2.32    2.33</time>
   <energy>
    <i name="e_fr_energy">   -371.07178900 </i>
    <i name="e_wo_entrp">   -369.98099716 </i>
    <i name="e_0_energy">   -370.52639308 </i>
   </energy>
  </scstep>
  <scstep>
   <time name="dav">    2.20    2.21</time>
   <time name="total">    2.29    2.29</time>
   <energy>
    <i name="e_fr_energy">   -359.54423364 </i>
    <i name="e_wo_entrp">   -358.47011736 </i>
    <i name="e_0_energy">   -359.00717550 </i>
   </energy>
  </scstep>
  <scstep>
   <time name="dav">    2.27    2.28</time>
   <time name="total">    2.36    2.37</time>
   <energy>
    <i name="e_fr_energy">   -363.82079700 </i>
    <i name="e_wo_entrp">   -362.65190170 </i>
    <i name="e_0_energy">   -363.23634935 </i>
   </energy>
  </scstep>
  <scstep>
   <time name="dav">    2.29    2.30</time>
   <time name="total">    2.38    2.39</time>
   <energy>
    <i name="e_fr_energy">   -357.31899916 </i>
    <i name="e_wo_entrp">   -356.33771136 </i>
    <i name="e_0_energy">   -356.82835526 </i>
   </energy>
  </scstep>
  <scstep>
   <time name="dav">    2.22    2.22</time>
   <time name="total">    2.30    2.31</time>
   <energy>
    <i name="e_fr_energy">   -355.38403563 </i>
    <i name="e_wo_entrp">   -354.31143631 </i>
    <i name="e_0_energy">   -354.84773597 </i>
   </energy>
  </scstep>
  <scstep>
   <time name="dav">    2.24    2.24</time>
   <time name="total">    2.33    2.34</time>
   <energy>
    <i name="e_fr_energy">   -355.18553622 </i>
    <i name="e_wo_entrp">   -354.17032265 </i>
    <i name="e_0_energy">   -354.67792944 </i>
   </energy>
  </scstep>
  <scstep>
   <time name="dav">    2.07    2.07</time>
   <time name="total">    2.16    2.16</time>
   <energy>
    <i name="e_fr_energy">   -354.55671029 </i>
    <i name="e_wo_entrp">   -353.45988584 </i>
    <i name="e_0_energy">   -354.00829807 </i>
   </energy>
  </scstep>
  <scstep>
   <time name="dav">    2.13    2.14</time>
   <time name="total">    2.22    2.23</time>
   <energy>
    <i name="e_fr_energy">   -354.34648096 </i>
    <i name="e_wo_entrp">   -353.30194960 </i>
    <i name="e_0_energy">   -353.82421528 </i>
   </energy>
  </scstep>
  <scstep>
   <time name="dav">    2.25    2.26</time>
   <time name="total">    2.35    2.35</time>
   <energy>
    <i name="e_fr_energy">   -354.01365441 </i>
    <i name="e_wo_entrp">   -352.95112594 </i>
    <i name="e_0_energy">   -353.48239017 </i>
   </energy>
  </scstep>
  <scstep>
   <time name="dav">    2.25    2.25</time>
   <time name="total">    2.34    2.35</time>
   <energy>
    <i name="e_fr_energy">   -353.85992778 </i>
    <i name="e_wo_entrp">   -352.78843685 </i>
    <i name="e_0_energy">   -353.32418231 </i>
   </energy>
  </scstep>
  <scstep>
   <time name="dav">    2.24    2.25</time>
   <time name="total">    2.33    2.34</time>
   <energy>
    <i name="e_fr_energy">   -353.80075262 </i>
    <i name="e_wo_entrp">   -352.71394957 </i>
    <i name="e_0_energy">   -353.25735110 </i>
   </energy>
  </scstep>
  <scstep>
   <time name="dav">    2.27    2.27</time>
   <time name="total">    2.36    2.36</time>
   <energy>
    <i name="e_fr_energy">   -353.71771254 </i>
    <i name="e_wo_entrp">   -352.61761568 </i>
    <i name="e_0_energy">   -353.16766411 </i>
   </energy>
  </scstep>
  <scstep>
   <time name="dav">    2.15    2.15</time>
   <time name="total">    2.24    2.24</time>
   <energy>
    <i name="e_fr_energy">   -353.68810978 </i>
    <i name="e_wo_entrp">   -352.60120353 </i>
    <i name="e_0_energy">   -353.14465666 </i>
   </energy>
  </scstep>
  <scstep>
   <time name="dav">    2.28    2.28</time>
   <time name="total">    2.37    2.38</time>
   <energy>
    <i name="e_fr_energy">   -353.70148888 </i>
    <i name="e_wo_entrp">   -352.60220488 </i>
    <i name="e_0_energy">   -353.15184688 </i>
   </energy>
  </scstep>
  <scstep>
   <time name="dav">    2.10    2.11</time>
   <time name="total">    2.19    2.20</time>
   <energy>
    <i name="e_fr_energy">   -353.67394356 </i>
    <i name="e_wo_entrp">   -352.58672533 </i>
    <i name="e_0_energy">   -353.13033445 </i>
   </energy>
  </scstep>
  <scstep>
   <time name="dav">    2.28    2.28</time>
   <time name="total">    2.37    2.38</time>
   <energy>
    <i name="e_fr_energy">   -353.68112413 </i>
    <i name="e_wo_entrp">   -352.58761216 </i>
    <i name="e_0_energy">   -353.13436814 </i>
   </energy>
  </scstep>
  <scstep>
   <time name="dav">    2.13    2.14</time>
   <time name="total">    2.23    2.23</time>
   <energy>
    <i name="e_fr_energy">   -353.66909793 </i>
    <i name="e_wo_entrp">   -352.58156530 </i>
    <i name="e_0_energy">   -353.12533162 </i>
   </energy>
  </scstep>
  <scstep>
   <time name="dav">    2.26    2.27</time>
   <time name="total">    2.36    2.37</time>
   <energy>
    <i name="e_fr_energy">   -353.66978320 </i>
    <i name="e_wo_entrp">   -352.58272924 </i>
    <i name="e_0_energy">   -353.12625622 </i>
   </energy>
  </scstep>
  <scstep>
   <time name="dav">    2.14    2.14</time>
   <time name="total">    2.23    2.24</time>
   <energy>
    <i name="e_fr_energy">   -353.66510186 </i>
    <i name="e_wo_entrp">   -352.57811375 </i>
    <i name="e_0_energy">   -353.12160780 </i>
   </energy>
  </scstep>
  <scstep>
   <time name="dav">    2.17    2.17</time>
   <time name="total">    2.26    2.27</time>
   <energy>
    <i name="e_fr_energy">   -353.66467185 </i>
    <i name="e_wo_entrp">   -352.57727487 </i>
    <i name="e_0_energy">   -353.12097336 </i>
   </energy>
  </scstep>
  <scstep>
   <time name="dav">    2.07    2.08</time>
   <time name="total">    2.16    2.17</time>
   <energy>
    <i name="e_fr_energy">   -353.66489355 </i>
    <i name="e_wo_entrp">   -352.58046932 </i>
    <i name="e_0_energy">   -353.12268143 </i>
   </energy>
  </scstep>
  <scstep>
   <time name="dav">    1.90    1.91</time>
   <time name="total">    1.99    2.00</time>
   <energy>
    <i name="e_fr_energy">   -353.66460377 </i>
    <i name="e_wo_entrp">   -352.57800049 </i>
    <i name="e_0_energy">   -353.12130213 </i>
   </energy>
  </scstep>
  <scstep>
   <time name="dav">    1.70    1.70</time>
   <time name="total">    1.79    1.79</time>
   <energy>
    <i name="e_fr_energy">   -353.66498786 </i>
    <i name="e_wo_entrp">   -352.57999045 </i>
    <i name="e_0_energy">   -353.12248915 </i>
   </energy>
  </scstep>
  <scstep>
   <time name="dav">    1.58    1.58</time>
   <time name="total">    1.62    1.63</time>
   <energy>
    <i name="alphaZ">   1893.09323658 </i>
    <i name="ewald"> 160842.68870049 </i>
    <i name="hartreedc">-282740.89257630 </i>
    <i name="XCdc">   3621.51650061 </i>
    <i name="pawpsdc"> 130380.95492133 </i>
    <i name="pawaedc">-135349.68806095 </i>
    <i name="eentropy">     -1.08567787 </i>
    <i name="bandstr"> -15002.85703687 </i>
    <i name="atom"> 136002.60505376 </i>
    <i name="e_fr_energy">   -353.66493922 </i>
    <i name="e_wo_entrp">   -352.57926135 </i>
    <i name="e_0_energy">   -353.12210028 </i>
   </energy>
  </scstep>
  <structure>
   <crystal>
    <varray name="basis" >
     <v>       9.42510255       3.57329804       0.00000000 </v>
     <v>       0.00000000      10.07973298       0.00000000 </v>
     <v>       0.00000000       0.00000000      20.68350356 </v>
    </varray>
    <i name="volume">   1964.98490008 </i>
    <varray name="rec_basis" >
     <v>       0.10609964       0.00000000       0.00000000 </v>
     <v>      -0.03761267       0.09920898       0.00000000 </v>
     <v>       0.00000000       0.00000000       0.04834771 </v>
    </varray>
   </crystal>
   <varray name="positions" >
    <v>       0.39705889       0.79495179       0.11816221 </v>
    <v>       0.54732740       0.64468328       0.24509923 </v>
    <v>       0.69759592       0.49441477       0.37203625 </v>
    <v>       0.84786443       0.34414625       0.49897328 </v>
    <v>       0.11381506       0.41152895       0.16047455 </v>
    <v>       0.26408357       0.26126044       0.28741157 </v>
    <v>       0.41435209       0.11099193       0.41434860 </v>
    <v>       0.96354655       0.56179747       0.03353752 </v>
    <v>       0.13110826       0.72756909       0.45666094 </v>
    <v>       0.68030272       0.17837463       0.07584987 </v>
    <v>       0.83057123       0.02810612       0.20278689 </v>
    <v>       0.98083974       0.87783760       0.32972391 </v>
    <v>       0.35735705       0.57044763       0.08462468 </v>
    <v>       0.50762556       0.42017912       0.21156171 </v>
    <v>       0.65789407       0.26991061       0.33849873 </v>
    <v>       0.80816258       0.11964210       0.46543576 </v>
    <v>       0.07411322       0.18702480       0.12693702 </v>
    <v>       0.22438173       0.03675628       0.25387405 </v>
    <v>       0.37465024       0.88648777       0.38081107 </v>
    <v>       0.52491876       0.73621926       0.50774810 </v>
    <v>       0.92384471       0.33729331       0.00000000 </v>
    <v>       0.79086939       0.80360196       0.16924937 </v>
    <v>       0.94113790       0.65333345       0.29618639 </v>
    <v>       0.03266674       0.15934394       0.43189823 </v>
    <v>       0.58186121       0.61014948       0.05108716 </v>
    <v>       0.73212972       0.45988096       0.17802418 </v>
    <v>       0.88239823       0.30961245       0.30496121 </v>
    <v>       0.29861738       0.22672664       0.09339950 </v>
    <v>       0.44888589       0.07645813       0.22033653 </v>
    <v>       0.59915440       0.92618961       0.34727355 </v>
    <v>       0.74942291       0.77592110       0.47421057 </v>
    <v>       0.01537355       0.84330380       0.13571184 </v>
    <v>       0.16564206       0.69303529       0.26264887 </v>
    <v>       0.31591057       0.54276678       0.38958589 </v>
    <v>       0.46617908       0.39249826       0.51652292 </v>
    <v>       0.86510503       0.99357231       0.00877482 </v>
    <v>       0.03660483       0.95519385       0.48928282 </v>
    <v>       0.58579929       0.40599939       0.10847175 </v>
    <v>       0.73606780       0.25573088       0.23540877 </v>
    <v>       0.88633632       0.10546237       0.36234580 </v>
    <v>       0.15228695       0.17284506       0.02384707 </v>
    <v>       0.30255546       0.02257655       0.15078409 </v>
    <v>       0.45282398       0.87230804       0.27772111 </v>
    <v>       0.60309249       0.72203953       0.40465814 </v>
    <v>       0.01931163       0.63915371       0.19309643 </v>
    <v>       0.16958015       0.48888520       0.32003346 </v>
    <v>       0.31984866       0.33861669       0.44697048 </v>
    <v>       0.86904312       0.78942223       0.06615941 </v>
    <v>       0.48608562       0.84214307       0.02424015 </v>
    <v>       0.63635413       0.69187455       0.15117717 </v>
    <v>       0.78662264       0.54160604       0.27811420 </v>
    <v>       0.93689115       0.39133753       0.40505122 </v>
    <v>       0.20284179       0.45872023       0.06655249 </v>
    <v>       0.35311030       0.30845172       0.19348951 </v>
    <v>       0.50337881       0.15818320       0.32042654 </v>
    <v>       0.65364732       0.00791469       0.44736356 </v>
    <v>       0.06986647       0.92502888       0.23580185 </v>
    <v>       0.22013498       0.77476037       0.36273888 </v>
    <v>       0.37040349       0.62449185       0.48967590 </v>
    <v>       0.91959796       0.07529739       0.10886483 </v>
    <v>       0.20021045       0.79158823       0.06694557 </v>
    <v>       0.35047896       0.64131972       0.19388259 </v>
    <v>       0.50074747       0.49105121       0.32081962 </v>
    <v>       0.65101599       0.34078269       0.44775664 </v>
    <v>       0.06723513       0.25789688       0.23619494 </v>
    <v>       0.21750365       0.10762837       0.36313196 </v>
    <v>       0.36777216       0.95735986       0.49006899 </v>
    <v>       0.91696662       0.40816539       0.10925791 </v>
    <v>       0.48345428       0.17501107       0.02463323 </v>
    <v>       0.63372279       0.02474256       0.15157025 </v>
    <v>       0.78399130       0.87447404       0.27850728 </v>
    <v>       0.93425982       0.72420553       0.40544430 </v>
   </varray>
  </structure>
  <varray name="forces" >
   <v>      -0.34115461       0.20789357      -0.60741740 </v>
   <v>      -0.02521235      -0.19819584      -0.06835292 </v>
   <v>       0.17625527      -0.06334372       0.28272182 </v>
   <v>      -0.60721289      -0.12978106      -1.82690027 </v>
   <v>      -0.00478629       0.19094789      -0.14876864 </v>
   <v>      -0.05487360      -0.06540000      -0.12568674 </v>
   <v>       0.13672023       0.03564628       0.61353546 </v>
   <v>       0.24551524      -0.04312268       1.32360776 </v>
   <v>       0.08753050       0.56342425      -0.69146718 </v>
   <v>      -0.70744582      -0.56324143       0.02547090 </v>
   <v>      -0.26383883      -0.04037478       0.02265506 </v>
   <v>      -0.17416760      -0.19466917       0.14803356 </v>
   <v>      -0.69668524      -0.00205211       0.42425037 </v>
   <v>      -0.07650936       0.13315647      -0.03067429 </v>
   <v>       0.18360863      -0.08813317      -0.02342440 </v>
   <v>       0.30071517      -0.65923459      -0.72039129 </v>
   <v>       0.03010000      -0.02074497      -0.39335116 </v>
   <v>       0.05272587       0.07224832      -0.02453212 </v>
   <v>       0.04312422      -0.06789070       0.51062248 </v>
   <v>      -1.06512093       0.42985539      -1.60454989 </v>
   <v>       1.40206504       0.10761300       1.84349985 </v>
   <v>      -0.08371134       0.14690238      -0.16089021 </v>
   <v>       0.26988188      -0.04214913       0.27562479 </v>
   <v>      -0.33960376      -0.67400761      -0.46874070 </v>
   <v>      -0.17327041       0.60760111       0.82735115 </v>
   <v>      -0.14174628       0.16110973      -0.15340825 </v>
   <v>      -0.07927596      -0.08172101       0.24568833 </v>
   <v>       0.19701447       0.23522893      -0.76194204 </v>
   <v>       0.01232816       0.09920824      -0.05782480 </v>
   <v>       0.11320398       0.03898525       0.19532819 </v>
   <v>      -0.54585080       0.59875914      -1.82172947 </v>
   <v>       0.13984827      -0.13033353      -0.36906272 </v>
   <v>      -0.00692599      -0.19703927      -0.02592029 </v>
   <v>      -0.44229564      -0.20878945       0.46278007 </v>
   <v>      -0.37605783       0.54575345      -2.21305735 </v>
   <v>       0.11231083      -0.49399968       2.17112389 </v>
   <v>      -0.63901603       1.00530189       0.32901444 </v>
   <v>      -0.17981415       0.15278938      -1.57723870 </v>
   <v>       0.01213687       0.06295316       0.01711599 </v>
   <v>      -0.08543291       0.33200196       0.05745894 </v>
   <v>      -1.44377291       0.18059023      -0.23253292 </v>
   <v>       0.12325220       0.04366287      -0.15482150 </v>
   <v>       0.09989358      -0.00320564       0.17655015 </v>
   <v>       0.42547644       0.09132368       1.02258474 </v>
   <v>      -0.08911788       0.03412739       0.12946948 </v>
   <v>       0.10223616       0.55958372       0.05053573 </v>
   <v>       0.74258210       0.58604161       1.14394784 </v>
   <v>       0.42319117      -0.20269454      -1.50574375 </v>
   <v>       0.47319427      -1.41104517       0.52203259 </v>
   <v>      -0.22337867      -0.02212251      -0.07984857 </v>
   <v>       0.14948966       0.06712926       0.08711022 </v>
   <v>       0.03776833      -0.26280940       1.02524438 </v>
   <v>       0.06796087       0.46409424      -0.26825584 </v>
   <v>       0.05181251      -0.24640799       0.08640095 </v>
   <v>      -0.12091692      -0.05798640       0.13163475 </v>
   <v>       0.31106618      -0.51139972       0.72526155 </v>
   <v>       0.06795565       0.05200735       0.17586429 </v>
   <v>       0.05469348      -0.54479389       0.04940410 </v>
   <v>      -0.18008674      -0.70322535       0.59318341 </v>
   <v>      -0.60450963       0.13206314      -1.12453914 </v>
   <v>       0.50967298      -0.41843134       0.06042404 </v>
   <v>       0.30137395       0.30098191       0.06015104 </v>
   <v>       0.09158225       0.02446818      -0.06846371 </v>
   <v>       0.45647178      -0.05860370       1.69215887 </v>
   <v>       0.03054419       0.02526581      -0.17724685 </v>
   <v>       0.05975927       0.23584629       0.16049521 </v>
   <v>       0.34959609      -0.38415017      -0.53659177 </v>
   <v>      -0.17311790       0.14693340      -1.19528735 </v>
   <v>       0.70322224       0.13787930       0.73961826 </v>
   <v>       0.35041961       0.04380325       0.34918784 </v>
   <v>       0.13663259      -0.13115664      -0.24591251 </v>
   <v>       0.30997707       0.06907494       0.70743225 </v>
  </varray>
  <varray name="stress" >
   <v>     -23.20148962       1.94160363      -7.74626872 </v>
   <v>       1.94160351     -25.63794654       5.54157773 </v>
   <v>      -7.74626846       5.54157769     -21.72721340 </v>
  </varray>
  <energy>
   <i name="e_fr_energy">   -353.66493922 </i>
   <i name="e_wo_entrp">   -352.57926135 </i>
   <i name="e_0_energy">   -353.12210028 </i>
  </energy>
  <time name="totalsc">   76.36   76.63</time>
  <eigenvalues>
   <array>
    <dimension dim="1">band</dimension>
    <dimension dim="2">kpoint</dimension>
    <dimension dim="3">spin</dimension>
    <field>eigene</field>
    <field>occ</field>
    <set>
     <set comment="spin 1">
      <set comment="kpoint 1">
       <r>  -62.7139    1.0000 </r>
       <r>  -62.7133    1.0000 </r>
       <r>  -62.6778    1.0000 </r>
       <r>  -62.6711    1.0000 </r>
       <r>  -62.6685    1.0000 </r>
       <r>  -62.6663    1.0000 </r>
       <r>  -62.6600    1.0000 </r>
       <r>  -62.6594    1.0000 </r>
       <r>  -62.6586    1.0000 </r>
       <r>  -62.6552    1.0000 </r>
       <r>  -62.6522    1.0000 </r>
       <r>  -62.6514    1.0000 </r>
       <r>  -62.6467    1.0000 </r>
       <r>  -62.6414    1.0000 </r>
       <r>  -62.6394    1.0000 </r>
       <r>  -62.6347    1.0000 </r>
       <r>  -62.6313    1.0000 </r>
       <r>  -62.6253    1.0000 </r>
       <r>  -62.6253    1.0000 </r>
       <r>  -62.6234    1.0000 </r>
       <r>  -62.6218    1.0000 </r>
       <r>  -62.6153    1.0000 </r>
       <r>  -62.6126    1.0000 </r>
       <r>  -62.6111    1.0000 </r>
       <r>  -62.6103    1.0000 </r>
       <r>  -62.6094    1.0000 </r>
       <r>  -62.6067    1.0000 </r>
       <r>  -62.6039    1.0000 </r>
       <r>  -62.6016    1.0000 </r>
       <r>  -62.5989    1.0000 </r>
       <r>  -62.5973    1.0000 </r>
       <r>  -62.5957    1.0000 </r>
       <r>  -62.5935    1.0000 </r>
       <r>  -62.5877    1.0000 </r>
       <r>  -62.5862    1.0000 </r>
       <r>  -62.5852    1.0000 </r>
       <r>  -62.5821    1.0000 </r>
       <r>  -62.5772    1.0000 </r>
       <r>  -62.5699    1.0000 </r>
       <r>  -62.5600    1.0000 </r>
       <r>  -62.5538    1.0000 </r>
       <r>  -62.5523    1.0000 </r>
       <r>  -62.5504    1.0000 </r>
       <r>  -62.5478    1.0000 </r>
       <r>  -62.5464    1.0000 </r>
       <r>  -62.5447    1.0000 </r>
       <r>  -62.5410    1.0000 </r>
       <r>  -62.5310    1.0000 </r>
       <r>  -62.5169    1.0000 </r>
       <r>  -62.5055    1.0000 </r>
       <r>  -62.5004    1.0000 </r>
       <r>  -62.4725    1.0000 </r>
       <r>  -62.4684    1.0000 </r>
       <r>  -62.4646    1.0000 </r>
       <r>  -62.4582    1.0000 </r>
       <r>  -62.4579    1.0000 </r>
       <r>  -62.4577    1.0000 </r>
       <r>  -62.4318    1.0000 </r>
       <r>  -62.4232    1.0000 </r>
       <r>  -62.4165    1.0000 </r>
       <r>  -62.4146    1.0000 </r>
       <r>  -62.4015    1.0000 </r>
       <r>  -62.3947    1.0000 </r>
       <r>  -62.3928    1.0000 </r>
       <r>  -62.3860    1.0000 </r>
       <r>  -62.3857    1.0000 </r>
       <r>  -62.3798    1.0000 </r>
       <r>  -62.3768    1.0000 </r>
       <r>  -62.3649    1.0000 </r>
       <r>  -62.3636    1.0000 </r>
       <r>  -62.3558    1.0000 </r>
       <r>  -62.2990    1.0000 </r>
       <r>  -62.2987    1.0000 </r>
       <r>  -62.2889    1.0000 </r>
       <r>  -62.2749    1.0000 </r>
       <r>  -62.2388    1.0000 </r>
       <r>  -62.2073    1.0000 </r>
       <r>  -62.1919    1.0000 </r>
       <r>  -62.1857    1.0000 </r>
       <r>  -62.1767    1.0000 </r>
       <r>  -62.1485    1.0000 </r>
       <r>  -62.0481    1.0000 </r>
       <r>  -61.9853    1.0000 </r>
       <r>  -61.9658    1.0000 </r>
       <r>  -61.9324    1.0000 </r>
       <r>  -61.9304    1.0000 </r>
       <r>  -61.9031    1.0000 </r>
       <r>  -61.8849    1.0000 </r>
       <r>  -61.8700    1.0000 </r>
       <r>  -61.8458    1.0000 </r>
       <r>  -61.8220    1.0000 </r>
       <r>  -61.8035    1.0000 </r>
       <r>  -61.7413    1.0000 </r>
       <r>  -61.7239    1.0000 </r>
       <r>  -61.7224    1.0000 </r>
       <r>  -61.6604    1.0000 </r>
       <r>  -61.6314    1.0000 </r>
       <r>  -61.6181    1.0000 </r>
       <r>  -61.5744    1.0000 </r>
       <r>  -61.5232    1.0000 </r>
       <r>  -61.5142    1.0000 </r>
       <r>  -61.4481    1.0000 </r>
       <r>  -61.3542    1.0000 </r>
       <r>  -61.3039    1.0000 </r>
       <r>  -61.2930    1.0000 </r>
       <r>  -61.2359    1.0000 </r>
       <r>  -61.0950    1.0000 </r>
       <r>  -61.0926    1.0000 </r>
       <r>  -13.9658    1.0000 </r>
       <r>  -13.3224    1.0000 </r>
       <r>  -13.1811    1.0000 </r>
       <r>  -13.1305    1.0000 </r>
       <r>  -13.0241    1.0000 </r>
       <r>  -12.8368    1.0000 </r>
       <r>  -12.7751    1.0000 </r>
       <r>  -12.7103    1.0000 </r>
       <r>  -12.6500    1.0000 </r>
       <r>  -12.6130    1.0000 </r>
       <r>  -12.5993    1.0000 </r>
       <r>  -12.4780    1.0000 </r>
       <r>  -12.3687    1.0000 </r>
       <r>  -12.3335    1.0000 </r>
       <r>  -12.2021    1.0000 </r>
       <r>  -12.1314    1.0000 </r>
       <r>  -12.1086    1.0000 </r>
       <r>  -12.0577    1.0000 </r>
       <r>  -12.0359    1.0000 </r>
       <r>  -11.9873    1.0000 </r>
       <r>  -11.8839    1.0000 </r>
       <r>  -11.7849    1.0000 </r>
       <r>  -11.7399    1.0000 </r>
       <r>  -11.7140    1.0000 </r>
       <r>  -11.6459    1.0000 </r>
       <r>  -11.6162    1.0000 </r>
       <r>  -11.5354    1.0000 </r>
       <r>  -11.4162    1.0000 </r>
       <r>  -11.3825    1.0000 </r>
       <r>  -11.2258    1.0000 </r>
       <r>  -11.1047    1.0000 </r>
       <r>  -10.9927    1.0000 </r>
       <r>  -10.8945    1.0000 </r>
       <r>  -10.7523    1.0000 </r>
       <r>  -10.5586    1.0000 </r>
       <r>  -10.3491    1.0000 </r>
       <r>   -5.7425    1.0000 </r>
       <r>   -5.6944    1.0000 </r>
       <r>   -5.5574    1.0000 </r>
       <r>   -5.3771    1.0000 </r>
       <r>   -5.3496    1.0000 </r>
       <r>   -5.1870    1.0000 </r>
       <r>   -5.1275    1.0000 </r>
       <r>   -5.0819    1.0000 </r>
       <r>   -5.0023    1.0000 </r>
       <r>   -4.9393    1.0000 </r>
       <r>   -4.9219    1.0000 </r>
       <r>   -4.8654    1.0000 </r>
       <r>   -4.8242    1.0000 </r>
       <r>   -4.8067    1.0000 </r>
       <r>   -4.7711    1.0000 </r>
       <r>   -4.7287    1.0000 </r>
       <r>   -4.6896    1.0000 </r>
       <r>   -4.5945    1.0000 </r>
       <r>   -4.5689    1.0000 </r>
       <r>   -4.5472    1.0000 </r>
       <r>   -4.5289    1.0000 </r>
       <r>   -4.5012    1.0000 </r>
       <r>   -4.4652    1.0000 </r>
       <r>   -4.4086    1.0000 </r>
       <r>   -4.3574    1.0000 </r>
       <r>   -4.3288    1.0000 </r>
       <r>   -4.2993    1.0000 </r>
       <r>   -4.2747    1.0000 </r>
       <r>   -4.1971    1.0000 </r>
       <r>   -4.0848    1.0000 </r>
       <r>   -4.0329    1.0000 </r>
       <r>   -3.9746    1.0000 </r>
       <r>   -3.9409    1.0000 </r>
       <r>   -3.8435    1.0000 </r>
       <r>   -3.8083    1.0000 </r>
       <r>   -3.7773    1.0000 </r>
       <r>   -3.7222    1.0000 </r>
       <r>   -3.6608    1.0000 </r>
       <r>   -3.6061    1.0000 </r>
       <r>   -3.5836    1.0000 </r>
       <r>   -3.4855    1.0000 </r>
       <r>   -3.4592    1.0000 </r>
       <r>   -3.3714    1.0000 </r>
       <r>   -3.3644    1.0000 </r>
       <r>   -3.2862    1.0000 </r>
       <r>   -3.2576    1.0000 </r>
       <r>   -3.2130    1.0000 </r>
       <r>   -3.1800    1.0000 </r>
       <r>   -3.1133    1.0000 </r>
       <r>   -3.0944    1.0000 </r>
       <r>   -3.0511    1.0000 </r>
       <r>   -3.0468    1.0000 </r>
       <r>   -3.0319    1.0000 </r>
       <r>   -3.0083    1.0000 </r>
       <r>   -2.9739    1.0000 </r>
       <r>   -2.9577    1.0000 </r>
       <r>   -2.9323    1.0000 </r>
       <r>   -2.9022    1.0000 </r>
       <r>   -2.8814    1.0000 </r>
       <r>   -2.8552    1.0000 </r>
       <r>   -2.8432    1.0000 </r>
       <r>   -2.8151    1.0000 </r>
       <r>   -2.7672    1.0000 </r>
       <r>   -2.7549    1.0000 </r>
       <r>   -2.7122    1.0000 </r>
       <r>   -2.6696    1.0000 </r>
       <r>   -2.6608    1.0000 </r>
       <r>   -2.6171    1.0000 </r>
       <r>   -2.6083    1.0000 </r>
       <r>   -2.5831    1.0000 </r>
       <r>   -2.5579    1.0000 </r>
       <r>   -2.5292    1.0000 </r>
       <r>   -2.4980    1.0000 </r>
       <r>   -2.4869    1.0000 </r>
       <r>   -2.4742    1.0000 </r>
       <r>   -2.4356    1.0000 </r>
       <r>   -2.4264    1.0000 </r>
       <r>   -2.3974    1.0000 </r>
       <r>   -2.3847    1.0000 </r>
       <r>   -2.3711    1.0000 </r>
       <r>   -2.3227    1.0000 </r>
       <r>   -2.2682    1.0000 </r>
       <r>   -2.2494    1.0000 </r>
       <r>   -2.2065    1.0000 </r>
       <r>   -2.1799    1.0000 </r>
       <r>   -2.1145    1.0000 </r>
       <r>   -2.0575    1.0000 </r>
       <r>   -2.0255    1.0000 </r>
       <r>   -2.0091    1.0000 </r>
       <r>   -1.9453    1.0000 </r>
       <r>   -1.9331    1.0000 </r>
       <r>   -1.8859    1.0000 </r>
       <r>   -1.8445    1.0000 </r>
       <r>   -1.7785    1.0000 </r>
       <r>   -1.7596    1.0000 </r>
       <r>   -1.7072    1.0000 </r>
       <r>   -1.6446    1.0000 </r>
       <r>   -1.5943    1.0000 </r>
       <r>   -1.5855    1.0000 </r>
       <r>   -1.4922    1.0000 </r>
       <r>   -1.4742    1.0000 </r>
       <r>   -1.4205    1.0000 </r>
       <r>   -1.4075    1.0000 </r>
       <r>   -1.3670    1.0000 </r>
       <r>   -1.3437    1.0000 </r>
       <r>   -1.2982    1.0000 </r>
       <r>   -1.2629    1.0000 </r>
       <r>   -1.2426    1.0000 </r>
       <r>   -1.2217    1.0000 </r>
       <r>   -1.1387    1.0000 </r>
       <r>   -1.1169    1.0000 </r>
       <r>   -1.0968    1.0000 </r>
       <r>   -1.0730    1.0000 </r>
       <r>   -1.0238    1.0000 </r>
       <r>   -0.9991    1.0000 </r>
       <r>   -0.9851    1.0000 </r>
       <r>   -0.9444    1.0000 </r>
       <r>   -0.9349    1.0000 </r>
       <r>   -0.9147    1.0000 </r>
       <r>   -0.8993    1.0000 </r>
       <r>   -0.8831    1.0000 </r>
       <r>   -0.8265    1.0000 </r>
       <r>   -0.8184    1.0000 </r>
       <r>   -0.8145    1.0000 </r>
       <r>   -0.7867    1.0000 </r>
       <r>   -0.7720    1.0000 </r>
       <r>   -0.7637    1.0000 </r>
       <r>   -0.7337    1.0000 </r>
       <r>   -0.7185    1.0000 </r>
       <r>   -0.7105    1.0000 </r>
       <r>   -0.6621    1.0000 </r>
       <r>   -0.6515    1.0000 </r>
       <r>   -0.6207    1.0000 </r>
       <r>   -0.5985    1.0000 </r>
       <r>   -0.5885    1.0000 </r>
       <r>   -0.5762    1.0000 </r>
       <r>   -0.5684    1.0000 </r>
       <r>   -0.5541    1.0000 </r>
       <r>   -0.5186    1.0000 </r>
       <r>   -0.5069    1.0000 </r>
       <r>   -0.4934    1.0000 </r>
       <r>   -0.4862    1.0000 </r>
       <r>   -0.4550    1.0000 </r>
       <r>   -0.4436    1.0000 </r>
       <r>   -0.4378    1.0000 </r>
       <r>   -0.4220    1.0000 </r>
       <r>   -0.4080    1.0000 </r>
       <r>   -0.3808    1.0000 </r>
       <r>   -0.3740    1.0000 </r>
       <r>   -0.3605    1.0000 </r>
       <r>   -0.3492    1.0000 </r>
       <r>   -0.3440    1.0000 </r>
       <r>   -0.3372    1.0000 </r>
       <r>   -0.3246    1.0000 </r>
       <r>   -0.3102    1.0000 </r>
       <r>   -0.3060    1.0000 </r>
       <r>   -0.2897    1.0000 </r>
       <r>   -0.2854    1.0000 </r>
       <r>   -0.2720    1.0000 </r>
       <r>   -0.2640    1.0000 </r>
       <r>   -0.2572    1.0000 </r>
       <r>   -0.2327    1.0000 </r>
       <r>   -0.2237    1.0000 </r>
       <r>   -0.2161    1.0000 </r>
       <r>   -0.1966    1.0000 </r>
       <r>   -0.1918    1.0000 </r>
       <r>   -0.1890    1.0000 </r>
       <r>   -0.1796    1.0000 </r>
       <r>   -0.1638    1.0000 </r>
       <r>   -0.1529    1.0000 </r>
       <r>   -0.1499    1.0000 </r>
       <r>   -0.1326    1.0000 </r>
       <r>   -0.1127    1.0000 </r>
       <r>   -0.1090    1.0000 </r>
       <r>   -0.0952    1.0000 </r>
       <r>   -0.0930    1.0000 </r>
       <r>   -0.0822    1.0000 </r>
       <r>   -0.0816    1.0000 </r>
       <r>   -0.0543    1.0000 </r>
       <r>   -0.0504    1.0000 </r>
       <r>   -0.0440    1.0000 </r>
       <r>   -0.0171    1.0000 </r>
       <r>   -0.0110    1.0000 </r>
       <r>   -0.0060    1.0000 </r>
       <r>    0.0014    1.0000 </r>
       <r>    0.0195    1.0000 </r>
       <r>    0.0326    1.0000 </r>
       <r>    0.0531    1.0000 </r>
       <r>    0.0626    1.0000 </r>
       <r>    0.0733    1.0000 </r>
       <r>    0.0960    1.0000 </r>
       <r>    0.1098    1.0000 </r>
       <r>    0.1131    1.0000 </r>
       <r>    0.1233    1.0000 </r>
       <r>    0.1284    1.0000 </r>
       <r>    0.1572    1.0000 </r>
       <r>    0.1654    1.0000 </r>
       <r>    0.1848    1.0000 </r>
       <r>    0.2120    1.0000 </r>
       <r>    0.2139    1.0000 </r>
       <r>    0.2412    1.0000 </r>
       <r>    0.2540    1.0000 </r>
       <r>    0.2670    1.0000 </r>
       <r>    0.2913    1.0000 </r>
       <r>    0.3154    1.0000 </r>
       <r>    0.3230    1.0000 </r>
       <r>    0.3369    1.0000 </r>
       <r>    0.3495    1.0000 </r>
       <r>    0.3734    1.0000 </r>
       <r>    0.4097    1.0000 </r>
       <r>    0.4269    1.0000 </r>
       <r>    0.4383    1.0000 </r>
       <r>    0.4658    1.0000 </r>
       <r>    0.4811    1.0000 </r>
       <r>    0.4979    1.0000 </r>
       <r>    0.5163    1.0000 </r>
       <r>    0.5374    1.0000 </r>
       <r>    0.5438    1.0000 </r>
       <r>    0.5978    1.0000 </r>
       <r>    0.5999    1.0000 </r>
       <r>    0.6112    1.0000 </r>
       <r>    0.6426    1.0000 </r>
       <r>    0.6685    1.0000 </r>
       <r>    0.6782    1.0000 </r>
       <r>    0.6902    1.0000 </r>
       <r>    0.7089    1.0000 </r>
       <r>    0.7323    1.0000 </r>
       <r>    0.7571    1.0000 </r>
       <r>    0.7795    1.0000 </r>
       <r>    0.7895    1.0000 </r>
       <r>    0.8102    1.0000 </r>
       <r>    0.8299    1.0000 </r>
       <r>    0.8436    1.0000 </r>
       <r>    0.8615    1.0000 </r>
       <r>    0.8853    1.0000 </r>
       <r>    0.9186    1.0000 </r>
       <r>    0.9655    0.9998 </r>
       <r>    0.9721    0.9998 </r>
       <r>    1.0007    0.9996 </r>
       <r>    1.0227    0.9992 </r>
       <r>    1.0339    0.9990 </r>
       <r>    1.0525    0.9984 </r>
       <r>    1.1047    0.9952 </r>
       <r>    1.1624    0.9854 </r>
       <r>    1.1862    0.9779 </r>
       <r>    1.2305    0.9553 </r>
       <r>    1.2681    0.9240 </r>
       <r>    1.2887    0.9009 </r>
       <r>    1.3409    0.8206 </r>
       <r>    1.3657    0.7710 </r>
       <r>    1.4018    0.6868 </r>
       <r>    1.4833    0.4643 </r>
       <r>    1.5029    0.4097 </r>
       <r>    1.5440    0.3020 </r>
       <r>    1.5450    0.2995 </r>
       <r>    1.6086    0.1647 </r>
       <r>    1.6266    0.1351 </r>
       <r>    1.6662    0.0834 </r>
       <r>    1.6869    0.0631 </r>
       <r>    1.7396    0.0286 </r>
       <r>    1.7708    0.0169 </r>
       <r>    1.8009    0.0098 </r>
       <r>    1.8402    0.0045 </r>
       <r>    1.8580    0.0031 </r>
       <r>    1.8852    0.0017 </r>
       <r>    1.9421    0.0004 </r>
       <r>    1.9615    0.0003 </r>
       <r>    1.9921    0.0001 </r>
       <r>    2.0230    0.0000 </r>
       <r>    2.0618    0.0000 </r>
       <r>    2.1189    0.0000 </r>
       <r>    2.1494    0.0000 </r>
       <r>    2.1667    0.0000 </r>
       <r>    2.1985    0.0000 </r>
       <r>    2.2255    0.0000 </r>
       <r>    2.2606    0.0000 </r>
       <r>    2.3023    0.0000 </r>
       <r>    2.3435    0.0000 </r>
       <r>    2.3526    0.0000 </r>
       <r>    2.3966    0.0000 </r>
       <r>    2.4023    0.0000 </r>
       <r>    2.4457    0.0000 </r>
       <r>    2.4705    0.0000 </r>
       <r>    2.4922    0.0000 </r>
       <r>    2.5290    0.0000 </r>
       <r>    2.5711    0.0000 </r>
       <r>    2.6182    0.0000 </r>
       <r>    2.6735    0.0000 </r>
       <r>    2.8537    0.0000 </r>
       <r>    2.9163    0.0000 </r>
       <r>    3.2529    0.0000 </r>
       <r>    3.5638    0.0000 </r>
       <r>    3.9828    0.0000 </r>
       <r>    4.3894    0.0000 </r>
       <r>    4.5829    0.0000 </r>
       <r>    4.7289    0.0000 </r>
       <r>    4.7786    0.0000 </r>
       <r>    4.8619    0.0000 </r>
       <r>    4.9578    0.0000 </r>
       <r>    5.1803    0.0000 </r>
       <r>    5.3078    0.0000 </r>
       <r>    5.4786    0.0000 </r>
       <r>    5.5126    0.0000 </r>
       <r>    5.5648    0.0000 </r>
       <r>    5.7422    0.0000 </r>
       <r>    5.8329    0.0000 </r>
       <r>    5.9270    0.0000 </r>
       <r>    5.9667    0.0000 </r>
       <r>    6.0163    0.0000 </r>
       <r>    6.0737    0.0000 </r>
       <r>    6.2298    0.0000 </r>
       <r>    6.2851    0.0000 </r>
       <r>    6.3223    0.0000 </r>
       <r>    6.3574    0.0000 </r>
       <r>    6.5303    0.0000 </r>
       <r>    6.5545    0.0000 </r>
       <r>    6.6301    0.0000 </r>
       <r>    6.7396    0.0000 </r>
       <r>    6.7478    0.0000 </r>
       <r>    6.7880    0.0000 </r>
       <r>    6.8962    0.0000 </r>
       <r>    6.9173    0.0000 </r>
       <r>    7.0126    0.0000 </r>
       <r>    7.0253    0.0000 </r>
       <r>    7.0595    0.0000 </r>
       <r>    7.1072    0.0000 </r>
       <r>    7.1447    0.0000 </r>
       <r>    7.2138    0.0000 </r>
       <r>    7.2592    0.0000 </r>
       <r>    7.2889    0.0000 </r>
       <r>    7.3452    0.0000 </r>
       <r>    7.3984    0.0000 </r>
       <r>    7.4658    0.0000 </r>
       <r>    7.4872    0.0000 </r>
       <r>    7.5169    0.0000 </r>
       <r>    7.5975    0.0000 </r>
      </set>
     </set>
    </set>
   </array>
  </eigenvalues>
  <separator name="orbital magnetization" >
   <v name="MAGDIPOLOUT">      0.00000000      0.00000000      0.00000000</v>
  </separator>
  <dos>
   <i name="efermi">      1.47066476 </i>
   <total>
    <array>
     <dimension dim="1">gridpoints</dimension>
     <dimension dim="2">spin</dimension>
     <field>energy</field>
     <field>total</field>
     <field>integrated</field>
     <set>
      <set comment="spin 1">
       <r>   -66.2294     0.0000     0.0000 </r>
       <r>   -65.9716     0.0000     0.0000 </r>
       <r>   -65.7138     0.0000     0.0000 </r>
       <r>   -65.4560     0.0000     0.0000 </r>
       <r>   -65.1982     0.0000     0.0000 </r>
       <r>   -64.9404     0.0000     0.0000 </r>
       <r>   -64.6826     0.0000     0.0000 </r>
       <r>   -64.4248     0.0000     0.0000 </r>
       <r>   -64.1670     0.0000     0.0000 </r>
       <r>   -63.9091     0.0000     0.0000 </r>
       <r>   -63.6513     0.0000     0.0000 </r>
       <r>   -63.3935     0.0000     0.0000 </r>
       <r>   -63.1357     0.0789     0.0203 </r>
       <r>   -62.8779    13.9063     3.6055 </r>
       <r>   -62.6201   182.2863    50.6004 </r>
       <r>   -62.3623   292.7135   126.0645 </r>
       <r>   -62.1045   130.2127   159.6344 </r>
       <r>   -61.8467    70.9497   177.9258 </r>
       <r>   -61.5889    66.3745   195.0377 </r>
       <r>   -61.3311    44.3726   206.4774 </r>
       <r>   -61.0733    28.0110   213.6989 </r>
       <r>   -60.8154     8.5283   215.8975 </r>
       <r>   -60.5576     0.3963   215.9997 </r>
       <r>   -60.2998     0.0012   216.0000 </r>
       <r>   -60.0420     0.0000   216.0000 </r>
       <r>   -59.7842     0.0000   216.0000 </r>
       <r>   -59.5264     0.0000   216.0000 </r>
       <r>   -59.2686     0.0000   216.0000 </r>
       <r>   -59.0108     0.0000   216.0000 </r>
       <r>   -58.7530     0.0000   216.0000 </r>
       <r>   -58.4952     0.0000   216.0000 </r>
       <r>   -58.2374     0.0000   216.0000 </r>
       <r>   -57.9796     0.0000   216.0000 </r>
       <r>   -57.7217     0.0000   216.0000 </r>
       <r>   -57.4639     0.0000   216.0000 </r>
       <r>   -57.2061     0.0000   216.0000 </r>
       <r>   -56.9483     0.0000   216.0000 </r>
       <r>   -56.6905     0.0000   216.0000 </r>
       <r>   -56.4327     0.0000   216.0000 </r>
       <r>   -56.1749     0.0000   216.0000 </r>
       <r>   -55.9171     0.0000   216.0000 </r>
       <r>   -55.6593     0.0000   216.0000 </r>
       <r>   -55.4015     0.0000   216.0000 </r>
       <r>   -55.1437     0.0000   216.0000 </r>
       <r>   -54.8859     0.0000   216.0000 </r>
       <r>   -54.6280     0.0000   216.0000 </r>
       <r>   -54.3702     0.0000   216.0000 </r>
       <r>   -54.1124     0.0000   216.0000 </r>
       <r>   -53.8546     0.0000   216.0000 </r>
       <r>   -53.5968     0.0000   216.0000 </r>
       <r>   -53.3390     0.0000   216.0000 </r>
       <r>   -53.0812     0.0000   216.0000 </r>
       <r>   -52.8234     0.0000   216.0000 </r>
       <r>   -52.5656     0.0000   216.0000 </r>
       <r>   -52.3078     0.0000   216.0000 </r>
       <r>   -52.0500     0.0000   216.0000 </r>
       <r>   -51.7922     0.0000   216.0000 </r>
       <r>   -51.5343     0.0000   216.0000 </r>
       <r>   -51.2765     0.0000   216.0000 </r>
       <r>   -51.0187     0.0000   216.0000 </r>
       <r>   -50.7609     0.0000   216.0000 </r>
       <r>   -50.5031     0.0000   216.0000 </r>
       <r>   -50.2453     0.0000   216.0000 </r>
       <r>   -49.9875     0.0000   216.0000 </r>
       <r>   -49.7297     0.0000   216.0000 </r>
       <r>   -49.4719     0.0000   216.0000 </r>
       <r>   -49.2141     0.0000   216.0000 </r>
       <r>   -48.9563     0.0000   216.0000 </r>
       <r>   -48.6985     0.0000   216.0000 </r>
       <r>   -48.4406     0.0000   216.0000 </r>
       <r>   -48.1828     0.0000   216.0000 </r>
       <r>   -47.9250     0.0000   216.0000 </r>
       <r>   -47.6672     0.0000   216.0000 </r>
       <r>   -47.4094     0.0000   216.0000 </r>
       <r>   -47.1516     0.0000   216.0000 </r>
       <r>   -46.8938     0.0000   216.0000 </r>
       <r>   -46.6360     0.0000   216.0000 </r>
       <r>   -46.3782     0.0000   216.0000 </r>
       <r>   -46.1204     0.0000   216.0000 </r>
       <r>   -45.8626     0.0000   216.0000 </r>
       <r>   -45.6048     0.0000   216.0000 </r>
       <r>   -45.3469     0.0000   216.0000 </r>
       <r>   -45.0891     0.0000   216.0000 </r>
       <r>   -44.8313     0.0000   216.0000 </r>
       <r>   -44.5735     0.0000   216.0000 </r>
       <r>   -44.3157     0.0000   216.0000 </r>
       <r>   -44.0579     0.0000   216.0000 </r>
       <r>   -43.8001     0.0000   216.0000 </r>
       <r>   -43.5423     0.0000   216.0000 </r>
       <r>   -43.2845     0.0000   216.0000 </r>
       <r>   -43.0267     0.0000   216.0000 </r>
       <r>   -42.7689     0.0000   216.0000 </r>
       <r>   -42.5111     0.0000   216.0000 </r>
       <r>   -42.2532     0.0000   216.0000 </r>
       <r>   -41.9954     0.0000   216.0000 </r>
       <r>   -41.7376     0.0000   216.0000 </r>
       <r>   -41.4798     0.0000   216.0000 </r>
       <r>   -41.2220     0.0000   216.0000 </r>
       <r>   -40.9642     0.0000   216.0000 </r>
       <r>   -40.7064     0.0000   216.0000 </r>
       <r>   -40.4486     0.0000   216.0000 </r>
       <r>   -40.1908     0.0000   216.0000 </r>
       <r>   -39.9330     0.0000   216.0000 </r>
       <r>   -39.6752     0.0000   216.0000 </r>
       <r>   -39.4173     0.0000   216.0000 </r>
       <r>   -39.1595     0.0000   216.0000 </r>
       <r>   -38.9017     0.0000   216.0000 </r>
       <r>   -38.6439     0.0000   216.0000 </r>
       <r>   -38.3861     0.0000   216.0000 </r>
       <r>   -38.1283     0.0000   216.0000 </r>
       <r>   -37.8705     0.0000   216.0000 </r>
       <r>   -37.6127     0.0000   216.0000 </r>
       <r>   -37.3549     0.0000   216.0000 </r>
       <r>   -37.0971     0.0000   216.0000 </r>
       <r>   -36.8393     0.0000   216.0000 </r>
       <r>   -36.5815     0.0000   216.0000 </r>
       <r>   -36.3236     0.0000   216.0000 </r>
       <r>   -36.0658     0.0000   216.0000 </r>
       <r>   -35.8080     0.0000   216.0000 </r>
       <r>   -35.5502     0.0000   216.0000 </r>
       <r>   -35.2924     0.0000   216.0000 </r>
       <r>   -35.0346     0.0000   216.0000 </r>
       <r>   -34.7768     0.0000   216.0000 </r>
       <r>   -34.5190     0.0000   216.0000 </r>
       <r>   -34.2612     0.0000   216.0000 </r>
       <r>   -34.0034     0.0000   216.0000 </r>
       <r>   -33.7456     0.0000   216.0000 </r>
       <r>   -33.4878     0.0000   216.0000 </r>
       <r>   -33.2299     0.0000   216.0000 </r>
       <r>   -32.9721     0.0000   216.0000 </r>
       <r>   -32.7143     0.0000   216.0000 </r>
       <r>   -32.4565     0.0000   216.0000 </r>
       <r>   -32.1987     0.0000   216.0000 </r>
       <r>   -31.9409     0.0000   216.0000 </r>
       <r>   -31.6831     0.0000   216.0000 </r>
       <r>   -31.4253     0.0000   216.0000 </r>
       <r>   -31.1675     0.0000   216.0000 </r>
       <r>   -30.9097     0.0000   216.0000 </r>
       <r>   -30.6519     0.0000   216.0000 </r>
       <r>   -30.3941     0.0000   216.0000 </r>
       <r>   -30.1362     0.0000   216.0000 </r>
       <r>   -29.8784     0.0000   216.0000 </r>
       <r>   -29.6206     0.0000   216.0000 </r>
       <r>   -29.3628     0.0000   216.0000 </r>
       <r>   -29.1050     0.0000   216.0000 </r>
       <r>   -28.8472     0.0000   216.0000 </r>
       <r>   -28.5894     0.0000   216.0000 </r>
       <r>   -28.3316     0.0000   216.0000 </r>
       <r>   -28.0738     0.0000   216.0000 </r>
       <r>   -27.8160     0.0000   216.0000 </r>
       <r>   -27.5582     0.0000   216.0000 </r>
       <r>   -27.3004     0.0000   216.0000 </r>
       <r>   -27.0425     0.0000   216.0000 </r>
       <r>   -26.7847     0.0000   216.0000 </r>
       <r>   -26.5269     0.0000   216.0000 </r>
       <r>   -26.2691     0.0000   216.0000 </r>
       <r>   -26.0113     0.0000   216.0000 </r>
       <r>   -25.7535     0.0000   216.0000 </r>
       <r>   -25.4957     0.0000   216.0000 </r>
       <r>   -25.2379     0.0000   216.0000 </r>
       <r>   -24.9801     0.0000   216.0000 </r>
       <r>   -24.7223     0.0000   216.0000 </r>
       <r>   -24.4645     0.0000   216.0000 </r>
       <r>   -24.2067     0.0000   216.0000 </r>
       <r>   -23.9488     0.0000   216.0000 </r>
       <r>   -23.6910     0.0000   216.0000 </r>
       <r>   -23.4332     0.0000   216.0000 </r>
       <r>   -23.1754     0.0000   216.0000 </r>
       <r>   -22.9176     0.0000   216.0000 </r>
       <r>   -22.6598     0.0000   216.0000 </r>
       <r>   -22.4020     0.0000   216.0000 </r>
       <r>   -22.1442     0.0000   216.0000 </r>
       <r>   -21.8864     0.0000   216.0000 </r>
       <r>   -21.6286     0.0000   216.0000 </r>
       <r>   -21.3708     0.0000   216.0000 </r>
       <r>   -21.1130     0.0000   216.0000 </r>
       <r>   -20.8551     0.0000   216.0000 </r>
       <r>   -20.5973     0.0000   216.0000 </r>
       <r>   -20.3395     0.0000   216.0000 </r>
       <r>   -20.0817     0.0000   216.0000 </r>
       <r>   -19.8239     0.0000   216.0000 </r>
       <r>   -19.5661     0.0000   216.0000 </r>
       <r>   -19.3083     0.0000   216.0000 </r>
       <r>   -19.0505     0.0000   216.0000 </r>
       <r>   -18.7927     0.0000   216.0000 </r>
       <r>   -18.5349     0.0000   216.0000 </r>
       <r>   -18.2771     0.0000   216.0000 </r>
       <r>   -18.0193     0.0000   216.0000 </r>
       <r>   -17.7614     0.0000   216.0000 </r>
       <r>   -17.5036     0.0000   216.0000 </r>
       <r>   -17.2458     0.0000   216.0000 </r>
       <r>   -16.9880     0.0000   216.0000 </r>
       <r>   -16.7302     0.0000   216.0000 </r>
       <r>   -16.4724     0.0000   216.0000 </r>
       <r>   -16.2146     0.0000   216.0000 </r>
       <r>   -15.9568     0.0000   216.0000 </r>
       <r>   -15.6990     0.0000   216.0000 </r>
       <r>   -15.4412     0.0000   216.0000 </r>
       <r>   -15.1834     0.0000   216.0000 </r>
       <r>   -14.9256     0.0000   216.0000 </r>
       <r>   -14.6677     0.0000   216.0000 </r>
       <r>   -14.4099     0.0065   216.0017 </r>
       <r>   -14.1521     0.7213   216.1876 </r>
       <r>   -13.8943     4.6512   217.3868 </r>
       <r>   -13.6365     2.4100   218.0081 </r>
       <r>   -13.3787     3.6313   218.9443 </r>
       <r>   -13.1209    14.9074   222.7875 </r>
       <r>   -12.8631    18.6873   227.6053 </r>
       <r>   -12.6053    28.6379   234.9884 </r>
       <r>   -12.3475    27.6052   242.1052 </r>
       <r>   -12.0897    30.4979   249.9678 </r>
       <r>   -11.8319    33.7910   258.6794 </r>
       <r>   -11.5740    32.7766   267.1295 </r>
       <r>   -11.3162    24.2435   273.3797 </r>
       <r>   -11.0584    17.5524   277.9049 </r>
       <r>   -10.8006    16.2941   282.1056 </r>
       <r>   -10.5428    11.6410   285.1067 </r>
       <r>   -10.2850     8.4896   287.2954 </r>
       <r>   -10.0272     2.6436   287.9770 </r>
       <r>    -9.7694     0.0891   288.0000 </r>
       <r>    -9.5116     0.0002   288.0000 </r>
       <r>    -9.2538     0.0000   288.0000 </r>
       <r>    -8.9960     0.0000   288.0000 </r>
       <r>    -8.7381     0.0000   288.0000 </r>
       <r>    -8.4803     0.0000   288.0000 </r>
       <r>    -8.2225     0.0000   288.0000 </r>
       <r>    -7.9647     0.0000   288.0000 </r>
       <r>    -7.7069     0.0000   288.0000 </r>
       <r>    -7.4491     0.0000   288.0000 </r>
       <r>    -7.1913     0.0000   288.0000 </r>
       <r>    -6.9335     0.0000   288.0000 </r>
       <r>    -6.6757     0.0000   288.0000 </r>
       <r>    -6.4179     0.0000   288.0000 </r>
       <r>    -6.1601     0.0161   288.0042 </r>
       <r>    -5.9023     1.5946   288.4153 </r>
       <r>    -5.6444    11.6680   291.4234 </r>
       <r>    -5.3866    16.7296   295.7364 </r>
       <r>    -5.1288    23.0566   301.6806 </r>
       <r>    -4.8710    38.2938   311.5531 </r>
       <r>    -4.6132    48.9239   324.1661 </r>
       <r>    -4.3554    51.2409   337.3764 </r>
       <r>    -4.0976    38.5434   347.3132 </r>
       <r>    -3.8398    34.5390   356.2177 </r>
       <r>    -3.5820    38.3350   366.1007 </r>
       <r>    -3.3242    39.8082   376.3636 </r>
       <r>    -3.0664    55.8616   390.7652 </r>
       <r>    -2.8086    75.2742   410.1715 </r>
       <r>    -2.5507    76.5607   429.9095 </r>
       <r>    -2.2929    74.7843   449.1896 </r>
       <r>    -2.0351    53.9818   463.1065 </r>
       <r>    -1.7773    48.1197   475.5122 </r>
       <r>    -1.5195    45.7165   487.2983 </r>
       <r>    -1.2617    54.7757   501.4199 </r>
       <r>    -1.0039    66.2024   518.4875 </r>
       <r>    -0.7461    90.9086   541.9245 </r>
       <r>    -0.4883   115.4855   571.6976 </r>
       <r>    -0.2305   159.9599   612.9366 </r>
       <r>     0.0273   174.3263   657.8794 </r>
       <r>     0.2851   138.0807   693.4777 </r>
       <r>     0.5430   108.0407   721.3315 </r>
       <r>     0.8008   100.4100   747.2181 </r>
       <r>     1.0586    82.7543   768.5528 </r>
       <r>     1.3164    59.0202   783.7687 </r>
       <r>     1.5742    54.2819   797.7630 </r>
       <r>     1.8320    59.1810   813.0204 </r>
       <r>     2.0898    59.6998   828.4115 </r>
       <r>     2.3476    62.2864   844.4695 </r>
       <r>     2.6054    55.4145   858.7558 </r>
       <r>     2.8632    25.8764   865.4269 </r>
       <r>     3.1210    10.5400   868.1442 </r>
       <r>     3.3788     6.4863   869.8164 </r>
       <r>     3.6367     6.1475   871.4013 </r>
       <r>     3.8945     4.3138   872.5134 </r>
       <r>     4.1523     5.2434   873.8652 </r>
       <r>     4.4101     5.8375   875.3702 </r>
       <r>     4.6679    12.9696   878.7138 </r>
       <r>     4.9257    19.6114   883.7698 </r>
       <r>     5.1835    13.7815   887.3228 </r>
       <r>     5.4413    15.8861   891.4184 </r>
       <r>     5.6991    20.2912   896.6496 </r>
       <r>     5.9569    23.7277   902.7668 </r>
       <r>     6.2147    27.0153   909.7316 </r>
       <r>     6.4725    26.9133   916.6700 </r>
       <r>     6.7304    29.2547   924.2121 </r>
       <r>     6.9882    36.7349   933.6827 </r>
       <r>     7.2460    42.6043   944.6664 </r>
       <r>     7.5038    39.1062   954.7484 </r>
       <r>     7.7616    18.6898   959.5667 </r>
       <r>     8.0194     1.6669   959.9965 </r>
       <r>     8.2772     0.0136   960.0000 </r>
       <r>     8.5350     0.0000   960.0000 </r>
       <r>     8.7928     0.0000   960.0000 </r>
       <r>     9.0506     0.0000   960.0000 </r>
       <r>     9.3084     0.0000   960.0000 </r>
       <r>     9.5662     0.0000   960.0000 </r>
       <r>     9.8241     0.0000   960.0000 </r>
       <r>    10.0819     0.0000   960.0000 </r>
       <r>    10.3397     0.0000   960.0000 </r>
       <r>    10.5975     0.0000   960.0000 </r>
       <r>    10.8553     0.0000   960.0000 </r>
       <r>    11.1131     0.0000   960.0000 </r>
      </set>
     </set>
    </array>
   </total>
  </dos>
 </calculation>
 <structure name="finalpos" >
  <crystal>
   <varray name="basis" >
    <v>       9.42510255       3.57329804       0.00000000 </v>
    <v>       0.00000000      10.07973298       0.00000000 </v>
    <v>       0.00000000       0.00000000      20.68350356 </v>
   </varray>
   <i name="volume">   1964.98490008 </i>
   <varray name="rec_basis" >
    <v>       0.10609964       0.00000000       0.00000000 </v>
    <v>      -0.03761267       0.09920898       0.00000000 </v>
    <v>       0.00000000       0.00000000       0.04834771 </v>
   </varray>
  </crystal>
  <varray name="positions" >
   <v>       0.39705889       0.79495179       0.11816221 </v>
   <v>       0.54732740       0.64468328       0.24509923 </v>
   <v>       0.69759592       0.49441477       0.37203625 </v>
   <v>       0.84786443       0.34414625       0.49897328 </v>
   <v>       0.11381506       0.41152895       0.16047455 </v>
   <v>       0.26408357       0.26126044       0.28741157 </v>
   <v>       0.41435209       0.11099193       0.41434860 </v>
   <v>       0.96354655       0.56179747       0.03353752 </v>
   <v>       0.13110826       0.72756909       0.45666094 </v>
   <v>       0.68030272       0.17837463       0.07584987 </v>
   <v>       0.83057123       0.02810612       0.20278689 </v>
   <v>       0.98083974       0.87783760       0.32972391 </v>
   <v>       0.35735705       0.57044763       0.08462468 </v>
   <v>       0.50762556       0.42017912       0.21156171 </v>
   <v>       0.65789407       0.26991061       0.33849873 </v>
   <v>       0.80816258       0.11964210       0.46543576 </v>
   <v>       0.07411322       0.18702480       0.12693702 </v>
   <v>       0.22438173       0.03675628       0.25387405 </v>
   <v>       0.37465024       0.88648777       0.38081107 </v>
   <v>       0.52491876       0.73621926       0.50774810 </v>
   <v>       0.92384471       0.33729331       0.00000000 </v>
   <v>       0.79086939       0.80360196       0.16924937 </v>
   <v>       0.94113790       0.65333345       0.29618639 </v>
   <v>       0.03266674       0.15934394       0.43189823 </v>
   <v>       0.58186121       0.61014948       0.05108716 </v>
   <v>       0.73212972       0.45988096       0.17802418 </v>
   <v>       0.88239823       0.30961245       0.30496121 </v>
   <v>       0.29861738       0.22672664       0.09339950 </v>
   <v>       0.44888589       0.07645813       0.22033653 </v>
   <v>       0.59915440       0.92618961       0.34727355 </v>
   <v>       0.74942291       0.77592110       0.47421057 </v>
   <v>       0.01537355       0.84330380       0.13571184 </v>
   <v>       0.16564206       0.69303529       0.26264887 </v>
   <v>       0.31591057       0.54276678       0.38958589 </v>
   <v>       0.46617908       0.39249826       0.51652292 </v>
   <v>       0.86510503       0.99357231       0.00877482 </v>
   <v>       0.03660483       0.95519385       0.48928282 </v>
   <v>       0.58579929       0.40599939       0.10847175 </v>
   <v>       0.73606780       0.25573088       0.23540877 </v>
   <v>       0.88633632       0.10546237       0.36234580 </v>
   <v>       0.15228695       0.17284506       0.02384707 </v>
   <v>       0.30255546       0.02257655       0.15078409 </v>
   <v>       0.45282398       0.87230804       0.27772111 </v>
   <v>       0.60309249       0.72203953       0.40465814 </v>
   <v>       0.01931163       0.63915371       0.19309643 </v>
   <v>       0.16958015       0.48888520       0.32003346 </v>
   <v>       0.31984866       0.33861669       0.44697048 </v>
   <v>       0.86904312       0.78942223       0.06615941 </v>
   <v>       0.48608562       0.84214307       0.02424015 </v>
   <v>       0.63635413       0.69187455       0.15117717 </v>
   <v>       0.78662264       0.54160604       0.27811420 </v>
   <v>       0.93689115       0.39133753       0.40505122 </v>
   <v>       0.20284179       0.45872023       0.06655249 </v>
   <v>       0.35311030       0.30845172       0.19348951 </v>
   <v>       0.50337881       0.15818320       0.32042654 </v>
   <v>       0.65364732       0.00791469       0.44736356 </v>
   <v>       0.06986647       0.92502888       0.23580185 </v>
   <v>       0.22013498       0.77476037       0.36273888 </v>
   <v>       0.37040349       0.62449185       0.48967590 </v>
   <v>       0.91959796       0.07529739       0.10886483 </v>
   <v>       0.20021045       0.79158823       0.06694557 </v>
   <v>       0.35047896       0.64131972       0.19388259 </v>
   <v>       0.50074747       0.49105121       0.32081962 </v>
   <v>       0.65101599       0.34078269       0.44775664 </v>
   <v>       0.06723513       0.25789688       0.23619494 </v>
   <v>       0.21750365       0.10762837       0.36313196 </v>
   <v>       0.36777216       0.95735986       0.49006899 </v>
   <v>       0.91696662       0.40816539       0.10925791 </v>
   <v>       0.48345428       0.17501107       0.02463323 </v>
   <v>       0.63372279       0.02474256       0.15157025 </v>
   <v>       0.78399130       0.87447404       0.27850728 </v>
   <v>       0.93425982       0.72420553       0.40544430 </v>
  </varray>
 </structure>
</modeling>
