LAMMPS data file via write_data, version 5 Jun 2019, timestep = 23

76 atoms
2 atom types

0.0000000000000000e+00 9.5784099999999999e+00 xlo xhi
0.0000000000000000e+00 1.0403353751099999e+01 ylo yhi
0.0000000000000000e+00 2.0216397350899999e+01 zlo zhi
-4.7892049998999999e+00 0.0000000000000000e+00 0.0000000000000000e+00 xy xz yz

Masses

1 58.71
2 32.06

Atoms # atomic

1 1 3.9451107573997048e+00 4.7100945931391562e+00 1.4051640590368748e+00 0 0 0
2 1 4.0556245202999985e+00 6.3581094339000011e+00 3.5414249538000000e+00 0 0 0
3 1 4.0556245154999999e+00 8.2527059549999997e+00 6.0445396009000003e+00 0 0 0
4 1 4.0323116854234895e+00 1.0113470745032744e+01 8.2509837958739851e+00 0 0 0
5 1 4.0556245202000003e+00 6.8560460700000003e-01 5.2101680654000004e+00 0 0 0
6 1 4.0556245249999989e+00 2.5802011281000001e+00 7.7132827124999999e+00 0 0 0
7 1 3.6044343696473020e+00 4.1946366467395526e+00 9.4282934494922923e+00 0 0 0
8 1 -7.2985669807789322e-01 7.3302928397749687e+00 5.8089724169529910e-01 0 0 0
9 1 -8.0141663642895045e-01 9.4369812314100070e+00 3.0635922210595794e+00 0 0 0
10 1 -7.3358047500000045e-01 1.6272604994000002e+00 1.8726818623999999e+00 0 0 0
11 1 -7.3358047980000096e-01 3.5218570205000010e+00 4.3757965095999998e+00 0 0 0
12 1 -7.3358047500000145e-01 5.4164535415000001e+00 6.8789111567000001e+00 0 0 0
13 1 -7.4399461601093131e-01 7.3570988069348990e+00 9.0754218027803084e+00 0 0 0
14 1 5.3209612212999993e+00 2.7160119593000003e+00 2.3609861363000002e+00 0 0 0
15 1 5.3209612117000002e+00 4.6106084907999998e+00 4.8641007834999996e+00 0 0 0
16 1 5.3209612165000006e+00 6.5052050118000011e+00 7.3672154307000000e+00 0 0 0
17 1 5.3209612214615394e+00 8.3663768248057639e+00 9.4496154014951639e+00 0 0 0
18 1 5.3209612165000024e+00 8.3270018489999997e-01 9.0359585219999996e+00 0 0 0
19 1 5.3175622129999867e-01 5.5522643727999998e+00 1.5266145804999998e+00 0 0 0
20 1 5.3175621649999771e-01 7.4468608938000003e+00 4.0297292276999999e+00 0 0 0
21 1 5.3175622129999744e-01 9.3414574149000007e+00 6.5328438748999993e+00 0 0 0
22 1 5.3175622119999988e-01 1.7743560773000002e+00 5.6984723190999995e+00 0 0 0
23 1 5.3175621649999927e-01 3.6689525984000011e+00 8.2015869662000007e+00 0 0 0
24 1 -4.2574487835000037e+00 1.0283113307300001e+01 3.1953576718999996e+00 0 0 0
25 1 5.3209612136890607e+00 8.3382561880455732e+00 2.0356497821512183e+00 0 0 0
26 1 -2.9921120921000037e+00 8.2527059549999997e+00 6.0445396009000003e+00 0 0 0
27 1 -2.9687992436940323e+00 1.0113470746061145e+01 8.2509837964525321e+00 0 0 0
28 1 6.6968116879039474e+00 4.7100945947218902e+00 1.4051640595697257e+00 0 0 0
29 1 6.5862979126999983e+00 6.3581094339000011e+00 3.5414249538000000e+00 0 0 0
30 1 6.5862979127000001e+00 6.8560460700000003e-01 5.2101680654000004e+00 0 0 0
31 1 6.5862979175000005e+00 2.5802011281000001e+00 7.7132827124999999e+00 0 0 0
32 1 7.0374880615869095e+00 4.1946366470804595e+00 9.4282934520286652e+00 0 0 0
33 1 1.7933691399816090e+00 7.3302928397253471e+00 5.8089723746727862e-01 0 0 0
34 1 1.8649290667486906e+00 9.4369812323116911e+00 3.0635922214500910e+00 0 0 0
35 1 1.7970929175000001e+00 1.6272604994000002e+00 1.8726818623999999e+00 0 0 0
36 1 1.7970929126999993e+00 3.5218570205000010e+00 4.3757965095999998e+00 0 0 0
37 1 1.7970929174999997e+00 5.4164535415000001e+00 6.8789111567000001e+00 0 0 0
38 1 1.8075070553160422e+00 7.3570988087945741e+00 9.0754217978689997e+00 0 0 0
39 2 -2.6462165454000020e+00 6.0272031989999997e+00 5.8561034709999999e+00 0 0 0
40 2 -2.6462165406000024e+00 7.9217997201000019e+00 8.3592181180999994e+00 0 0 0
41 2 7.0671517774208548e+00 2.6224431855104955e+00 1.2462871443847758e+00 0 0 0
42 2 6.9321934593999996e+00 4.1326066779000001e+00 3.3529888237999996e+00 0 0 0
43 2 6.9321934593999996e+00 3.5469838250000008e-01 7.5248465622999996e+00 0 0 0
44 2 6.7274581557029256e+00 2.2037650654975405e+00 9.7210636795608192e+00 0 0 0
45 2 2.2451529763179301e+00 5.3783708549380176e+00 3.6862446383466430e-01 0 0 0
46 2 2.1429884497999994e+00 6.9688590913999997e+00 2.5186172679999999e+00 0 0 0
47 2 2.1429884546999998e+00 8.8634556123999992e+00 5.0217319152000002e+00 0 0 0
48 2 2.1429884594000002e+00 1.2963542644999999e+00 4.1873603594000004e+00 0 0 0
49 2 2.1429884497999994e+00 3.1909507959000010e+00 6.6904750065999998e+00 0 0 0
50 2 1.8962993578905816e+00 5.1975809289598942e+00 8.9408783712093332e+00 0 0 0
51 2 -2.6306146542529278e+00 9.8479605391502538e+00 1.9915015077229314e+00 0 0 0
52 2 5.3175621931151185e-01 1.3999386666740636e+00 8.6225476929356084e+00 0 0 0
53 2 -4.2574487787000042e+00 1.0147001808700002e+01 6.6749723856999994e+00 0 0 0
54 2 5.3209612213000002e+00 6.3578087665999998e+00 1.6687430914000001e+00 0 0 0
55 2 5.3209612164999989e+00 8.2524052877000003e+00 4.1718577385000000e+00 0 0 0
56 2 5.3209612163999997e+00 6.8530395010000000e-01 3.3374862029999997e+00 0 0 0
57 2 5.3209612117000011e+00 2.5799004711000006e+00 5.8406008501000004e+00 0 0 0
58 2 5.3209612164999998e+00 4.4744969921999997e+00 8.3437154972999998e+00 0 0 0
59 2 5.3175622108848297e-01 1.4145100464659910e+00 3.6100854595041554e-01 0 0 0
60 2 5.3175622130000000e-01 3.5215563531000003e+00 2.5031146471999999e+00 0 0 0
61 2 5.3175621649999782e-01 5.4161528741999998e+00 5.0062292942999997e+00 0 0 0
62 2 5.3175621649999860e-01 7.3107494057000002e+00 7.5093439414999992e+00 0 0 0
63 2 5.3175621931768635e-01 9.0134372495183204e+00 9.4510143781776623e+00 0 0 0
64 2 3.5747706653675935e+00 2.6224431845540002e+00 1.2462871441015895e+00 0 0 0
65 2 3.7097289830999993e+00 4.1326066779000001e+00 3.3529888237999996e+00 0 0 0
66 2 3.7097289782999989e+00 6.0272031989999997e+00 5.8561034709999999e+00 0 0 0
67 2 3.7097289830999993e+00 7.9217997201000019e+00 8.3592181180999994e+00 0 0 0
68 2 3.7097289831000007e+00 3.5469838250000008e-01 7.5248465622999996e+00 0 0 0
69 2 3.9144642765919908e+00 2.2037650654606460e+00 9.7210636788864324e+00 0 0 0
70 2 -1.1816405317499257e+00 5.3783708557655405e+00 3.6862446237861496e-01 0 0 0
71 2 -1.0794760265000001e+00 6.9688590913999997e+00 2.5186172679999999e+00 0 0 0
72 2 -1.0794760217000028e+00 8.8634556123999992e+00 5.0217319152000002e+00 0 0 0
73 2 -1.0794760265000014e+00 3.1909507959000010e+00 6.6904750065999998e+00 0 0 0
74 2 -8.3278692620919981e-01 5.1975809275236138e+00 8.9408783704547883e+00 0 0 0
75 2 8.4989339831000006e+00 1.2963542644999999e+00 4.1873603594000004e+00 0 0 0
76 2 3.6941270853281494e+00 9.8479605401927692e+00 1.9915015099347020e+00 0 0 0

Velocities

1 0.0000000000000000e+00 0.0000000000000000e+00 0.0000000000000000e+00
2 0.0000000000000000e+00 0.0000000000000000e+00 0.0000000000000000e+00
3 0.0000000000000000e+00 0.0000000000000000e+00 0.0000000000000000e+00
4 0.0000000000000000e+00 0.0000000000000000e+00 0.0000000000000000e+00
5 0.0000000000000000e+00 0.0000000000000000e+00 0.0000000000000000e+00
6 0.0000000000000000e+00 0.0000000000000000e+00 0.0000000000000000e+00
7 0.0000000000000000e+00 0.0000000000000000e+00 0.0000000000000000e+00
8 0.0000000000000000e+00 0.0000000000000000e+00 0.0000000000000000e+00
9 0.0000000000000000e+00 0.0000000000000000e+00 0.0000000000000000e+00
10 0.0000000000000000e+00 0.0000000000000000e+00 0.0000000000000000e+00
11 0.0000000000000000e+00 0.0000000000000000e+00 0.0000000000000000e+00
12 0.0000000000000000e+00 0.0000000000000000e+00 0.0000000000000000e+00
13 0.0000000000000000e+00 0.0000000000000000e+00 0.0000000000000000e+00
14 0.0000000000000000e+00 0.0000000000000000e+00 0.0000000000000000e+00
15 0.0000000000000000e+00 0.0000000000000000e+00 0.0000000000000000e+00
16 0.0000000000000000e+00 0.0000000000000000e+00 0.0000000000000000e+00
17 0.0000000000000000e+00 0.0000000000000000e+00 0.0000000000000000e+00
18 0.0000000000000000e+00 0.0000000000000000e+00 0.0000000000000000e+00
19 0.0000000000000000e+00 0.0000000000000000e+00 0.0000000000000000e+00
20 0.0000000000000000e+00 0.0000000000000000e+00 0.0000000000000000e+00
21 0.0000000000000000e+00 0.0000000000000000e+00 0.0000000000000000e+00
22 0.0000000000000000e+00 0.0000000000000000e+00 0.0000000000000000e+00
23 0.0000000000000000e+00 0.0000000000000000e+00 0.0000000000000000e+00
24 0.0000000000000000e+00 0.0000000000000000e+00 0.0000000000000000e+00
25 0.0000000000000000e+00 0.0000000000000000e+00 0.0000000000000000e+00
26 0.0000000000000000e+00 0.0000000000000000e+00 0.0000000000000000e+00
27 0.0000000000000000e+00 0.0000000000000000e+00 0.0000000000000000e+00
28 0.0000000000000000e+00 0.0000000000000000e+00 0.0000000000000000e+00
29 0.0000000000000000e+00 0.0000000000000000e+00 0.0000000000000000e+00
30 0.0000000000000000e+00 0.0000000000000000e+00 0.0000000000000000e+00
31 0.0000000000000000e+00 0.0000000000000000e+00 0.0000000000000000e+00
32 0.0000000000000000e+00 0.0000000000000000e+00 0.0000000000000000e+00
33 0.0000000000000000e+00 0.0000000000000000e+00 0.0000000000000000e+00
34 0.0000000000000000e+00 0.0000000000000000e+00 0.0000000000000000e+00
35 0.0000000000000000e+00 0.0000000000000000e+00 0.0000000000000000e+00
36 0.0000000000000000e+00 0.0000000000000000e+00 0.0000000000000000e+00
37 0.0000000000000000e+00 0.0000000000000000e+00 0.0000000000000000e+00
38 0.0000000000000000e+00 0.0000000000000000e+00 0.0000000000000000e+00
39 0.0000000000000000e+00 0.0000000000000000e+00 0.0000000000000000e+00
40 0.0000000000000000e+00 0.0000000000000000e+00 0.0000000000000000e+00
41 0.0000000000000000e+00 0.0000000000000000e+00 0.0000000000000000e+00
42 0.0000000000000000e+00 0.0000000000000000e+00 0.0000000000000000e+00
43 0.0000000000000000e+00 0.0000000000000000e+00 0.0000000000000000e+00
44 0.0000000000000000e+00 0.0000000000000000e+00 0.0000000000000000e+00
45 0.0000000000000000e+00 0.0000000000000000e+00 0.0000000000000000e+00
46 0.0000000000000000e+00 0.0000000000000000e+00 0.0000000000000000e+00
47 0.0000000000000000e+00 0.0000000000000000e+00 0.0000000000000000e+00
48 0.0000000000000000e+00 0.0000000000000000e+00 0.0000000000000000e+00
49 0.0000000000000000e+00 0.0000000000000000e+00 0.0000000000000000e+00
50 0.0000000000000000e+00 0.0000000000000000e+00 0.0000000000000000e+00
51 0.0000000000000000e+00 0.0000000000000000e+00 0.0000000000000000e+00
52 0.0000000000000000e+00 0.0000000000000000e+00 0.0000000000000000e+00
53 0.0000000000000000e+00 0.0000000000000000e+00 0.0000000000000000e+00
54 0.0000000000000000e+00 0.0000000000000000e+00 0.0000000000000000e+00
55 0.0000000000000000e+00 0.0000000000000000e+00 0.0000000000000000e+00
56 0.0000000000000000e+00 0.0000000000000000e+00 0.0000000000000000e+00
57 0.0000000000000000e+00 0.0000000000000000e+00 0.0000000000000000e+00
58 0.0000000000000000e+00 0.0000000000000000e+00 0.0000000000000000e+00
59 0.0000000000000000e+00 0.0000000000000000e+00 0.0000000000000000e+00
60 0.0000000000000000e+00 0.0000000000000000e+00 0.0000000000000000e+00
61 0.0000000000000000e+00 0.0000000000000000e+00 0.0000000000000000e+00
62 0.0000000000000000e+00 0.0000000000000000e+00 0.0000000000000000e+00
63 0.0000000000000000e+00 0.0000000000000000e+00 0.0000000000000000e+00
64 0.0000000000000000e+00 0.0000000000000000e+00 0.0000000000000000e+00
65 0.0000000000000000e+00 0.0000000000000000e+00 0.0000000000000000e+00
66 0.0000000000000000e+00 0.0000000000000000e+00 0.0000000000000000e+00
67 0.0000000000000000e+00 0.0000000000000000e+00 0.0000000000000000e+00
68 0.0000000000000000e+00 0.0000000000000000e+00 0.0000000000000000e+00
69 0.0000000000000000e+00 0.0000000000000000e+00 0.0000000000000000e+00
70 0.0000000000000000e+00 0.0000000000000000e+00 0.0000000000000000e+00
71 0.0000000000000000e+00 0.0000000000000000e+00 0.0000000000000000e+00
72 0.0000000000000000e+00 0.0000000000000000e+00 0.0000000000000000e+00
73 0.0000000000000000e+00 0.0000000000000000e+00 0.0000000000000000e+00
74 0.0000000000000000e+00 0.0000000000000000e+00 0.0000000000000000e+00
75 0.0000000000000000e+00 0.0000000000000000e+00 0.0000000000000000e+00
76 0.0000000000000000e+00 0.0000000000000000e+00 0.0000000000000000e+00
