 vasp.6.1.0 28Jan20 (build Mar 31 2020 17:42:31) gamma-only                     
  
 executed on             LinuxIFC date 2020.04.12  23:43:03
 running on   48 total cores
 distrk:  each k-point on   48 cores,    1 groups
 distr:  one band on NCORE=   6 cores,    8 groups


--------------------------------------------------------------------------------------------------------


 INCAR:
 POTCAR:    PAW_PBE Ni_pv 06Sep2000               
 POTCAR:    PAW_PBE S 06Sep2000                   
 POTCAR:    PAW_PBE Ni_pv 06Sep2000               
   VRHFIN =Ni:                                                                                      
   LEXCH  = PE                                                                                      
   EATOM  =  3501.1230 eV,  257.3253 Ry                                                             
                                                                                                    
   TITEL  = PAW_PBE Ni_pv 06Sep2000                                                                 
   LULTRA =        F    use ultrasoft PP ?                                                          
   IUNSCR =        1    unscreen: 0-lin 1-nonlin 2-no                                               
   RPACOR =    1.500    partial core radius                                                         
   POMASS =   58.690; ZVAL   =   16.000    mass and valenz                                          
   RCORE  =    2.000    outmost cutoff radius                                                       
   RWIGS  =    2.000; RWIGS  =    1.058    wigner-seitz radius (au A)                               
   ENMAX  =  367.986; ENMIN  =  275.989 eV                                                          
   RCLOC  =    1.301    cutoff for local pot                                                        
   LCOR   =        T    correct aug charges                                                         
   LPAW   =        T    paw PP                                                                      
   EAUG   =  703.443                                                                                
   DEXC   =    0.000                                                                                
   RMAX   =    2.041    core radius for proj-oper                                                   
   RAUG   =    1.300    factor for augmentation sphere                                              
   RDEP   =    2.103    radius for radial grids                                                     
   RDEPT  =    1.618    core radius for aug-charge                                                  
                                                                                                    
   Atomic configuration                                                                             
    8 entries                                                                                       
     n  l   j            E        occ.                                                              
     1  0  0.50     -8206.4253   2.0000                                                             
     2  0  0.50      -976.1748   2.0000                                                             
     2  1  1.50      -839.0571   6.0000                                                             
     3  0  0.50      -105.9991   2.0000                                                             
     3  1  1.50       -66.4603   6.0000                                                             
     3  2  2.50        -4.6458   9.0000                                                             
     4  0  0.50        -4.4926   1.0000                                                             
     4  3  2.50        -1.3606   0.0000                                                             
   Description                                                                                      
     l       E           TYP  RCUT    TYP  RCUT                                                     
     1    -66.4602962     23  1.700                                                                 
     1     -1.3605826     23  1.700                                                                 
     2     -4.6457867     23  2.000                                                                 
     2     -6.0063693     23  2.000                                                                 
     0     -4.4925576     23  1.900                                                                 
     0     16.3626226     23  1.900                                                                 
  local pseudopotential read in
  partial core-charges read in
  partial kinetic energy density read in
  atomic valenz-charges read in
  non local Contribution for L=           1  read in
    real space projection operators read in
  non local Contribution for L=           1  read in
    real space projection operators read in
  non local Contribution for L=           2  read in
    real space projection operators read in
  non local Contribution for L=           2  read in
    real space projection operators read in
  non local Contribution for L=           0  read in
    real space projection operators read in
  non local Contribution for L=           0  read in
    real space projection operators read in
    PAW grid and wavefunctions read in
 
   number of l-projection  operators is LMAX  =           6
   number of lm-projection operators is LMMAX =          18
 
 POTCAR:    PAW_PBE S 06Sep2000                   
   VRHFIN =S : s2p4                                                                                 
   LEXCH  = PE                                                                                      
   EATOM  =   276.8230 eV,   20.3459 Ry                                                             
                                                                                                    
   TITEL  = PAW_PBE S 06Sep2000                                                                     
   LULTRA =        F    use ultrasoft PP ?                                                          
   IUNSCR =        1    unscreen: 0-lin 1-nonlin 2-no                                               
   RPACOR =    1.500    partial core radius                                                         
   POMASS =   32.066; ZVAL   =    6.000    mass and valenz                                          
   RCORE  =    1.900    outmost cutoff radius                                                       
   RWIGS  =    2.200; RWIGS  =    1.164    wigner-seitz radius (au A)                               
   ENMAX  =  258.689; ENMIN  =  194.016 eV                                                          
   ICORE  =        2    local potential                                                             
   LCOR   =        T    correct aug charges                                                         
   LPAW   =        T    paw PP                                                                      
   EAUG   =  335.092                                                                                
   DEXC   =    0.000                                                                                
   RMAX   =    1.942    core radius for proj-oper                                                   
   RAUG   =    1.300    factor for augmentation sphere                                              
   RDEP   =    1.954    radius for radial grids                                                     
   RDEPT  =    1.744    core radius for aug-charge                                                  
                                                                                                    
   Atomic configuration                                                                             
    6 entries                                                                                       
     n  l   j            E        occ.                                                              
     1  0  0.50     -2405.8406   2.0000                                                             
     2  0  0.50      -211.7007   2.0000                                                             
     2  1  1.50      -156.4958   6.0000                                                             
     3  0  0.50       -17.2562   2.0000                                                             
     3  1  0.50        -7.0085   4.0000                                                             
     3  2  1.50        -6.8029   0.0000                                                             
   Description                                                                                      
     l       E           TYP  RCUT    TYP  RCUT                                                     
     0    -17.2561641     23  1.900                                                                 
     0    -15.8743224     23  1.900                                                                 
     1     -7.0085400     23  1.900                                                                 
     1     -2.7779785     23  1.900                                                                 
     2     -6.8029130     23  1.900                                                                 
  local pseudopotential read in
  partial core-charges read in
  partial kinetic energy density read in
  atomic valenz-charges read in
  non local Contribution for L=           0  read in
    real space projection operators read in
  non local Contribution for L=           0  read in
    real space projection operators read in
  non local Contribution for L=           1  read in
    real space projection operators read in
  non local Contribution for L=           1  read in
    real space projection operators read in
    PAW grid and wavefunctions read in
 
   number of l-projection  operators is LMAX  =           4
   number of lm-projection operators is LMMAX =           8
 
 Optimization of the real space projectors (new method)

 maximal supplied QI-value         = 18.90
 optimisation between [QCUT,QGAM] = [ 10.77, 21.73] = [ 32.49,132.25] Ry 
 Optimized for a Real-space Cutoff    1.38 Angstroem

   l    n(q)    QCUT    max X(q) W(low)/X(q) W(high)/X(q)  e(spline) 
   1      8    10.771     2.836    0.40E-04    0.29E-04    0.12E-06
   1      8    10.771     4.023    0.10E-03    0.48E-04    0.29E-06
   2      8    10.771    73.368    0.42E-03    0.97E-04    0.44E-06
   2      8    10.771    69.010    0.42E-03    0.99E-04    0.45E-06
   0      9    10.771    54.797    0.10E-03    0.56E-04    0.74E-07
   0      9    10.771    24.266    0.89E-04    0.49E-04    0.67E-07
 Optimization of the real space projectors (new method)

 maximal supplied QI-value         = 19.84
 optimisation between [QCUT,QGAM] = [ 10.71, 21.63] = [ 32.15,130.99] Ry 
 Optimized for a Real-space Cutoff    1.19 Angstroem

   l    n(q)    QCUT    max X(q) W(low)/X(q) W(high)/X(q)  e(spline) 
   0      8    10.715   187.594    0.41E-03    0.53E-04    0.66E-07
   0      8    10.715   164.243    0.41E-03    0.53E-04    0.65E-07
   1      7    10.715    67.533    0.19E-03    0.59E-03    0.68E-07
   1      7    10.715    50.729    0.19E-03    0.58E-03    0.67E-07
  PAW_PBE Ni_pv 06Sep2000               :
 energy of atom  1       EATOM=-3501.1230
 kinetic energy error for atom=    0.0925 (will be added to EATOM!!)
  PAW_PBE S 06Sep2000                   :
 energy of atom  2       EATOM= -276.8230
 kinetic energy error for atom=    0.0033 (will be added to EATOM!!)
 
 
 POSCAR: Structure 48 made from 01-2-10.xsd file
  positions in direct lattice
  No initial velocities read in
 exchange correlation table for  LEXCH =        8
   RHO(1)=    0.500       N(1)  =     2000
   RHO(2)=  100.500       N(2)  =     4000
 


--------------------------------------------------------------------------------------------------------


 ion  position               nearest neighbor table
   1  0.065  0.923  0.311-  43 2.25  65 2.26  66 2.36  51 2.36  16 2.53  26 2.53
   2  0.100  0.923  0.120-  44 2.25  51 2.26  66 2.26  62 2.36  17 2.53  27 2.53
   3  0.582  0.423  0.216-  45 2.25  63 2.26  64 2.36  52 2.36  14 2.53  28 2.53
   4  0.617  0.423  0.025-  46 2.25  52 2.26  64 2.26  29 2.53  15 2.53
   5  0.237  0.423  0.279-  47 2.25  53 2.26  67 2.26  54 2.36  68 2.36  18 2.53  30 2.53
   6  0.272  0.423  0.089-  48 2.25  54 2.26  68 2.26  55 2.36  19 2.53  31 2.53
   7  0.720  0.923  0.374-  69 2.36  56 2.36  20 2.53  32 2.53
   8  0.755  0.923  0.184-  49 2.25  69 2.26  56 2.26  70 2.36  57 2.36  21 2.53  33 2.53
   9  0.410  0.923  0.247-  39 2.25  59 2.26  71 2.26  60 2.36  72 2.36  34 2.53  22 2.53
  10  0.444  0.923  0.057-  40 2.25  60 2.26  72 2.26  23 2.53  35 2.53
  11  0.893  0.423  0.343-  41 2.25  73 2.36  61 2.36  24 2.53  36 2.53
  12  0.927  0.423  0.152-  42 2.25  73 2.26  61 2.26  74 2.36  58 2.36  25 2.53  37 2.53
  13  0.420  0.556  0.381-  53 2.25  63 2.36  39 2.36
  14  0.455  0.556  0.190-  54 2.25  63 2.26  39 2.26  64 2.36  40 2.36   3 2.53  28 2.53
  15  0.489  0.556  0.000-  55 2.25  64 2.26  40 2.26   4 2.53  29 2.53
  16  0.937  0.056  0.286-  56 2.25  65 2.26  41 2.26  66 2.36  42 2.36   1 2.53  26 2.53
  17  0.972  0.056  0.095-  57 2.25  66 2.26  42 2.26  62 2.36  38 2.36   2 2.53  27 2.53
  18  0.110  0.556  0.254-  61 2.25  67 2.26  43 2.26  68 2.36  44 2.36   5 2.53  30 2.53
  19  0.144  0.556  0.063-  58 2.25  68 2.26  44 2.26   6 2.53  31 2.53
  20  0.593  0.056  0.349-  59 2.25  69 2.36  45 2.36   7 2.53  32 2.53
  21  0.627  0.056  0.159-  60 2.25  69 2.26  45 2.26  70 2.36  46 2.36   8 2.53  33 2.53
  22  0.282  0.056  0.222-  51 2.25  71 2.26  47 2.26  72 2.36  48 2.36   9 2.53  34 2.53
  23  0.317  0.056  0.032-  72 2.26  48 2.26  10 2.53  35 2.53
  24  0.765  0.556  0.317-  73 2.36  49 2.36  11 2.53  36 2.53
  25  0.800  0.556  0.127-  52 2.25  73 2.26  49 2.26  74 2.36  50 2.36  12 2.53  37 2.53
  26  0.065  0.188  0.311-  67 2.25  41 2.26  42 2.36  51 2.36  16 2.53   1 2.53
  27  0.100  0.188  0.120-  68 2.25  51 2.26  42 2.26  38 2.36  17 2.53   2 2.53
  28  0.582  0.688  0.216-  69 2.25  39 2.26  40 2.36  52 2.36  14 2.53   3 2.53
  29  0.617  0.688  0.025-  70 2.25  52 2.26  40 2.26   4 2.53  15 2.53
  30  0.237  0.688  0.279-  71 2.25  53 2.26  43 2.26  54 2.36  44 2.36  18 2.53   5 2.53
  31  0.272  0.688  0.089-  72 2.25  54 2.26  44 2.26  55 2.36  19 2.53   6 2.53
  32  0.720  0.188  0.374-  45 2.36  56 2.36  20 2.53   7 2.53
  33  0.755  0.188  0.184-  73 2.25  45 2.26  56 2.26  46 2.36  57 2.36  21 2.53   8 2.53
  34  0.410  0.188  0.247-  63 2.25  59 2.26  47 2.26  60 2.36  48 2.36   9 2.53  22 2.53
  35  0.444  0.188  0.057-  64 2.25  60 2.26  48 2.26  23 2.53  10 2.53
  36  0.893  0.688  0.343-  65 2.25  49 2.36  61 2.36  24 2.53  11 2.53
  37  0.927  0.688  0.152-  66 2.25  49 2.26  61 2.26  50 2.36  58 2.36  25 2.53  12 2.53
  38  0.021  0.224  0.001-  27 2.36  17 2.36
  39  0.469  0.724  0.287-   9 2.25  28 2.26  14 2.26  13 2.36
  40  0.504  0.724  0.097-  10 2.25  15 2.26  29 2.26  28 2.36  14 2.36
  41  0.952  0.224  0.382-  11 2.25  16 2.26  26 2.26
  42  0.986  0.224  0.192-  12 2.25  17 2.26  27 2.26  26 2.36  16 2.36
  43  0.124  0.724  0.351-   1 2.25  18 2.26  30 2.26
  44  0.159  0.724  0.160-   2 2.25  19 2.26  31 2.26  18 2.36  30 2.36
  45  0.642  0.224  0.255-   3 2.25  33 2.26  21 2.26  32 2.36  20 2.36
  46  0.676  0.224  0.065-   4 2.25  33 2.36  21 2.36
  47  0.297  0.224  0.319-   5 2.25  22 2.26  34 2.26
  48  0.331  0.224  0.128-   6 2.25  23 2.26  35 2.26  22 2.36  34 2.36
  49  0.814  0.724  0.224-   8 2.25  37 2.26  25 2.26  36 2.36  24 2.36
  50  0.849  0.724  0.033-  37 2.36  25 2.36
  51  0.149  0.056  0.224-  22 2.25   2 2.26  27 2.26   1 2.36  26 2.36
  52  0.666  0.556  0.129-  25 2.25   4 2.26  29 2.26   3 2.36  28 2.36
  53  0.287  0.556  0.383-  13 2.25   5 2.26  30 2.26
  54  0.321  0.556  0.192-  14 2.25   6 2.26  31 2.26   5 2.36  30 2.36
  55  0.356  0.556  0.002-  15 2.25   6 2.36  31 2.36
  56  0.804  0.056  0.287-  16 2.25   8 2.26  33 2.26   7 2.36  32 2.36
  57  0.839  0.056  0.097-  17 2.25   8 2.36  33 2.36
  58  0.011  0.556  0.065-  19 2.25  12 2.36  37 2.36
  59  0.459  0.056  0.351-  20 2.25   9 2.26  34 2.26
  60  0.494  0.056  0.160-  21 2.25  10 2.26  35 2.26   9 2.36  34 2.36
  61  0.976  0.556  0.256-  18 2.25  12 2.26  37 2.26  11 2.36  36 2.36
  62  0.021  0.887  0.001-   2 2.36  17 2.36
  63  0.469  0.387  0.287-  34 2.25   3 2.26  14 2.26  13 2.36
  64  0.504  0.387  0.097-  35 2.25  15 2.26   4 2.26   3 2.36  14 2.36
  65  0.952  0.887  0.382-  36 2.25  16 2.26   1 2.26
  66  0.986  0.887  0.192-  37 2.25  17 2.26   2 2.26   1 2.36  16 2.36
  67  0.124  0.387  0.351-  26 2.25  18 2.26   5 2.26
  68  0.159  0.387  0.160-  27 2.25  19 2.26   6 2.26  18 2.36   5 2.36
  69  0.642  0.887  0.255-  28 2.25   8 2.26  21 2.26   7 2.36  20 2.36
  70  0.676  0.887  0.065-  29 2.25   8 2.36  21 2.36
  71  0.297  0.887  0.319-  30 2.25  22 2.26   9 2.26
  72  0.331  0.887  0.128-  31 2.25  23 2.26  10 2.26  22 2.36   9 2.36
  73  0.814  0.387  0.224-  33 2.25  12 2.26  25 2.26  11 2.36  24 2.36
  74  0.849  0.387  0.033-  12 2.36  25 2.36
 
  LATTYP: Found a simple orthorhombic cell.
 ALAT       =     9.5784100000
 B/A-ratio  =     1.6910551070
 C/A-ratio  =     1.7627867312
  
  Lattice vectors:
  
 A1 = (   0.0000000000,   9.5784100000,   0.0000000000)
 A2 = (   0.0000000000,   0.0000000000, -16.1976191476)
 A3 = ( -16.8846940542,   0.0000000000,   0.0000000000)


Analysis of symmetry for initial positions (statically):
=====================================================================
 Subroutine PRICEL returns:
 Original cell was already a primitive cell.
 

 Routine SETGRP: Setting up the symmetry group for a 
 simple orthorhombic supercell.


 Subroutine GETGRP returns: Found  2 space group operations
 (whereof  1 operations were pure point group operations)
 out of a pool of  8 trial point group operations.


The static configuration has the point symmetry C_1 .
 The point group associated with its full space group is C_1h.


Analysis of symmetry for dynamics (positions and initial velocities):
=====================================================================
 Subroutine PRICEL returns:
 Original cell was already a primitive cell.
 

 Routine SETGRP: Setting up the symmetry group for a 
 simple orthorhombic supercell.


 Subroutine GETGRP returns: Found  2 space group operations
 (whereof  1 operations were pure point group operations)
 out of a pool of  8 trial point group operations.


The dynamic configuration has the point symmetry C_1 .
 The point group associated with its full space group is C_1h.


 Subroutine INISYM returns: Found  2 space group operations
 (whereof  1 operations are pure point group operations),
 and found     1 'primitive' translations


----------------------------------------------------------------------------------------

                                     Primitive cell                                     

  volume of cell :    2619.6170

  direct lattice vectors                    reciprocal lattice vectors
    16.884694054  0.000000000  0.000000000     0.059225237  0.000000000  0.000000000
     0.000000000  9.578410000  0.000000000     0.000000000  0.104401461  0.000000000
     0.000000000  0.000000000 16.197619148     0.000000000  0.000000000  0.061737468

  length of vectors
    16.884694054  9.578410000 16.197619148     0.059225237  0.104401461  0.061737468

  position of ions in fractional coordinates (direct lattice)
     0.064972611  0.923413127  0.310804492
     0.099540568  0.923413127  0.120372582
     0.582256589  0.423413127  0.215588537
     0.616824547  0.423413127  0.025156627
     0.237400604  0.423413127  0.279065841
     0.271968561  0.423413127  0.088633930
     0.720116625  0.923413127  0.374281796
     0.754684582  0.923413127  0.183849885
     0.409828597  0.923413127  0.247327189
     0.444396554  0.923413127  0.056895278
     0.892544618  0.423413127  0.342543144
     0.927112575  0.423413127  0.152111234
     0.420152163  0.555516127  0.380863821
     0.454720120  0.555516127  0.190431911
     0.489288077  0.555516127  0.000000000
     0.937436142  0.055516127  0.285647866
     0.972004099  0.055516127  0.095215955
     0.109864135  0.555516127  0.253909214
     0.144432092  0.555516127  0.063477304
     0.592580156  0.055516127  0.349125169
     0.627148113  0.055516127  0.158693259
     0.282292127  0.055516127  0.222170562
     0.316860085  0.055516127  0.031738652
     0.765008149  0.555516127  0.317386518
     0.799576106  0.555516127  0.126954607
     0.064972611  0.187619127  0.310804492
     0.099540568  0.187619127  0.120372582
     0.582256589  0.687619127  0.215588537
     0.616824547  0.687619127  0.025156627
     0.237400604  0.687619127  0.279065841
     0.271968561  0.687619127  0.088633930
     0.720116625  0.187619127  0.374281796
     0.754684582  0.187619127  0.183849885
     0.409828597  0.187619127  0.247327189
     0.444396554  0.187619127  0.056895278
     0.892544618  0.687619127  0.342543144
     0.927112575  0.687619127  0.152111234
     0.021018847  0.223731127  0.001466643
     0.469166911  0.723731127  0.287114509
     0.503734868  0.723731127  0.096682598
     0.951882932  0.223731127  0.382330464
     0.986450889  0.223731127  0.191898554
     0.124310925  0.723731127  0.350591812
     0.158878882  0.723731127  0.160159902
     0.641594904  0.223731127  0.255375857
     0.676162861  0.223731127  0.064943947
     0.296738918  0.223731127  0.318853161
     0.331306875  0.223731127  0.128421250
     0.814022897  0.723731127  0.223637205
     0.848590854  0.723731127  0.033205295
     0.148851041  0.055516127  0.223932057
     0.666135019  0.555516127  0.128716102
     0.286711076  0.555516127  0.382625316
     0.321279033  0.555516127  0.192193406
     0.355846991  0.555516127  0.001761495
     0.803995055  0.055516127  0.287409361
     0.838563012  0.055516127  0.096977450
     0.010991005  0.555516127  0.065238799
     0.459139069  0.055516127  0.350886664
     0.493707026  0.055516127  0.160454754
     0.976423048  0.555516127  0.255670709
     0.021018847  0.887301127  0.001466643
     0.469166911  0.387301127  0.287114509
     0.503734868  0.387301127  0.096682598
     0.951882932  0.887301127  0.382330464
     0.986450889  0.887301127  0.191898554
     0.124310925  0.387301127  0.350591812
     0.158878882  0.387301127  0.160159902
     0.641594904  0.887301127  0.255375857
     0.676162861  0.887301127  0.064943947
     0.296738918  0.887301127  0.318853161
     0.331306875  0.887301127  0.128421250
     0.814022897  0.387301127  0.223637205
     0.848590854  0.387301127  0.033205295

  ion indices of the primitive-cell ions
   primitive index   ion index
                 1           1
                 2           2
                 3           3
                 4           4
                 5           5
                 6           6
                 7           7
                 8           8
                 9           9
                10          10
                11          11
                12          12
                13          13
                14          14
                15          15
                16          16
                17          17
                18          18
                19          19
                20          20
                21          21
                22          22
                23          23
                24          24
                25          25
                26          26
                27          27
                28          28
                29          29
                30          30
                31          31
                32          32
                33          33
                34          34
                35          35
                36          36
                37          37
                38          38
                39          39
                40          40
                41          41
                42          42
                43          43
                44          44
                45          45
                46          46
                47          47
                48          48
                49          49
                50          50
                51          51
                52          52
                53          53
                54          54
                55          55
                56          56
                57          57
                58          58
                59          59
                60          60
                61          61
                62          62
                63          63
                64          64
                65          65
                66          66
                67          67
                68          68
                69          69
                70          70
                71          71
                72          72
                73          73
                74          74

----------------------------------------------------------------------------------------

 
 
 KPOINTS: gamma-point-only calculation. no periodi

Automatic generation of k-mesh.
Space group operators:
 irot       det(A)        alpha          n_x          n_y          n_z        tau_x        tau_y        tau_z
    1     1.000000     0.000000     1.000000     0.000000     0.000000     0.000000     0.000000     0.000000
    2    -1.000000   180.000000     0.000000     1.000000     0.000000     0.000000     0.111032     0.000000
 
 Subroutine IBZKPT returns following result:
 ===========================================
 
 Found      1 irreducible k-points:
 
 Following reciprocal coordinates:
            Coordinates               Weight
  0.000000  0.000000  0.000000      1.000000
 
 Following cartesian coordinates:
            Coordinates               Weight
  0.000000  0.000000  0.000000      1.000000
 


--------------------------------------------------------------------------------------------------------




 Dimension of arrays:
   k-points           NKPTS =      1   k-points in BZ     NKDIM =      1   number of bands    NBANDS=    488
   number of dos      NEDOS =    301   number of ions     NIONS =     74
   non local maximal  LDIM  =      6   non local SUM 2l+1 LMDIM =     18
   total plane-waves  NPLWV = 378000
   max r-space proj   IRMAX =   1641   max aug-charges    IRDMAX=   4745
   dimension x,y,z NGX =    90 NGY =   50 NGZ =   84
   dimension x,y,z NGXF=   180 NGYF=  100 NGZF=  168
   support grid    NGXF=   180 NGYF=  100 NGZF=  168
   ions per type =              37  37
   NGX,Y,Z   is equivalent  to a cutoff of   8.86,  8.68,  8.62 a.u.
   NGXF,Y,Z  is equivalent  to a cutoff of  17.72, 17.36, 17.24 a.u.

 SYSTEM =  "Millerite NiS"                         
 POSCAR =  Structure 48 made from 01-2-10.xsd file 

 Startparameter for this run:
   NWRITE =      2    write-flag & timer
   PREC   = normal    normal or accurate (medium, high low for compatibility)
   ISTART =      0    job   : 0-new  1-cont  2-samecut
   ICHARG =      2    charge: 1-file 2-atom 10-const
   ISPIN  =      1    spin polarized calculation?
   LNONCOLLINEAR =      F non collinear calculations
   LSORBIT =      F    spin-orbit coupling
   INIWAV =      1    electr: 0-lowe 1-rand  2-diag
   LASPH  =      F    aspherical Exc in radial PAW
   METAGGA=      F    non-selfconsistent MetaGGA calc.

 Electronic Relaxation 1
   ENCUT  =  450.0 eV  33.07 Ry    5.75 a.u.  29.20 16.57 28.02*2*pi/ulx,y,z
   ENINI  =  450.0     initial cutoff
   ENAUG  =  703.4 eV  augmentation charge cutoff
   NELM   =    100;   NELMIN=  2; NELMDL= -5     # of ELM steps 
   EDIFF  = 0.1E-03   stopping-criterion for ELM
   LREAL  =      T    real-space projection
   NLSPLINE    = F    spline interpolate recip. space projectors
   LCOMPAT=      F    compatible to vasp.4.4
   GGA_COMPAT  = T    GGA compatible to vasp.4.4-vasp.4.6
   LMAXPAW     = -100 max onsite density
   LMAXMIX     =    2 max onsite mixed and CHGCAR
   VOSKOWN=      0    Vosko Wilk Nusair interpolation
   ROPT   =   -0.00050  -0.00050
 Ionic relaxation
   EDIFFG = 0.1E-02   stopping-criterion for IOM
   NSW    =      0    number of steps for IOM
   NBLOCK =      1;   KBLOCK =      1    inner block; outer block 
   IBRION =     -1    ionic relax: 0-MD 1-quasi-New 2-CG
   NFREE  =      0    steps in history (QN), initial steepest desc. (CG)
   ISIF   =      2    stress and relaxation
   IWAVPR =     10    prediction:  0-non 1-charg 2-wave 3-comb
   ISYM   =      2    0-nonsym 1-usesym 2-fastsym
   LCORR  =      T    Harris-Foulkes like correction to forces

   POTIM  = 0.5000    time-step for ionic-motion
   TEIN   =    0.0    initial temperature
   TEBEG  =    0.0;   TEEND  =   0.0 temperature during run
   SMASS  =  -3.00    Nose mass-parameter (am)
   estimated Nose-frequenzy (Omega)   =  0.10E-29 period in steps = 0.13E+47 mass=  -0.652E-26a.u.
   SCALEE = 1.0000    scale energy and forces
   NPACO  =    256;   APACO  = 16.0  distance and # of slots for P.C.
   PSTRESS=    0.0 pullay stress

  Mass of Ions in am
   POMASS =  58.69 32.07
  Ionic Valenz
   ZVAL   =  16.00  6.00
  Atomic Wigner-Seitz radii
   RWIGS  =  -1.00 -1.00
  virtual crystal weights 
   VCA    =   1.00  1.00
   NELECT =     814.0000    total number of electrons
   NUPDOWN=      -1.0000    fix difference up-down

 DOS related values:
   EMIN   =  10.00;   EMAX   =-10.00  energy-range for DOS
   EFERMI =   0.00
   ISMEAR =     0;   SIGMA  =   0.20  broadening in eV -4-tet -1-fermi 0-gaus

 Electronic relaxation 2 (details)
   IALGO  =     38    algorithm
   LDIAG  =      T    sub-space diagonalisation (order eigenvalues)
   LSUBROT=      F    optimize rotation matrix (better conditioning)
   TURBO    =      0    0=normal 1=particle mesh
   IRESTART =      0    0=no restart 2=restart with 2 vectors
   NREBOOT  =      0    no. of reboots
   NMIN     =      0    reboot dimension
   EREF     =   0.00    reference energy to select bands
   IMIX   =      4    mixing-type and parameters
     AMIX     =   0.40;   BMIX     =  1.00
     AMIX_MAG =   1.60;   BMIX_MAG =  1.00
     AMIN     =   0.10
     WC   =   100.;   INIMIX=   1;  MIXPRE=   1;  MAXMIX= -45

 Intra band minimization:
   WEIMIN = 0.0000     energy-eigenvalue tresh-hold
   EBREAK =  0.51E-07  absolut break condition
   DEPER  =   0.30     relativ break condition  

   TIME   =   0.40     timestep for ELM

  volume/ion in A,a.u.               =      35.40       238.89
  Fermi-wavevector in a.u.,A,eV,Ry     =   1.108844  2.095411 16.728833  1.229535
  Thomas-Fermi vector in A             =   2.245376
 
 Write flags
   LWAVE        =      F    write WAVECAR
   LDOWNSAMPLE  =      F    k-point downsampling of WAVECAR
   LCHARG       =      F    write CHGCAR
   LVTOT        =      F    write LOCPOT, total local potential
   LVHAR        =      F    write LOCPOT, Hartree potential only
   LELF         =      F    write electronic localiz. function (ELF)
   LORBIT       =      0    0 simple, 1 ext, 2 COOP (PROOUT), +10 PAW based schemes


 Dipole corrections
   LMONO  =      F    monopole corrections only (constant potential shift)
   LDIPOL =      F    correct potential (dipole corrections)
   IDIPOL =      0    1-x, 2-y, 3-z, 4-all directions 
   EPSILON=  1.0000000 bulk dielectric constant

 Exchange correlation treatment:
   GGA     =    --    GGA type
   LEXCH   =     8    internal setting for exchange type
   VOSKOWN=      0    Vosko Wilk Nusair interpolation
   LHFCALC =     F    Hartree Fock is set to
   LHFONE  =     F    Hartree Fock one center treatment
   AEXX    =    0.0000 exact exchange contribution

 Linear response parameters
   LEPSILON=     F    determine dielectric tensor
   LRPA    =     F    only Hartree local field effects (RPA)
   LNABLA  =     F    use nabla operator in PAW spheres
   LVEL    =     F    velocity operator in full k-point grid
   LINTERFAST=   F  fast interpolation
   KINTER  =     0    interpolate to denser k-point grid
   CSHIFT  =0.1000    complex shift for real part using Kramers Kronig
   OMEGAMAX=  -1.0    maximum frequency
   DEG_THRESHOLD= 0.2000000E-02 threshold for treating states as degnerate
   RTIME   =   -0.100 relaxation time in fs
  (WPLASMAI=    0.000 imaginary part of plasma frequency in eV, 0.658/RTIME)
   DFIELD  = 0.0000000 0.0000000 0.0000000 field for delta impulse in time
 
 Orbital magnetization related:
   ORBITALMAG=     F  switch on orbital magnetization
   LCHIMAG   =     F  perturbation theory with respect to B field
   DQ        =  0.001000  dq finite difference perturbation B field
   LLRAUG    =     F  two centre corrections for induced B field



--------------------------------------------------------------------------------------------------------


 Static calculation
 charge density and potential will be updated during run
 non-spin polarized calculation
 Variant of blocked Davidson
 Davidson routine will perform the subspace rotation
 perform sub-space diagonalisation
    after iterative eigenvector-optimisation
 modified Broyden-mixing scheme, WC =      100.0
 initial mixing is a Kerker type mixing with AMIX =  0.4000 and BMIX =      1.0000
 Hartree-type preconditioning will be used
 using additional bands           81
 real space projection scheme for non local part
 use partial core corrections
 calculate Harris-corrections to forces 
   (improved forces if not selfconsistent)
 use gradient corrections 
 use of overlap-Matrix (Vanderbilt PP)
 Gauss-broadening in eV      SIGMA  =   0.20


--------------------------------------------------------------------------------------------------------


  energy-cutoff  :      450.00
  volume of cell :     2619.62
      direct lattice vectors                 reciprocal lattice vectors
    16.884694054  0.000000000  0.000000000     0.059225237  0.000000000  0.000000000
     0.000000000  9.578410000  0.000000000     0.000000000  0.104401461  0.000000000
     0.000000000  0.000000000 16.197619148     0.000000000  0.000000000  0.061737468

  length of vectors
    16.884694054  9.578410000 16.197619148     0.059225237  0.104401461  0.061737468


 
 k-points in units of 2pi/SCALE and weight: gamma-point-only calculation. no periodi
   0.00000000  0.00000000  0.00000000       1.000
 
 k-points in reciprocal lattice and weights: gamma-point-only calculation. no periodi
   0.00000000  0.00000000  0.00000000       1.000
 
 position of ions in fractional coordinates (direct lattice) 
   0.06497261  0.92341313  0.31080449
   0.09954057  0.92341313  0.12037258
   0.58225659  0.42341313  0.21558854
   0.61682455  0.42341313  0.02515663
   0.23740060  0.42341313  0.27906584
   0.27196856  0.42341313  0.08863393
   0.72011663  0.92341313  0.37428180
   0.75468458  0.92341313  0.18384989
   0.40982860  0.92341313  0.24732719
   0.44439655  0.92341313  0.05689528
   0.89254462  0.42341313  0.34254314
   0.92711258  0.42341313  0.15211123
   0.42015216  0.55551613  0.38086382
   0.45472012  0.55551613  0.19043191
   0.48928808  0.55551613  0.00000000
   0.93743614  0.05551613  0.28564787
   0.97200410  0.05551613  0.09521596
   0.10986414  0.55551613  0.25390921
   0.14443209  0.55551613  0.06347730
   0.59258016  0.05551613  0.34912517
   0.62714811  0.05551613  0.15869326
   0.28229213  0.05551613  0.22217056
   0.31686009  0.05551613  0.03173865
   0.76500815  0.55551613  0.31738652
   0.79957611  0.55551613  0.12695461
   0.06497261  0.18761913  0.31080449
   0.09954057  0.18761913  0.12037258
   0.58225659  0.68761913  0.21558854
   0.61682455  0.68761913  0.02515663
   0.23740060  0.68761913  0.27906584
   0.27196856  0.68761913  0.08863393
   0.72011663  0.18761913  0.37428180
   0.75468458  0.18761913  0.18384989
   0.40982860  0.18761913  0.24732719
   0.44439655  0.18761913  0.05689528
   0.89254462  0.68761913  0.34254314
   0.92711258  0.68761913  0.15211123
   0.02101885  0.22373113  0.00146664
   0.46916691  0.72373113  0.28711451
   0.50373487  0.72373113  0.09668260
   0.95188293  0.22373113  0.38233046
   0.98645089  0.22373113  0.19189855
   0.12431093  0.72373113  0.35059181
   0.15887888  0.72373113  0.16015990
   0.64159490  0.22373113  0.25537586
   0.67616286  0.22373113  0.06494395
   0.29673892  0.22373113  0.31885316
   0.33130688  0.22373113  0.12842125
   0.81402290  0.72373113  0.22363721
   0.84859085  0.72373113  0.03320530
   0.14885104  0.05551613  0.22393206
   0.66613502  0.55551613  0.12871610
   0.28671108  0.55551613  0.38262532
   0.32127903  0.55551613  0.19219341
   0.35584699  0.55551613  0.00176149
   0.80399506  0.05551613  0.28740936
   0.83856301  0.05551613  0.09697745
   0.01099101  0.55551613  0.06523880
   0.45913907  0.05551613  0.35088666
   0.49370703  0.05551613  0.16045475
   0.97642305  0.55551613  0.25567071
   0.02101885  0.88730113  0.00146664
   0.46916691  0.38730113  0.28711451
   0.50373487  0.38730113  0.09668260
   0.95188293  0.88730113  0.38233046
   0.98645089  0.88730113  0.19189855
   0.12431093  0.38730113  0.35059181
   0.15887888  0.38730113  0.16015990
   0.64159490  0.88730113  0.25537586
   0.67616286  0.88730113  0.06494395
   0.29673892  0.88730113  0.31885316
   0.33130688  0.88730113  0.12842125
   0.81402290  0.38730113  0.22363721
   0.84859085  0.38730113  0.03320530
 
 position of ions in cartesian coordinates  (Angst):
   1.09704266  8.84482953  5.03429279
   1.68071204  8.84482953  1.94974924
   9.83122437  4.05562453  3.49202101
  10.41489376  4.05562453  0.40747746
   4.00843657  4.05562453  4.52020221
   4.59210594  4.05562453  1.43565864
  12.15894890  8.84482953  6.06247399
  12.74261827  8.84482953  2.97793042
   6.91983048  8.84482953  4.00611161
   7.50349985  8.84482953  0.92156804
  15.07034280  4.05562453  5.54838339
  15.65401218  4.05562453  2.46383984
   7.09414073  5.32096123  6.16908712
   7.67781011  5.32096123  3.08454357
   8.26147948  5.32096123  0.00000000
  15.82832245  0.53175623  4.62681534
  16.41199183  0.53175623  1.54227178
   1.85502231  5.32096123  4.11272475
   2.43869169  5.32096123  1.02818119
  10.00553464  0.53175623  5.65499652
  10.58920401  0.53175623  2.57045297
   4.76641620  0.53175623  3.59863415
   5.35008559  0.53175623  0.51409060
  12.91692854  5.32096123  5.14090594
  13.50059792  5.32096123  2.05636237
   1.09704266  1.79709292  5.03429279
   1.68071204  1.79709292  1.94974924
   9.83122437  6.58629792  3.49202101
  10.41489376  6.58629792  0.40747746
   4.00843657  6.58629792  4.52020221
   4.59210594  6.58629792  1.43565864
  12.15894890  1.79709292  6.06247399
  12.74261827  1.79709292  2.97793042
   6.91983048  1.79709292  4.00611161
   7.50349985  1.79709292  0.92156804
  15.07034280  6.58629792  5.54838339
  15.65401218  6.58629792  2.46383984
   0.35489680  2.14298846  0.02375612
   7.92173975  6.93219346  4.65057147
   8.50540913  6.93219346  1.56602790
  16.07225208  2.14298846  6.19284324
  16.65592146  2.14298846  3.10829969
   2.09895194  6.93219346  5.67875265
   2.68262131  6.93219346  2.59420910
  10.83313366  2.14298846  4.13648087
  11.41680304  2.14298846  1.05193732
   5.01034584  2.14298846  5.16466207
   5.59401522  2.14298846  2.08011850
  13.74452757  6.93219346  3.62239027
  14.32819695  6.93219346  0.53784672
   2.51330429  0.53175623  3.62716617
  11.24748599  5.32096123  2.08489440
   4.84102880  5.32096123  6.19761914
   5.42469818  5.32096123  3.11307559
   6.00836757  5.32096123  0.02853203
  13.57521052  0.53175623  4.65534737
  14.15887990  0.53175623  1.57080380
   0.18557976  5.32096123  1.05671322
   7.75242271  0.53175623  5.68352855
   8.33609209  0.53175623  2.59898500
  16.48660443  5.32096123  4.14125677
   0.35489680  8.49893399  0.02375612
   7.92173975  3.70972899  4.65057147
   8.50540913  3.70972899  1.56602790
  16.07225208  8.49893399  6.19284324
  16.65592146  8.49893399  3.10829969
   2.09895194  3.70972899  5.67875265
   2.68262131  3.70972899  2.59420910
  10.83313366  8.49893399  4.13648087
  11.41680304  8.49893399  1.05193732
   5.01034584  8.49893399  5.16466207
   5.59401522  8.49893399  2.08011850
  13.74452757  3.70972899  3.62239027
  14.32819695  3.70972899  0.53784672
 


--------------------------------------------------------------------------------------------------------


 use parallel FFT for orbitals z direction half grid
 k-point   1 :   0.0000 0.0000 0.0000  plane waves:   28430

 maximum and minimum number of plane-waves per node :      4743     4734

 maximum number of plane-waves:     28430
 maximum index in each direction: 
   IXMAX=   29   IYMAX=   16   IZMAX=   28
   IXMIN=  -29   IYMIN=  -16   IZMIN=    0


 real space projection operators:
  total allocation   :      10326.16 KBytes
  max/ min on nodes  :       1725.94       1715.44


 parallel 3D FFT for wavefunctions:
    minimum data exchange during FFTs selected (reduces bandwidth)
 parallel 3D FFT for charge:
    minimum data exchange during FFTs selected (reduces bandwidth)


 total amount of memory used by VASP MPI-rank0    46882. kBytes
=======================================================================

   base      :      30000. kBytes
   nonlr-proj:       2115. kBytes
   fftplans  :       3623. kBytes
   grid      :       6327. kBytes
   one-center:        101. kBytes
   wavefun   :       4716. kBytes
 
     INWAV:  cpu time    0.0000: real time    0.0000
 Broyden mixing: mesh for mixing (old mesh)
   NGX = 59   NGY = 33   NGZ = 57
  (NGX  =180   NGY  =100   NGZ  =168)
  gives a total of 110979 points

 initial charge density was supplied:
 charge density of overlapping atoms calculated
 number of electron     814.0000000 magnetization 
 keeping initial charge density in first step


--------------------------------------------------------------------------------------------------------


 Maximum index for non-local projection operator          266
 Maximum index for augmentation-charges          320 (set IRDMAX)


--------------------------------------------------------------------------------------------------------


 First call to EWALD:  gamma=   0.129
 Maximum number of real-space cells 2x 4x 2
 Maximum number of reciprocal cells 3x 2x 3

    FEWALD:  cpu time    0.0031: real time    0.0032


--------------------------------------- Iteration      1(   1)  ---------------------------------------


    POTLOK:  cpu time    0.0533: real time    0.0538
    SETDIJ:  cpu time    0.0048: real time    0.0068
     EDDAV:  cpu time    2.6231: real time    2.6310
       DOS:  cpu time    0.0012: real time    0.0012
    --------------------------------------------
      LOOP:  cpu time    2.6824: real time    2.6929

 eigenvalue-minimisations  :  1200
 total energy-change (2. order) : 0.8936280E+04  (-0.5151334E+05)
 number of electron     814.0000000 magnetization 
 augmentation part      814.0000000 magnetization 

 Free energy of the ion-electron system (eV)
  ---------------------------------------------------
  alpha Z        PSCENC =      1500.00209625
  Ewald energy   TEWEN  =    107551.52512546
  -Hartree energ DENC   =   -231907.35460520
  -exchange      EXHF   =         0.00000000
  -V(xc)+E(xc)   XCENC  =      3741.12591218
  PAW double counting   =    115860.90926010  -120909.33166199
  entropy T*S    EENTRO =        -0.39116195
  eigenvalues    EBANDS =     -6680.66021859
  atomic energy  EATOM  =    139780.45519414
  Solvation  Ediel_sol  =         0.00000000
  ---------------------------------------------------
  free energy    TOTEN  =      8936.27994040 eV

  energy without entropy =     8936.67110234  energy(sigma->0) =     8936.47552137


--------------------------------------------------------------------------------------------------------




--------------------------------------- Iteration      1(   2)  ---------------------------------------


     EDDAV:  cpu time    2.3276: real time    2.3340
       DOS:  cpu time    0.0008: real time    0.0008
    --------------------------------------------
      LOOP:  cpu time    2.3284: real time    2.3348

 eigenvalue-minimisations  :  1040
 total energy-change (2. order) :-0.8440765E+04  (-0.8145768E+04)
 number of electron     814.0000000 magnetization 
 augmentation part      814.0000000 magnetization 

 Free energy of the ion-electron system (eV)
  ---------------------------------------------------
  alpha Z        PSCENC =      1500.00209625
  Ewald energy   TEWEN  =    107551.52512546
  -Hartree energ DENC   =   -231907.35460520
  -exchange      EXHF   =         0.00000000
  -V(xc)+E(xc)   XCENC  =      3741.12591218
  PAW double counting   =    115860.90926010  -120909.33166199
  entropy T*S    EENTRO =        -0.83672785
  eigenvalues    EBANDS =    -15120.98012175
  atomic energy  EATOM  =    139780.45519414
  Solvation  Ediel_sol  =         0.00000000
  ---------------------------------------------------
  free energy    TOTEN  =       495.51447134 eV

  energy without entropy =      496.35119918  energy(sigma->0) =      495.93283526


--------------------------------------------------------------------------------------------------------




--------------------------------------- Iteration      1(   3)  ---------------------------------------


     EDDAV:  cpu time    2.5422: real time    2.5506
       DOS:  cpu time    0.0010: real time    0.0010
    --------------------------------------------
      LOOP:  cpu time    2.5432: real time    2.5516

 eigenvalue-minimisations  :  1152
 total energy-change (2. order) :-0.8535095E+03  (-0.8091782E+03)
 number of electron     814.0000000 magnetization 
 augmentation part      814.0000000 magnetization 

 Free energy of the ion-electron system (eV)
  ---------------------------------------------------
  alpha Z        PSCENC =      1500.00209625
  Ewald energy   TEWEN  =    107551.52512546
  -Hartree energ DENC   =   -231907.35460520
  -exchange      EXHF   =         0.00000000
  -V(xc)+E(xc)   XCENC  =      3741.12591218
  PAW double counting   =    115860.90926010  -120909.33166199
  entropy T*S    EENTRO =        -1.40951766
  eigenvalues    EBANDS =    -15973.91681700
  atomic energy  EATOM  =    139780.45519414
  Solvation  Ediel_sol  =         0.00000000
  ---------------------------------------------------
  free energy    TOTEN  =      -357.99501372 eV

  energy without entropy =     -356.58549607  energy(sigma->0) =     -357.29025489


--------------------------------------------------------------------------------------------------------




--------------------------------------- Iteration      1(   4)  ---------------------------------------


     EDDAV:  cpu time    2.5888: real time    2.5973
       DOS:  cpu time    0.0009: real time    0.0009
    --------------------------------------------
      LOOP:  cpu time    2.5898: real time    2.5982

 eigenvalue-minimisations  :  1192
 total energy-change (2. order) :-0.5102948E+02  (-0.5034059E+02)
 number of electron     814.0000000 magnetization 
 augmentation part      814.0000000 magnetization 

 Free energy of the ion-electron system (eV)
  ---------------------------------------------------
  alpha Z        PSCENC =      1500.00209625
  Ewald energy   TEWEN  =    107551.52512546
  -Hartree energ DENC   =   -231907.35460520
  -exchange      EXHF   =         0.00000000
  -V(xc)+E(xc)   XCENC  =      3741.12591218
  PAW double counting   =    115860.90926010  -120909.33166199
  entropy T*S    EENTRO =        -1.43989161
  eigenvalues    EBANDS =    -16024.91592551
  atomic energy  EATOM  =    139780.45519414
  Solvation  Ediel_sol  =         0.00000000
  ---------------------------------------------------
  free energy    TOTEN  =      -409.02449618 eV

  energy without entropy =     -407.58460458  energy(sigma->0) =     -408.30455038


--------------------------------------------------------------------------------------------------------




--------------------------------------- Iteration      1(   5)  ---------------------------------------


     EDDAV:  cpu time    2.6293: real time    2.6358
       DOS:  cpu time    0.0008: real time    0.0008
    CHARGE:  cpu time    0.0924: real time    0.0927
    MIXING:  cpu time    0.0027: real time    0.0028
    --------------------------------------------
      LOOP:  cpu time    2.7253: real time    2.7321

 eigenvalue-minimisations  :  1216
 total energy-change (2. order) :-0.1489260E+01  (-0.1486704E+01)
 number of electron     814.0001597 magnetization 
 augmentation part      292.4483312 magnetization 

 Broyden mixing:
  rms(total) = 0.83602E+01    rms(broyden)= 0.83463E+01
  rms(prec ) = 0.91179E+01
  weight for this iteration     100.00

 Free energy of the ion-electron system (eV)
  ---------------------------------------------------
  alpha Z        PSCENC =      1500.00209625
  Ewald energy   TEWEN  =    107551.52512546
  -Hartree energ DENC   =   -231907.35460520
  -exchange      EXHF   =         0.00000000
  -V(xc)+E(xc)   XCENC  =      3741.12591218
  PAW double counting   =    115860.90926010  -120909.33166199
  entropy T*S    EENTRO =        -1.44184380
  eigenvalues    EBANDS =    -16026.40323320
  atomic energy  EATOM  =    139780.45519414
  Solvation  Ediel_sol  =         0.00000000
  ---------------------------------------------------
  free energy    TOTEN  =      -410.51375607 eV

  energy without entropy =     -409.07191227  energy(sigma->0) =     -409.79283417


--------------------------------------------------------------------------------------------------------




--------------------------------------- Iteration      1(   6)  ---------------------------------------


    POTLOK:  cpu time    0.0496: real time    0.0497
    SETDIJ:  cpu time    0.0042: real time    0.0061
     EDDAV:  cpu time    2.6839: real time    2.6915
       DOS:  cpu time    0.0007: real time    0.0007
    CHARGE:  cpu time    0.0905: real time    0.0907
    MIXING:  cpu time    0.0023: real time    0.0024
    --------------------------------------------
      LOOP:  cpu time    2.8312: real time    2.8410

 eigenvalue-minimisations  :  1184
 total energy-change (2. order) :-0.1277112E+03  (-0.1124748E+03)
 number of electron     814.0002094 magnetization 
 augmentation part      367.3140290 magnetization 

 Broyden mixing:
  rms(total) = 0.18229E+02    rms(broyden)= 0.18226E+02
  rms(prec ) = 0.19424E+02
  weight for this iteration     100.00

 eigenvalues of (default mixing * dielectric matrix)
  average eigenvalue GAMMA=   0.2001
  0.2001

 Free energy of the ion-electron system (eV)
  ---------------------------------------------------
  alpha Z        PSCENC =      1500.00209625
  Ewald energy   TEWEN  =    107551.52512546
  -Hartree energ DENC   =   -228891.65230784
  -exchange      EXHF   =         0.00000000
  -V(xc)+E(xc)   XCENC  =      3658.46509247
  PAW double counting   =    116801.89874428  -121591.58447963
  entropy T*S    EENTRO =        -0.98011304
  eigenvalues    EBANDS =    -19346.35430357
  atomic energy  EATOM  =    139780.45519414
  Solvation  Ediel_sol  =         0.00000000
  ---------------------------------------------------
  free energy    TOTEN  =      -538.22495149 eV

  energy without entropy =     -537.24483845  energy(sigma->0) =     -537.73489497


--------------------------------------------------------------------------------------------------------




--------------------------------------- Iteration      1(   7)  ---------------------------------------


    POTLOK:  cpu time    0.0495: real time    0.0517
    SETDIJ:  cpu time    0.0042: real time    0.0059
     EDDAV:  cpu time    2.5967: real time    2.6029
       DOS:  cpu time    0.0005: real time    0.0005
    CHARGE:  cpu time    0.0903: real time    0.0905
    MIXING:  cpu time    0.0020: real time    0.0020
    --------------------------------------------
      LOOP:  cpu time    2.7432: real time    2.7537

 eigenvalue-minimisations  :  1144
 total energy-change (2. order) : 0.1492011E+03  (-0.2061766E+02)
 number of electron     814.0001954 magnetization 
 augmentation part      345.7832725 magnetization 

 Broyden mixing:
  rms(total) = 0.78480E+01    rms(broyden)= 0.78470E+01
  rms(prec ) = 0.84841E+01
  weight for this iteration     100.00

 eigenvalues of (default mixing * dielectric matrix)
  average eigenvalue GAMMA=   0.4812
  0.4812  0.4812

 Free energy of the ion-electron system (eV)
  ---------------------------------------------------
  alpha Z        PSCENC =      1500.00209625
  Ewald energy   TEWEN  =    107551.52512546
  -Hartree energ DENC   =   -230129.27787912
  -exchange      EXHF   =         0.00000000
  -V(xc)+E(xc)   XCENC  =      3689.26727465
  PAW double counting   =    121012.32108244  -125953.91015586
  entropy T*S    EENTRO =        -1.28232660
  eigenvalues    EBANDS =    -17838.12423786
  atomic energy  EATOM  =    139780.45519414
  Solvation  Ediel_sol  =         0.00000000
  ---------------------------------------------------
  free energy    TOTEN  =      -389.02382651 eV

  energy without entropy =     -387.74149991  energy(sigma->0) =     -388.38266321


--------------------------------------------------------------------------------------------------------




--------------------------------------- Iteration      1(   8)  ---------------------------------------


    POTLOK:  cpu time    0.0494: real time    0.0495
    SETDIJ:  cpu time    0.0046: real time    0.0046
     EDDAV:  cpu time    3.0114: real time    3.0186
       DOS:  cpu time    0.0006: real time    0.0006
    CHARGE:  cpu time    0.0914: real time    0.0916
    MIXING:  cpu time    0.0021: real time    0.0021
    --------------------------------------------
      LOOP:  cpu time    3.1594: real time    3.1670

 eigenvalue-minimisations  :  1376
 total energy-change (2. order) :-0.1857872E+02  (-0.1811906E+02)
 number of electron     814.0001773 magnetization 
 augmentation part      316.8562446 magnetization 

 Broyden mixing:
  rms(total) = 0.11151E+02    rms(broyden)= 0.11148E+02
  rms(prec ) = 0.14694E+02
  weight for this iteration     100.00

 eigenvalues of (default mixing * dielectric matrix)
  average eigenvalue GAMMA=   0.3887
  0.5191  0.5191  0.1279

 Free energy of the ion-electron system (eV)
  ---------------------------------------------------
  alpha Z        PSCENC =      1500.00209625
  Ewald energy   TEWEN  =    107551.52512546
  -Hartree energ DENC   =   -230994.76772769
  -exchange      EXHF   =         0.00000000
  -V(xc)+E(xc)   XCENC  =      3711.82666767
  PAW double counting   =    125977.25108816  -131027.07207677
  entropy T*S    EENTRO =        -1.54447905
  eigenvalues    EBANDS =    -16905.27843203
  atomic energy  EATOM  =    139780.45519414
  Solvation  Ediel_sol  =         0.00000000
  ---------------------------------------------------
  free energy    TOTEN  =      -407.60254386 eV

  energy without entropy =     -406.05806481  energy(sigma->0) =     -406.83030434


--------------------------------------------------------------------------------------------------------




--------------------------------------- Iteration      1(   9)  ---------------------------------------


    POTLOK:  cpu time    0.0488: real time    0.0490
    SETDIJ:  cpu time    0.0046: real time    0.0046
     EDDAV:  cpu time    2.7695: real time    2.7760
       DOS:  cpu time    0.0006: real time    0.0006
    CHARGE:  cpu time    0.0901: real time    0.0903
    MIXING:  cpu time    0.0022: real time    0.0022
    --------------------------------------------
      LOOP:  cpu time    2.9159: real time    2.9228

 eigenvalue-minimisations  :  1256
 total energy-change (2. order) : 0.2658449E+02  (-0.1485168E+02)
 number of electron     814.0001705 magnetization 
 augmentation part      315.4222043 magnetization 

 Broyden mixing:
  rms(total) = 0.72290E+01    rms(broyden)= 0.72220E+01
  rms(prec ) = 0.84223E+01
  weight for this iteration     100.00

 eigenvalues of (default mixing * dielectric matrix)
  average eigenvalue GAMMA=   0.3999
  0.8707  0.3135  0.3135  0.1019

 Free energy of the ion-electron system (eV)
  ---------------------------------------------------
  alpha Z        PSCENC =      1500.00209625
  Ewald energy   TEWEN  =    107551.52512546
  -Hartree energ DENC   =   -231049.19045852
  -exchange      EXHF   =         0.00000000
  -V(xc)+E(xc)   XCENC  =      3714.09404744
  PAW double counting   =    127747.89154991  -132820.37185722
  entropy T*S    EENTRO =        -1.38173572
  eigenvalues    EBANDS =    -16804.04201999
  atomic energy  EATOM  =    139780.45519414
  Solvation  Ediel_sol  =         0.00000000
  ---------------------------------------------------
  free energy    TOTEN  =      -381.01805826 eV

  energy without entropy =     -379.63632254  energy(sigma->0) =     -380.32719040


--------------------------------------------------------------------------------------------------------




--------------------------------------- Iteration      1(  10)  ---------------------------------------


    POTLOK:  cpu time    0.0496: real time    0.0497
    SETDIJ:  cpu time    0.0047: real time    0.0047
     EDDAV:  cpu time    2.9125: real time    2.9194
       DOS:  cpu time    0.0006: real time    0.0006
    CHARGE:  cpu time    0.0909: real time    0.0911
    MIXING:  cpu time    0.0023: real time    0.0023
    --------------------------------------------
      LOOP:  cpu time    3.0605: real time    3.0678

 eigenvalue-minimisations  :  1360
 total energy-change (2. order) : 0.8645311E+01  (-0.6731966E+01)
 number of electron     814.0001911 magnetization 
 augmentation part      313.2810835 magnetization 

 Broyden mixing:
  rms(total) = 0.86699E+01    rms(broyden)= 0.86663E+01
  rms(prec ) = 0.10658E+02
  weight for this iteration     100.00

 eigenvalues of (default mixing * dielectric matrix)
  average eigenvalue GAMMA=   0.4191
  1.1786  0.3550  0.3550  0.1035  0.1035

 Free energy of the ion-electron system (eV)
  ---------------------------------------------------
  alpha Z        PSCENC =      1500.00209625
  Ewald energy   TEWEN  =    107551.52512546
  -Hartree energ DENC   =   -231057.95504629
  -exchange      EXHF   =         0.00000000
  -V(xc)+E(xc)   XCENC  =      3714.92672937
  PAW double counting   =    129593.01262437  -134687.27778041
  entropy T*S    EENTRO =        -1.51832798
  eigenvalues    EBANDS =    -16765.54336199
  atomic energy  EATOM  =    139780.45519414
  Solvation  Ediel_sol  =         0.00000000
  ---------------------------------------------------
  free energy    TOTEN  =      -372.37274708 eV

  energy without entropy =     -370.85441910  energy(sigma->0) =     -371.61358309


--------------------------------------------------------------------------------------------------------




--------------------------------------- Iteration      1(  11)  ---------------------------------------


    POTLOK:  cpu time    0.0491: real time    0.0492
    SETDIJ:  cpu time    0.0047: real time    0.0047
     EDDAV:  cpu time    2.9152: real time    2.9246
       DOS:  cpu time    0.0006: real time    0.0006
    CHARGE:  cpu time    0.0910: real time    0.0912
    MIXING:  cpu time    0.0029: real time    0.0029
    --------------------------------------------
      LOOP:  cpu time    3.0634: real time    3.0732

 eigenvalue-minimisations  :  1344
 total energy-change (2. order) :-0.1530366E+01  (-0.4256863E+01)
 number of electron     814.0001805 magnetization 
 augmentation part      316.1539204 magnetization 

 Broyden mixing:
  rms(total) = 0.74619E+01    rms(broyden)= 0.74600E+01
  rms(prec ) = 0.90249E+01
  weight for this iteration     100.00

 eigenvalues of (default mixing * dielectric matrix)
  average eigenvalue GAMMA=   0.4645
  1.6798  0.3922  0.3922  0.1232  0.1232  0.0767

 Free energy of the ion-electron system (eV)
  ---------------------------------------------------
  alpha Z        PSCENC =      1500.00209625
  Ewald energy   TEWEN  =    107551.52512546
  -Hartree energ DENC   =   -231012.06253898
  -exchange      EXHF   =         0.00000000
  -V(xc)+E(xc)   XCENC  =      3712.76649085
  PAW double counting   =    130861.10939967  -135961.63466253
  entropy T*S    EENTRO =        -1.24125318
  eigenvalues    EBANDS =    -16804.82296476
  atomic energy  EATOM  =    139780.45519414
  Solvation  Ediel_sol  =         0.00000000
  ---------------------------------------------------
  free energy    TOTEN  =      -373.90311308 eV

  energy without entropy =     -372.66185990  energy(sigma->0) =     -373.28248649


--------------------------------------------------------------------------------------------------------




--------------------------------------- Iteration      1(  12)  ---------------------------------------


    POTLOK:  cpu time    0.0495: real time    0.0516
    SETDIJ:  cpu time    0.0041: real time    0.0059
     EDDAV:  cpu time    2.9236: real time    2.9305
       DOS:  cpu time    0.0006: real time    0.0006
    CHARGE:  cpu time    0.0906: real time    0.0908
    MIXING:  cpu time    0.0025: real time    0.0025
    --------------------------------------------
      LOOP:  cpu time    3.0707: real time    3.0818

 eigenvalue-minimisations  :  1384
 total energy-change (2. order) : 0.4052593E+01  (-0.3038443E+01)
 number of electron     814.0001728 magnetization 
 augmentation part      319.9216275 magnetization 

 Broyden mixing:
  rms(total) = 0.44062E+01    rms(broyden)= 0.44045E+01
  rms(prec ) = 0.51058E+01
  weight for this iteration     100.00

 eigenvalues of (default mixing * dielectric matrix)
  average eigenvalue GAMMA=   0.4485
  1.8341  0.3989  0.3989  0.2027  0.1136  0.0957  0.0957

 Free energy of the ion-electron system (eV)
  ---------------------------------------------------
  alpha Z        PSCENC =      1500.00209625
  Ewald energy   TEWEN  =    107551.52512546
  -Hartree energ DENC   =   -230946.22995724
  -exchange      EXHF   =         0.00000000
  -V(xc)+E(xc)   XCENC  =      3709.68050639
  PAW double counting   =    132797.68060876  -137909.74127443
  entropy T*S    EENTRO =        -1.32042017
  eigenvalues    EBANDS =    -16851.90239972
  atomic energy  EATOM  =    139780.45519414
  Solvation  Ediel_sol  =         0.00000000
  ---------------------------------------------------
  free energy    TOTEN  =      -369.85052057 eV

  energy without entropy =     -368.53010040  energy(sigma->0) =     -369.19031048


--------------------------------------------------------------------------------------------------------




--------------------------------------- Iteration      1(  13)  ---------------------------------------


    POTLOK:  cpu time    0.0489: real time    0.0490
    SETDIJ:  cpu time    0.0047: real time    0.0047
     EDDAV:  cpu time    2.8157: real time    2.8224
       DOS:  cpu time    0.0006: real time    0.0006
    CHARGE:  cpu time    0.0903: real time    0.0906
    MIXING:  cpu time    0.0025: real time    0.0026
    --------------------------------------------
      LOOP:  cpu time    2.9627: real time    2.9698

 eigenvalue-minimisations  :  1320
 total energy-change (2. order) : 0.5817507E+01  (-0.2535296E+01)
 number of electron     814.0001741 magnetization 
 augmentation part      322.3389868 magnetization 

 Broyden mixing:
  rms(total) = 0.33312E+01    rms(broyden)= 0.33291E+01
  rms(prec ) = 0.39049E+01
  weight for this iteration     100.00

 eigenvalues of (default mixing * dielectric matrix)
  average eigenvalue GAMMA=   0.4428
  1.6976  0.5692  0.4038  0.4038  0.1327  0.1327  0.1152  0.0871

 Free energy of the ion-electron system (eV)
  ---------------------------------------------------
  alpha Z        PSCENC =      1500.00209625
  Ewald energy   TEWEN  =    107551.52512546
  -Hartree energ DENC   =   -230927.38874237
  -exchange      EXHF   =         0.00000000
  -V(xc)+E(xc)   XCENC  =      3708.89846251
  PAW double counting   =    133531.06389172  -138649.22377037
  entropy T*S    EENTRO =        -1.13015267
  eigenvalues    EBANDS =    -16858.23511778
  atomic energy  EATOM  =    139780.45519414
  Solvation  Ediel_sol  =         0.00000000
  ---------------------------------------------------
  free energy    TOTEN  =      -364.03301310 eV

  energy without entropy =     -362.90286043  energy(sigma->0) =     -363.46793677


--------------------------------------------------------------------------------------------------------




--------------------------------------- Iteration      1(  14)  ---------------------------------------


    POTLOK:  cpu time    0.0492: real time    0.0493
    SETDIJ:  cpu time    0.0047: real time    0.0047
     EDDAV:  cpu time    2.8738: real time    2.8806
       DOS:  cpu time    0.0006: real time    0.0006
    CHARGE:  cpu time    0.0928: real time    0.0930
    MIXING:  cpu time    0.0027: real time    0.0027
    --------------------------------------------
      LOOP:  cpu time    3.0238: real time    3.0309

 eigenvalue-minimisations  :  1352
 total energy-change (2. order) : 0.1224943E+01  (-0.1397105E+01)
 number of electron     814.0001707 magnetization 
 augmentation part      320.2365976 magnetization 

 Broyden mixing:
  rms(total) = 0.53347E+01    rms(broyden)= 0.53331E+01
  rms(prec ) = 0.63494E+01
  weight for this iteration     100.00

 eigenvalues of (default mixing * dielectric matrix)
  average eigenvalue GAMMA=   0.4136
  1.7325  0.5821  0.4082  0.4082  0.1496  0.1496  0.0937  0.0937  0.1047

 Free energy of the ion-electron system (eV)
  ---------------------------------------------------
  alpha Z        PSCENC =      1500.00209625
  Ewald energy   TEWEN  =    107551.52512546
  -Hartree energ DENC   =   -230996.36172985
  -exchange      EXHF   =         0.00000000
  -V(xc)+E(xc)   XCENC  =      3710.35523787
  PAW double counting   =    133175.66245128  -138295.19962704
  entropy T*S    EENTRO =        -1.32501423
  eigenvalues    EBANDS =    -16787.92180414
  atomic energy  EATOM  =    139780.45519414
  Solvation  Ediel_sol  =         0.00000000
  ---------------------------------------------------
  free energy    TOTEN  =      -362.80807026 eV

  energy without entropy =     -361.48305604  energy(sigma->0) =     -362.14556315


--------------------------------------------------------------------------------------------------------




--------------------------------------- Iteration      1(  15)  ---------------------------------------


    POTLOK:  cpu time    0.0490: real time    0.0491
    SETDIJ:  cpu time    0.0046: real time    0.0046
     EDDAV:  cpu time    2.8428: real time    2.8495
       DOS:  cpu time    0.0006: real time    0.0006
    CHARGE:  cpu time    0.0899: real time    0.0901
    MIXING:  cpu time    0.0028: real time    0.0028
    --------------------------------------------
      LOOP:  cpu time    2.9896: real time    2.9967

 eigenvalue-minimisations  :  1336
 total energy-change (2. order) : 0.1431869E+01  (-0.1616827E+01)
 number of electron     814.0001744 magnetization 
 augmentation part      321.5329848 magnetization 

 Broyden mixing:
  rms(total) = 0.30691E+01    rms(broyden)= 0.30680E+01
  rms(prec ) = 0.36073E+01
  weight for this iteration     100.00

 eigenvalues of (default mixing * dielectric matrix)
  average eigenvalue GAMMA=   0.3926
  1.7491  0.4619  0.4619  0.3441  0.3441  0.1547  0.1223  0.1223  0.0870  0.0784

 Free energy of the ion-electron system (eV)
  ---------------------------------------------------
  alpha Z        PSCENC =      1500.00209625
  Ewald energy   TEWEN  =    107551.52512546
  -Hartree energ DENC   =   -231006.99576929
  -exchange      EXHF   =         0.00000000
  -V(xc)+E(xc)   XCENC  =      3710.23200582
  PAW double counting   =    133211.36027381  -138331.16308098
  entropy T*S    EENTRO =        -1.17255011
  eigenvalues    EBANDS =    -16775.61949668
  atomic energy  EATOM  =    139780.45519414
  Solvation  Ediel_sol  =         0.00000000
  ---------------------------------------------------
  free energy    TOTEN  =      -361.37620157 eV

  energy without entropy =     -360.20365146  energy(sigma->0) =     -360.78992651


--------------------------------------------------------------------------------------------------------




--------------------------------------- Iteration      1(  16)  ---------------------------------------


    POTLOK:  cpu time    0.0485: real time    0.0487
    SETDIJ:  cpu time    0.0046: real time    0.0046
     EDDAV:  cpu time    2.8351: real time    2.8418
       DOS:  cpu time    0.0006: real time    0.0006
    CHARGE:  cpu time    0.0904: real time    0.0906
    MIXING:  cpu time    0.0029: real time    0.0029
    --------------------------------------------
      LOOP:  cpu time    2.9821: real time    2.9892

 eigenvalue-minimisations  :  1320
 total energy-change (2. order) : 0.2917694E+01  (-0.4137651E+00)
 number of electron     814.0001752 magnetization 
 augmentation part      321.3300339 magnetization 

 Broyden mixing:
  rms(total) = 0.22346E+01    rms(broyden)= 0.22329E+01
  rms(prec ) = 0.27067E+01
  weight for this iteration     100.00

 eigenvalues of (default mixing * dielectric matrix)
  average eigenvalue GAMMA=   0.4228
  1.8260  0.6734  0.6734  0.3898  0.3898  0.1355  0.1355  0.1251  0.1251  0.0888
  0.0888

 Free energy of the ion-electron system (eV)
  ---------------------------------------------------
  alpha Z        PSCENC =      1500.00209625
  Ewald energy   TEWEN  =    107551.52512546
  -Hartree energ DENC   =   -231028.07966846
  -exchange      EXHF   =         0.00000000
  -V(xc)+E(xc)   XCENC  =      3710.76634726
  PAW double counting   =    133148.88627208  -138269.75328153
  entropy T*S    EENTRO =        -1.25689502
  eigenvalues    EBANDS =    -16751.00369784
  atomic energy  EATOM  =    139780.45519414
  Solvation  Ediel_sol  =         0.00000000
  ---------------------------------------------------
  free energy    TOTEN  =      -358.45850767 eV

  energy without entropy =     -357.20161265  energy(sigma->0) =     -357.83006016


--------------------------------------------------------------------------------------------------------




--------------------------------------- Iteration      1(  17)  ---------------------------------------


    POTLOK:  cpu time    0.0487: real time    0.0488
    SETDIJ:  cpu time    0.0046: real time    0.0046
     EDDAV:  cpu time    2.8475: real time    2.8543
       DOS:  cpu time    0.0006: real time    0.0006
    CHARGE:  cpu time    0.0909: real time    0.0911
    MIXING:  cpu time    0.0030: real time    0.0030
    --------------------------------------------
      LOOP:  cpu time    2.9953: real time    3.0024

 eigenvalue-minimisations  :  1328
 total energy-change (2. order) : 0.1343123E+01  (-0.3249801E+00)
 number of electron     814.0001770 magnetization 
 augmentation part      321.2538506 magnetization 

 Broyden mixing:
  rms(total) = 0.20525E+01    rms(broyden)= 0.20513E+01
  rms(prec ) = 0.24292E+01
  weight for this iteration     100.00

 eigenvalues of (default mixing * dielectric matrix)
  average eigenvalue GAMMA=   0.4193
  1.8842  0.7592  0.7592  0.3933  0.3933  0.1449  0.1449  0.1381  0.1381  0.0984
  0.0892  0.0892

 Free energy of the ion-electron system (eV)
  ---------------------------------------------------
  alpha Z        PSCENC =      1500.00209625
  Ewald energy   TEWEN  =    107551.52512546
  -Hartree energ DENC   =   -231035.93186242
  -exchange      EXHF   =         0.00000000
  -V(xc)+E(xc)   XCENC  =      3710.89373355
  PAW double counting   =    133135.28253722  -138255.20892102
  entropy T*S    EENTRO =        -1.25913140
  eigenvalues    EBANDS =    -16742.87415649
  atomic energy  EATOM  =    139780.45519414
  Solvation  Ediel_sol  =         0.00000000
  ---------------------------------------------------
  free energy    TOTEN  =      -357.11538472 eV

  energy without entropy =     -355.85625332  energy(sigma->0) =     -356.48581902


--------------------------------------------------------------------------------------------------------




--------------------------------------- Iteration      1(  18)  ---------------------------------------


    POTLOK:  cpu time    0.0485: real time    0.0486
    SETDIJ:  cpu time    0.0047: real time    0.0047
     EDDAV:  cpu time    2.8710: real time    2.8803
       DOS:  cpu time    0.0006: real time    0.0006
    CHARGE:  cpu time    0.0955: real time    0.0957
    MIXING:  cpu time    0.0035: real time    0.0035
    --------------------------------------------
      LOOP:  cpu time    3.0237: real time    3.0334

 eigenvalue-minimisations  :  1320
 total energy-change (2. order) : 0.1153132E+01  (-0.2109318E+00)
 number of electron     814.0001766 magnetization 
 augmentation part      321.6576090 magnetization 

 Broyden mixing:
  rms(total) = 0.15873E+01    rms(broyden)= 0.15864E+01
  rms(prec ) = 0.18963E+01
  weight for this iteration     100.00

 eigenvalues of (default mixing * dielectric matrix)
  average eigenvalue GAMMA=   0.4391
  1.9392  0.8823  0.8823  0.3963  0.3963  0.3913  0.1377  0.1377  0.1349  0.1175
  0.1175  0.0877  0.0877

 Free energy of the ion-electron system (eV)
  ---------------------------------------------------
  alpha Z        PSCENC =      1500.00209625
  Ewald energy   TEWEN  =    107551.52512546
  -Hartree energ DENC   =   -231037.21622088
  -exchange      EXHF   =         0.00000000
  -V(xc)+E(xc)   XCENC  =      3710.89539730
  PAW double counting   =    133174.96808630  -138294.44903832
  entropy T*S    EENTRO =        -1.25773389
  eigenvalues    EBANDS =    -16740.88515937
  atomic energy  EATOM  =    139780.45519414
  Solvation  Ediel_sol  =         0.00000000
  ---------------------------------------------------
  free energy    TOTEN  =      -355.96225301 eV

  energy without entropy =     -354.70451912  energy(sigma->0) =     -355.33338606


--------------------------------------------------------------------------------------------------------




--------------------------------------- Iteration      1(  19)  ---------------------------------------


    POTLOK:  cpu time    0.0488: real time    0.0510
    SETDIJ:  cpu time    0.0045: real time    0.0060
     EDDAV:  cpu time    2.8706: real time    2.8775
       DOS:  cpu time    0.0006: real time    0.0006
    CHARGE:  cpu time    0.0879: real time    0.0882
    MIXING:  cpu time    0.0032: real time    0.0032
    --------------------------------------------
      LOOP:  cpu time    3.0157: real time    3.0265

 eigenvalue-minimisations  :  1344
 total energy-change (2. order) : 0.5690523E+00  (-0.1364750E+00)
 number of electron     814.0001779 magnetization 
 augmentation part      321.2412000 magnetization 

 Broyden mixing:
  rms(total) = 0.15329E+01    rms(broyden)= 0.15320E+01
  rms(prec ) = 0.18109E+01
  weight for this iteration     100.00

 eigenvalues of (default mixing * dielectric matrix)
  average eigenvalue GAMMA=   0.4337
  1.9590  0.9656  0.9656  0.4283  0.3951  0.3951  0.1413  0.1413  0.1468  0.1279
  0.1279  0.0883  0.0883  0.1009

 Free energy of the ion-electron system (eV)
  ---------------------------------------------------
  alpha Z        PSCENC =      1500.00209625
  Ewald energy   TEWEN  =    107551.52512546
  -Hartree energ DENC   =   -231047.05889198
  -exchange      EXHF   =         0.00000000
  -V(xc)+E(xc)   XCENC  =      3711.16642610
  PAW double counting   =    133221.17531901  -138340.16339935
  entropy T*S    EENTRO =        -1.25101741
  eigenvalues    EBANDS =    -16731.24405288
  atomic energy  EATOM  =    139780.45519414
  Solvation  Ediel_sol  =         0.00000000
  ---------------------------------------------------
  free energy    TOTEN  =      -355.39320066 eV

  energy without entropy =     -354.14218325  energy(sigma->0) =     -354.76769196


--------------------------------------------------------------------------------------------------------




--------------------------------------- Iteration      1(  20)  ---------------------------------------


    POTLOK:  cpu time    0.0484: real time    0.0485
    SETDIJ:  cpu time    0.0047: real time    0.0047
     EDDAV:  cpu time    2.8856: real time    2.8924
       DOS:  cpu time    0.0006: real time    0.0006
    CHARGE:  cpu time    0.0879: real time    0.0881
    MIXING:  cpu time    0.0035: real time    0.0035
    --------------------------------------------
      LOOP:  cpu time    3.0306: real time    3.0378

 eigenvalue-minimisations  :  1352
 total energy-change (2. order) : 0.5433388E+00  (-0.1486215E+00)
 number of electron     814.0001775 magnetization 
 augmentation part      321.4544811 magnetization 

 Broyden mixing:
  rms(total) = 0.11330E+01    rms(broyden)= 0.11321E+01
  rms(prec ) = 0.13566E+01
  weight for this iteration     100.00

 eigenvalues of (default mixing * dielectric matrix)
  average eigenvalue GAMMA=   0.4524
  1.9896  1.0687  1.0687  0.4808  0.4808  0.3884  0.3884  0.1365  0.1365  0.1352
  0.1352  0.0874  0.0874  0.1011  0.1011

 Free energy of the ion-electron system (eV)
  ---------------------------------------------------
  alpha Z        PSCENC =      1500.00209625
  Ewald energy   TEWEN  =    107551.52512546
  -Hartree energ DENC   =   -231052.08973157
  -exchange      EXHF   =         0.00000000
  -V(xc)+E(xc)   XCENC  =      3711.17897154
  PAW double counting   =    133199.78287247  -138317.52583397
  entropy T*S    EENTRO =        -1.28798772
  eigenvalues    EBANDS =    -16726.89056845
  atomic energy  EATOM  =    139780.45519414
  Solvation  Ediel_sol  =         0.00000000
  ---------------------------------------------------
  free energy    TOTEN  =      -354.84986185 eV

  energy without entropy =     -353.56187413  energy(sigma->0) =     -354.20586799


--------------------------------------------------------------------------------------------------------




--------------------------------------- Iteration      1(  21)  ---------------------------------------


    POTLOK:  cpu time    0.0489: real time    0.0490
    SETDIJ:  cpu time    0.0046: real time    0.0046
     EDDAV:  cpu time    2.8149: real time    2.8217
       DOS:  cpu time    0.0006: real time    0.0006
    CHARGE:  cpu time    0.0888: real time    0.0890
    MIXING:  cpu time    0.0035: real time    0.0035
    --------------------------------------------
      LOOP:  cpu time    2.9614: real time    2.9685

 eigenvalue-minimisations  :  1320
 total energy-change (2. order) : 0.2457114E+00  (-0.5528960E-01)
 number of electron     814.0001780 magnetization 
 augmentation part      321.2391464 magnetization 

 Broyden mixing:
  rms(total) = 0.83586E+00    rms(broyden)= 0.83541E+00
  rms(prec ) = 0.98542E+00
  weight for this iteration     100.00

 eigenvalues of (default mixing * dielectric matrix)
  average eigenvalue GAMMA=   0.4526
  1.9760  1.1260  1.1260  0.5755  0.5755  0.3894  0.3894  0.1529  0.1529  0.1359
  0.1359  0.1165  0.1165  0.0877  0.0877  0.0982

 Free energy of the ion-electron system (eV)
  ---------------------------------------------------
  alpha Z        PSCENC =      1500.00209625
  Ewald energy   TEWEN  =    107551.52512546
  -Hartree energ DENC   =   -231067.78838297
  -exchange      EXHF   =         0.00000000
  -V(xc)+E(xc)   XCENC  =      3711.31643056
  PAW double counting   =    133129.96598265  -138246.24501669
  entropy T*S    EENTRO =        -1.31170425
  eigenvalues    EBANDS =    -16712.52387561
  atomic energy  EATOM  =    139780.45519414
  Solvation  Ediel_sol  =         0.00000000
  ---------------------------------------------------
  free energy    TOTEN  =      -354.60415046 eV

[...]
  Alpha Z  1500.00210  1500.00210  1500.00210
  Ewald  156606.48840158267.17550************    -0.00000    -0.00000     4.42497
  Hartree193431.99687194960.45446************     0.00038    -0.00021    46.89779
  E(xc)   -5157.51993 -5156.82843 -5163.58969    -0.00004     0.00000    -0.45356
  Local  ************************351617.22136    -0.00107     0.00048   -60.94479
  n-local  -713.05001  -716.63771  -719.09527    -0.00401     0.01237    -1.17799
  augment  5945.15078  5953.28573  5961.66133     0.01248    -0.00146     4.79303
  Kinetic 11246.33788 11230.08341 11275.93068    -0.00051    -0.00053    13.86049
  Fock        0.00000     0.00000     0.00000     0.00000     0.00000     0.00000
  -------------------------------------------------------------------------------------
  Total     -37.93067   -44.58478   -58.67442     0.00000     0.00000     7.39995
  in kB     -23.19868   -27.26839   -35.88571     0.00000     0.00000     4.52587
  external pressure =      -28.78 kB  Pullay stress =        0.00 kB


 VOLUME and BASIS-vectors are now :
 -----------------------------------------------------------------------------
  energy-cutoff  :      450.00
  volume of cell :     2619.62
      direct lattice vectors                 reciprocal lattice vectors
    16.884694054  0.000000000  0.000000000     0.059225237  0.000000000  0.000000000
     0.000000000  9.578410000  0.000000000     0.000000000  0.104401461  0.000000000
     0.000000000  0.000000000 16.197619148     0.000000000  0.000000000  0.061737468

  length of vectors
    16.884694054  9.578410000 16.197619148     0.059225237  0.104401461  0.061737468


 FORCES acting on ions
    electron-ion (+dipol)            ewald-force                    non-local-force                 convergence-correction
 -----------------------------------------------------------------------------------------------
   -.484E+03 0.307E+03 -.243E+04   0.483E+03 -.312E+03 0.243E+04   0.715E+00 0.374E+01 -.195E+01   0.205E+00 0.408E+00 -.196E+00
   -.327E+03 0.320E+03 0.185E+04   0.323E+03 -.322E+03 -.185E+04   0.319E+01 0.843E+00 0.234E+01   -.102E+00 0.341E+00 0.784E+00
   -.354E+03 0.287E+03 -.952E+03   0.353E+03 -.288E+03 0.954E+03   0.984E+00 0.632E+00 -.134E+01   -.228E+00 0.103E+00 -.121E+00
   -.642E+03 0.598E+03 0.306E+04   0.639E+03 -.597E+03 -.305E+04   0.281E+01 -.165E+01 -.530E+01   -.359E+00 -.306E-01 -.338E-01
   -.203E+03 0.528E+03 -.190E+04   0.205E+03 -.531E+03 0.190E+04   -.698E+00 0.308E+01 -.420E+01   -.470E+00 -.165E+00 -.280E-01
   0.209E+02 0.511E+03 0.226E+04   -.192E+02 -.508E+03 -.226E+04   -.985E+00 -.229E+01 0.289E+00   -.113E+00 -.379E-02 0.194E+00
   -.787E+02 0.672E+03 -.319E+04   0.745E+02 -.661E+03 0.318E+04   0.437E+01 -.976E+01 0.633E+01   -.200E+00 -.283E+00 0.516E-01
   -.317E+03 0.394E+03 0.657E+03   0.318E+03 -.395E+03 -.660E+03   -.113E+01 0.981E+00 0.234E+01   0.241E+00 -.193E+00 -.114E+00
   -.171E+03 0.395E+03 -.145E+04   0.171E+03 -.396E+03 0.145E+04   0.226E+00 0.132E+01 -.451E+01   -.690E-01 -.607E-02 -.711E-01
   -.315E+03 0.270E+03 0.272E+04   0.311E+03 -.267E+03 -.272E+04   0.286E+01 -.312E+01 -.469E+01   0.370E+00 -.150E+00 0.847E-01
   -.161E+03 0.297E+03 -.285E+04   0.161E+03 -.300E+03 0.285E+04   -.585E+00 0.164E+01 0.133E+01   0.790E+00 0.846E-01 0.226E-02
   -.238E+03 0.423E+03 0.128E+04   0.237E+03 -.425E+03 -.128E+04   0.182E+00 0.125E+01 0.340E+01   0.698E+00 -.931E-01 0.561E+00
   -.233E+03 -.136E-02 -.328E+04   0.225E+03 0.212E-12 0.327E+04   0.801E+01 0.497E-19 0.844E+01   -.225E+00 0.792E-05 -.103E+00
   0.382E+03 -.137E-02 -.144E+03   -.383E+03 -.310E-11 0.147E+03   0.110E+01 -.136E-18 -.287E+01   0.353E-01 0.113E-04 -.276E+00
   0.391E+03 -.126E-02 0.338E+04   -.391E+03 -.711E-14 -.338E+04   -.859E+00 0.244E-18 -.559E+01   -.182E+00 0.958E-05 0.608E-02
   0.420E+03 -.139E-02 -.159E+04   -.422E+03 -.128E-10 0.160E+04   0.113E+01 0.714E-20 -.336E+01   0.135E+01 0.622E-05 -.462E-01
   0.589E+03 -.127E-02 0.244E+04   -.592E+03 -.239E-11 -.244E+04   0.180E+01 0.174E-18 0.444E+01   0.739E+00 0.382E-05 0.759E+00
   0.488E+03 -.179E-02 -.118E+04   -.490E+03 -.484E-10 0.119E+04   0.177E+01 -.110E-19 -.399E+01   -.155E+00 0.389E-05 0.138E+00
   0.589E+03 -.198E-02 0.297E+04   -.591E+03 0.534E-10 -.296E+04   0.456E-01 -.740E-20 -.716E+01   0.248E-02 0.693E-05 0.330E+00
   0.675E+03 -.158E-02 -.287E+04   -.676E+03 -.163E-11 0.287E+04   0.202E+01 0.927E-19 0.223E+01   -.978E+00 -.112E-05 0.206E-01
   0.285E+03 -.190E-02 0.114E+04   -.285E+03 0.101E-10 -.114E+04   0.935E+00 -.143E-20 0.318E+01   -.549E+00 -.846E-06 -.325E-01
   0.574E+03 -.168E-02 -.751E+03   -.576E+03 -.946E-11 0.755E+03   0.196E+01 0.228E-19 -.418E+01   -.666E+00 -.739E-05 0.274E+00
   0.814E+03 -.183E-02 0.321E+04   -.802E+03 -.154E-12 -.320E+04   -.110E+02 -.144E-19 -.906E+01   0.141E+00 -.234E-05 0.207E+00
   0.856E+03 -.156E-02 -.244E+04   -.844E+03 -.626E-10 0.244E+04   -.116E+02 0.506E-19 0.209E+01   0.473E+00 -.236E-05 0.548E-01
   0.334E+03 -.183E-02 0.179E+04   -.334E+03 0.532E-10 -.179E+04   0.771E-01 0.257E-20 0.468E+01   0.236E+00 -.853E-06 0.335E+00
   -.484E+03 -.307E+03 -.243E+04   0.483E+03 0.312E+03 0.243E+04   0.715E+00 -.374E+01 -.195E+01   0.205E+00 -.408E+00 -.196E+00
   -.327E+03 -.320E+03 0.185E+04   0.323E+03 0.322E+03 -.185E+04   0.319E+01 -.843E+00 0.234E+01   -.102E+00 -.341E+00 0.784E+00
   -.354E+03 -.287E+03 -.952E+03   0.353E+03 0.288E+03 0.954E+03   0.984E+00 -.632E+00 -.134E+01   -.228E+00 -.103E+00 -.121E+00
   -.642E+03 -.598E+03 0.306E+04   0.639E+03 0.597E+03 -.305E+04   0.281E+01 0.165E+01 -.530E+01   -.359E+00 0.306E-01 -.338E-01
   -.203E+03 -.528E+03 -.190E+04   0.205E+03 0.531E+03 0.190E+04   -.698E+00 -.308E+01 -.420E+01   -.470E+00 0.165E+00 -.280E-01
   0.209E+02 -.511E+03 0.226E+04   -.192E+02 0.508E+03 -.226E+04   -.985E+00 0.229E+01 0.289E+00   -.113E+00 0.380E-02 0.194E+00
   -.787E+02 -.672E+03 -.319E+04   0.745E+02 0.661E+03 0.318E+04   0.437E+01 0.976E+01 0.633E+01   -.200E+00 0.283E+00 0.516E-01
   -.317E+03 -.394E+03 0.657E+03   0.318E+03 0.395E+03 -.660E+03   -.113E+01 -.981E+00 0.234E+01   0.241E+00 0.193E+00 -.114E+00
   -.171E+03 -.395E+03 -.145E+04   0.171E+03 0.396E+03 0.145E+04   0.226E+00 -.132E+01 -.451E+01   -.690E-01 0.606E-02 -.711E-01
   -.315E+03 -.270E+03 0.272E+04   0.311E+03 0.267E+03 -.272E+04   0.286E+01 0.312E+01 -.469E+01   0.370E+00 0.150E+00 0.847E-01
   -.161E+03 -.297E+03 -.285E+04   0.161E+03 0.300E+03 0.285E+04   -.585E+00 -.164E+01 0.133E+01   0.790E+00 -.846E-01 0.226E-02
   -.238E+03 -.423E+03 0.128E+04   0.237E+03 0.425E+03 -.128E+04   0.182E+00 -.125E+01 0.340E+01   0.698E+00 0.930E-01 0.561E+00
   0.569E+02 -.123E+03 0.137E+04   -.576E+02 0.125E+03 -.137E+04   0.114E+01 -.316E+01 0.461E+01   0.122E+00 -.620E-01 0.214E+00
   -.340E+02 -.104E+03 -.924E+03   0.344E+02 0.105E+03 0.926E+03   -.361E+00 -.173E+01 -.150E+01   0.474E-01 0.115E+00 -.144E+00
   0.523E+02 -.189E+03 0.606E+03   -.542E+02 0.191E+03 -.606E+03   0.212E+01 -.225E+01 -.194E+01   -.732E-01 0.728E-01 -.133E-01
   0.839E+01 -.367E+02 -.136E+04   -.958E+01 0.364E+02 0.136E+04   0.880E+00 0.100E+01 -.505E+01   0.347E+00 0.721E-02 -.123E+00
   0.897E+02 -.143E+03 0.880E+02   -.915E+02 0.145E+03 -.881E+02   0.135E+01 -.279E+01 -.350E+00   0.331E+00 -.969E-01 0.133E+00
   0.191E+02 -.473E+02 -.129E+04   -.201E+02 0.464E+02 0.129E+04   0.105E+01 0.125E+01 -.570E+01   -.122E+00 0.190E+00 -.783E-01
   0.117E+03 -.170E+03 0.281E+03   -.119E+03 0.172E+03 -.282E+03   0.182E+01 -.199E+01 -.891E+00   -.117E+00 0.172E+00 0.123E+00
   0.117E+03 -.208E+03 -.493E+03   -.118E+03 0.210E+03 0.492E+03   0.115E+01 -.140E+01 0.143E+01   -.271E+00 0.750E-01 -.548E-01
   -.153E+03 0.897E+02 0.111E+04   0.154E+03 -.908E+02 -.111E+04   -.125E+01 0.894E+00 0.406E+01   -.980E-01 0.378E-01 -.102E+00
   0.649E+02 0.344E+02 -.118E+04   -.655E+02 -.353E+02 0.119E+04   0.657E+00 0.105E+01 -.583E+01   -.206E+00 -.259E-01 0.191E-01
   0.151E+03 -.117E+03 0.443E+03   -.153E+03 0.119E+03 -.443E+03   0.137E+01 -.267E+01 -.167E+01   0.133E-01 0.188E+00 0.134E+00
   0.109E+03 -.136E+03 -.178E+03   -.111E+03 0.138E+03 0.177E+03   0.118E+01 -.240E+01 0.163E+01   0.270E+00 -.186E-01 0.348E-01
   0.199E+01 -.153E+03 0.130E+04   -.263E+01 0.156E+03 -.131E+04   0.729E+00 -.312E+01 0.443E+01   0.109E+00 0.520E-01 0.216E-01
   -.191E+03 -.379E-04 -.310E+03   0.193E+03 -.218E-11 0.310E+03   -.863E+00 0.353E-18 0.719E-01   -.364E+00 -.100E-05 0.100E+00
   -.229E+03 -.566E-04 0.364E+03   0.231E+03 -.721E-12 -.364E+03   -.178E+01 0.398E-18 0.165E+00   -.180E+00 0.127E-05 0.502E-01
   0.919E+01 -.511E-04 -.139E+04   -.102E+02 -.566E-12 0.140E+04   0.266E+01 -.289E-19 -.512E+01   -.316E+00 0.250E-05 -.518E-02
   -.131E+03 -.949E-04 -.986E+02   0.134E+03 -.153E-12 0.998E+02   -.260E+01 0.185E-18 -.118E+01   -.128E+00 0.399E-05 -.322E-01
   0.983E+02 -.541E-04 0.131E+04   -.988E+02 0.786E-12 -.131E+04   -.597E+00 0.198E-18 0.385E+01   -.119E-01 0.307E-05 -.171E-01
   -.158E+03 -.673E-04 -.672E+03   0.160E+03 0.166E-11 0.673E+03   -.287E+01 -.133E-19 0.394E+00   0.390E+00 0.195E-05 -.148E+00
   0.265E+01 -.512E-04 0.101E+04   -.432E+01 -.103E-11 -.102E+04   0.116E+01 0.132E-19 0.577E+01   0.248E+00 0.133E-05 0.134E-01
   0.235E+02 -.182E-04 0.115E+04   -.236E+02 -.291E-12 -.115E+04   0.153E+00 -.300E-19 0.447E+01   0.753E-01 0.905E-08 0.186E+00
   0.724E+02 0.114E-04 -.132E+04   -.734E+02 0.140E-13 0.132E+04   0.215E+01 -.797E-19 -.523E+01   0.568E-01 -.201E-05 0.616E-01
   -.182E+03 0.129E-04 0.161E+03   0.185E+03 0.251E-11 -.161E+03   -.208E+01 -.280E-18 -.123E+01   -.119E+00 -.262E-05 -.120E+00
   -.176E+03 0.628E-05 -.497E+03   0.178E+03 0.211E-11 0.498E+03   -.210E+01 -.101E-18 -.417E-01   0.892E-01 -.105E-05 0.457E-01
   0.569E+02 0.123E+03 0.137E+04   -.576E+02 -.125E+03 -.137E+04   0.114E+01 0.316E+01 0.461E+01   0.122E+00 0.620E-01 0.214E+00
   -.340E+02 0.104E+03 -.924E+03   0.344E+02 -.105E+03 0.926E+03   -.361E+00 0.173E+01 -.150E+01   0.474E-01 -.115E+00 -.144E+00
   0.523E+02 0.189E+03 0.606E+03   -.542E+02 -.191E+03 -.606E+03   0.212E+01 0.225E+01 -.194E+01   -.732E-01 -.728E-01 -.133E-01
   0.839E+01 0.367E+02 -.136E+04   -.958E+01 -.364E+02 0.136E+04   0.880E+00 -.100E+01 -.505E+01   0.347E+00 -.721E-02 -.123E+00
   0.897E+02 0.143E+03 0.880E+02   -.915E+02 -.145E+03 -.881E+02   0.135E+01 0.279E+01 -.350E+00   0.331E+00 0.969E-01 0.133E+00
   0.191E+02 0.473E+02 -.129E+04   -.201E+02 -.464E+02 0.129E+04   0.105E+01 -.125E+01 -.570E+01   -.122E+00 -.190E+00 -.783E-01
   0.117E+03 0.170E+03 0.281E+03   -.119E+03 -.172E+03 -.282E+03   0.182E+01 0.199E+01 -.891E+00   -.117E+00 -.172E+00 0.123E+00
   0.117E+03 0.208E+03 -.493E+03   -.118E+03 -.210E+03 0.492E+03   0.115E+01 0.140E+01 0.143E+01   -.271E+00 -.750E-01 -.548E-01
   -.153E+03 -.897E+02 0.111E+04   0.154E+03 0.908E+02 -.111E+04   -.125E+01 -.894E+00 0.406E+01   -.980E-01 -.378E-01 -.102E+00
   0.649E+02 -.344E+02 -.118E+04   -.655E+02 0.353E+02 0.119E+04   0.657E+00 -.105E+01 -.583E+01   -.206E+00 0.259E-01 0.191E-01
   0.151E+03 0.117E+03 0.443E+03   -.153E+03 -.119E+03 -.443E+03   0.137E+01 0.267E+01 -.167E+01   0.133E-01 -.188E+00 0.134E+00
   0.109E+03 0.136E+03 -.178E+03   -.111E+03 -.138E+03 0.177E+03   0.118E+01 0.240E+01 0.163E+01   0.270E+00 0.186E-01 0.348E-01
   0.199E+01 0.153E+03 0.130E+04   -.263E+01 -.156E+03 -.131E+04   0.729E+00 0.312E+01 0.443E+01   0.109E+00 -.520E-01 0.216E-01
 -----------------------------------------------------------------------------------------------
   -.379E+02 -.266E-01 0.304E+02   -.155E-11 -.142E-12 -.159E-11   0.362E+02 0.222E-14 -.347E+02   0.219E+01 0.376E-04 0.436E+01
 
 
 POSITION                                       TOTAL-FORCE (eV/Angst)
 -----------------------------------------------------------------------------------
      1.09704      8.84483      5.03429        -0.354467     -0.822690     -0.229032
      1.68071      8.84483      1.94975        -0.614293     -0.289869     -0.021980
      9.83122      4.05562      3.49202        -0.084225     -0.352622     -0.210266
     10.41489      4.05562      0.40748        -0.280865     -0.436155      1.766071
      4.00844      4.05562      4.52020         0.208881     -0.410491      0.294960
      4.59211      4.05562      1.43566         0.651048      0.346147      0.319142
     12.15895      8.84483      6.06247        -0.042190      0.624456     -1.715141
     12.74262      8.84483      2.97793         0.152179      0.125867     -0.214425
      6.91983      8.84483      4.00611         0.202100     -0.161317      0.262535
      7.50350      8.84483      0.92157        -0.151793     -0.271134      1.418797
     15.07034      4.05562      5.54838         0.179137     -0.499077     -0.855843
     15.65401      4.05562      2.46384         0.045882      0.089015     -0.320660
      7.09414      5.32096      6.16909        -0.744594     -0.000000     -1.725906
      7.67781      5.32096      3.08454         0.135324     -0.000000      0.145745
      8.26148      5.32096      0.00000        -0.715143     -0.000000      1.503380
     15.82832      0.53176      4.62682         0.341896     -0.000000      0.456632
     16.41199      0.53176      1.54227         0.003758     -0.000000     -0.517458
      1.85502      5.32096      4.11272        -0.026803     -0.000000      0.200880
      2.43869      5.32096      1.02818        -1.048233     -0.000000      1.490572
     10.00553      0.53176      5.65500        -0.247849     -0.000000     -1.090972
     10.58920      0.53176      2.57045        -0.281616     -0.000000     -0.298469
      4.76642      0.53176      3.59863        -0.412703     -0.000000      0.096506
      5.35009      0.53176      0.51409         0.538024     -0.000000      1.583726
     12.91693      5.32096      5.14091         1.124787     -0.000000     -1.282071
     13.50060      5.32096      2.05636         0.062873     -0.000000     -0.546455
      1.09704      1.79709      5.03429        -0.354467      0.822690     -0.229032
      1.68071      1.79709      1.94975        -0.614293      0.289869     -0.021980
      9.83122      6.58630      3.49202        -0.084225      0.352622     -0.210266
     10.41489      6.58630      0.40748        -0.280865      0.436155      1.766071
      4.00844      6.58630      4.52020         0.208881      0.410491      0.294960
      4.59211      6.58630      1.43566         0.651048     -0.346147      0.319142
     12.15895      1.79709      6.06247        -0.042190     -0.624456     -1.715141
     12.74262      1.79709      2.97793         0.152179     -0.125867     -0.214425
      6.91983      1.79709      4.00611         0.202100      0.161317      0.262535
      7.50350      1.79709      0.92157        -0.151793      0.271134      1.418797
     15.07034      6.58630      5.54838         0.179137      0.499077     -0.855843
     15.65401      6.58630      2.46384         0.045882     -0.089015     -0.320660
      0.35490      2.14299      0.02376         0.566759     -1.137589      1.408532
      7.92174      6.93219      4.65057         0.055612     -0.723990      0.455380
      8.50541      6.93219      1.56603         0.186190     -0.001863     -1.277776
     16.07225      2.14299      6.19284         0.034436      0.731397     -0.435540
     16.65592      2.14299      3.10830        -0.099716     -0.518478     -0.281555
      2.09895      6.93219      5.67875        -0.018149      0.556473     -0.455823
      2.68262      6.93219      2.59421         0.140018     -0.148931     -0.994735
     10.83313      2.14299      4.13648        -0.048421      0.290111      1.089829
     11.41680      2.14299      1.05194         0.073901     -0.183345     -0.066912
      5.01035      2.14299      5.16466        -0.143732      0.048581     -0.522904
      5.59402      2.14299      2.08012        -0.165186     -0.249484     -1.280525
     13.74453      6.93219      3.62239        -0.244048     -0.495193      0.744140
     14.32820      6.93219      0.53785         0.190261     -0.841047      1.331070
      2.51330      0.53176      3.62717        -0.023460     -0.000000      0.078392
     11.24749      5.32096      2.08489        -0.104576     -0.000000     -0.126916
      4.84103      5.32096      6.19762         1.370319     -0.000000     -0.262293
      5.42470      5.32096      3.11308        -0.190595     -0.000000      0.028689
      6.00837      5.32096      0.02853        -1.081261     -0.000000      0.065663
     13.57521      0.53176      4.65535        -0.384561     -0.000000      0.812413
     14.15888      0.53176      1.57080        -0.265387     -0.000000     -0.293423
      0.18558      5.32096      1.05671         0.140229     -0.000000     -0.511176
      7.75242      0.53176      5.68353         1.273984     -0.000000     -0.101207
      8.33609      0.53176      2.59898         0.110493     -0.000000     -0.856262
     16.48660      5.32096      4.14126        -0.453545     -0.000000      0.735330
      0.35490      8.49893      0.02376         0.566759      1.137589      1.408532
      7.92174      3.70973      4.65057         0.055612      0.723990      0.455380
      8.50541      3.70973      1.56603         0.186190      0.001863     -1.277776
     16.07225      8.49893      6.19284         0.034436     -0.731397     -0.435540
     16.65592      8.49893      3.10830        -0.099716      0.518478     -0.281555
      2.09895      3.70973      5.67875        -0.018149     -0.556473     -0.455823
      2.68262      3.70973      2.59421         0.140018      0.148931     -0.994735
     10.83313      8.49893      4.13648        -0.048421     -0.290111      1.089829
     11.41680      8.49893      1.05194         0.073901      0.183345     -0.066912
      5.01035      8.49893      5.16466        -0.143732     -0.048581     -0.522904
      5.59402      8.49893      2.08012        -0.165186      0.249484     -1.280525
     13.74453      3.70973      3.62239        -0.244048      0.495193      0.744140
     14.32820      3.70973      0.53785         0.190261      0.841047      1.331070
 -----------------------------------------------------------------------------------
    total drift:                                0.489562     -0.026586      0.050479


--------------------------------------------------------------------------------------------------------



  FREE ENERGIE OF THE ION-ELECTRON SYSTEM (eV)
  ---------------------------------------------------
  free  energy   TOTEN  =      -354.31209175 eV

  energy  without entropy=     -352.92321963  energy(sigma->0) =     -353.61765569
 


--------------------------------------------------------------------------------------------------------


    POTLOK:  cpu time    0.0532: real time    0.0542


--------------------------------------------------------------------------------------------------------


     LOOP+:  cpu time  105.7427: real time  106.0817
    4ORBIT:  cpu time    0.0000: real time    0.0000

 total amount of memory used by VASP MPI-rank0    46882. kBytes
=======================================================================

   base      :      30000. kBytes
   nonlr-proj:       2115. kBytes
   fftplans  :       3623. kBytes
   grid      :       6327. kBytes
   one-center:        101. kBytes
   wavefun   :       4716. kBytes
 
  
  
 General timing and accounting informations for this job:
 ========================================================
  
                  Total CPU time used (sec):      108.130
                            User time (sec):      107.323
                          System time (sec):        0.807
                         Elapsed time (sec):      108.989
  
                   Maximum memory used (kb):      256012.
                   Average memory used (kb):           0.
  
                          Minor page faults:       101060
                          Major page faults:            0
                 Voluntary context switches:          958
