  72  72   0   0
  0.2729146E+02  0.1007973E-08  0.1007973E-08  0.2068350E-08  0.5000000E-15
  1.000000000000000E-004
  CAR 
 "Millerite NiS"                         
     11.08254050    -66.28992040  301      1.41985132      1.00000000
    -66.290  0.0000E+00  0.0000E+00
    -66.032  0.0000E+00  0.0000E+00
    -65.774  0.0000E+00  0.0000E+00
    -65.516  0.0000E+00  0.0000E+00
    -65.258  0.0000E+00  0.0000E+00
    -65.000  0.0000E+00  0.0000E+00
    -64.742  0.0000E+00  0.0000E+00
    -64.485  0.0000E+00  0.0000E+00
    -64.227  0.0000E+00  0.0000E+00
    -63.969  0.0000E+00  0.0000E+00
    -63.711  0.5895E-09  0.1520E-09
    -63.453  0.3522E-04  0.9084E-05
    -63.195  0.9849E-01  0.2541E-01
    -62.937  0.1553E+02  0.4031E+01
    -62.679  0.1877E+03  0.5245E+02
    -62.421  0.2959E+03  0.1288E+03
    -62.163  0.1517E+03  0.1679E+03
    -61.905  0.7494E+02  0.1872E+03
    -61.648  0.5637E+02  0.2018E+03
    -61.390  0.3599E+02  0.2110E+03
    -61.132  0.1760E+02  0.2156E+03
    -60.874  0.1637E+01  0.2160E+03
    -60.616  0.1089E-01  0.2160E+03
    -60.358  0.3448E-05  0.2160E+03
    -60.100  0.4534E-10  0.2160E+03
    -59.842  0.0000E+00  0.2160E+03
    -59.584  0.0000E+00  0.2160E+03
    -59.326  0.0000E+00  0.2160E+03
    -59.068  0.0000E+00  0.2160E+03
    -58.811  0.0000E+00  0.2160E+03
    -58.553  0.0000E+00  0.2160E+03
    -58.295  0.0000E+00  0.2160E+03
    -58.037  0.0000E+00  0.2160E+03
    -57.779  0.0000E+00  0.2160E+03
    -57.521  0.0000E+00  0.2160E+03
    -57.263  0.0000E+00  0.2160E+03
    -57.005  0.0000E+00  0.2160E+03
    -56.747  0.0000E+00  0.2160E+03
    -56.489  0.0000E+00  0.2160E+03
    -56.232  0.0000E+00  0.2160E+03
    -55.974  0.0000E+00  0.2160E+03
    -55.716  0.0000E+00  0.2160E+03
    -55.458  0.0000E+00  0.2160E+03
    -55.200  0.0000E+00  0.2160E+03
    -54.942  0.0000E+00  0.2160E+03
    -54.684  0.0000E+00  0.2160E+03
    -54.426  0.0000E+00  0.2160E+03
    -54.168  0.0000E+00  0.2160E+03
    -53.910  0.0000E+00  0.2160E+03
    -53.652  0.0000E+00  0.2160E+03
    -53.395  0.0000E+00  0.2160E+03
    -53.137  0.0000E+00  0.2160E+03
    -52.879  0.0000E+00  0.2160E+03
    -52.621  0.0000E+00  0.2160E+03
    -52.363  0.0000E+00  0.2160E+03
    -52.105  0.0000E+00  0.2160E+03
    -51.847  0.0000E+00  0.2160E+03
    -51.589  0.0000E+00  0.2160E+03
    -51.331  0.0000E+00  0.2160E+03
    -51.073  0.0000E+00  0.2160E+03
    -50.815  0.0000E+00  0.2160E+03
    -50.558  0.0000E+00  0.2160E+03
    -50.300  0.0000E+00  0.2160E+03
    -50.042  0.0000E+00  0.2160E+03
    -49.784  0.0000E+00  0.2160E+03
    -49.526  0.0000E+00  0.2160E+03
    -49.268  0.0000E+00  0.2160E+03
    -49.010  0.0000E+00  0.2160E+03
    -48.752  0.0000E+00  0.2160E+03
    -48.494  0.0000E+00  0.2160E+03
    -48.236  0.0000E+00  0.2160E+03
    -47.978  0.0000E+00  0.2160E+03
    -47.721  0.0000E+00  0.2160E+03
    -47.463  0.0000E+00  0.2160E+03
    -47.205  0.0000E+00  0.2160E+03
    -46.947  0.0000E+00  0.2160E+03
    -46.689  0.0000E+00  0.2160E+03
    -46.431  0.0000E+00  0.2160E+03
    -46.173  0.0000E+00  0.2160E+03
    -45.915  0.0000E+00  0.2160E+03
    -45.657  0.0000E+00  0.2160E+03
    -45.399  0.0000E+00  0.2160E+03
    -45.141  0.0000E+00  0.2160E+03
    -44.884  0.0000E+00  0.2160E+03
    -44.626  0.0000E+00  0.2160E+03
    -44.368  0.0000E+00  0.2160E+03
    -44.110  0.0000E+00  0.2160E+03
    -43.852  0.0000E+00  0.2160E+03
    -43.594  0.0000E+00  0.2160E+03
    -43.336  0.0000E+00  0.2160E+03
    -43.078  0.0000E+00  0.2160E+03
    -42.820  0.0000E+00  0.2160E+03
    -42.562  0.0000E+00  0.2160E+03
    -42.304  0.0000E+00  0.2160E+03
    -42.047  0.0000E+00  0.2160E+03
    -41.789  0.0000E+00  0.2160E+03
    -41.531  0.0000E+00  0.2160E+03
    -41.273  0.0000E+00  0.2160E+03
    -41.015  0.0000E+00  0.2160E+03
    -40.757  0.0000E+00  0.2160E+03
    -40.499  0.0000E+00  0.2160E+03
    -40.241  0.0000E+00  0.2160E+03
    -39.983  0.0000E+00  0.2160E+03
    -39.725  0.0000E+00  0.2160E+03
    -39.467  0.0000E+00  0.2160E+03
    -39.210  0.0000E+00  0.2160E+03
    -38.952  0.0000E+00  0.2160E+03
    -38.694  0.0000E+00  0.2160E+03
    -38.436  0.0000E+00  0.2160E+03
    -38.178  0.0000E+00  0.2160E+03
    -37.920  0.0000E+00  0.2160E+03
    -37.662  0.0000E+00  0.2160E+03
    -37.404  0.0000E+00  0.2160E+03
    -37.146  0.0000E+00  0.2160E+03
    -36.888  0.0000E+00  0.2160E+03
    -36.630  0.0000E+00  0.2160E+03
    -36.373  0.0000E+00  0.2160E+03
    -36.115  0.0000E+00  0.2160E+03
    -35.857  0.0000E+00  0.2160E+03
    -35.599  0.0000E+00  0.2160E+03
    -35.341  0.0000E+00  0.2160E+03
    -35.083  0.0000E+00  0.2160E+03
    -34.825  0.0000E+00  0.2160E+03
    -34.567  0.0000E+00  0.2160E+03
    -34.309  0.0000E+00  0.2160E+03
    -34.051  0.0000E+00  0.2160E+03
    -33.793  0.0000E+00  0.2160E+03
    -33.536  0.0000E+00  0.2160E+03
    -33.278  0.0000E+00  0.2160E+03
    -33.020  0.0000E+00  0.2160E+03
    -32.762  0.0000E+00  0.2160E+03
    -32.504  0.0000E+00  0.2160E+03
    -32.246  0.0000E+00  0.2160E+03
    -31.988  0.0000E+00  0.2160E+03
    -31.730  0.0000E+00  0.2160E+03
    -31.472  0.0000E+00  0.2160E+03
    -31.214  0.0000E+00  0.2160E+03
    -30.956  0.0000E+00  0.2160E+03
    -30.699  0.0000E+00  0.2160E+03
    -30.441  0.0000E+00  0.2160E+03
    -30.183  0.0000E+00  0.2160E+03
    -29.925  0.0000E+00  0.2160E+03
    -29.667  0.0000E+00  0.2160E+03
    -29.409  0.0000E+00  0.2160E+03
    -29.151  0.0000E+00  0.2160E+03
    -28.893  0.0000E+00  0.2160E+03
    -28.635  0.0000E+00  0.2160E+03
    -28.377  0.0000E+00  0.2160E+03
    -28.120  0.0000E+00  0.2160E+03
    -27.862  0.0000E+00  0.2160E+03
    -27.604  0.0000E+00  0.2160E+03
    -27.346  0.0000E+00  0.2160E+03
    -27.088  0.0000E+00  0.2160E+03
    -26.830  0.0000E+00  0.2160E+03
    -26.572  0.0000E+00  0.2160E+03
    -26.314  0.0000E+00  0.2160E+03
    -26.056  0.0000E+00  0.2160E+03
    -25.798  0.0000E+00  0.2160E+03
    -25.540  0.0000E+00  0.2160E+03
    -25.283  0.0000E+00  0.2160E+03
    -25.025  0.0000E+00  0.2160E+03
    -24.767  0.0000E+00  0.2160E+03
    -24.509  0.0000E+00  0.2160E+03
    -24.251  0.0000E+00  0.2160E+03
    -23.993  0.0000E+00  0.2160E+03
    -23.735  0.0000E+00  0.2160E+03
    -23.477  0.0000E+00  0.2160E+03
    -23.219  0.0000E+00  0.2160E+03
    -22.961  0.0000E+00  0.2160E+03
    -22.703  0.0000E+00  0.2160E+03
    -22.446  0.0000E+00  0.2160E+03
    -22.188  0.0000E+00  0.2160E+03
    -21.930  0.0000E+00  0.2160E+03
    -21.672  0.0000E+00  0.2160E+03
    -21.414  0.0000E+00  0.2160E+03
    -21.156  0.0000E+00  0.2160E+03
    -20.898  0.0000E+00  0.2160E+03
    -20.640  0.0000E+00  0.2160E+03
    -20.382  0.0000E+00  0.2160E+03
    -20.124  0.0000E+00  0.2160E+03
    -19.866  0.0000E+00  0.2160E+03
    -19.609  0.0000E+00  0.2160E+03
    -19.351  0.0000E+00  0.2160E+03
    -19.093  0.0000E+00  0.2160E+03
    -18.835  0.0000E+00  0.2160E+03
    -18.577  0.0000E+00  0.2160E+03
    -18.319  0.0000E+00  0.2160E+03
    -18.061  0.0000E+00  0.2160E+03
    -17.803  0.0000E+00  0.2160E+03
    -17.545  0.0000E+00  0.2160E+03
    -17.287  0.0000E+00  0.2160E+03
    -17.029  0.0000E+00  0.2160E+03
    -16.772  0.0000E+00  0.2160E+03
    -16.514  0.0000E+00  0.2160E+03
    -16.256  0.0000E+00  0.2160E+03
    -15.998  0.0000E+00  0.2160E+03
    -15.740  0.0000E+00  0.2160E+03
    -15.482  0.0000E+00  0.2160E+03
    -15.224  0.8609E-15  0.2160E+03
    -14.966  0.5694E-09  0.2160E+03
    -14.708  0.1761E-04  0.2160E+03
    -14.450  0.2231E-01  0.2160E+03
    -14.192  0.1329E+01  0.2163E+03
    -13.935  0.4948E+01  0.2176E+03
    -13.677  0.1688E+01  0.2181E+03
    -13.419  0.5200E+01  0.2194E+03
    -13.161  0.1705E+02  0.2238E+03
    -12.903  0.2000E+02  0.2290E+03
    -12.645  0.2897E+02  0.2364E+03
    -12.387  0.2751E+02  0.2435E+03
    -12.129  0.3375E+02  0.2522E+03
    -11.871  0.3574E+02  0.2614E+03
    -11.613  0.2708E+02  0.2684E+03
    -11.355  0.2254E+02  0.2742E+03
    -11.098  0.2015E+02  0.2794E+03
    -10.840  0.1738E+02  0.2839E+03
    -10.582  0.1036E+02  0.2866E+03
    -10.324  0.4892E+01  0.2879E+03
    -10.066  0.5508E+00  0.2880E+03
     -9.808  0.3883E-02  0.2880E+03
     -9.550  0.1225E-05  0.2880E+03
     -9.292  0.1548E-10  0.2880E+03
     -9.034  0.0000E+00  0.2880E+03
     -8.776  0.0000E+00  0.2880E+03
     -8.518  0.0000E+00  0.2880E+03
     -8.261  0.0000E+00  0.2880E+03
     -8.003  0.0000E+00  0.2880E+03
     -7.745  0.0000E+00  0.2880E+03
     -7.487  0.0000E+00  0.2880E+03
     -7.229  0.0000E+00  0.2880E+03
     -6.971  0.8609E-15  0.2880E+03
     -6.713  0.8722E-09  0.2880E+03
     -6.455  0.2742E-04  0.2880E+03
     -6.197  0.3777E-01  0.2880E+03
     -5.939  0.2722E+01  0.2887E+03
     -5.681  0.1471E+02  0.2925E+03
     -5.424  0.1686E+02  0.2969E+03
     -5.166  0.2633E+02  0.3036E+03
     -4.908  0.4240E+02  0.3146E+03
     -4.650  0.5353E+02  0.3284E+03
     -4.392  0.4701E+02  0.3405E+03
     -4.134  0.3549E+02  0.3497E+03
     -3.876  0.3847E+02  0.3596E+03
     -3.618  0.3676E+02  0.3691E+03
     -3.360  0.4405E+02  0.3804E+03
     -3.102  0.6230E+02  0.3965E+03
     -2.845  0.7517E+02  0.4159E+03
     -2.587  0.7369E+02  0.4349E+03
     -2.329  0.7175E+02  0.4534E+03
     -2.071  0.5587E+02  0.4678E+03
     -1.813  0.4729E+02  0.4800E+03
     -1.555  0.4992E+02  0.4929E+03
     -1.297  0.5608E+02  0.5073E+03
     -1.039  0.6882E+02  0.5251E+03
     -0.781  0.9823E+02  0.5504E+03
     -0.523  0.1213E+03  0.5817E+03
     -0.265  0.1623E+03  0.6236E+03
     -0.008  0.1742E+03  0.6685E+03
      0.250  0.1369E+03  0.7038E+03
      0.508  0.1007E+03  0.7298E+03
      0.766  0.9279E+02  0.7537E+03
      1.024  0.7119E+02  0.7721E+03
      1.282  0.5101E+02  0.7852E+03
      1.540  0.5011E+02  0.7982E+03
      1.798  0.5831E+02  0.8132E+03
      2.056  0.6147E+02  0.8290E+03
      2.314  0.6194E+02  0.8450E+03
      2.572  0.5247E+02  0.8586E+03
      2.829  0.2355E+02  0.8646E+03
      3.087  0.5868E+01  0.8661E+03
      3.345  0.6161E+01  0.8677E+03
      3.603  0.7369E+01  0.8696E+03
      3.861  0.5364E+01  0.8710E+03
      4.119  0.3722E+01  0.8720E+03
      4.377  0.4759E+01  0.8732E+03
      4.635  0.1703E+02  0.8776E+03
      4.893  0.2002E+02  0.8828E+03
      5.151  0.1302E+02  0.8861E+03
      5.409  0.1238E+02  0.8893E+03
      5.666  0.2056E+02  0.8946E+03
      5.924  0.2760E+02  0.9017E+03
      6.182  0.2808E+02  0.9090E+03
      6.440  0.2692E+02  0.9159E+03
      6.698  0.2678E+02  0.9228E+03
      6.956  0.3216E+02  0.9311E+03
      7.214  0.4243E+02  0.9421E+03
      7.472  0.4325E+02  0.9532E+03
      7.730  0.2387E+02  0.9594E+03
      7.988  0.2426E+01  0.9600E+03
      8.246  0.1991E-01  0.9600E+03
      8.503  0.8602E-05  0.9600E+03
      8.761  0.1629E-09  0.9600E+03
      9.019  0.0000E+00  0.9600E+03
      9.277  0.0000E+00  0.9600E+03
      9.535  0.0000E+00  0.9600E+03
      9.793  0.0000E+00  0.9600E+03
     10.051  0.0000E+00  0.9600E+03
     10.309  0.0000E+00  0.9600E+03
     10.567  0.0000E+00  0.9600E+03
     10.825  0.0000E+00  0.9600E+03
     11.083  0.0000E+00  0.9600E+03
