       N       E                     dE             d eps       ncg     rms          rms(c)
DAV:   1     0.973123262699E+04    0.97312E+04   -0.50852E+05  1168   0.163E+03
DAV:   2     0.592216471461E+03   -0.91390E+04   -0.88119E+04  1016   0.524E+02
DAV:   3    -0.344623043579E+03   -0.93684E+03   -0.88483E+03  1088   0.179E+02
DAV:   4    -0.405527535406E+03   -0.60904E+02   -0.60171E+02  1152   0.404E+01
DAV:   5    -0.407648743122E+03   -0.21212E+01   -0.21183E+01  1200   0.795E+00    0.825E+01
DAV:   6    -0.490313197199E+03   -0.82664E+02   -0.96136E+02  1152   0.117E+02    0.155E+02
DAV:   7    -0.378188398836E+03    0.11212E+03   -0.17874E+02  1144   0.666E+01    0.651E+01
DAV:   8    -0.546414345735E+03   -0.16823E+03   -0.12208E+02  1168   0.116E+02    0.180E+02
DAV:   9    -0.395701099685E+03    0.15071E+03   -0.18353E+02  1280   0.593E+01    0.832E+01
DAV:  10    -0.374261772605E+03    0.21439E+02   -0.74092E+01  1424   0.449E+01    0.610E+01
DAV:  11    -0.377041514218E+03   -0.27797E+01   -0.66404E+01  1336   0.444E+01    0.681E+01
DAV:  12    -0.373457470741E+03    0.35840E+01   -0.59720E+01  1328   0.301E+01    0.441E+01
DAV:  13    -0.365516568347E+03    0.79409E+01   -0.22847E+01  1264   0.330E+01    0.375E+01
DAV:  14    -0.364435691957E+03    0.10809E+01   -0.23395E+01  1296   0.236E+01    0.314E+01
DAV:  15    -0.360854198246E+03    0.35815E+01   -0.65004E+00  1240   0.169E+01    0.234E+01
DAV:  16    -0.359396473350E+03    0.14577E+01   -0.36249E+00  1328   0.113E+01    0.189E+01
DAV:  17    -0.358467687520E+03    0.92879E+00   -0.13830E+00  1264   0.741E+00    0.138E+01
DAV:  18    -0.358177433129E+03    0.29025E+00   -0.95854E-01  1288   0.676E+00    0.118E+01
DAV:  19    -0.358102499390E+03    0.74934E-01   -0.94544E-01  1296   0.597E+00    0.110E+01
DAV:  20    -0.357905685457E+03    0.19681E+00   -0.71477E-01  1296   0.551E+00    0.898E+00
DAV:  21    -0.357683792703E+03    0.22189E+00   -0.59355E-01  1304   0.518E+00    0.618E+00
DAV:  22    -0.357646345334E+03    0.37447E-01   -0.49741E-01  1280   0.397E+00    0.551E+00
DAV:  23    -0.357570286236E+03    0.76059E-01   -0.25429E-01  1272   0.330E+00    0.357E+00
DAV:  24    -0.357594067666E+03   -0.23781E-01   -0.18891E-01  1312   0.221E+00    0.403E+00
DAV:  25    -0.357549820747E+03    0.44247E-01   -0.70534E-02  1304   0.150E+00    0.275E+00
DAV:  26    -0.357548134658E+03    0.16861E-02   -0.40893E-02  1304   0.141E+00    0.269E+00
DAV:  27    -0.357529016675E+03    0.19118E-01   -0.63723E-02  1304   0.166E+00    0.179E+00
DAV:  28    -0.357528403850E+03    0.61283E-03   -0.44967E-02  1352   0.137E+00    0.175E+00
DAV:  29    -0.357516907448E+03    0.11496E-01   -0.25034E-02  1160   0.111E+00    0.736E-01
DAV:  30    -0.357517873567E+03   -0.96612E-03   -0.71041E-03  1280   0.509E-01    0.766E-01
DAV:  31    -0.357516275693E+03    0.15979E-02   -0.35520E-03  1216   0.390E-01    0.403E-01
DAV:  32    -0.357516320803E+03   -0.45109E-04   -0.13552E-03  1112   0.262E-01    0.361E-01
DAV:  33    -0.357516268823E+03    0.51980E-04   -0.88621E-04  1000   0.208E-01
   1 F= -.35751627E+03 E0= -.35701664E+03  d E =-.999263E+00
