LAMMPS data file via write_data, version 5 Jun 2019, timestep = 39

54 atoms
2 atom types

0.0000000000000000e+00 9.5784099999999999e+00 xlo xhi
0.0000000000000000e+00 8.8693028200999997e+00 ylo yhi
0.0000000000000000e+00 1.9011135740000000e+01 zlo zhi
-4.7892049999999999e+00 0.0000000000000000e+00 0.0000000000000000e+00 xy xz yz

Masses

1 58.71
2 32.06

Atoms # atomic

1 1 6.2639191289923222e+00 2.3016908392712823e-01 3.2838948936393213e+00 0 1 0
2 1 1.7973757104999999e+00 7.0064240171999996e+00 4.8934299332000002e+00 0 0 0
3 1 1.6741226249243450e+00 6.0486409606302720e+00 7.4990108987335562e+00 0 0 0
4 1 1.7973757057000004e+00 1.4639370387999999e+00 3.9147439464999998e+00 0 0 0
5 1 1.7973757009000004e+00 3.5279233360000001e-01 6.8508019063999992e+00 0 0 0
6 1 -1.5322754477474070e+00 5.0073330790191353e+00 7.5858671925648924e-01 0 0 0
7 1 6.5865807057000003e+00 4.7907528894000002e+00 2.9360579598999990e+00 0 0 0
8 1 6.5865807057000012e+00 3.6796081753999998e+00 5.8721159197999979e+00 0 0 0
9 1 6.1036316077579400e+00 3.1063442305249844e+00 8.1626210200908744e+00 0 0 0
10 1 3.1082752395704714e+00 7.1335790998702482e+00 2.7396931638296174e+00 0 0 0
11 1 3.0627123971000003e+00 4.9566720992000004e+00 4.1177058050999999e+00 0 0 0
12 1 3.0627124066999993e+00 3.8455273851000000e+00 7.0537637649999985e+00 0 0 0
13 1 3.0314661410374142e+00 1.6373576115001285e+00 1.7382530178467461e+00 0 0 0
14 1 -1.7264925981000008e+00 8.2834879410000006e+00 3.1390198184000000e+00 0 0 0
15 1 -1.7264925981000001e+00 7.1723432268999998e+00 6.0750777782999998e+00 0 0 0
16 1 -1.7383069833135081e+00 6.1487280408830465e+00 8.2538202691773392e+00 0 0 0
17 1 7.8519174067000019e+00 2.7410009625999998e+00 2.1603338318000000e+00 0 0 0
18 1 7.8519174019000006e+00 1.6298562574000000e+00 5.0963917917000003e+00 0 0 0
19 1 7.8529272914092054e+00 5.6596521677203715e-01 7.5381808923252231e+00 0 0 0
20 1 4.3280491029000006e+00 7.0064240171999996e+00 4.8934299332000002e+00 0 0 0
21 1 4.4434088533414604e+00 6.0442097729701123e+00 7.5045756811409881e+00 0 0 0
22 1 5.5357945024933519e+00 2.2833160501044212e+00 1.9061205300617292e+00 0 0 0
23 1 4.3280490981000019e+00 1.4639370387999999e+00 3.9147439464999998e+00 0 0 0
24 1 4.3280490933000006e+00 3.5279233360000001e-01 6.8508019063999992e+00 0 0 0
25 1 -4.6115590189999989e-01 4.7907528894000002e+00 2.9360579598999990e+00 0 0 0
26 1 -4.6115590189999983e-01 3.6796081753999998e+00 5.8721159197999979e+00 0 0 0
27 1 2.5639944285789411e-02 3.1074938768944698e+00 8.1579971406312488e+00 0 0 0
28 2 4.7029292887766330e+00 5.8553604492196216e+00 3.1443336944298999e+00 0 0 0
29 2 4.6739446400000020e+00 4.8705796835999999e+00 5.8449573907000003e+00 0 0 0
30 2 4.4722445480687769e+00 4.2470601308977134e+00 8.5300890420267734e+00 0 0 0
31 2 4.6739446351999998e+00 4.3923741929999999e-01 1.9302134441999996e+00 0 0 0
32 2 -1.1526035520000011e-01 8.1973955253999993e+00 4.8662714040999999e+00 0 0 0
33 2 -1.4010071022015913e-01 7.2033361536037761e+00 7.5211275460326545e+00 0 0 0
34 2 -1.1558056563372512e-01 3.6697193007030142e+00 1.2418514428826619e+00 0 0 0
35 2 -1.1526035999999999e-01 2.6549085469999998e+00 3.8875854175000000e+00 0 0 0
36 2 -1.1526036000000002e-01 1.5437638330000001e+00 6.8236433772999998e+00 0 0 0
37 2 7.2073886353717391e+00 9.1424321056279012e-01 1.5417369437529858e+00 0 0 0
38 2 3.2319842904887461e+00 8.6029657368753298e+00 4.2252231098589776e+00 0 0 0
39 2 3.0627124019000007e+00 7.4806568139999996e+00 6.8327353579999999e+00 0 0 0
40 2 3.0715337661827014e+00 3.0493981413573272e+00 3.2286954537014538e+00 0 0 0
41 2 3.0627124067000002e+00 1.9381698355999999e+00 5.8540493713000004e+00 0 0 0
42 2 3.0618084047360825e+00 6.2573729283920054e-01 8.3874225722351170e+00 0 0 0
43 2 -1.7221855631500029e+00 6.3613824193642126e+00 2.2777262795184843e+00 0 0 0
44 2 -1.7264925981000010e+00 5.2649856774000003e+00 4.8753633847000000e+00 0 0 0
45 2 -1.7264926029000003e+00 4.1538409722000003e+00 7.8114213445999976e+00 0 0 0
46 2 1.4514801685000001e+00 5.9817243888000000e+00 2.9088994307999996e+00 0 0 0
47 2 1.4514801637000001e+00 4.8705796835999999e+00 5.8449573907000003e+00 0 0 0
48 2 1.6532837724326610e+00 4.2529897354071968e+00 8.5284357871526133e+00 0 0 0
49 2 1.5207533558093977e+00 3.7743503652798233e-01 2.1896594709457053e+00 0 0 0
50 2 -3.3377248315000001e+00 8.1973955253999993e+00 4.8662714040999999e+00 0 0 0
51 2 -3.3266770214906574e+00 7.2062634859420740e+00 7.5060088028717669e+00 0 0 0
52 2 6.3815963934516597e+00 3.9119133270231448e+00 1.0219226645278721e+00 0 0 0
53 2 6.2406851637000003e+00 2.6549085469999998e+00 3.8875854175000000e+00 0 0 0
54 2 6.2406851637000011e+00 1.5437638330000001e+00 6.8236433772999998e+00 0 0 0

Velocities

1 0.0000000000000000e+00 0.0000000000000000e+00 0.0000000000000000e+00
2 0.0000000000000000e+00 0.0000000000000000e+00 0.0000000000000000e+00
3 0.0000000000000000e+00 0.0000000000000000e+00 0.0000000000000000e+00
4 0.0000000000000000e+00 0.0000000000000000e+00 0.0000000000000000e+00
5 0.0000000000000000e+00 0.0000000000000000e+00 0.0000000000000000e+00
6 0.0000000000000000e+00 0.0000000000000000e+00 0.0000000000000000e+00
7 0.0000000000000000e+00 0.0000000000000000e+00 0.0000000000000000e+00
8 0.0000000000000000e+00 0.0000000000000000e+00 0.0000000000000000e+00
9 0.0000000000000000e+00 0.0000000000000000e+00 0.0000000000000000e+00
10 0.0000000000000000e+00 0.0000000000000000e+00 0.0000000000000000e+00
11 0.0000000000000000e+00 0.0000000000000000e+00 0.0000000000000000e+00
12 0.0000000000000000e+00 0.0000000000000000e+00 0.0000000000000000e+00
13 0.0000000000000000e+00 0.0000000000000000e+00 0.0000000000000000e+00
14 0.0000000000000000e+00 0.0000000000000000e+00 0.0000000000000000e+00
15 0.0000000000000000e+00 0.0000000000000000e+00 0.0000000000000000e+00
16 0.0000000000000000e+00 0.0000000000000000e+00 0.0000000000000000e+00
17 0.0000000000000000e+00 0.0000000000000000e+00 0.0000000000000000e+00
18 0.0000000000000000e+00 0.0000000000000000e+00 0.0000000000000000e+00
19 0.0000000000000000e+00 0.0000000000000000e+00 0.0000000000000000e+00
20 0.0000000000000000e+00 0.0000000000000000e+00 0.0000000000000000e+00
21 0.0000000000000000e+00 0.0000000000000000e+00 0.0000000000000000e+00
22 0.0000000000000000e+00 0.0000000000000000e+00 0.0000000000000000e+00
23 0.0000000000000000e+00 0.0000000000000000e+00 0.0000000000000000e+00
24 0.0000000000000000e+00 0.0000000000000000e+00 0.0000000000000000e+00
25 0.0000000000000000e+00 0.0000000000000000e+00 0.0000000000000000e+00
26 0.0000000000000000e+00 0.0000000000000000e+00 0.0000000000000000e+00
27 0.0000000000000000e+00 0.0000000000000000e+00 0.0000000000000000e+00
28 0.0000000000000000e+00 0.0000000000000000e+00 0.0000000000000000e+00
29 0.0000000000000000e+00 0.0000000000000000e+00 0.0000000000000000e+00
30 0.0000000000000000e+00 0.0000000000000000e+00 0.0000000000000000e+00
31 0.0000000000000000e+00 0.0000000000000000e+00 0.0000000000000000e+00
32 0.0000000000000000e+00 0.0000000000000000e+00 0.0000000000000000e+00
33 0.0000000000000000e+00 0.0000000000000000e+00 0.0000000000000000e+00
34 0.0000000000000000e+00 0.0000000000000000e+00 0.0000000000000000e+00
35 0.0000000000000000e+00 0.0000000000000000e+00 0.0000000000000000e+00
36 0.0000000000000000e+00 0.0000000000000000e+00 0.0000000000000000e+00
37 0.0000000000000000e+00 0.0000000000000000e+00 0.0000000000000000e+00
38 0.0000000000000000e+00 0.0000000000000000e+00 0.0000000000000000e+00
39 0.0000000000000000e+00 0.0000000000000000e+00 0.0000000000000000e+00
40 0.0000000000000000e+00 0.0000000000000000e+00 0.0000000000000000e+00
41 0.0000000000000000e+00 0.0000000000000000e+00 0.0000000000000000e+00
42 0.0000000000000000e+00 0.0000000000000000e+00 0.0000000000000000e+00
43 0.0000000000000000e+00 0.0000000000000000e+00 0.0000000000000000e+00
44 0.0000000000000000e+00 0.0000000000000000e+00 0.0000000000000000e+00
45 0.0000000000000000e+00 0.0000000000000000e+00 0.0000000000000000e+00
46 0.0000000000000000e+00 0.0000000000000000e+00 0.0000000000000000e+00
47 0.0000000000000000e+00 0.0000000000000000e+00 0.0000000000000000e+00
48 0.0000000000000000e+00 0.0000000000000000e+00 0.0000000000000000e+00
49 0.0000000000000000e+00 0.0000000000000000e+00 0.0000000000000000e+00
50 0.0000000000000000e+00 0.0000000000000000e+00 0.0000000000000000e+00
51 0.0000000000000000e+00 0.0000000000000000e+00 0.0000000000000000e+00
52 0.0000000000000000e+00 0.0000000000000000e+00 0.0000000000000000e+00
53 0.0000000000000000e+00 0.0000000000000000e+00 0.0000000000000000e+00
54 0.0000000000000000e+00 0.0000000000000000e+00 0.0000000000000000e+00
