 vasp.5.4.4.18Apr17-6-g9f103f2a35 (build Aug 13 2019 17:33:20) gamma-only       
  
 executed on             LinuxIFC date 2020.05.14  13:07:47
 running on   12 total cores
 distrk:  each k-point on   12 cores,    1 groups
 distr:  one band on NCORES_PER_BAND=   6 cores,    2 groups


--------------------------------------------------------------------------------------------------------


 INCAR:
 POTCAR:    PAW_PBE Ni_pv 06Sep2000               
 POTCAR:    PAW_PBE S 06Sep2000                   
 POTCAR:    PAW_PBE Ni_pv 06Sep2000               
   VRHFIN =Ni:                                                                  
   LEXCH  = PE                                                                  
   EATOM  =  3501.1230 eV,  257.3253 Ry                                         
                                                                                
   TITEL  = PAW_PBE Ni_pv 06Sep2000                                             
   LULTRA =        F    use ultrasoft PP ?                                      
   IUNSCR =        1    unscreen: 0-lin 1-nonlin 2-no                           
   RPACOR =    1.500    partial core radius                                     
   POMASS =   58.690; ZVAL   =   16.000    mass and valenz                      
   RCORE  =    2.000    outmost cutoff radius                                   
   RWIGS  =    2.000; RWIGS  =    1.058    wigner-seitz radius (au A)           
   ENMAX  =  367.986; ENMIN  =  275.989 eV                                      
   RCLOC  =    1.301    cutoff for local pot                                    
   LCOR   =        T    correct aug charges                                     
   LPAW   =        T    paw PP                                                  
   EAUG   =  703.443                                                            
   DEXC   =    0.000                                                            
   RMAX   =    2.041    core radius for proj-oper                               
   RAUG   =    1.300    factor for augmentation sphere                          
   RDEP   =    2.103    radius for radial grids                                 
   RDEPT  =    1.618    core radius for aug-charge                              
                                                                                
   Atomic configuration                                                         
    8 entries                                                                   
     n  l   j            E        occ.                                          
     1  0  0.50     -8206.4253   2.0000                                         
     2  0  0.50      -976.1748   2.0000                                         
     2  1  1.50      -839.0571   6.0000                                         
     3  0  0.50      -105.9991   2.0000                                         
     3  1  1.50       -66.4603   6.0000                                         
     3  2  2.50        -4.6458   9.0000                                         
     4  0  0.50        -4.4926   1.0000                                         
     4  3  2.50        -1.3606   0.0000                                         
   Description                                                                  
     l       E           TYP  RCUT    TYP  RCUT                                 
     1    -66.4602962     23  1.700                                             
     1     -1.3605826     23  1.700                                             
     2     -4.6457867     23  2.000                                             
     2     -6.0063693     23  2.000                                             
     0     -4.4925576     23  1.900                                             
     0     16.3626226     23  1.900                                             
  local pseudopotential read in
  partial core-charges read in
  partial kinetic energy density read in
  atomic valenz-charges read in
  non local Contribution for L=           1  read in
    real space projection operators read in
  non local Contribution for L=           1  read in
    real space projection operators read in
  non local Contribution for L=           2  read in
    real space projection operators read in
  non local Contribution for L=           2  read in
    real space projection operators read in
  non local Contribution for L=           0  read in
    real space projection operators read in
  non local Contribution for L=           0  read in
    real space projection operators read in
    PAW grid and wavefunctions read in
 
   number of l-projection  operators is LMAX  =           6
   number of lm-projection operators is LMMAX =          18
 
 POTCAR:    PAW_PBE S 06Sep2000                   
   VRHFIN =S : s2p4                                                             
   LEXCH  = PE                                                                  
   EATOM  =   276.8230 eV,   20.3459 Ry                                         
                                                                                
   TITEL  = PAW_PBE S 06Sep2000                                                 
   LULTRA =        F    use ultrasoft PP ?                                      
   IUNSCR =        1    unscreen: 0-lin 1-nonlin 2-no                           
   RPACOR =    1.500    partial core radius                                     
   POMASS =   32.066; ZVAL   =    6.000    mass and valenz                      
   RCORE  =    1.900    outmost cutoff radius                                   
   RWIGS  =    2.200; RWIGS  =    1.164    wigner-seitz radius (au A)           
   ENMAX  =  258.689; ENMIN  =  194.016 eV                                      
   ICORE  =        2    local potential                                         
   LCOR   =        T    correct aug charges                                     
   LPAW   =        T    paw PP                                                  
   EAUG   =  335.092                                                            
   DEXC   =    0.000                                                            
   RMAX   =    1.942    core radius for proj-oper                               
   RAUG   =    1.300    factor for augmentation sphere                          
   RDEP   =    1.954    radius for radial grids                                 
   RDEPT  =    1.744    core radius for aug-charge                              
                                                                                
   Atomic configuration                                                         
    6 entries                                                                   
     n  l   j            E        occ.                                          
     1  0  0.50     -2405.8406   2.0000                                         
     2  0  0.50      -211.7007   2.0000                                         
     2  1  1.50      -156.4958   6.0000                                         
     3  0  0.50       -17.2562   2.0000                                         
     3  1  0.50        -7.0085   4.0000                                         
     3  2  1.50        -6.8029   0.0000                                         
   Description                                                                  
     l       E           TYP  RCUT    TYP  RCUT                                 
     0    -17.2561641     23  1.900                                             
     0    -15.8743224     23  1.900                                             
     1     -7.0085400     23  1.900                                             
     1     -2.7779785     23  1.900                                             
     2     -6.8029130     23  1.900                                             
  local pseudopotential read in
  partial core-charges read in
  partial kinetic energy density read in
  atomic valenz-charges read in
  non local Contribution for L=           0  read in
    real space projection operators read in
  non local Contribution for L=           0  read in
    real space projection operators read in
  non local Contribution for L=           1  read in
    real space projection operators read in
  non local Contribution for L=           1  read in
    real space projection operators read in
    PAW grid and wavefunctions read in
 
   number of l-projection  operators is LMAX  =           4
   number of lm-projection operators is LMMAX =           8
 
 Optimization of the real space projectors (new method)

 maximal supplied QI-value         = 18.90
 optimisation between [QCUT,QGAM] = [ 10.77, 21.73] = [ 32.49,132.25] Ry 
 Optimized for a Real-space Cutoff    1.38 Angstroem

   l    n(q)    QCUT    max X(q) W(low)/X(q) W(high)/X(q)  e(spline) 
   1      8    10.771     2.836    0.40E-04    0.29E-04    0.12E-06
   1      8    10.771     4.023    0.10E-03    0.48E-04    0.29E-06
   2      8    10.771    73.368    0.42E-03    0.97E-04    0.44E-06
   2      8    10.771    69.010    0.42E-03    0.99E-04    0.45E-06
   0      9    10.771    54.797    0.10E-03    0.56E-04    0.74E-07
   0      9    10.771    24.266    0.89E-04    0.49E-04    0.67E-07
 Optimization of the real space projectors (new method)

 maximal supplied QI-value         = 19.84
 optimisation between [QCUT,QGAM] = [ 10.71, 21.63] = [ 32.15,130.99] Ry 
 Optimized for a Real-space Cutoff    1.19 Angstroem

   l    n(q)    QCUT    max X(q) W(low)/X(q) W(high)/X(q)  e(spline) 
   0      8    10.715   187.594    0.41E-03    0.53E-04    0.66E-07
   0      8    10.715   164.243    0.41E-03    0.53E-04    0.65E-07
   1      7    10.715    67.533    0.19E-03    0.59E-03    0.68E-07
   1      7    10.715    50.729    0.19E-03    0.58E-03    0.67E-07
  PAW_PBE Ni_pv 06Sep2000               :
 energy of atom  1       EATOM=-3501.1230
 kinetic energy error for atom=    0.0925 (will be added to EATOM!!)
  PAW_PBE S 06Sep2000                   :
 energy of atom  2       EATOM= -276.8230
 kinetic energy error for atom=    0.0033 (will be added to EATOM!!)
 
 
 POSCAR: Type_036 Type_136                       
  positions in cartesian coordinates
  No initial velocities read in
 exchange correlation table for  LEXCH =        8
   RHO(1)=    0.500       N(1)  =     2000
   RHO(2)=  100.500       N(2)  =     4000
 


--------------------------------------------------------------------------------------------------------


 ion  position               nearest neighbor table
   1  0.406  0.788  0.138-  49 2.01  62 2.11  61 2.18  42 2.23  50 2.28
   2  0.547  0.645  0.245-  50 2.07  43 2.25  62 2.26  63 2.36  51 2.36  26 2.53  14 2.53
   3  0.698  0.494  0.372-  52 2.13  44 2.25  51 2.26  63 2.26  64 2.36  15 2.53  27 2.53
   4  0.855  0.224  0.418-  64 2.07  40 2.10  52 2.11  37 2.40  15 2.49  16 2.53  27 2.53
   5  0.114  0.412  0.160-  53 2.12  45 2.25  68 2.26   8 2.29  54 2.36  65 2.36  28 2.53  17 2.53

   6  0.264  0.261  0.287-  66 2.10  46 2.25  65 2.26  54 2.26  55 2.36  18 2.53  29 2.53
   7  0.414  0.111  0.414-  56 2.02  66 2.13  55 2.26  47 2.30  67 2.43  30 2.53  19 2.53
   8  0.982  0.594  0.096-  48 1.99  45 2.13  68 2.21  53 2.21   5 2.29  21 2.47
   9  0.110  0.758  0.443-  58 2.03  72 2.07  59 2.11  37 2.14
  10  0.642  0.227  0.137-  38 2.09  70 2.09  69 2.22  39 2.32  14 2.48  36 2.51
  11  0.831  0.028  0.203-  39 2.25  60 2.26  70 2.26  57 2.36  71 2.36  24 2.53  32 2.53
  12  0.981  0.878  0.330-  40 2.19  57 2.26  71 2.26  58 2.36  72 2.36  16 2.42  37 2.43  33 2.53
                            25 2.53
  13  0.349  0.559  0.104-  62 2.03  61 2.09  53 2.12  38 2.14
  14  0.508  0.420  0.212-  38 2.09  54 2.25  62 2.26  39 2.36  63 2.36  10 2.48  26 2.53   2 2.53

  15  0.658  0.270  0.338-  55 2.25  40 2.26  63 2.26  39 2.26  64 2.36   4 2.49   3 2.53  27 2.53

  16  0.778  0.017  0.394-  56 2.05  37 2.08  40 2.09  12 2.42  30 2.48   4 2.53  31 2.53
  17  0.074  0.187  0.127-  41 2.07  60 2.25  68 2.26  42 2.36  65 2.36  21 2.52  28 2.53   5 2.53

  18  0.224  0.037  0.254-  66 2.12  57 2.25  42 2.26  65 2.26  43 2.36   6 2.53  29 2.53
  19  0.375  0.886  0.381-  67 1.99  66 2.14  58 2.25  43 2.26  20 2.35  44 2.36  30 2.53   7 2.53

  20  0.428  0.700  0.455-  59 2.05  67 2.12  44 2.13  19 2.35
  21  0.071  0.363  0.039-  41 2.02  68 2.05  53 2.07   8 2.47  28 2.49  17 2.52
  22  0.076  0.507  0.407-  46 2.01  72 2.15  52 2.26  47 2.26
  23  0.484  0.991  0.091-  49 2.01  70 2.08  69 2.11  42 2.14  28 2.45
  24  0.791  0.804  0.169-  50 2.19  70 2.26  48 2.26  71 2.36  45 2.36  11 2.53  32 2.53
  25  0.941  0.653  0.296-  51 2.25  71 2.26  45 2.26  46 2.36  72 2.36  33 2.53  12 2.53
  26  0.732  0.460  0.178-  38 2.11  50 2.19  68 2.25  51 2.36  39 2.36  14 2.53   2 2.53
  27  0.882  0.310  0.305-  40 2.09  52 2.13  65 2.25  39 2.26  51 2.26   3 2.53  15 2.53   4 2.53

  28  0.299  0.227  0.093-  41 2.07  69 2.15  53 2.23  54 2.36  42 2.36  23 2.45  21 2.49   5 2.53
                            17 2.53
  29  0.449  0.076  0.220-  70 2.25  42 2.26  54 2.26  43 2.36  55 2.36  18 2.53   6 2.53
  30  0.599  0.926  0.347-  71 2.25  43 2.26  55 2.26  56 2.33  44 2.36  16 2.48  31 2.52   7 2.53
                            19 2.53
  31  0.737  0.807  0.446-  56 2.03  44 2.03  72 2.04  30 2.52  16 2.53
  32  0.015  0.843  0.136-  61 2.09  48 2.26  60 2.26  45 2.36  57 2.36  24 2.53  11 2.53
  33  0.166  0.693  0.263-  62 2.25  57 2.26  45 2.26  46 2.36  58 2.36  12 2.53  25 2.53
  34  0.316  0.543  0.390-  59 2.12  47 2.18  63 2.25  58 2.26  46 2.26  35 2.35
  35  0.445  0.410  0.477-  64 2.03  47 2.07  59 2.07  34 2.35
  36  0.767  0.003  0.075-  48 2.04  70 2.04  60 2.05  10 2.51  69 2.57
  37  0.974  0.976  0.437-  16 2.08   9 2.14   4 2.40  12 2.43  40 2.58  72 2.78
  38  0.571  0.444  0.117-  10 2.09  14 2.09  26 2.11  13 2.14
  39  0.736  0.256  0.235-  11 2.25  27 2.26  15 2.26  10 2.32  14 2.36  26 2.36  40 2.58
  40  0.881  0.110  0.331-  27 2.09  16 2.09   4 2.10  12 2.19  15 2.26  39 2.58  37 2.58
  41  0.171  0.150  0.037-  21 2.02  17 2.07  28 2.07  42 2.78
  42  0.303  0.023  0.151-  23 2.14   1 2.23  29 2.26  18 2.26  17 2.36  28 2.36  41 2.78
  43  0.453  0.872  0.278-   2 2.25  30 2.26  19 2.26  29 2.36  18 2.36
  44  0.603  0.722  0.405-  31 2.03  20 2.13   3 2.25  30 2.36  19 2.36
  45  0.019  0.639  0.193-   8 2.13   5 2.25  25 2.26  33 2.26  24 2.36  32 2.36
  46  0.170  0.489  0.320-  22 2.01   6 2.25  34 2.26  33 2.36  25 2.36  47 2.72
  47  0.295  0.350  0.429-  35 2.07  34 2.18  22 2.26   7 2.30  46 2.72
  48  0.869  0.789  0.066-   8 1.99  36 2.04  32 2.26  24 2.26
  49  0.471  0.817  0.049-  23 2.01   1 2.01
  50  0.641  0.690  0.163-   2 2.07  24 2.19  26 2.19   1 2.28
  51  0.787  0.542  0.278-  25 2.25   3 2.26  27 2.26  26 2.36   2 2.36
  52  0.917  0.398  0.394-   4 2.11   3 2.13  27 2.13  22 2.26
  53  0.205  0.460  0.075-  21 2.07   5 2.12  13 2.12   8 2.21  28 2.23
  54  0.353  0.308  0.193-  14 2.25   6 2.26  29 2.26  28 2.36   5 2.36
  55  0.503  0.158  0.320-  15 2.25   7 2.26  30 2.26   6 2.36  29 2.36
  56  0.611  0.015  0.450-   7 2.02  31 2.03  16 2.05  30 2.33
  57  0.070  0.925  0.236-  18 2.25  33 2.26  12 2.26  11 2.36  32 2.36
  58  0.220  0.775  0.363-   9 2.03  19 2.25  34 2.26  33 2.36  12 2.36
  59  0.289  0.608  0.488-  20 2.05  35 2.07   9 2.11  34 2.12
  60  0.920  0.075  0.109-  36 2.05  17 2.25  11 2.26  32 2.26
  61  0.217  0.772  0.093-  32 2.09  13 2.09   1 2.18  62 2.57
  62  0.350  0.641  0.194-  13 2.03   1 2.11  33 2.25  14 2.26   2 2.26  61 2.57
  63  0.501  0.491  0.321-  34 2.25   3 2.26  15 2.26   2 2.36  14 2.36
  64  0.651  0.341  0.448-  35 2.03   4 2.07  15 2.36   3 2.36
  65  0.067  0.258  0.236-  27 2.25   6 2.26  18 2.26   5 2.36  17 2.36
  66  0.257  0.098  0.349-   6 2.10  18 2.12   7 2.13  19 2.14
  67  0.384  0.918  0.475-  19 1.99  20 2.12   7 2.43
  68  0.917  0.408  0.109-  21 2.05   8 2.21  26 2.25  17 2.26   5 2.26
  69  0.512  0.179  0.059-  23 2.11  28 2.15  10 2.22  70 2.49  36 2.57
  70  0.634  0.025  0.152-  36 2.04  23 2.08  10 2.09  29 2.25  11 2.26  24 2.26  69 2.49
  71  0.784  0.874  0.279-  30 2.25  25 2.26  12 2.26  24 2.36  11 2.36
  72  0.934  0.724  0.405-  31 2.04   9 2.07  22 2.15  12 2.36  25 2.36  37 2.78
 
  LATTYP: Found a base centered orthorhombic cell.
 ALAT       =    11.4527836704
 B/A-ratio  =     1.4485816945
 C/A-ratio  =     1.8059804630
  
  Lattice vectors:
  
 A1 = (  10.0797329849,   0.0000000000,   0.0000000000)
 A2 = (  -3.5732980427,  -9.4251025535,   0.0000000000)
 A3 = (   0.0000000000,   0.0000000000, -20.6835035552)


Analysis of symmetry for initial positions (statically):
=====================================================================
 Subroutine PRICEL returns:
 Original cell was already a primitive cell.
 

 Routine SETGRP: Setting up the symmetry group for a 
 base centered orthorhombic supercell.


 Subroutine GETGRP returns: Found  1 space group operations
 (whereof  1 operations were pure point group operations)
 out of a pool of  8 trial point group operations.


The static configuration has the point symmetry C_1 .


Analysis of symmetry for dynamics (positions and initial velocities):
=====================================================================
 Subroutine PRICEL returns:
 Original cell was already a primitive cell.
 

 Routine SETGRP: Setting up the symmetry group for a 
 base centered orthorhombic supercell.


 Subroutine GETGRP returns: Found  1 space group operations
 (whereof  1 operations were pure point group operations)
 out of a pool of  8 trial point group operations.


The dynamic configuration has the point symmetry C_1 .


 Subroutine INISYM returns: Found  1 space group operations
 (whereof  1 operations are pure point group operations),
 and found     1 'primitive' translations

 
 
 KPOINTS: gamma-point-only calculation. no periodi

Automatic generation of k-mesh.
Space group operators:
 irot       det(A)        alpha          n_x          n_y          n_z        tau_x        tau_y        tau_z
    1     1.000000     0.000000     1.000000     0.000000     0.000000     0.000000     0.000000     0.000000
 
 Subroutine IBZKPT returns following result:
 ===========================================
 
 Found      1 irreducible k-points:
 
 Following reciprocal coordinates:
            Coordinates               Weight
  0.000000  0.000000  0.000000      1.000000
 
 Following cartesian coordinates:
            Coordinates               Weight
  0.000000  0.000000  0.000000      1.000000
 


--------------------------------------------------------------------------------------------------------




 Dimension of arrays:
   k-points           NKPTS =      1   k-points in BZ     NKDIM =      1   number of bands    NBANDS=    476
   number of dos      NEDOS =    301   number of ions     NIONS =     72
   non local maximal  LDIM  =      6   non local SUM 2l+1 LMDIM =     18
   total plane-waves  NPLWV = 314928
   max r-space proj   IRMAX =   1817   max aug-charges    IRDMAX=   5248
   dimension x,y,z NGX =    54 NGY =   54 NGZ =  108
   dimension x,y,z NGXF=   108 NGYF=  108 NGZF=  216
   support grid    NGXF=   108 NGYF=  108 NGZF=  216
   ions per type =              36  36
   NGX,Y,Z   is equivalent  to a cutoff of   8.91,  8.91,  8.68 a.u.
   NGXF,Y,Z  is equivalent  to a cutoff of  17.81, 17.81, 17.36 a.u.

 SYSTEM =  "Millerite NiS"                         
 POSCAR =  Type_036 Type_136                       

 Startparameter for this run:
   NWRITE =      2    write-flag & timer
   PREC   = normal    normal or accurate (medium, high low for compatibility)
   ISTART =      0    job   : 0-new  1-cont  2-samecut
   ICHARG =      2    charge: 1-file 2-atom 10-const
   ISPIN  =      1    spin polarized calculation?
   LNONCOLLINEAR =      F non collinear calculations
   LSORBIT =      F    spin-orbit coupling
   INIWAV =      1    electr: 0-lowe 1-rand  2-diag
   LASPH  =      F    aspherical Exc in radial PAW
   METAGGA=      F    non-selfconsistent MetaGGA calc.

 Electronic Relaxation 1
   ENCUT  =  450.0 eV  33.07 Ry    5.75 a.u.  17.43 17.43 35.78*2*pi/ulx,y,z
   ENINI  =  450.0     initial cutoff
   ENAUG  =  703.4 eV  augmentation charge cutoff
   NELM   =    100;   NELMIN=  2; NELMDL= -5     # of ELM steps 
   EDIFF  = 0.1E-03   stopping-criterion for ELM
   LREAL  =      T    real-space projection
   NLSPLINE    = F    spline interpolate recip. space projectors
   LCOMPAT=      F    compatible to vasp.4.4
   GGA_COMPAT  = T    GGA compatible to vasp.4.4-vasp.4.6
   LMAXPAW     = -100 max onsite density
   LMAXMIX     =    2 max onsite mixed and CHGCAR
   VOSKOWN=      0    Vosko Wilk Nusair interpolation
   ROPT   =   -0.00050  -0.00050
 Ionic relaxation
   EDIFFG = 0.1E-02   stopping-criterion for IOM
   NSW    =      0    number of steps for IOM
   NBLOCK =      1;   KBLOCK =      1    inner block; outer block 
   IBRION =     -1    ionic relax: 0-MD 1-quasi-New 2-CG
   NFREE  =      0    steps in history (QN), initial steepest desc. (CG)
   ISIF   =      2    stress and relaxation
   IWAVPR =     10    prediction:  0-non 1-charg 2-wave 3-comb
   ISYM   =      2    0-nonsym 1-usesym 2-fastsym
   LCORR  =      T    Harris-Foulkes like correction to forces

   POTIM  = 0.5000    time-step for ionic-motion
   TEIN   =    0.0    initial temperature
   TEBEG  =    0.0;   TEEND  =   0.0 temperature during run
   SMASS  =  -3.00    Nose mass-parameter (am)
   estimated Nose-frequenzy (Omega)   =  0.10E-29 period in steps =****** mass=  -0.232E-26a.u.
   SCALEE = 1.0000    scale energy and forces
   NPACO  =    256;   APACO  = 16.0  distance and # of slots for P.C.
   PSTRESS=    0.0 pullay stress

  Mass of Ions in am
   POMASS =  58.69 32.07
  Ionic Valenz
   ZVAL   =  16.00  6.00
  Atomic Wigner-Seitz radii
   RWIGS  =  -1.00 -1.00
  virtual crystal weights 
   VCA    =   1.00  1.00
   NELECT =     792.0000    total number of electrons
   NUPDOWN=      -1.0000    fix difference up-down

 DOS related values:
   EMIN   =  10.00;   EMAX   =-10.00  energy-range for DOS
   EFERMI =   0.00
   ISMEAR =     0;   SIGMA  =   0.20  broadening in eV -4-tet -1-fermi 0-gaus

 Electronic relaxation 2 (details)
   IALGO  =     38    algorithm
   LDIAG  =      T    sub-space diagonalisation (order eigenvalues)
   LSUBROT=      F    optimize rotation matrix (better conditioning)
   TURBO    =      0    0=normal 1=particle mesh
   IRESTART =      0    0=no restart 2=restart with 2 vectors
   NREBOOT  =      0    no. of reboots
   NMIN     =      0    reboot dimension
   EREF     =   0.00    reference energy to select bands
   IMIX   =      4    mixing-type and parameters
     AMIX     =   0.40;   BMIX     =  1.00
     AMIX_MAG =   1.60;   BMIX_MAG =  1.00
     AMIN     =   0.10
     WC   =   100.;   INIMIX=   1;  MIXPRE=   1;  MAXMIX= -45

 Intra band minimization:
   WEIMIN = 0.0000     energy-eigenvalue tresh-hold
   EBREAK =  0.53E-07  absolut break condition
   DEPER  =   0.30     relativ break condition  

   TIME   =   0.40     timestep for ELM

  volume/ion in A,a.u.               =      27.29       184.17
  Fermi-wavevector in a.u.,A,eV,Ry     =   1.209289  2.285225 19.896891  1.462380
  Thomas-Fermi vector in A             =   2.344871
 
 Write flags
   LWAVE        =      F    write WAVECAR
   LDOWNSAMPLE  =      F    k-point downsampling of WAVECAR
   LCHARG       =      F    write CHGCAR
   LVTOT        =      F    write LOCPOT, total local potential
   LVHAR        =      F    write LOCPOT, Hartree potential only
   LELF         =      F    write electronic localiz. function (ELF)
   LORBIT       =      0    0 simple, 1 ext, 2 COOP (PROOUT), +10 PAW based schemes


 Dipole corrections
   LMONO  =      F    monopole corrections only (constant potential shift)
   LDIPOL =      F    correct potential (dipole corrections)
   IDIPOL =      0    1-x, 2-y, 3-z, 4-all directions 
   EPSILON=  1.0000000 bulk dielectric constant

 Exchange correlation treatment:
   GGA     =    --    GGA type
   LEXCH   =     8    internal setting for exchange type
   VOSKOWN=      0    Vosko Wilk Nusair interpolation
   LHFCALC =     F    Hartree Fock is set to
   LHFONE  =     F    Hartree Fock one center treatment
   AEXX    =    0.0000 exact exchange contribution

 Linear response parameters
   LEPSILON=     F    determine dielectric tensor
   LRPA    =     F    only Hartree local field effects (RPA)
   LNABLA  =     F    use nabla operator in PAW spheres
   LVEL    =     F    velocity operator in full k-point grid
   LINTERFAST=   F  fast interpolation
   KINTER  =     0    interpolate to denser k-point grid
   CSHIFT  =0.1000    complex shift for real part using Kramers Kronig
   OMEGAMAX=  -1.0    maximum frequency
   DEG_THRESHOLD= 0.2000000E-02 threshold for treating states as degnerate
   RTIME   =   -0.100 relaxation time in fs
  (WPLASMAI=    0.000 imaginary part of plasma frequency in eV, 0.658/RTIME)
   DFIELD  = 0.0000000 0.0000000 0.0000000 field for delta impulse in time
 
 Orbital magnetization related:
   ORBITALMAG=     F  switch on orbital magnetization
   LCHIMAG   =     F  perturbation theory with respect to B field
   DQ        =  0.001000  dq finite difference perturbation B field
   LLRAUG    =     F  two centre corrections for induced B field



--------------------------------------------------------------------------------------------------------


 Static calculation
 charge density and potential will be updated during run
 non-spin polarized calculation
 Variant of blocked Davidson
 Davidson routine will perform the subspace rotation
 perform sub-space diagonalisation
    after iterative eigenvector-optimisation
 modified Broyden-mixing scheme, WC =      100.0
 initial mixing is a Kerker type mixing with AMIX =  0.4000 and BMIX =      1.0000
 Hartree-type preconditioning will be used
 using additional bands           80
 real space projection scheme for non local part
 use partial core corrections
 calculate Harris-corrections to forces 
   (improved forces if not selfconsistent)
 use gradient corrections 
 use of overlap-Matrix (Vanderbilt PP)
 Gauss-broadening in eV      SIGMA  =   0.20


--------------------------------------------------------------------------------------------------------


  energy-cutoff  :      450.00
  volume of cell :     1964.98
      direct lattice vectors                 reciprocal lattice vectors
    10.079732985  0.000000000  0.000000000     0.099208977 -0.037612667  0.000000000
     3.573298043  9.425102554  0.000000000     0.000000000  0.106099641  0.000000000
     0.000000000  0.000000000 20.683503555     0.000000000  0.000000000  0.048347708

  length of vectors
    10.079732985 10.079732985 20.683503555     0.106099641  0.106099641  0.048347708


 
 k-points in units of 2pi/SCALE and weight: gamma-point-only calculation. no periodi
   0.00000000  0.00000000  0.00000000       1.000
 
 k-points in reciprocal lattice and weights: gamma-point-only calculation. no periodi
   0.00000000  0.00000000  0.00000000       1.000
 
 position of ions in fractional coordinates (direct lattice) 
   0.40641532  0.78815245  0.13808457
   0.54732740  0.64468328  0.24509923
   0.69759592  0.49441477  0.37203626
   0.85513163  0.22405995  0.41759638
   0.11381506  0.41152895  0.16047455
   0.26408357  0.26126044  0.28741157
   0.41435209  0.11099193  0.41434860
   0.98186680  0.59405015  0.09556367
   0.10988524  0.75834183  0.44276113
   0.64164893  0.22658998  0.13658849
   0.83057123  0.02810612  0.20278689
   0.98083974  0.87783760  0.32972391
   0.34908689  0.55939881  0.10426872
   0.50762556  0.42017912  0.21156171
   0.65789407  0.26991061  0.33849873
   0.77772019  0.01652862  0.39383050
   0.07411322  0.18702480  0.12693702
   0.22438173  0.03675628  0.25387405
   0.37465024  0.88648777  0.38081107
   0.42782995  0.69972680  0.45545333
   0.07055995  0.36255746  0.03925888
   0.07588292  0.50665816  0.40717451
   0.48437835  0.99108633  0.09056793
   0.79086939  0.80360196  0.16924937
   0.94113790  0.65333345  0.29618639
   0.73212972  0.45988096  0.17802418
   0.88239823  0.30961245  0.30496121
   0.29861738  0.22672664  0.09339950
   0.44888589  0.07645813  0.22033653
   0.59915440  0.92618961  0.34727355
   0.73706958  0.80746113  0.44607953
   0.01537355  0.84330380  0.13571184
   0.16564206  0.69303529  0.26264887
   0.31591057  0.54276678  0.38958589
   0.44535687  0.41049005  0.47694070
   0.76684392  0.00305607  0.07485695
   0.97429652  0.97579932  0.43735084
   0.57062372  0.44370291  0.11716592
   0.73606780  0.25573088  0.23540877
   0.88080653  0.10985003  0.33069088
   0.17122745  0.15037918  0.03741664
   0.30255546  0.02257655  0.15078409
   0.45282397  0.87230804  0.27772112
   0.60309249  0.72203953  0.40465814
   0.01931163  0.63915371  0.19309643
   0.16958015  0.48888520  0.32003346
   0.29532699  0.35027569  0.42931994
   0.86904312  0.78942223  0.06615941
   0.47082226  0.81650913  0.04880332
   0.64147312  0.69022601  0.16337940
   0.78662264  0.54160604  0.27811420
   0.91672616  0.39767121  0.39436108
   0.20477520  0.46002257  0.07522310
   0.35311030  0.30845172  0.19348951
   0.50337881  0.15818320  0.32042654
   0.61115500  0.01485886  0.45049557
   0.06986647  0.92502888  0.23580185
   0.22013498  0.77476037  0.36273888
   0.28865270  0.60802009  0.48766712
   0.91959796  0.07529739  0.10886483
   0.21677524  0.77157010  0.09311026
   0.35047896  0.64131972  0.19388260
   0.50074747  0.49105121  0.32081962
   0.65101599  0.34078269  0.44775664
   0.06723513  0.25789688  0.23619494
   0.25713540  0.09756102  0.34872982
   0.38413641  0.91770714  0.47541813
   0.91696662  0.40816539  0.10925791
   0.51221061  0.17859002  0.05924791
   0.63372279  0.02474256  0.15157025
   0.78399130  0.87447404  0.27850728
   0.93425982  0.72420553  0.40544430
 
 position of ions in cartesian coordinates  (Angst):
   6.91286152  7.42841765  2.85607276
   7.82055957  6.07620602  5.06951082
   8.79827187  4.65990987  7.69501320
   9.42013145  2.11178803  8.63735629
   2.61774103  3.87870260  3.31917588
   3.59545332  2.46240645  5.94467827
   4.57316563  1.04611031  8.57018066
  12.01967341  5.59898358  1.97659145
   3.81739527  7.14744947  9.15785150
   7.27732348  2.13563383  2.82512862
   8.47236777  0.26490303  4.19434334
  13.02337811  8.27370944  6.81984575
   5.51760133  5.27239117  2.15664246
   6.61815533  3.96023131  4.37583732
   7.59586763  2.54393517  7.00133973
   7.89827352  0.15578397  8.14579463
   1.41533679  1.76272788  2.62550239
   2.39304909  0.34643175  5.25100480
   6.94405943  8.35523815  7.87650718
   6.81274406  6.59499687  9.42037051
   2.00675129  3.41714122  0.81201117
   2.57532021  4.77530516  8.42179533
   8.42385124  9.34109033  1.87326220
  10.84326157  7.57403088  3.50066986
  11.82097387  6.15773473  6.12617225
   9.02296381  4.33442525  3.68216384
  10.00067611  2.91812910  6.30766623
   3.82014527  2.13692182  1.93182891
   4.79785756  0.72062568  4.55733130
   9.34886790  8.72943210  7.18283371
  10.31476385  7.61040395  9.22648765
   3.16833706  7.94822481  2.80699637
   4.14604937  6.53192867  5.43249877
   5.12376166  5.11563253  8.05800116
   5.95588167  3.86891085  9.86480465
   7.74050225  0.02880381  1.54830391
  13.30747054  9.19700869  9.04594769
   7.33721752  4.18194543  2.42340176
   8.33316957  2.41028974  4.86907821
   9.27082148  1.03534776  6.83984591
   2.26327658  1.41733916  0.77390726
   3.13035102  0.21278632  3.11874328
   7.68136137  8.22159274  5.74424567
   8.65907366  6.80529659  8.36974806
   2.47854282  6.02408930  3.99391074
   3.45625513  4.60779317  6.61941313
   4.22845665  3.30138427  8.87984043
  11.58056351  7.44038545  1.36840835
   7.66339313  7.69568233  1.00942363
   8.93226105  6.50545096  3.37925838
   9.86426598  5.10469248  5.75237598
  10.66135267  3.74809193  8.15676890
   3.70787711  4.33575993  1.55587735
   4.66144743  2.90718906  4.00204105
   5.63915973  1.49089292  6.62754344
   6.21337436  0.14004626  9.31782672
   4.00963923  8.71849205  4.87720851
   4.98735153  7.30219590  7.50271091
   5.08217911  5.73065170 10.08666463
   9.53836187  0.70968563  2.25170612
   4.94208643  7.27212728  1.92584641
   5.82436086  6.04450411  4.01017134
   6.80207315  4.62820798  6.63567375
   7.77978546  3.21191183  9.26117614
   1.59925462  2.43070455  4.88533882
   2.94047079  0.91952259  7.21295457
   7.15123357  8.64948393  9.83331259
  10.70127530  3.84700069  2.25983643
   5.80110151  1.68322922  1.22545445
   6.47616906  0.23320113  3.13500389
  11.02717939  8.24200754  5.76050627
  12.00489170  6.82571140  8.38600868
 


--------------------------------------------------------------------------------------------------------


 use parallel FFT for orbitals z direction half grid
 k-point  1 :   0.0000 0.0000 0.0000  plane waves:   21301

 maximum and minimum number of plane-waves per node :      3554     3548

 maximum number of plane-waves:     21301
 maximum index in each direction: 
   IXMAX=   17   IYMAX=   17   IZMAX=   35
   IXMIN=  -17   IYMIN=  -17   IZMIN=    0


 real space projection operators:
  total allocation   :      11155.31 KBytes
  max/ min on nodes  :       1875.56       1840.14


 parallel 3D FFT for wavefunctions:
    minimum data exchange during FFTs selected (reduces bandwidth)
 parallel 3D FFT for charge:
    minimum data exchange during FFTs selected (reduces bandwidth)


 total amount of memory used by VASP MPI-rank0    68408. kBytes
=======================================================================

   base      :      30000. kBytes
   nonlr-proj:       2293. kBytes
   fftplans  :       8265. kBytes
   grid      :      13942. kBytes
   one-center:         93. kBytes
   wavefun   :      13815. kBytes
 
     INWAV:  cpu time    0.0000: real time    0.0000
 Broyden mixing: mesh for mixing (old mesh)
   NGX = 35   NGY = 35   NGZ = 71
  (NGX  =108   NGY  =108   NGZ  =216)
  gives a total of  86975 points

 initial charge density was supplied:
 charge density of overlapping atoms calculated
 number of electron     792.0000000 magnetization 
 keeping initial charge density in first step


--------------------------------------------------------------------------------------------------------


 Maximum index for non-local projection operator          302
 Maximum index for augmentation-charges          472 (set IRDMAX)


--------------------------------------------------------------------------------------------------------


 First call to EWALD:  gamma=   0.142
 Maximum number of real-space cells 3x 3x 2
 Maximum number of reciprocal cells 2x 2x 4

    FEWALD:  cpu time    0.0073: real time    0.0073


--------------------------------------- Iteration      1(   1)  ---------------------------------------


    POTLOK:  cpu time    0.2566: real time    0.2576
    SETDIJ:  cpu time    0.0174: real time    0.0174
     EDDAV:  cpu time    7.0224: real time    7.0247
       DOS:  cpu time    0.0023: real time    0.0023
    --------------------------------------------
      LOOP:  cpu time    7.2988: real time    7.3020

 eigenvalue-minimisations  :  1160
 total energy-change (2. order) : 0.9940292E+04  (-0.5134859E+05)
 number of electron     792.0000000 magnetization 
 augmentation part      792.0000000 magnetization 

 Free energy of the ion-electron system (eV)
  ---------------------------------------------------
  alpha Z        PSCENC =      1893.09323658
  Ewald energy   TEWEN  =    230972.84921371
  -Hartree energ DENC   =   -353142.75785598
  -exchange      EXHF   =         0.00000000
  -V(xc)+E(xc)   XCENC  =      3682.73625776
  PAW double counting   =    112729.53333415  -117641.51188735
  entropy T*S    EENTRO =        -0.49170944
  eigenvalues    EBANDS =     -4555.76409493
  atomic energy  EATOM  =    136002.60505376
  Solvation  Ediel_sol  =         0.00000000
  ---------------------------------------------------
  free energy    TOTEN  =      9940.29154826 eV

  energy without entropy =     9940.78325770  energy(sigma->0) =     9940.53740298


--------------------------------------------------------------------------------------------------------




--------------------------------------- Iteration      1(   2)  ---------------------------------------


     EDDAV:  cpu time    6.9644: real time    6.9670
       DOS:  cpu time    0.0012: real time    0.0012
    --------------------------------------------
      LOOP:  cpu time    6.9655: real time    6.9681

 eigenvalue-minimisations  :  1004
 total energy-change (2. order) :-0.9322458E+04  (-0.9007702E+04)
 number of electron     792.0000000 magnetization 
 augmentation part      792.0000000 magnetization 

 Free energy of the ion-electron system (eV)
  ---------------------------------------------------
  alpha Z        PSCENC =      1893.09323658
  Ewald energy   TEWEN  =    230972.84921371
  -Hartree energ DENC   =   -353142.75785598
  -exchange      EXHF   =         0.00000000
  -V(xc)+E(xc)   XCENC  =      3682.73625776
  PAW double counting   =    112729.53333415  -117641.51188735
  entropy T*S    EENTRO =        -0.65717407
  eigenvalues    EBANDS =    -13878.05677188
  atomic energy  EATOM  =    136002.60505376
  Solvation  Ediel_sol  =         0.00000000
  ---------------------------------------------------
  free energy    TOTEN  =       617.83340667 eV

  energy without entropy =      618.49058075  energy(sigma->0) =      618.16199371


--------------------------------------------------------------------------------------------------------




--------------------------------------- Iteration      1(   3)  ---------------------------------------


     EDDAV:  cpu time    7.7708: real time    7.7820
       DOS:  cpu time    0.0011: real time    0.0011
    --------------------------------------------
      LOOP:  cpu time    7.7719: real time    7.7832

 eigenvalue-minimisations  :  1088
 total energy-change (2. order) :-0.9544425E+03  (-0.9065134E+03)
 number of electron     792.0000000 magnetization 
 augmentation part      792.0000000 magnetization 

 Free energy of the ion-electron system (eV)
  ---------------------------------------------------
  alpha Z        PSCENC =      1893.09323658
  Ewald energy   TEWEN  =    230972.84921371
  -Hartree energ DENC   =   -353142.75785598
  -exchange      EXHF   =         0.00000000
  -V(xc)+E(xc)   XCENC  =      3682.73625776
  PAW double counting   =    112729.53333415  -117641.51188735
  entropy T*S    EENTRO =        -1.07372293
  eigenvalues    EBANDS =    -14832.08274691
  atomic energy  EATOM  =    136002.60505376
  Solvation  Ediel_sol  =         0.00000000
  ---------------------------------------------------
  free energy    TOTEN  =      -336.60911722 eV

  energy without entropy =     -335.53539428  energy(sigma->0) =     -336.07225575


--------------------------------------------------------------------------------------------------------




--------------------------------------- Iteration      1(   4)  ---------------------------------------


     EDDAV:  cpu time    7.3357: real time    7.3380
       DOS:  cpu time    0.0013: real time    0.0013
    --------------------------------------------
      LOOP:  cpu time    7.3370: real time    7.3393

 eigenvalue-minimisations  :  1080
 total energy-change (2. order) :-0.5854367E+02  (-0.5778578E+02)
 number of electron     792.0000000 magnetization 
 augmentation part      792.0000000 magnetization 

 Free energy of the ion-electron system (eV)
  ---------------------------------------------------
  alpha Z        PSCENC =      1893.09323658
  Ewald energy   TEWEN  =    230972.84921371
  -Hartree energ DENC   =   -353142.75785598
  -exchange      EXHF   =         0.00000000
  -V(xc)+E(xc)   XCENC  =      3682.73625776
  PAW double counting   =    112729.53333415  -117641.51188735
  entropy T*S    EENTRO =        -1.12840146
  eigenvalues    EBANDS =    -14890.57173967
  atomic energy  EATOM  =    136002.60505376
  Solvation  Ediel_sol  =         0.00000000
  ---------------------------------------------------
  free energy    TOTEN  =      -395.15278850 eV

  energy without entropy =     -394.02438704  energy(sigma->0) =     -394.58858777


--------------------------------------------------------------------------------------------------------




--------------------------------------- Iteration      1(   5)  ---------------------------------------


     EDDAV:  cpu time    7.9887: real time    7.9928
       DOS:  cpu time    0.0013: real time    0.0013
    CHARGE:  cpu time    0.2675: real time    0.2675
    MIXING:  cpu time    0.0106: real time    0.0106
    --------------------------------------------
      LOOP:  cpu time    8.2681: real time    8.2722

 eigenvalue-minimisations  :  1240
 total energy-change (2. order) :-0.2442115E+01  (-0.2437705E+01)
 number of electron     792.0000040 magnetization 
 augmentation part      286.7789549 magnetization 

 Broyden mixing:
  rms(total) = 0.97534E+01    rms(broyden)= 0.97448E+01
  rms(prec ) = 0.10086E+02
  weight for this iteration     100.00

 Free energy of the ion-electron system (eV)
  ---------------------------------------------------
  alpha Z        PSCENC =      1893.09323658
  Ewald energy   TEWEN  =    230972.84921371
  -Hartree energ DENC   =   -353142.75785598
  -exchange      EXHF   =         0.00000000
  -V(xc)+E(xc)   XCENC  =      3682.73625776
  PAW double counting   =    112729.53333415  -117641.51188735
  entropy T*S    EENTRO =        -1.11678260
  eigenvalues    EBANDS =    -14893.02547337
  atomic energy  EATOM  =    136002.60505376
  Solvation  Ediel_sol  =         0.00000000
  ---------------------------------------------------
  free energy    TOTEN  =      -397.59490335 eV

  energy without entropy =     -396.47812074  energy(sigma->0) =     -397.03651204


--------------------------------------------------------------------------------------------------------




--------------------------------------- Iteration      1(   6)  ---------------------------------------


    POTLOK:  cpu time    0.2567: real time    0.2567
    SETDIJ:  cpu time    0.0186: real time    0.0186
     EDDAV:  cpu time    7.7892: real time    7.7903
       DOS:  cpu time    0.0012: real time    0.0012
    CHARGE:  cpu time    0.2078: real time    0.2078
    MIXING:  cpu time    0.0084: real time    0.0084
    --------------------------------------------
      LOOP:  cpu time    8.2819: real time    8.2830

 eigenvalue-minimisations  :  1168
 total energy-change (2. order) :-0.6447439E+02  (-0.9086138E+02)
 number of electron     792.0000075 magnetization 
 augmentation part      345.7119733 magnetization 

 Broyden mixing:
  rms(total) = 0.15508E+02    rms(broyden)= 0.15506E+02
  rms(prec ) = 0.16074E+02
  weight for this iteration     100.00

 eigenvalues of (default mixing * dielectric matrix)
  average eigenvalue GAMMA=   0.2527
  0.2527

 Free energy of the ion-electron system (eV)
  ---------------------------------------------------
  alpha Z        PSCENC =      1893.09323658
  Ewald energy   TEWEN  =    230972.84921371
  -Hartree energ DENC   =   -350437.31731386
  -exchange      EXHF   =         0.00000000
  -V(xc)+E(xc)   XCENC  =      3609.06632974
  PAW double counting   =    117663.50102731  -122344.92950763
  entropy T*S    EENTRO =        -0.90308957
  eigenvalues    EBANDS =    -17820.03424485
  atomic energy  EATOM  =    136002.60505376
  Solvation  Ediel_sol  =         0.00000000
  ---------------------------------------------------
  free energy    TOTEN  =      -462.06929482 eV

  energy without entropy =     -461.16620524  energy(sigma->0) =     -461.61775003


--------------------------------------------------------------------------------------------------------




--------------------------------------- Iteration      1(   7)  ---------------------------------------


    POTLOK:  cpu time    0.2446: real time    0.2448
    SETDIJ:  cpu time    0.0174: real time    0.0174
     EDDAV:  cpu time    6.8074: real time    6.8093
       DOS:  cpu time    0.0012: real time    0.0012
    CHARGE:  cpu time    0.4268: real time    0.4269
    MIXING:  cpu time    0.0113: real time    0.0113
    --------------------------------------------
      LOOP:  cpu time    7.5087: real time    7.5109

 eigenvalue-minimisations  :  1072
 total energy-change (2. order) : 0.9537830E+02  (-0.2026626E+02)
 number of electron     792.0000052 magnetization 
 augmentation part      330.1476350 magnetization 

 Broyden mixing:
  rms(total) = 0.67054E+01    rms(broyden)= 0.67042E+01
  rms(prec ) = 0.69335E+01
  weight for this iteration     100.00

 eigenvalues of (default mixing * dielectric matrix)
  average eigenvalue GAMMA=   0.5064
  0.5064  0.5064

 Free energy of the ion-electron system (eV)
  ---------------------------------------------------
  alpha Z        PSCENC =      1893.09323658
  Ewald energy   TEWEN  =    230972.84921371
  -Hartree energ DENC   =   -351607.20308220
  -exchange      EXHF   =         0.00000000
  -V(xc)+E(xc)   XCENC  =      3635.40924673
  PAW double counting   =    122208.76823301  -127031.51985890
  entropy T*S    EENTRO =        -0.84125841
  eigenvalues    EBANDS =    -16439.85177510
  atomic energy  EATOM  =    136002.60505376
  Solvation  Ediel_sol  =         0.00000000
  ---------------------------------------------------
  free energy    TOTEN  =      -366.69099084 eV

  energy without entropy =     -365.84973243  energy(sigma->0) =     -366.27036163


--------------------------------------------------------------------------------------------------------




--------------------------------------- Iteration      1(   8)  ---------------------------------------


    POTLOK:  cpu time    0.2713: real time    0.2713
    SETDIJ:  cpu time    0.0246: real time    0.0246
     EDDAV:  cpu time    8.2493: real time    8.2502
       DOS:  cpu time    0.0011: real time    0.0011
    CHARGE:  cpu time    0.2382: real time    0.2383
    MIXING:  cpu time    0.0089: real time    0.0089
    --------------------------------------------
      LOOP:  cpu time    8.7934: real time    8.7944

 eigenvalue-minimisations  :  1272
 total energy-change (2. order) :-0.5009873E+02  (-0.2244447E+02)
 number of electron     792.0000093 magnetization 
 augmentation part      305.7646998 magnetization 

 Broyden mixing:
  rms(total) = 0.11538E+02    rms(broyden)= 0.11537E+02
  rms(prec ) = 0.13096E+02
  weight for this iteration     100.00

 eigenvalues of (default mixing * dielectric matrix)
  average eigenvalue GAMMA=   0.5237
  0.9330  0.4287  0.2095

 Free energy of the ion-electron system (eV)
  ---------------------------------------------------
  alpha Z        PSCENC =      1893.09323658
  Ewald energy   TEWEN  =    230972.84921371
  -Hartree energ DENC   =   -352339.23134434
  -exchange      EXHF   =         0.00000000
  -V(xc)+E(xc)   XCENC  =      3660.74395448
  PAW double counting   =    129309.92354321  -134270.37819578
  entropy T*S    EENTRO =        -1.21063336
  eigenvalues    EBANDS =    -15645.18454937
  atomic energy  EATOM  =    136002.60505376
  Solvation  Ediel_sol  =         0.00000000
  ---------------------------------------------------
  free energy    TOTEN  =      -416.78972111 eV

  energy without entropy =     -415.57908775  energy(sigma->0) =     -416.18440443


--------------------------------------------------------------------------------------------------------




--------------------------------------- Iteration      1(   9)  ---------------------------------------


    POTLOK:  cpu time    0.2488: real time    0.2488
    SETDIJ:  cpu time    0.0195: real time    0.0195
     EDDAV:  cpu time    8.7693: real time    8.7772
       DOS:  cpu time    0.0011: real time    0.0011
    CHARGE:  cpu time    0.3447: real time    0.3448
    MIXING:  cpu time    0.0128: real time    0.0128
    --------------------------------------------
      LOOP:  cpu time    9.3962: real time    9.4042

 eigenvalue-minimisations  :  1304
 total energy-change (2. order) : 0.3716038E+02  (-0.1619278E+02)
 number of electron     792.0000027 magnetization 
 augmentation part      304.8820512 magnetization 

 Broyden mixing:
  rms(total) = 0.67463E+01    rms(broyden)= 0.67405E+01
  rms(prec ) = 0.74452E+01
  weight for this iteration     100.00

 eigenvalues of (default mixing * dielectric matrix)
  average eigenvalue GAMMA=   0.6237
  1.5597  0.3927  0.3927  0.1496

 Free energy of the ion-electron system (eV)
  ---------------------------------------------------
  alpha Z        PSCENC =      1893.09323658
  Ewald energy   TEWEN  =    230972.84921371
  -Hartree energ DENC   =   -352527.11613280
  -exchange      EXHF   =         0.00000000
  -V(xc)+E(xc)   XCENC  =      3658.56278853
  PAW double counting   =    133103.22909269  -138080.58288188
  entropy T*S    EENTRO =        -0.98156135
  eigenvalues    EBANDS =    -15401.28815057
  atomic energy  EATOM  =    136002.60505376
  Solvation  Ediel_sol  =         0.00000000
  ---------------------------------------------------
  free energy    TOTEN  =      -379.62934134 eV

  energy without entropy =     -378.64777999  energy(sigma->0) =     -379.13856066


--------------------------------------------------------------------------------------------------------




--------------------------------------- Iteration      1(  10)  ---------------------------------------


    POTLOK:  cpu time    0.2631: real time    0.2632
    SETDIJ:  cpu time    0.0201: real time    0.0201
     EDDAV:  cpu time    8.2360: real time    8.2415
       DOS:  cpu time    0.0011: real time    0.0011
    CHARGE:  cpu time    0.3122: real time    0.3122
    MIXING:  cpu time    0.0123: real time    0.0123
    --------------------------------------------
      LOOP:  cpu time    8.8448: real time    8.8504

 eigenvalue-minimisations  :  1280
 total energy-change (2. order) :-0.1041925E+02  (-0.6864970E+01)
 number of electron     792.0000042 magnetization 
 augmentation part      304.5848792 magnetization 

 Broyden mixing:
  rms(total) = 0.80701E+01    rms(broyden)= 0.80667E+01
  rms(prec ) = 0.96827E+01
  weight for this iteration     100.00

 eigenvalues of (default mixing * dielectric matrix)
  average eigenvalue GAMMA=   0.5886
  1.8286  0.4000  0.4000  0.1572  0.1572

 Free energy of the ion-electron system (eV)
  ---------------------------------------------------
  alpha Z        PSCENC =      1893.09323658
  Ewald energy   TEWEN  =    230972.84921371
  -Hartree energ DENC   =   -352442.38163016
  -exchange      EXHF   =         0.00000000
  -V(xc)+E(xc)   XCENC  =      3655.71051687
  PAW double counting   =    138053.93845635  -143058.27086616
  entropy T*S    EENTRO =        -1.21788506
  eigenvalues    EBANDS =    -15466.37468582
  atomic energy  EATOM  =    136002.60505376
  Solvation  Ediel_sol  =         0.00000000
  ---------------------------------------------------
  free energy    TOTEN  =      -390.04858994 eV

  energy without entropy =     -388.83070488  energy(sigma->0) =     -389.43964741


--------------------------------------------------------------------------------------------------------




--------------------------------------- Iteration      1(  11)  ---------------------------------------


    POTLOK:  cpu time    0.2565: real time    0.2568
    SETDIJ:  cpu time    0.0226: real time    0.0226
     EDDAV:  cpu time    7.9349: real time    7.9360
       DOS:  cpu time    0.0013: real time    0.0013
    CHARGE:  cpu time    0.2668: real time    0.2668
    MIXING:  cpu time    0.0121: real time    0.0121
    --------------------------------------------
      LOOP:  cpu time    8.4941: real time    8.4955

 eigenvalue-minimisations  :  1248
 total energy-change (2. order) : 0.1609860E+02  (-0.5752496E+01)
 number of electron     792.0000008 magnetization 
 augmentation part      308.2476682 magnetization 

 Broyden mixing:
  rms(total) = 0.51820E+01    rms(broyden)= 0.51763E+01
  rms(prec ) = 0.62077E+01
  weight for this iteration     100.00

 eigenvalues of (default mixing * dielectric matrix)
  average eigenvalue GAMMA=   0.6278
  2.2211  0.4375  0.4375  0.3917  0.1752  0.1041

 Free energy of the ion-electron system (eV)
  ---------------------------------------------------
  alpha Z        PSCENC =      1893.09323658
  Ewald energy   TEWEN  =    230972.84921371
  -Hartree energ DENC   =   -352372.56402454
  -exchange      EXHF   =         0.00000000
  -V(xc)+E(xc)   XCENC  =      3653.57522547
  PAW double counting   =    140152.93607361  -145164.65354251
  entropy T*S    EENTRO =        -0.92852304
  eigenvalues    EBANDS =    -15510.86270533
  atomic energy  EATOM  =    136002.60505376
  Solvation  Ediel_sol  =         0.00000000
  ---------------------------------------------------
  free energy    TOTEN  =      -373.94999230 eV

  energy without entropy =     -373.02146926  energy(sigma->0) =     -373.48573078


--------------------------------------------------------------------------------------------------------




--------------------------------------- Iteration      1(  12)  ---------------------------------------


    POTLOK:  cpu time    0.2513: real time    0.2514
    SETDIJ:  cpu time    0.0187: real time    0.0187
     EDDAV:  cpu time    8.1791: real time    8.1800
       DOS:  cpu time    0.0015: real time    0.0015
    CHARGE:  cpu time    0.3483: real time    0.3483
    MIXING:  cpu time    0.0131: real time    0.0131
    --------------------------------------------
      LOOP:  cpu time    8.8120: real time    8.8130

 eigenvalue-minimisations  :  1304
 total energy-change (2. order) : 0.3995890E+01  (-0.3747484E+01)
 number of electron     792.0000069 magnetization 
 augmentation part      311.0146237 magnetization 

 Broyden mixing:
  rms(total) = 0.57599E+01    rms(broyden)= 0.57569E+01
  rms(prec ) = 0.64551E+01
  weight for this iteration     100.00

 eigenvalues of (default mixing * dielectric matrix)
  average eigenvalue GAMMA=   0.6010
  2.4002  0.4517  0.4517  0.4392  0.2124  0.1429  0.1092

 Free energy of the ion-electron system (eV)
  ---------------------------------------------------
  alpha Z        PSCENC =      1893.09323658
  Ewald energy   TEWEN  =    230972.84921371
  -Hartree energ DENC   =   -352271.57927626
  -exchange      EXHF   =         0.00000000
  -V(xc)+E(xc)   XCENC  =      3650.40709442
  PAW double counting   =    142397.42409391  -147414.17774640
  entropy T*S    EENTRO =        -0.96512729
  eigenvalues    EBANDS =    -15599.61064516
  atomic energy  EATOM  =    136002.60505376
  Solvation  Ediel_sol  =         0.00000000
  ---------------------------------------------------
  free energy    TOTEN  =      -369.95410273 eV

  energy without entropy =     -368.98897544  energy(sigma->0) =     -369.47153909


--------------------------------------------------------------------------------------------------------




--------------------------------------- Iteration      1(  13)  ---------------------------------------


    POTLOK:  cpu time    0.2701: real time    0.2703
    SETDIJ:  cpu time    0.0229: real time    0.0229
     EDDAV:  cpu time    8.2082: real time    8.2150
       DOS:  cpu time    0.0011: real time    0.0011
    CHARGE:  cpu time    0.2456: real time    0.2456
    MIXING:  cpu time    0.0136: real time    0.0136
    --------------------------------------------
      LOOP:  cpu time    8.7615: real time    8.7685

 eigenvalue-minimisations  :  1288
 total energy-change (2. order) : 0.1089777E+02  (-0.3491058E+01)
 number of electron     792.0000035 magnetization 
 augmentation part      313.8496978 magnetization 

 Broyden mixing:
  rms(total) = 0.32560E+01    rms(broyden)= 0.32537E+01
  rms(prec ) = 0.36561E+01
  weight for this iteration     100.00

 eigenvalues of (default mixing * dielectric matrix)
  average eigenvalue GAMMA=   0.5596
  2.3574  0.4474  0.4474  0.4029  0.4029  0.1558  0.1558  0.1069

 Free energy of the ion-electron system (eV)
  ---------------------------------------------------
  alpha Z        PSCENC =      1893.09323658
  Ewald energy   TEWEN  =    230972.84921371
  -Hartree energ DENC   =   -352226.66205348
  -exchange      EXHF   =         0.00000000
  -V(xc)+E(xc)   XCENC  =      3649.46413166
  PAW double counting   =    143209.84405699  -148228.79161797
  entropy T*S    EENTRO =        -0.97022615
  eigenvalues    EBANDS =    -15630.48813008
  atomic energy  EATOM  =    136002.60505376
  Solvation  Ediel_sol  =         0.00000000
  ---------------------------------------------------
  free energy    TOTEN  =      -359.05633498 eV

  energy without entropy =     -358.08610883  energy(sigma->0) =     -358.57122191


--------------------------------------------------------------------------------------------------------




--------------------------------------- Iteration      1(  14)  ---------------------------------------


    POTLOK:  cpu time    0.2542: real time    0.2542
    SETDIJ:  cpu time    0.0195: real time    0.0195
     EDDAV:  cpu time    8.5316: real time    8.5336
       DOS:  cpu time    0.0012: real time    0.0012
    CHARGE:  cpu time    0.2587: real time    0.2587
    MIXING:  cpu time    0.0145: real time    0.0145
    --------------------------------------------
      LOOP:  cpu time    9.0798: real time    9.0818

 eigenvalue-minimisations  :  1312
 total energy-change (2. order) : 0.4202044E+01  (-0.1141578E+01)
 number of electron     792.0000046 magnetization 
 augmentation part      313.7377228 magnetization 

 Broyden mixing:
  rms(total) = 0.22477E+01    rms(broyden)= 0.22460E+01
  rms(prec ) = 0.25041E+01
  weight for this iteration     100.00

 eigenvalues of (default mixing * dielectric matrix)
  average eigenvalue GAMMA=   0.5288
  2.2173  0.5126  0.5126  0.4459  0.4459  0.1845  0.1845  0.1487  0.1072

 Free energy of the ion-electron system (eV)
  ---------------------------------------------------
  alpha Z        PSCENC =      1893.09323658
  Ewald energy   TEWEN  =    230972.84921371
  -Hartree energ DENC   =   -352248.20609476
  -exchange      EXHF   =         0.00000000
  -V(xc)+E(xc)   XCENC  =      3650.29788238
  PAW double counting   =    142902.87986556  -147921.64647978
  entropy T*S    EENTRO =        -0.87696196
  eigenvalues    EBANDS =    -15605.85000626
  atomic energy  EATOM  =    136002.60505376
  Solvation  Ediel_sol  =         0.00000000
  ---------------------------------------------------
  free energy    TOTEN  =      -354.85429078 eV

  energy without entropy =     -353.97732881  energy(sigma->0) =     -354.41580979


--------------------------------------------------------------------------------------------------------




--------------------------------------- Iteration      1(  15)  ---------------------------------------


    POTLOK:  cpu time    0.2541: real time    0.2541
    SETDIJ:  cpu time    0.0179: real time    0.0179
     EDDAV:  cpu time    8.5150: real time    8.5161
       DOS:  cpu time    0.0012: real time    0.0012
    CHARGE:  cpu time    0.2543: real time    0.2545
    MIXING:  cpu time    0.0148: real time    0.0148
    --------------------------------------------
      LOOP:  cpu time    9.0573: real time    9.0585

 eigenvalue-minimisations  :  1312
 total energy-change (2. order) : 0.1989180E+01  (-0.4265517E+00)
 number of electron     792.0000040 magnetization 
 augmentation part      312.8503573 magnetization 

 Broyden mixing:
  rms(total) = 0.18833E+01    rms(broyden)= 0.18827E+01
  rms(prec ) = 0.21142E+01
  weight for this iteration     100.00

 eigenvalues of (default mixing * dielectric matrix)
  average eigenvalue GAMMA=   0.4939
  2.1916  0.5282  0.5282  0.4182  0.4182  0.2300  0.2300  0.1069  0.1440  0.1440

 Free energy of the ion-electron system (eV)
  ---------------------------------------------------
  alpha Z        PSCENC =      1893.09323658
  Ewald energy   TEWEN  =    230972.84921371
  -Hartree energ DENC   =   -352282.23724051
  -exchange      EXHF   =         0.00000000
  -V(xc)+E(xc)   XCENC  =      3651.36174491
  PAW double counting   =    142191.30308532  -147207.20965401
  entropy T*S    EENTRO =        -0.99147545
  eigenvalues    EBANDS =    -15573.63907462
  atomic energy  EATOM  =    136002.60505376
  Solvation  Ediel_sol  =         0.00000000
  ---------------------------------------------------
  free energy    TOTEN  =      -352.86511031 eV

  energy without entropy =     -351.87363486  energy(sigma->0) =     -352.36937259


--------------------------------------------------------------------------------------------------------




--------------------------------------- Iteration      1(  16)  ---------------------------------------


    POTLOK:  cpu time    0.2527: real time    0.2530
    SETDIJ:  cpu time    0.0188: real time    0.0188
     EDDAV:  cpu time    8.0442: real time    8.0573
       DOS:  cpu time    0.0012: real time    0.0012
    CHARGE:  cpu time    0.3128: real time    0.3128
    MIXING:  cpu time    0.0155: real time    0.0155
    --------------------------------------------
      LOOP:  cpu time    8.6451: real time    8.6586

 eigenvalue-minimisations  :  1272
 total energy-change (2. order) : 0.6677701E+00  (-0.1340751E+00)
 number of electron     792.0000046 magnetization 
 augmentation part      312.5761940 magnetization 

 Broyden mixing:
  rms(total) = 0.17234E+01    rms(broyden)= 0.17233E+01
  rms(prec ) = 0.19360E+01
  weight for this iteration     100.00

 eigenvalues of (default mixing * dielectric matrix)
  average eigenvalue GAMMA=   0.4752
  2.1752  0.5416  0.5416  0.4131  0.4131  0.3150  0.2694  0.1571  0.1571  0.1075
  0.1361

 Free energy of the ion-electron system (eV)
  ---------------------------------------------------
  alpha Z        PSCENC =      1893.09323658
  Ewald energy   TEWEN  =    230972.84921371
  -Hartree energ DENC   =   -352293.83023143
  -exchange      EXHF   =         0.00000000
  -V(xc)+E(xc)   XCENC  =      3651.62216905
  PAW double counting   =    141996.75887315  -147011.63619138
  entropy T*S    EENTRO =        -0.97024524
  eigenvalues    EBANDS =    -15562.68921841
  atomic energy  EATOM  =    136002.60505376
  Solvation  Ediel_sol  =         0.00000000
  ---------------------------------------------------
  free energy    TOTEN  =      -352.19734020 eV

  energy without entropy =     -351.22709496  energy(sigma->0) =     -351.71221758


--------------------------------------------------------------------------------------------------------




--------------------------------------- Iteration      1(  17)  ---------------------------------------


    POTLOK:  cpu time    0.2679: real time    0.2679
    SETDIJ:  cpu time    0.0237: real time    0.0237
     EDDAV:  cpu time    8.3020: real time    8.3057
       DOS:  cpu time    0.0012: real time    0.0012
    CHARGE:  cpu time    0.2503: real time    0.2503
    MIXING:  cpu time    0.0142: real time    0.0142
    --------------------------------------------
      LOOP:  cpu time    8.8593: real time    8.8631

 eigenvalue-minimisations  :  1280
 total energy-change (2. order) : 0.3190498E+00  (-0.2741754E-01)
 number of electron     792.0000044 magnetization 
 augmentation part      312.4321635 magnetization 

 Broyden mixing:
  rms(total) = 0.16710E+01    rms(broyden)= 0.16710E+01
  rms(prec ) = 0.18789E+01
  weight for this iteration     100.00

 eigenvalues of (default mixing * dielectric matrix)
  average eigenvalue GAMMA=   0.4874
  2.1913  0.6237  0.6237  0.4537  0.4537  0.3640  0.3640  0.1891  0.1891  0.1071
  0.1450  0.1450

 Free energy of the ion-electron system (eV)
  ---------------------------------------------------
  alpha Z        PSCENC =      1893.09323658
  Ewald energy   TEWEN  =    230972.84921371
  -Hartree energ DENC   =   -352298.15931434
  -exchange      EXHF   =         0.00000000
  -V(xc)+E(xc)   XCENC  =      3651.74161289
  PAW double counting   =    141827.17299186  -146840.81098966
  entropy T*S    EENTRO =        -0.96385579
  eigenvalues    EBANDS =    -15559.40623942
  atomic energy  EATOM  =    136002.60505376
  Solvation  Ediel_sol  =         0.00000000
  ---------------------------------------------------
  free energy    TOTEN  =      -351.87829042 eV

  energy without entropy =     -350.91443463  energy(sigma->0) =     -351.39636252


--------------------------------------------------------------------------------------------------------




--------------------------------------- Iteration      1(  18)  ---------------------------------------


    POTLOK:  cpu time    0.2526: real time    0.2526
    SETDIJ:  cpu time    0.0219: real time    0.0219
     EDDAV:  cpu time    7.2652: real time    7.2669
       DOS:  cpu time    0.0011: real time    0.0011
    CHARGE:  cpu time    0.2431: real time    0.2431
    MIXING:  cpu time    0.0141: real time    0.0141
    --------------------------------------------
      LOOP:  cpu time    7.7980: real time    7.7997

 eigenvalue-minimisations  :  1136
 total energy-change (2. order) : 0.1939017E+00  (-0.2220375E-01)
 number of electron     792.0000046 magnetization 
 augmentation part      312.4770297 magnetization 

 Broyden mixing:
  rms(total) = 0.15716E+01    rms(broyden)= 0.15715E+01
  rms(prec ) = 0.17766E+01
  weight for this iteration     100.00

 eigenvalues of (default mixing * dielectric matrix)
  average eigenvalue GAMMA=   0.5046
  2.2002  0.7980  0.7980  0.4878  0.4878  0.4191  0.4191  0.2035  0.2035  0.1072
  0.1512  0.1512  0.1336

 Free energy of the ion-electron system (eV)
  ---------------------------------------------------
  alpha Z        PSCENC =      1893.09323658
  Ewald energy   TEWEN  =    230972.84921371
  -Hartree energ DENC   =   -352297.72618572
  -exchange      EXHF   =         0.00000000
  -V(xc)+E(xc)   XCENC  =      3651.72539497
  PAW double counting   =    141694.33287956  -146706.41710556
  entropy T*S    EENTRO =        -0.97385795
  eigenvalues    EBANDS =    -15561.17301804
  atomic energy  EATOM  =    136002.60505376
  Solvation  Ediel_sol  =         0.00000000
  ---------------------------------------------------
  free energy    TOTEN  =      -351.68438868 eV

  energy without entropy =     -350.71053074  energy(sigma->0) =     -351.19745971


--------------------------------------------------------------------------------------------------------




--------------------------------------- Iteration      1(  19)  ---------------------------------------


    POTLOK:  cpu time    0.2512: real time    0.2513
    SETDIJ:  cpu time    0.0178: real time    0.0178
