<?xml version="1.0" encoding="ISO-8859-1"?>
<modeling>
 <generator>
  <i name="program" type="string">vasp </i>
  <i name="version" type="string">5.4.4.18Apr17-6-g9f103f2a35  </i>
  <i name="subversion" type="string">(build Aug 13 2019 17:33:20) gamma-only         parallel </i>
  <i name="platform" type="string">LinuxIFC </i>
  <i name="date" type="string">2020 05 14 </i>
  <i name="time" type="string">13:07:47 </i>
 </generator>
 <incar>
  <i type="string" name="SYSTEM">"Millerite NiS"</i>
  <i type="string" name="PREC">normal</i>
  <i type="int" name="NSIM">     4</i>
  <i type="int" name="NELM">   100</i>
  <i name="ENCUT">    450.00000000</i>
  <i type="string" name="LREAL">A</i>
  <i type="int" name="ISMEAR">     0</i>
  <i type="int" name="NWRITE">     2</i>
  <i type="logical" name="LWAVE"> F  </i>
  <i type="logical" name="LCHARG"> F  </i>
  <v type="int" name="KPOINT_BSE">    -1     0     0     0</v>
  <i type="int" name="NELM">   100</i>
 </incar>
 <structure name="primitive_cell" >
  <crystal>
   <varray name="basis" >
    <v>      10.07973298       0.00000000       0.00000000 </v>
    <v>       3.57329804       9.42510255       0.00000000 </v>
    <v>       0.00000000       0.00000000      20.68350356 </v>
   </varray>
   <i name="volume">   1964.98490008 </i>
   <varray name="rec_basis" >
    <v>       0.09920898      -0.03761267       0.00000000 </v>
    <v>       0.00000000       0.10609964       0.00000000 </v>
    <v>       0.00000000       0.00000000       0.04834771 </v>
   </varray>
  </crystal>
  <varray name="positions" >
   <v>       0.40641532      -0.21184755       0.13808457 </v>
   <v>       0.47082226      -0.18349087       0.04880332 </v>
   <v>       0.35047896      -0.35868028       0.19388260 </v>
   <v>       0.21677524      -0.22842990       0.09311026 </v>
   <v>       0.30255546       0.02257655       0.15078409 </v>
   <v>      -0.35852688      -0.30977399       0.16337940 </v>
   <v>       0.48437835      -0.00891367       0.09056793 </v>
   <v>       0.34908689      -0.44060119       0.10426872 </v>
   <v>      -0.45267260      -0.35531672       0.24509923 </v>
   <v>       0.45282397      -0.12769196       0.27772112 </v>
   <v>      -0.42937628       0.44370291       0.11716592 </v>
   <v>       0.22438173       0.03675628       0.25387405 </v>
   <v>       0.44888589       0.07645813       0.22033653 </v>
   <v>       0.06986647      -0.07497112       0.23580185 </v>
   <v>       0.01537355      -0.15669620       0.13571184 </v>
   <v>      -0.49237444       0.42017912       0.21156171 </v>
   <v>      -0.26787028       0.45988096       0.17802418 </v>
   <v>      -0.36627721       0.02474256       0.15157025 </v>
   <v>       0.16564206      -0.30696471       0.26264887 </v>
   <v>      -0.20913061      -0.19639804       0.16924937 </v>
   <v>       0.17122745       0.15037918       0.03741664 </v>
   <v>       0.07411322       0.18702480       0.12693702 </v>
   <v>       0.29861738       0.22672664       0.09339950 </v>
   <v>       0.20477520       0.46002257       0.07522310 </v>
   <v>      -0.49925253       0.49105121       0.32081962 </v>
   <v>      -0.48778939       0.17859002       0.05924791 </v>
   <v>      -0.21337736      -0.45839396       0.27811420 </v>
   <v>      -0.08040204       0.07529739       0.10886483 </v>
   <v>       0.01931163      -0.36084629       0.19309643 </v>
   <v>      -0.13095688      -0.21057777       0.06615941 </v>
   <v>      -0.23315608       0.00305607       0.07485695 </v>
   <v>       0.22013498      -0.22523963       0.36273888 </v>
   <v>      -0.21600870      -0.12552596       0.27850728 </v>
   <v>       0.37465024      -0.11351223       0.38081107 </v>
   <v>      -0.40084560      -0.07381039       0.34727355 </v>
   <v>       0.06723513       0.25789688       0.23619494 </v>
   <v>       0.35311030       0.30845172       0.19348951 </v>
   <v>      -0.08303338       0.40816539       0.10925791 </v>
   <v>       0.25713540       0.09756102       0.34872982 </v>
   <v>      -0.35835107       0.22658998       0.13658849 </v>
   <v>      -0.01813320      -0.40594985       0.09556367 </v>
   <v>       0.26408357       0.26126044       0.28741157 </v>
   <v>      -0.26393220       0.25573088       0.23540877 </v>
   <v>       0.11381506       0.41152895       0.16047455 </v>
   <v>      -0.16942877       0.02810612       0.20278689 </v>
   <v>      -0.49662119       0.15818320       0.32042654 </v>
   <v>      -0.01916026      -0.12216240       0.32972391 </v>
   <v>      -0.39690751      -0.27796047       0.40465814 </v>
   <v>       0.16958015       0.48888520       0.32003346 </v>
   <v>      -0.30240408       0.49441477       0.37203626 </v>
   <v>       0.07055995       0.36255746       0.03925888 </v>
   <v>       0.31591057      -0.45723322       0.38958589 </v>
   <v>      -0.05886210      -0.34666655       0.29618639 </v>
   <v>      -0.34210593       0.26991061       0.33849873 </v>
   <v>      -0.11760177       0.30961245       0.30496121 </v>
   <v>      -0.11919347       0.10985003       0.33069088 </v>
   <v>       0.41435209       0.11099193       0.41434860 </v>
   <v>       0.42782995      -0.30027320       0.45545333 </v>
   <v>       0.10988524      -0.24165817       0.44276113 </v>
   <v>       0.38413641      -0.08229286       0.47541813 </v>
   <v>      -0.26293042      -0.19253887       0.44607953 </v>
   <v>      -0.22227981       0.01652862       0.39383050 </v>
   <v>      -0.38884500       0.01485886       0.45049557 </v>
   <v>      -0.02570348      -0.02420068       0.43735084 </v>
   <v>      -0.08327384       0.39767121       0.39436108 </v>
   <v>      -0.06574018      -0.27579447       0.40544430 </v>
   <v>       0.07588292      -0.49334184       0.40717451 </v>
   <v>       0.28865270      -0.39197991       0.48766712 </v>
   <v>      -0.34898401       0.34078269       0.44775664 </v>
   <v>       0.29532699       0.35027569       0.42931994 </v>
   <v>       0.44535687       0.41049005       0.47694070 </v>
   <v>      -0.14486837       0.22405995       0.41759638 </v>
  </varray>
 </structure>
 <varray name="primitive_index" >
  <v type="int" >        1 </v>
  <v type="int" >       49 </v>
  <v type="int" >       62 </v>
  <v type="int" >       61 </v>
  <v type="int" >       42 </v>
  <v type="int" >       50 </v>
  <v type="int" >       23 </v>
  <v type="int" >       13 </v>
  <v type="int" >        2 </v>
  <v type="int" >       43 </v>
  <v type="int" >       38 </v>
  <v type="int" >       18 </v>
  <v type="int" >       29 </v>
  <v type="int" >       57 </v>
  <v type="int" >       32 </v>
  <v type="int" >       14 </v>
  <v type="int" >       26 </v>
  <v type="int" >       70 </v>
  <v type="int" >       33 </v>
  <v type="int" >       24 </v>
  <v type="int" >       41 </v>
  <v type="int" >       17 </v>
  <v type="int" >       28 </v>
  <v type="int" >       53 </v>
  <v type="int" >       63 </v>
  <v type="int" >       69 </v>
  <v type="int" >       51 </v>
  <v type="int" >       60 </v>
  <v type="int" >       45 </v>
  <v type="int" >       48 </v>
  <v type="int" >       36 </v>
  <v type="int" >       58 </v>
  <v type="int" >       71 </v>
  <v type="int" >       19 </v>
  <v type="int" >       30 </v>
  <v type="int" >       65 </v>
  <v type="int" >       54 </v>
  <v type="int" >       68 </v>
  <v type="int" >       66 </v>
  <v type="int" >       10 </v>
  <v type="int" >        8 </v>
  <v type="int" >        6 </v>
  <v type="int" >       39 </v>
  <v type="int" >        5 </v>
  <v type="int" >       11 </v>
  <v type="int" >       55 </v>
  <v type="int" >       12 </v>
  <v type="int" >       44 </v>
  <v type="int" >       46 </v>
  <v type="int" >        3 </v>
  <v type="int" >       21 </v>
  <v type="int" >       34 </v>
  <v type="int" >       25 </v>
  <v type="int" >       15 </v>
  <v type="int" >       27 </v>
  <v type="int" >       40 </v>
  <v type="int" >        7 </v>
  <v type="int" >       20 </v>
  <v type="int" >        9 </v>
  <v type="int" >       67 </v>
  <v type="int" >       31 </v>
  <v type="int" >       16 </v>
  <v type="int" >       56 </v>
  <v type="int" >       37 </v>
  <v type="int" >       52 </v>
  <v type="int" >       72 </v>
  <v type="int" >       22 </v>
  <v type="int" >       59 </v>
  <v type="int" >       64 </v>
  <v type="int" >       47 </v>
  <v type="int" >       35 </v>
  <v type="int" >        4 </v>
 </varray>
 <kpoints>
  <generation param="Gamma">
   <v type="int" name="divisions">       1        1        1 </v>
   <v name="usershift">      0.00000000       0.00000000       0.00000000 </v>
   <v name="genvec1">      1.00000000      -0.00000000       0.00000000 </v>
   <v name="genvec2">      0.00000000       1.00000000       0.00000000 </v>
   <v name="genvec3">      0.00000000       0.00000000       1.00000000 </v>
   <v name="shift">      0.00000000       0.00000000       0.00000000 </v>
  </generation>
  <varray name="kpointlist" >
   <v>       0.00000000       0.00000000       0.00000000 </v>
  </varray>
  <varray name="weights" >
   <v>       1.00000000 </v>
  </varray>
 </kpoints>
 <parameters>
  <separator name="general" >
   <i type="string" name="SYSTEM">"Millerite NiS"</i>
   <i type="logical" name="LCOMPAT"> F  </i>
  </separator>
  <separator name="electronic" >
   <i type="string" name="PREC">normal</i>
   <i name="ENMAX">    450.00000000</i>
   <i name="ENAUG">    703.44300000</i>
   <i name="EDIFF">      0.00010000</i>
   <i type="int" name="IALGO">    38</i>
   <i type="int" name="IWAVPR">    10</i>
   <i type="int" name="NBANDS">   476</i>
   <i name="NELECT">    792.00000000</i>
   <i type="int" name="TURBO">     0</i>
   <i type="int" name="IRESTART">     0</i>
   <i type="int" name="NREBOOT">     0</i>
   <i type="int" name="NMIN">     0</i>
   <i name="EREF">      0.00000000</i>
   <separator name="electronic smearing" >
    <i type="int" name="ISMEAR">     0</i>
    <i name="SIGMA">      0.20000000</i>
    <i name="KSPACING">      0.50000000</i>
    <i type="logical" name="KGAMMA"> T  </i>
   </separator>
   <separator name="electronic projectors" >
    <i type="logical" name="LREAL"> T  </i>
    <v name="ROPT">     -0.00050000     -0.00050000</v>
    <i type="int" name="LMAXPAW">  -100</i>
    <i type="int" name="LMAXMIX">     2</i>
    <i type="logical" name="NLSPLINE"> F  </i>
   </separator>
   <separator name="electronic startup" >
    <i type="int" name="ISTART">     0</i>
    <i type="int" name="ICHARG">     2</i>
    <i type="int" name="INIWAV">     1</i>
   </separator>
   <separator name="electronic spin" >
    <i type="int" name="ISPIN">     1</i>
    <i type="logical" name="LNONCOLLINEAR"> F  </i>
    <v name="MAGMOM">      1.00000000      1.00000000      1.00000000      1.00000000      1.00000000      1.00000000      1.00000000      1.00000000      1.00000000      1.00000000      1.00000000      1.00000000      1.00000000      1.00000000      1.00000000      1.00000000      1.00000000      1.00000000      1.00000000      1.00000000
      1.00000000      1.00000000      1.00000000      1.00000000      1.00000000      1.00000000      1.00000000      1.00000000      1.00000000      1.00000000      1.00000000      1.00000000      1.00000000      1.00000000      1.00000000      1.00000000      1.00000000      1.00000000      1.00000000      1.00000000
      1.00000000      1.00000000      1.00000000      1.00000000      1.00000000      1.00000000      1.00000000      1.00000000      1.00000000      1.00000000      1.00000000      1.00000000      1.00000000      1.00000000      1.00000000      1.00000000      1.00000000      1.00000000      1.00000000      1.00000000
      1.00000000      1.00000000      1.00000000      1.00000000      1.00000000      1.00000000      1.00000000      1.00000000      1.00000000      1.00000000      1.00000000      1.00000000</v>
    <i name="NUPDOWN">     -1.00000000</i>
    <i type="logical" name="LSORBIT"> F  </i>
    <v name="SAXIS">      0.00000000      0.00000000      1.00000000</v>
    <i type="logical" name="LSPIRAL"> F  </i>
    <v name="QSPIRAL">      0.00000000      0.00000000      0.00000000</v>
    <i type="logical" name="LZEROZ"> F  </i>
   </separator>
   <separator name="electronic exchange-correlation" >
    <i type="logical" name="LASPH"> F  </i>
    <i type="logical" name="LMETAGGA"> F  </i>
   </separator>
   <separator name="electronic convergence" >
    <i type="int" name="NELM">   100</i>
    <i type="int" name="NELMDL">    -5</i>
    <i type="int" name="NELMIN">     2</i>
    <i name="ENINI">    450.00000000</i>
    <separator name="electronic convergence detail" >
     <i type="logical" name="LDIAG"> T  </i>
     <i type="logical" name="LSUBROT"> F  </i>
     <i name="WEIMIN">      0.00000000</i>
     <i name="EBREAK">      0.00000005</i>
     <i name="DEPER">      0.30000000</i>
     <i type="int" name="NRMM">     4</i>
     <i name="TIME">      0.40000000</i>
    </separator>
   </separator>
   <separator name="electronic mixer" >
    <i name="AMIX">      0.40000000</i>
    <i name="BMIX">      1.00000000</i>
    <i name="AMIN">      0.10000000</i>
    <i name="AMIX_MAG">      1.60000000</i>
    <i name="BMIX_MAG">      1.00000000</i>
    <separator name="electronic mixer details" >
     <i type="int" name="IMIX">     4</i>
     <i type="logical" name="MIXFIRST"> F  </i>
     <i type="int" name="MAXMIX">   -45</i>
     <i name="WC">    100.00000000</i>
     <i type="int" name="INIMIX">     1</i>
     <i type="int" name="MIXPRE">     1</i>
     <i type="int" name="MREMOVE">     5</i>
    </separator>
   </separator>
   <separator name="electronic dipolcorrection" >
    <i type="logical" name="LDIPOL"> F  </i>
    <i type="logical" name="LMONO"> F  </i>
    <i type="int" name="IDIPOL">     0</i>
    <i name="EPSILON">      1.00000000</i>
    <v name="DIPOL">   -100.00000000   -100.00000000   -100.00000000</v>
    <i name="EFIELD">      0.00000000</i>
   </separator>
  </separator>
  <separator name="grids" >
   <i type="int" name="NGX">    54</i>
   <i type="int" name="NGY">    54</i>
   <i type="int" name="NGZ">   108</i>
   <i type="int" name="NGXF">   108</i>
   <i type="int" name="NGYF">   108</i>
   <i type="int" name="NGZF">   216</i>
   <i type="logical" name="ADDGRID"> F  </i>
  </separator>
  <separator name="ionic" >
   <i type="int" name="NSW">     0</i>
   <i type="int" name="IBRION">    -1</i>
   <i type="int" name="MDALGO">     0</i>
   <i type="int" name="ISIF">     2</i>
   <i name="PSTRESS">      0.00000000</i>
   <i name="EDIFFG">      0.00100000</i>
   <i type="int" name="NFREE">     0</i>
   <i name="POTIM">      0.50000000</i>
   <i name="SMASS">     -3.00000000</i>
   <i name="SCALEE">      1.00000000</i>
  </separator>
  <separator name="ionic md" >
   <i name="TEBEG">      0.00010000</i>
   <i name="TEEND">      0.00010000</i>
   <i type="int" name="NBLOCK">     1</i>
   <i type="int" name="KBLOCK">     1</i>
   <i type="int" name="NPACO">   256</i>
   <i name="APACO">     16.00000000</i>
  </separator>
  <separator name="symmetry" >
   <i type="int" name="ISYM">     2</i>
   <i name="SYMPREC">      0.00001000</i>
  </separator>
  <separator name="dos" >
   <i type="int" name="LORBIT">     0</i>
   <v name="RWIGS">     -1.00000000     -1.00000000</v>
   <i type="int" name="NEDOS">   301</i>
   <i name="EMIN">     10.00000000</i>
   <i name="EMAX">    -10.00000000</i>
   <i name="EFERMI">      0.00000000</i>
  </separator>
  <separator name="writing" >
   <i type="int" name="NWRITE">     2</i>
   <i type="logical" name="LWAVE"> F  </i>
   <i type="logical" name="LDOWNSAMPLE"> F  </i>
   <i type="logical" name="LCHARG"> F  </i>
   <i type="logical" name="LPARD"> F  </i>
   <i type="logical" name="LVTOT"> F  </i>
   <i type="logical" name="LVHAR"> F  </i>
   <i type="logical" name="LELF"> F  </i>
   <i type="logical" name="LOPTICS"> F  </i>
   <v name="STM">      0.00000000      0.00000000      0.00000000      0.00000000      0.00000000      0.00000000      0.00000000</v>
  </separator>
  <separator name="performance" >
   <i type="int" name="NPAR">     2</i>
   <i type="int" name="NSIM">     4</i>
   <i type="int" name="NBLK">    -1</i>
   <i type="logical" name="LPLANE"> T  </i>
   <i type="logical" name="LSCALAPACK"> T  </i>
   <i type="logical" name="LSCAAWARE"> F  </i>
   <i type="logical" name="LSCALU"> F  </i>
   <i type="logical" name="LASYNC"> F  </i>
   <i type="logical" name="LORBITALREAL"> F  </i>
  </separator>
  <separator name="miscellaneous" >
   <i type="int" name="IDIOT">     3</i>
   <i type="int" name="ISPECIAL">     0</i>
   <i type="logical" name="LMUSIC"> F  </i>
   <v name="POMASS">     58.69000000     32.06600000</v>
   <v name="DARWINR">      0.00000000      0.00000000</v>
   <v name="DARWINV">      1.00000000      1.00000000</v>
   <i type="logical" name="LCORR"> T  </i>
  </separator>
  <i type="logical" name="GGA_COMPAT"> T  </i>
  <i type="logical" name="LBERRY"> F  </i>
  <i type="int" name="ICORELEVEL">     0</i>
  <i type="logical" name="LDAU"> F  </i>
  <i type="int" name="I_CONSTRAINED_M">     0</i>
  <separator name="electronic exchange-correlation" >
   <i type="string" name="GGA">--</i>
   <i type="int" name="VOSKOWN">     0</i>
   <i type="logical" name="LHFCALC"> F  </i>
   <i type="string" name="PRECFOCK"></i>
   <i type="logical" name="LSYMGRAD"> F  </i>
   <i type="logical" name="LHFONE"> F  </i>
   <i type="logical" name="LRHFCALC"> F  </i>
   <i type="logical" name="LTHOMAS"> F  </i>
   <i type="logical" name="LMODELHF"> F  </i>
   <i name="ENCUT4O">     -1.00000000</i>
   <i type="int" name="EXXOEP">     0</i>
   <i type="int" name="FOURORBIT">     0</i>
   <i name="AEXX">      0.00000000</i>
   <i name="HFALPHA">      0.00000000</i>
   <i name="MCALPHA">      0.00000000</i>
   <i name="ALDAX">      1.00000000</i>
   <i name="AGGAX">      1.00000000</i>
   <i name="ALDAC">      1.00000000</i>
   <i name="AGGAC">      1.00000000</i>
   <i type="int" name="NKREDX">     1</i>
   <i type="int" name="NKREDY">     1</i>
   <i type="int" name="NKREDZ">     1</i>
   <i type="logical" name="SHIFTRED"> F  </i>
   <i type="logical" name="ODDONLY"> F  </i>
   <i type="logical" name="EVENONLY"> F  </i>
   <i type="int" name="LMAXFOCK">     0</i>
   <i type="int" name="NMAXFOCKAE">     0</i>
   <i type="logical" name="LFOCKAEDFT"> F  </i>
   <i name="HFSCREEN">      0.00000000</i>
   <i name="HFSCREENC">      0.00000000</i>
   <i type="int" name="NBANDSGWLOW">     0</i>
  </separator>
  <separator name="vdW DFT" >
   <i type="logical" name="LUSE_VDW"> F  </i>
   <i name="Zab_VDW">     -0.84910000</i>
   <i name="PARAM1">      0.12340000</i>
   <i name="PARAM2">      1.00000000</i>
   <i name="PARAM3">      0.00000000</i>
  </separator>
  <separator name="model GW" >
   <i type="int" name="MODEL_GW">     0</i>
   <i name="MODEL_EPS0">     16.37487417</i>
   <i name="MODEL_ALPHA">      1.00000000</i>
  </separator>
  <separator name="linear response parameters" >
   <i type="logical" name="LEPSILON"> F  </i>
   <i type="logical" name="LRPA"> F  </i>
   <i type="logical" name="LNABLA"> F  </i>
   <i type="logical" name="LVEL"> F  </i>
   <i type="int" name="KINTER">     0</i>
   <i name="CSHIFT">      0.10000000</i>
   <i name="OMEGAMAX">     -1.00000000</i>
   <i name="DEG_THRESHOLD">      0.00200000</i>
   <i name="RTIME">     -0.10000000</i>
   <i name="WPLASMAI">      0.00000000</i>
   <v name="DFIELD">      0.00000000      0.00000000      0.00000000</v>
   <v name="WPLASMA">      0.00000000      0.00000000      0.00000000      0.00000000      0.00000000      0.00000000      0.00000000      0.00000000      0.00000000</v>
  </separator>
  <separator name="orbital magnetization" >
   <i type="logical" name="NUCIND"> F  </i>
   <v name="MAGPOS">      0.00000000      0.00000000      0.00000000</v>
   <i type="logical" name="LNICSALL"> T  </i>
   <i type="logical" name="ORBITALMAG"> F  </i>
   <i type="logical" name="LMAGBLOCH"> F  </i>
   <i type="logical" name="LCHIMAG"> F  </i>
   <i type="logical" name="LGAUGE"> T  </i>
   <i type="int" name="MAGATOM">     0</i>
   <v name="MAGDIPOL">      0.00000000      0.00000000      0.00000000</v>
   <v name="AVECCONST">      0.00000000      0.00000000      0.00000000</v>
  </separator>
  <separator name="response functions" >
   <i type="logical" name="LADDER"> F  </i>
   <i type="logical" name="LRPAFORCE"> F  </i>
   <i type="logical" name="LFXC"> F  </i>
   <i type="logical" name="LHARTREE"> T  </i>
   <i type="int" name="IBSE">     0</i>
   <v type="int" name="KPOINT">    -1     0     0     0</v>
   <i type="logical" name="LTCTE"> F  </i>
   <i type="logical" name="LTETE"> F  </i>
   <i type="logical" name="LTRIPLET"> F  </i>
   <i type="logical" name="LFXCEPS"> F  </i>
   <i type="logical" name="LFXHEG"> F  </i>
   <i type="int" name="NATURALO">     2</i>
   <i type="logical" name="L2ORDER"> F  </i>
   <i type="logical" name="LMP2LT"> F  </i>
   <i type="logical" name="LUSEW"> F  </i>
   <i name="ENCUTGW">     -2.00000000</i>
   <i name="ENCUTGWSOFT">     -2.00000000</i>
   <i name="ENCUTLF">     -1.00000000</i>
   <i type="int" name="LMAXMP2">    -1</i>
   <i name="SCISSOR">      0.00000000</i>
   <i type="int" name="NOMEGA">     0</i>
   <i type="int" name="NOMEGAR">     0</i>
   <i type="int" name="NBANDSGW">    -1</i>
   <i type="int" name="NBANDSO">    -1</i>
   <i type="int" name="NBANDSV">    -1</i>
   <i type="int" name="NELM">   100</i>
   <i type="int" name="NELMHF">     1</i>
   <i type="int" name="DIM">     3</i>
   <i type="int" name="ANTIRES">     0</i>
   <i name="OMEGAMAX">    -30.00000000</i>
   <i name="OMEGAMIN">    -30.00000000</i>
   <i name="OMEGATL">   -200.00000000</i>
   <i type="int" name="OMEGAGRID">   140</i>
   <i name="CSHIFT">     -0.10000000</i>
   <i type="logical" name="SELFENERGY"> F  </i>
   <i type="logical" name="LSPECTRAL"> F  </i>
   <i type="logical" name="LSPECTRALGW"> F  </i>
   <i type="logical" name="LSINGLES"> F  </i>
   <i type="logical" name="LFERMIGW"> F  </i>
   <i type="logical" name="ODDONLYGW"> F  </i>
   <i type="logical" name="EVENONLYGW"> F  </i>
   <i type="int" name="NKREDLFX">     1</i>
   <i type="int" name="NKREDLFY">     1</i>
   <i type="int" name="NKREDLFZ">     1</i>
   <i type="int" name="MAXMEM">  2800</i>
   <i type="int" name="TELESCOPE">     0</i>
   <i type="int" name="TAUPAR">     1</i>
   <i type="int" name="OMEGAPAR">    -1</i>
   <i name="LAMBDA">      1.00000000</i>
  </separator>
  <separator name="External order field" >
   <i name="OFIELD_KAPPA">      0.00000000</i>
   <v name="OFIELD_K">      0.00000000      0.00000000      0.00000000</v>
   <i name="OFIELD_Q6_NEAR">      0.00000000</i>
   <i name="OFIELD_Q6_FAR">      0.00000000</i>
   <i name="OFIELD_A">      0.00000000</i>
  </separator>
 </parameters>
 <atominfo>
  <atoms>      72 </atoms>
  <types>       2 </types>
  <array name="atoms" >
   <dimension dim="1">ion</dimension>
   <field type="string">element</field>
   <field type="int">atomtype</field>
   <set>
    <rc><c>Ni</c><c>   1</c></rc>
    <rc><c>Ni</c><c>   1</c></rc>
    <rc><c>Ni</c><c>   1</c></rc>
    <rc><c>Ni</c><c>   1</c></rc>
    <rc><c>Ni</c><c>   1</c></rc>
    <rc><c>Ni</c><c>   1</c></rc>
    <rc><c>Ni</c><c>   1</c></rc>
    <rc><c>Ni</c><c>   1</c></rc>
    <rc><c>Ni</c><c>   1</c></rc>
    <rc><c>Ni</c><c>   1</c></rc>
    <rc><c>Ni</c><c>   1</c></rc>
    <rc><c>Ni</c><c>   1</c></rc>
    <rc><c>Ni</c><c>   1</c></rc>
    <rc><c>Ni</c><c>   1</c></rc>
    <rc><c>Ni</c><c>   1</c></rc>
    <rc><c>Ni</c><c>   1</c></rc>
    <rc><c>Ni</c><c>   1</c></rc>
    <rc><c>Ni</c><c>   1</c></rc>
    <rc><c>Ni</c><c>   1</c></rc>
    <rc><c>Ni</c><c>   1</c></rc>
    <rc><c>Ni</c><c>   1</c></rc>
    <rc><c>Ni</c><c>   1</c></rc>
    <rc><c>Ni</c><c>   1</c></rc>
    <rc><c>Ni</c><c>   1</c></rc>
    <rc><c>Ni</c><c>   1</c></rc>
    <rc><c>Ni</c><c>   1</c></rc>
    <rc><c>Ni</c><c>   1</c></rc>
    <rc><c>Ni</c><c>   1</c></rc>
    <rc><c>Ni</c><c>   1</c></rc>
    <rc><c>Ni</c><c>   1</c></rc>
    <rc><c>Ni</c><c>   1</c></rc>
    <rc><c>Ni</c><c>   1</c></rc>
    <rc><c>Ni</c><c>   1</c></rc>
    <rc><c>Ni</c><c>   1</c></rc>
    <rc><c>Ni</c><c>   1</c></rc>
    <rc><c>Ni</c><c>   1</c></rc>
    <rc><c>S </c><c>   2</c></rc>
    <rc><c>S </c><c>   2</c></rc>
    <rc><c>S </c><c>   2</c></rc>
    <rc><c>S </c><c>   2</c></rc>
    <rc><c>S </c><c>   2</c></rc>
    <rc><c>S </c><c>   2</c></rc>
    <rc><c>S </c><c>   2</c></rc>
    <rc><c>S </c><c>   2</c></rc>
    <rc><c>S </c><c>   2</c></rc>
    <rc><c>S </c><c>   2</c></rc>
    <rc><c>S </c><c>   2</c></rc>
    <rc><c>S </c><c>   2</c></rc>
    <rc><c>S </c><c>   2</c></rc>
    <rc><c>S </c><c>   2</c></rc>
    <rc><c>S </c><c>   2</c></rc>
    <rc><c>S </c><c>   2</c></rc>
    <rc><c>S </c><c>   2</c></rc>
    <rc><c>S </c><c>   2</c></rc>
    <rc><c>S </c><c>   2</c></rc>
    <rc><c>S </c><c>   2</c></rc>
    <rc><c>S </c><c>   2</c></rc>
    <rc><c>S </c><c>   2</c></rc>
    <rc><c>S </c><c>   2</c></rc>
    <rc><c>S </c><c>   2</c></rc>
    <rc><c>S </c><c>   2</c></rc>
    <rc><c>S </c><c>   2</c></rc>
    <rc><c>S </c><c>   2</c></rc>
    <rc><c>S </c><c>   2</c></rc>
    <rc><c>S </c><c>   2</c></rc>
    <rc><c>S </c><c>   2</c></rc>
    <rc><c>S </c><c>   2</c></rc>
    <rc><c>S </c><c>   2</c></rc>
    <rc><c>S </c><c>   2</c></rc>
    <rc><c>S </c><c>   2</c></rc>
    <rc><c>S </c><c>   2</c></rc>
    <rc><c>S </c><c>   2</c></rc>
   </set>
  </array>
  <array name="atomtypes" >
   <dimension dim="1">type</dimension>
   <field type="int">atomspertype</field>
   <field type="string">element</field>
   <field>mass</field>
   <field>valence</field>
   <field type="string">pseudopotential</field>
   <set>
    <rc><c>  36</c><c>Ni</c><c>     58.69000000</c><c>     16.00000000</c><c>  PAW_PBE Ni_pv 06Sep2000               </c></rc>
    <rc><c>  36</c><c>S </c><c>     32.06600000</c><c>      6.00000000</c><c>  PAW_PBE S 06Sep2000                   </c></rc>
   </set>
  </array>
 </atominfo>
 <structure name="initialpos" >
  <crystal>
   <varray name="basis" >
    <v>      10.07973298       0.00000000       0.00000000 </v>
    <v>       3.57329804       9.42510255       0.00000000 </v>
    <v>       0.00000000       0.00000000      20.68350356 </v>
   </varray>
   <i name="volume">   1964.98490008 </i>
   <varray name="rec_basis" >
    <v>       0.09920898      -0.03761267       0.00000000 </v>
    <v>       0.00000000       0.10609964       0.00000000 </v>
    <v>       0.00000000       0.00000000       0.04834771 </v>
   </varray>
  </crystal>
  <varray name="positions" >
   <v>       0.40641532       0.78815245       0.13808457 </v>
   <v>       0.54732740       0.64468328       0.24509923 </v>
   <v>       0.69759592       0.49441477       0.37203626 </v>
   <v>       0.85513163       0.22405995       0.41759638 </v>
   <v>       0.11381506       0.41152895       0.16047455 </v>
   <v>       0.26408357       0.26126044       0.28741157 </v>
   <v>       0.41435209       0.11099193       0.41434860 </v>
   <v>       0.98186680       0.59405015       0.09556367 </v>
   <v>       0.10988524       0.75834183       0.44276113 </v>
   <v>       0.64164893       0.22658998       0.13658849 </v>
   <v>       0.83057123       0.02810612       0.20278689 </v>
   <v>       0.98083974       0.87783760       0.32972391 </v>
   <v>       0.34908689       0.55939881       0.10426872 </v>
   <v>       0.50762556       0.42017912       0.21156171 </v>
   <v>       0.65789407       0.26991061       0.33849873 </v>
   <v>       0.77772019       0.01652862       0.39383050 </v>
   <v>       0.07411322       0.18702480       0.12693702 </v>
   <v>       0.22438173       0.03675628       0.25387405 </v>
   <v>       0.37465024       0.88648777       0.38081107 </v>
   <v>       0.42782995       0.69972680       0.45545333 </v>
   <v>       0.07055995       0.36255746       0.03925888 </v>
   <v>       0.07588292       0.50665816       0.40717451 </v>
   <v>       0.48437835       0.99108633       0.09056793 </v>
   <v>       0.79086939       0.80360196       0.16924937 </v>
   <v>       0.94113790       0.65333345       0.29618639 </v>
   <v>       0.73212972       0.45988096       0.17802418 </v>
   <v>       0.88239823       0.30961245       0.30496121 </v>
   <v>       0.29861738       0.22672664       0.09339950 </v>
   <v>       0.44888589       0.07645813       0.22033653 </v>
   <v>       0.59915440       0.92618961       0.34727355 </v>
   <v>       0.73706958       0.80746113       0.44607953 </v>
   <v>       0.01537355       0.84330380       0.13571184 </v>
   <v>       0.16564206       0.69303529       0.26264887 </v>
   <v>       0.31591057       0.54276678       0.38958589 </v>
   <v>       0.44535687       0.41049005       0.47694070 </v>
   <v>       0.76684392       0.00305607       0.07485695 </v>
   <v>       0.97429652       0.97579932       0.43735084 </v>
   <v>       0.57062372       0.44370291       0.11716592 </v>
   <v>       0.73606780       0.25573088       0.23540877 </v>
   <v>       0.88080653       0.10985003       0.33069088 </v>
   <v>       0.17122745       0.15037918       0.03741664 </v>
   <v>       0.30255546       0.02257655       0.15078409 </v>
   <v>       0.45282397       0.87230804       0.27772112 </v>
   <v>       0.60309249       0.72203953       0.40465814 </v>
   <v>       0.01931163       0.63915371       0.19309643 </v>
   <v>       0.16958015       0.48888520       0.32003346 </v>
   <v>       0.29532699       0.35027569       0.42931994 </v>
   <v>       0.86904312       0.78942223       0.06615941 </v>
   <v>       0.47082226       0.81650913       0.04880332 </v>
   <v>       0.64147312       0.69022601       0.16337940 </v>
   <v>       0.78662264       0.54160604       0.27811420 </v>
   <v>       0.91672616       0.39767121       0.39436108 </v>
   <v>       0.20477520       0.46002257       0.07522310 </v>
   <v>       0.35311030       0.30845172       0.19348951 </v>
   <v>       0.50337881       0.15818320       0.32042654 </v>
   <v>       0.61115500       0.01485886       0.45049557 </v>
   <v>       0.06986647       0.92502888       0.23580185 </v>
   <v>       0.22013498       0.77476037       0.36273888 </v>
   <v>       0.28865270       0.60802009       0.48766712 </v>
   <v>       0.91959796       0.07529739       0.10886483 </v>
   <v>       0.21677524       0.77157010       0.09311026 </v>
   <v>       0.35047896       0.64131972       0.19388260 </v>
   <v>       0.50074747       0.49105121       0.32081962 </v>
   <v>       0.65101599       0.34078269       0.44775664 </v>
   <v>       0.06723513       0.25789688       0.23619494 </v>
   <v>       0.25713540       0.09756102       0.34872982 </v>
   <v>       0.38413641       0.91770714       0.47541813 </v>
   <v>       0.91696662       0.40816539       0.10925791 </v>
   <v>       0.51221061       0.17859002       0.05924791 </v>
   <v>       0.63372279       0.02474256       0.15157025 </v>
   <v>       0.78399130       0.87447404       0.27850728 </v>
   <v>       0.93425982       0.72420553       0.40544430 </v>
  </varray>
 </structure>
 <calculation>
  <scstep>
   <time name="dav">    7.02    7.02</time>
   <time name="total">    7.30    7.30</time>
   <energy>
    <i name="alphaZ">   1893.09323658 </i>
    <i name="ewald"> 230972.84921371 </i>
    <i name="hartreedc">-353142.75785598 </i>
    <i name="XCdc">   3682.73625776 </i>
    <i name="pawpsdc"> 112729.53333415 </i>
    <i name="pawaedc">-117641.51188735 </i>
    <i name="eentropy">     -0.49170944 </i>
    <i name="bandstr">  -4555.76409493 </i>
    <i name="atom"> 136002.60505376 </i>
    <i name="e_fr_energy">   9940.29154826 </i>
    <i name="e_wo_entrp">   9940.78325770 </i>
    <i name="e_0_energy">   9940.53740298 </i>
   </energy>
  </scstep>
  <scstep>
   <time name="dav">    6.96    6.97</time>
   <time name="total">    6.97    6.97</time>
   <energy>
    <i name="e_fr_energy">    617.83340667 </i>
    <i name="e_wo_entrp">    618.49058075 </i>
    <i name="e_0_energy">    618.16199371 </i>
   </energy>
  </scstep>
  <scstep>
   <time name="dav">    7.77    7.78</time>
   <time name="total">    7.77    7.78</time>
   <energy>
    <i name="e_fr_energy">   -336.60911722 </i>
    <i name="e_wo_entrp">   -335.53539428 </i>
    <i name="e_0_energy">   -336.07225575 </i>
   </energy>
  </scstep>
  <scstep>
   <time name="dav">    7.34    7.34</time>
   <time name="total">    7.34    7.34</time>
   <energy>
    <i name="e_fr_energy">   -395.15278850 </i>
    <i name="e_wo_entrp">   -394.02438704 </i>
    <i name="e_0_energy">   -394.58858777 </i>
   </energy>
  </scstep>
  <scstep>
   <time name="dav">    7.99    7.99</time>
   <time name="total">    8.27    8.27</time>
   <energy>
    <i name="e_fr_energy">   -397.59490335 </i>
    <i name="e_wo_entrp">   -396.47812074 </i>
    <i name="e_0_energy">   -397.03651204 </i>
   </energy>
  </scstep>
  <scstep>
   <time name="dav">    7.79    7.79</time>
   <time name="total">    8.28    8.28</time>
   <energy>
    <i name="e_fr_energy">   -462.06929482 </i>
    <i name="e_wo_entrp">   -461.16620524 </i>
    <i name="e_0_energy">   -461.61775003 </i>
   </energy>
  </scstep>
  <scstep>
   <time name="dav">    6.81    6.81</time>
   <time name="total">    7.51    7.51</time>
   <energy>
    <i name="e_fr_energy">   -366.69099084 </i>
    <i name="e_wo_entrp">   -365.84973243 </i>
    <i name="e_0_energy">   -366.27036163 </i>
   </energy>
  </scstep>
  <scstep>
   <time name="dav">    8.25    8.25</time>
   <time name="total">    8.79    8.79</time>
   <energy>
    <i name="e_fr_energy">   -416.78972111 </i>
    <i name="e_wo_entrp">   -415.57908775 </i>
    <i name="e_0_energy">   -416.18440443 </i>
   </energy>
  </scstep>
  <scstep>
   <time name="dav">    8.77    8.78</time>
   <time name="total">    9.40    9.40</time>
   <energy>
    <i name="e_fr_energy">   -379.62934134 </i>
    <i name="e_wo_entrp">   -378.64777999 </i>
    <i name="e_0_energy">   -379.13856066 </i>
   </energy>
  </scstep>
  <scstep>
   <time name="dav">    8.24    8.24</time>
   <time name="total">    8.84    8.85</time>
   <energy>
    <i name="e_fr_energy">   -390.04858994 </i>
    <i name="e_wo_entrp">   -388.83070488 </i>
    <i name="e_0_energy">   -389.43964741 </i>
   </energy>
  </scstep>
  <scstep>
   <time name="dav">    7.93    7.94</time>
   <time name="total">    8.49    8.50</time>
   <energy>
    <i name="e_fr_energy">   -373.94999230 </i>
    <i name="e_wo_entrp">   -373.02146926 </i>
    <i name="e_0_energy">   -373.48573078 </i>
   </energy>
  </scstep>
  <scstep>
   <time name="dav">    8.18    8.18</time>
   <time name="total">    8.81    8.81</time>
   <energy>
    <i name="e_fr_energy">   -369.95410273 </i>
    <i name="e_wo_entrp">   -368.98897544 </i>
    <i name="e_0_energy">   -369.47153909 </i>
   </energy>
  </scstep>
  <scstep>
   <time name="dav">    8.21    8.22</time>
   <time name="total">    8.76    8.77</time>
   <energy>
    <i name="e_fr_energy">   -359.05633498 </i>
    <i name="e_wo_entrp">   -358.08610883 </i>
    <i name="e_0_energy">   -358.57122191 </i>
   </energy>
  </scstep>
  <scstep>
   <time name="dav">    8.53    8.53</time>
   <time name="total">    9.08    9.08</time>
   <energy>
    <i name="e_fr_energy">   -354.85429078 </i>
    <i name="e_wo_entrp">   -353.97732881 </i>
    <i name="e_0_energy">   -354.41580979 </i>
   </energy>
  </scstep>
  <scstep>
   <time name="dav">    8.52    8.52</time>
   <time name="total">    9.06    9.06</time>
   <energy>
    <i name="e_fr_energy">   -352.86511031 </i>
    <i name="e_wo_entrp">   -351.87363486 </i>
    <i name="e_0_energy">   -352.36937259 </i>
   </energy>
  </scstep>
  <scstep>
   <time name="dav">    8.04    8.06</time>
   <time name="total">    8.65    8.66</time>
   <energy>
    <i name="e_fr_energy">   -352.19734020 </i>
    <i name="e_wo_entrp">   -351.22709496 </i>
    <i name="e_0_energy">   -351.71221758 </i>
   </energy>
  </scstep>
  <scstep>
   <time name="dav">    8.30    8.31</time>
   <time name="total">    8.86    8.86</time>
   <energy>
    <i name="e_fr_energy">   -351.87829042 </i>
    <i name="e_wo_entrp">   -350.91443463 </i>
    <i name="e_0_energy">   -351.39636252 </i>
   </energy>
  </scstep>
  <scstep>
   <time name="dav">    7.27    7.27</time>
   <time name="total">    7.80    7.80</time>
   <energy>
    <i name="e_fr_energy">   -351.68438868 </i>
    <i name="e_wo_entrp">   -350.71053074 </i>
    <i name="e_0_energy">   -351.19745971 </i>
   </energy>
  </scstep>
  <scstep>
