LAMMPS (5 Jun 2019)
OMP_NUM_THREADS environment is not set. Defaulting to 1 thread. (../comm.cpp:88)
  using 1 OpenMP thread(s) per MPI task
Reading data file ...
  triclinic box = (0 0 0) to (11.4528 8.70073 20.6429) with tilt (-4.0054 0 0)
  1 by 1 by 1 MPI processor grid
  reading atoms ...
  74 atoms
  read_data CPU = 0.000804108 secs
47 atoms in group bulk
WARNING: Using 'neigh_modify every 1 delay 0 check yes' setting during minimization (../min.cpp:168)
Neighbor list info ...
  update every 1 steps, delay 0 steps, check yes
  max neighbors/atom: 2000, page size: 100000
  master list distance cutoff = 8.5
  ghost atom cutoff = 8.5
  binsize = 4.25, bins = 4 3 5
  1 neighbor lists, perpetual/occasional/extra = 1 0 0
  (1) pair eam/alloy, perpetual
      attributes: half, newton on
      pair build: half/bin/newton/tri
      stencil: half/bin/3d/newton/tri
      bin: standard
Setting up cg style minimization ...
  Unit style    : metal
  Current step  : 0
Per MPI rank memory allocation (min/avg/max) = 4.119 | 4.119 | 4.119 Mbytes
Step Temp E_pair E_mol TotEng Press 
       0            0   -314.88766            0   -314.88766   -126005.98 
      56            0   -334.01341            0   -334.01341   -47447.708 
Loop time of 0.0372803 on 1 procs for 56 steps with 74 atoms

99.2% CPU use with 1 MPI tasks x 1 OpenMP threads

Minimization stats:
  Stopping criterion = energy tolerance
  Energy initial, next-to-last, final = 
         -314.88766381     -334.012393594     -334.013405543
  Force two-norm initial, final = 10.8811 0.127391
  Force max component initial, final = 2.93516 0.0588305
  Final line search alpha, max atom move = 1 0.0588305
  Iterations, force evaluations = 56 81

MPI task timing breakdown:
Section |  min time  |  avg time  |  max time  |%varavg| %total
---------------------------------------------------------------
Pair    | 0.034105   | 0.034105   | 0.034105   |   0.0 | 91.48
Neigh   | 0.0016809  | 0.0016809  | 0.0016809  |   0.0 |  4.51
Comm    | 0.00081579 | 0.00081579 | 0.00081579 |   0.0 |  2.19
Output  | 0          | 0          | 0          |   0.0 |  0.00
Modify  | 5.8074e-05 | 5.8074e-05 | 5.8074e-05 |   0.0 |  0.16
Other   |            | 0.0006206  |            |       |  1.66

Nlocal:    74 ave 74 max 74 min
Histogram: 1 0 0 0 0 0 0 0 0 0
Nghost:    996 ave 996 max 996 min
Histogram: 1 0 0 0 0 0 0 0 0 0
Neighs:    4879 ave 4879 max 4879 min
Histogram: 1 0 0 0 0 0 0 0 0 0

Total # of neighbors = 4879
Ave neighs/atom = 65.9324
Neighbor list builds = 3
Dangerous builds = 0
System init for write_data ...
Total wall time: 0:00:00
