 vasp.6.1.0 28Jan20 (build Mar 31 2020 17:42:31) gamma-only                     
  
 executed on             LinuxIFC date 2020.04.12  09:54:15
 running on   48 total cores
 distrk:  each k-point on   48 cores,    1 groups
 distr:  one band on NCORE=   6 cores,    8 groups


--------------------------------------------------------------------------------------------------------


 INCAR:
 POTCAR:    PAW_PBE Ni_pv 06Sep2000               
 POTCAR:    PAW_PBE S 06Sep2000                   
 POTCAR:    PAW_PBE Ni_pv 06Sep2000               
   VRHFIN =Ni:                                                                                      
   LEXCH  = PE                                                                                      
   EATOM  =  3501.1230 eV,  257.3253 Ry                                                             
                                                                                                    
   TITEL  = PAW_PBE Ni_pv 06Sep2000                                                                 
   LULTRA =        F    use ultrasoft PP ?                                                          
   IUNSCR =        1    unscreen: 0-lin 1-nonlin 2-no                                               
   RPACOR =    1.500    partial core radius                                                         
   POMASS =   58.690; ZVAL   =   16.000    mass and valenz                                          
   RCORE  =    2.000    outmost cutoff radius                                                       
   RWIGS  =    2.000; RWIGS  =    1.058    wigner-seitz radius (au A)                               
   ENMAX  =  367.986; ENMIN  =  275.989 eV                                                          
   RCLOC  =    1.301    cutoff for local pot                                                        
   LCOR   =        T    correct aug charges                                                         
   LPAW   =        T    paw PP                                                                      
   EAUG   =  703.443                                                                                
   DEXC   =    0.000                                                                                
   RMAX   =    2.041    core radius for proj-oper                                                   
   RAUG   =    1.300    factor for augmentation sphere                                              
   RDEP   =    2.103    radius for radial grids                                                     
   RDEPT  =    1.618    core radius for aug-charge                                                  
                                                                                                    
   Atomic configuration                                                                             
    8 entries                                                                                       
     n  l   j            E        occ.                                                              
     1  0  0.50     -8206.4253   2.0000                                                             
     2  0  0.50      -976.1748   2.0000                                                             
     2  1  1.50      -839.0571   6.0000                                                             
     3  0  0.50      -105.9991   2.0000                                                             
     3  1  1.50       -66.4603   6.0000                                                             
     3  2  2.50        -4.6458   9.0000                                                             
     4  0  0.50        -4.4926   1.0000                                                             
     4  3  2.50        -1.3606   0.0000                                                             
   Description                                                                                      
     l       E           TYP  RCUT    TYP  RCUT                                                     
     1    -66.4602962     23  1.700                                                                 
     1     -1.3605826     23  1.700                                                                 
     2     -4.6457867     23  2.000                                                                 
     2     -6.0063693     23  2.000                                                                 
     0     -4.4925576     23  1.900                                                                 
     0     16.3626226     23  1.900                                                                 
  local pseudopotential read in
  partial core-charges read in
  partial kinetic energy density read in
  atomic valenz-charges read in
  non local Contribution for L=           1  read in
    real space projection operators read in
  non local Contribution for L=           1  read in
    real space projection operators read in
  non local Contribution for L=           2  read in
    real space projection operators read in
  non local Contribution for L=           2  read in
    real space projection operators read in
  non local Contribution for L=           0  read in
    real space projection operators read in
  non local Contribution for L=           0  read in
    real space projection operators read in
    PAW grid and wavefunctions read in
 
   number of l-projection  operators is LMAX  =           6
   number of lm-projection operators is LMMAX =          18
 
 POTCAR:    PAW_PBE S 06Sep2000                   
   VRHFIN =S : s2p4                                                                                 
   LEXCH  = PE                                                                                      
   EATOM  =   276.8230 eV,   20.3459 Ry                                                             
                                                                                                    
   TITEL  = PAW_PBE S 06Sep2000                                                                     
   LULTRA =        F    use ultrasoft PP ?                                                          
   IUNSCR =        1    unscreen: 0-lin 1-nonlin 2-no                                               
   RPACOR =    1.500    partial core radius                                                         
   POMASS =   32.066; ZVAL   =    6.000    mass and valenz                                          
   RCORE  =    1.900    outmost cutoff radius                                                       
   RWIGS  =    2.200; RWIGS  =    1.164    wigner-seitz radius (au A)                               
   ENMAX  =  258.689; ENMIN  =  194.016 eV                                                          
   ICORE  =        2    local potential                                                             
   LCOR   =        T    correct aug charges                                                         
   LPAW   =        T    paw PP                                                                      
   EAUG   =  335.092                                                                                
   DEXC   =    0.000                                                                                
   RMAX   =    1.942    core radius for proj-oper                                                   
   RAUG   =    1.300    factor for augmentation sphere                                              
   RDEP   =    1.954    radius for radial grids                                                     
   RDEPT  =    1.744    core radius for aug-charge                                                  
                                                                                                    
   Atomic configuration                                                                             
    6 entries                                                                                       
     n  l   j            E        occ.                                                              
     1  0  0.50     -2405.8406   2.0000                                                             
     2  0  0.50      -211.7007   2.0000                                                             
     2  1  1.50      -156.4958   6.0000                                                             
     3  0  0.50       -17.2562   2.0000                                                             
     3  1  0.50        -7.0085   4.0000                                                             
     3  2  1.50        -6.8029   0.0000                                                             
   Description                                                                                      
     l       E           TYP  RCUT    TYP  RCUT                                                     
     0    -17.2561641     23  1.900                                                                 
     0    -15.8743224     23  1.900                                                                 
     1     -7.0085400     23  1.900                                                                 
     1     -2.7779785     23  1.900                                                                 
     2     -6.8029130     23  1.900                                                                 
  local pseudopotential read in
  partial core-charges read in
  partial kinetic energy density read in
  atomic valenz-charges read in
  non local Contribution for L=           0  read in
    real space projection operators read in
  non local Contribution for L=           0  read in
    real space projection operators read in
  non local Contribution for L=           1  read in
    real space projection operators read in
  non local Contribution for L=           1  read in
    real space projection operators read in
    PAW grid and wavefunctions read in
 
   number of l-projection  operators is LMAX  =           4
   number of lm-projection operators is LMMAX =           8
 
 Optimization of the real space projectors (new method)

 maximal supplied QI-value         = 18.90
 optimisation between [QCUT,QGAM] = [ 10.77, 21.73] = [ 32.49,132.25] Ry 
 Optimized for a Real-space Cutoff    1.38 Angstroem

   l    n(q)    QCUT    max X(q) W(low)/X(q) W(high)/X(q)  e(spline) 
   1      8    10.771     2.836    0.40E-04    0.29E-04    0.12E-06
   1      8    10.771     4.023    0.10E-03    0.48E-04    0.29E-06
   2      8    10.771    73.368    0.42E-03    0.97E-04    0.44E-06
   2      8    10.771    69.010    0.42E-03    0.99E-04    0.45E-06
   0      9    10.771    54.797    0.10E-03    0.56E-04    0.74E-07
   0      9    10.771    24.266    0.89E-04    0.49E-04    0.67E-07
 Optimization of the real space projectors (new method)

 maximal supplied QI-value         = 19.84
 optimisation between [QCUT,QGAM] = [ 10.71, 21.63] = [ 32.15,130.99] Ry 
 Optimized for a Real-space Cutoff    1.19 Angstroem

   l    n(q)    QCUT    max X(q) W(low)/X(q) W(high)/X(q)  e(spline) 
   0      8    10.715   187.594    0.41E-03    0.53E-04    0.66E-07
   0      8    10.715   164.243    0.41E-03    0.53E-04    0.65E-07
   1      7    10.715    67.533    0.19E-03    0.59E-03    0.68E-07
   1      7    10.715    50.729    0.19E-03    0.58E-03    0.67E-07
  PAW_PBE Ni_pv 06Sep2000               :
 energy of atom  1       EATOM=-3501.1230
 kinetic energy error for atom=    0.0925 (will be added to EATOM!!)
  PAW_PBE S 06Sep2000                   :
 energy of atom  2       EATOM= -276.8230
 kinetic energy error for atom=    0.0033 (will be added to EATOM!!)
 
 
 POSCAR: Structure 41 made from -112-10.xsd file
  positions in direct lattice
  No initial velocities read in
 exchange correlation table for  LEXCH =        8
   RHO(1)=    0.500       N(1)  =     2000
   RHO(2)=  100.500       N(2)  =     4000
 


--------------------------------------------------------------------------------------------------------


 ion  position               nearest neighbor table
   1  0.780  0.145  0.121-  41 2.25  49 2.26  63 2.26  50 2.36  64 2.36
   2  0.815  0.145  0.311-  42 2.25  50 2.26  64 2.26  25 2.53  13 2.53
   3  0.263  0.645  0.025-  43 2.25  51 2.36  61 2.36  26 2.53  14 2.53
   4  0.297  0.645  0.216-  44 2.25  51 2.26  61 2.26  52 2.36  62 2.36  27 2.53  15 2.53
   5  0.435  0.145  0.057-  45 2.25  53 2.36  67 2.36  29 2.53  17 2.53
   6  0.470  0.145  0.248-  46 2.25  53 2.26  67 2.26  54 2.36  68 2.36  30 2.53  18 2.53
   7  0.952  0.645  0.152-  47 2.25  56 2.26  66 2.26  55 2.36  65 2.36  31 2.53  19 2.53
   8  0.987  0.645  0.343-  48 2.25  55 2.26  65 2.26  32 2.53  20 2.53
   9  0.125  0.145  0.184-  38 2.25  57 2.26  71 2.26  58 2.36  72 2.36  33 2.53  21 2.53
  10  0.159  0.145  0.375-  37 2.25  58 2.26  72 2.26  34 2.53  22 2.53
  11  0.608  0.645  0.089-  39 2.25  59 2.36  69 2.36  35 2.53  23 2.53
  12  0.642  0.645  0.280-  40 2.25  59 2.26  69 2.26  60 2.36  70 2.36  36 2.53  24 2.53
  13  0.942  0.013  0.286-  55 2.25  64 2.26  38 2.26  37 2.36   2 2.53  25 2.53
  14  0.390  0.513  0.000-  39 2.36  61 2.36   3 2.53  26 2.53
  15  0.425  0.513  0.191-  53 2.25  39 2.26  61 2.26  40 2.36  62 2.36  27 2.53   4 2.53
  16  0.459  0.513  0.382-  54 2.25  40 2.26  62 2.26  28 2.53
  17  0.563  0.013  0.032-  41 2.36  67 2.36   5 2.53  29 2.53
  18  0.597  0.013  0.223-  59 2.25  67 2.26  41 2.26  68 2.36  42 2.36   6 2.53  30 2.53
  19  0.080  0.513  0.127-  57 2.25  43 2.26  66 2.26  44 2.36  65 2.36   7 2.53  31 2.53
  20  0.115  0.513  0.318-  58 2.25  44 2.26  65 2.26   8 2.53  32 2.53
  21  0.252  0.013  0.159-  51 2.25  45 2.26  71 2.26  46 2.36  72 2.36   9 2.53  33 2.53
  22  0.287  0.013  0.350-  52 2.25  46 2.26  72 2.26  10 2.53  34 2.53
  23  0.735  0.513  0.064-  49 2.25  69 2.36  47 2.36  11 2.53  35 2.53
  24  0.770  0.513  0.254-  50 2.25  69 2.26  47 2.26  48 2.36  70 2.36  12 2.53  36 2.53
  25  0.942  0.277  0.286-  65 2.25  50 2.26  38 2.26  37 2.36   2 2.53  13 2.53
  26  0.390  0.777  0.000-  39 2.36  51 2.36   3 2.53  14 2.53
  27  0.425  0.777  0.191-  67 2.25  39 2.26  51 2.26  40 2.36  52 2.36  15 2.53   4 2.53
  28  0.459  0.777  0.382-  68 2.25  40 2.26  52 2.26  16 2.53
  29  0.563  0.277  0.032-  41 2.36  53 2.36   5 2.53  17 2.53
  30  0.597  0.277  0.223-  69 2.25  53 2.26  41 2.26  54 2.36  42 2.36   6 2.53  18 2.53
  31  0.080  0.777  0.127-  71 2.25  43 2.26  56 2.26  44 2.36  55 2.36   7 2.53  19 2.53
  32  0.115  0.777  0.318-  72 2.25  44 2.26  55 2.26   8 2.53  20 2.53
  33  0.252  0.277  0.159-  61 2.25  45 2.26  57 2.26  46 2.36  58 2.36   9 2.53  21 2.53
  34  0.287  0.277  0.350-  62 2.25  46 2.26  58 2.26  10 2.53  22 2.53
  35  0.735  0.777  0.064-  63 2.25  59 2.36  47 2.36  11 2.53  23 2.53
  36  0.770  0.777  0.254-  64 2.25  59 2.26  47 2.26  48 2.36  60 2.36  12 2.53  24 2.53
  37  0.026  0.145  0.373-  10 2.25  13 2.36  25 2.36
  38  0.991  0.145  0.182-   9 2.25  13 2.26  25 2.26
  39  0.474  0.645  0.087-  11 2.25  15 2.26  27 2.26  26 2.36  14 2.36
  40  0.509  0.645  0.278-  12 2.25  16 2.26  28 2.26  27 2.36  15 2.36
  41  0.647  0.145  0.119-   1 2.25  18 2.26  30 2.26  29 2.36  17 2.36
  42  0.681  0.145  0.310-   2 2.25  18 2.36  30 2.36
  43  0.129  0.645  0.023-   3 2.25  19 2.26  31 2.26
  44  0.164  0.645  0.214-   4 2.25  20 2.26  32 2.26  31 2.36  19 2.36
  45  0.302  0.145  0.055-   5 2.25  21 2.26  33 2.26
  46  0.336  0.145  0.246-   6 2.25  22 2.26  34 2.26  33 2.36  21 2.36
  47  0.819  0.645  0.151-   7 2.25  24 2.26  36 2.26  35 2.36  23 2.36
  48  0.854  0.645  0.341-   8 2.25  24 2.36  36 2.36
  49  0.794  0.314  0.024-  23 2.25   1 2.26
  50  0.829  0.314  0.214-  24 2.25  25 2.26   2 2.26   1 2.36
  51  0.312  0.814  0.119-  21 2.25   4 2.26  27 2.26  26 2.36   3 2.36
  52  0.346  0.814  0.310-  22 2.25  28 2.26   4 2.36  27 2.36
  53  0.484  0.314  0.151-  15 2.25  30 2.26   6 2.26  29 2.36   5 2.36
  54  0.519  0.314  0.342-  16 2.25  30 2.36   6 2.36
  55  0.001  0.814  0.246-  13 2.25   8 2.26  32 2.26   7 2.36  31 2.36
  56  0.967  0.814  0.056-   7 2.26  31 2.26
  57  0.139  0.314  0.087-  19 2.25  33 2.26   9 2.26
  58  0.174  0.314  0.278-  20 2.25  10 2.26  34 2.26   9 2.36  33 2.36
  59  0.657  0.814  0.183-  18 2.25  36 2.26  12 2.26  35 2.36  11 2.36
  60  0.691  0.814  0.373-  36 2.36  12 2.36
  61  0.312  0.477  0.119-  33 2.25   4 2.26  15 2.26  14 2.36   3 2.36
  62  0.346  0.477  0.310-  34 2.25  16 2.26   4 2.36  15 2.36
  63  0.794  0.977  0.024-  35 2.25   1 2.26
  64  0.829  0.977  0.214-  36 2.25  13 2.26   2 2.26   1 2.36
  65  0.001  0.477  0.246-  25 2.25   8 2.26  20 2.26   7 2.36  19 2.36
  66  0.967  0.477  0.056-   7 2.26  19 2.26
  67  0.484  0.977  0.151-  27 2.25  18 2.26   6 2.26  17 2.36   5 2.36
  68  0.519  0.977  0.342-  28 2.25  18 2.36   6 2.36
  69  0.657  0.477  0.183-  30 2.25  24 2.26  12 2.26  23 2.36  11 2.36
  70  0.691  0.477  0.373-  24 2.36  12 2.36
  71  0.139  0.977  0.087-  31 2.25  21 2.26   9 2.26
  72  0.174  0.977  0.278-  32 2.25  10 2.26  22 2.26   9 2.36  21 2.36
 
  LATTYP: Found a simple orthorhombic cell.
 ALAT       =     9.5784100000
 B/A-ratio  =     1.6880763216
 C/A-ratio  =     1.7627867312
  
  Lattice vectors:
  
 A1 = (   0.0000000000,   9.5784100000,   0.0000000000)
 A2 = (   0.0000000000,   0.0000000000, -16.1690871197)
 A3 = ( -16.8846940542,   0.0000000000,   0.0000000000)


Analysis of symmetry for initial positions (statically):
=====================================================================
 Subroutine PRICEL returns:
 Original cell was already a primitive cell.
 

 Routine SETGRP: Setting up the symmetry group for a 
 simple orthorhombic supercell.


 Subroutine GETGRP returns: Found  2 space group operations
 (whereof  1 operations were pure point group operations)
 out of a pool of  8 trial point group operations.


The static configuration has the point symmetry C_1 .
 The point group associated with its full space group is C_1h.


Analysis of symmetry for dynamics (positions and initial velocities):
=====================================================================
 Subroutine PRICEL returns:
 Original cell was already a primitive cell.
 

 Routine SETGRP: Setting up the symmetry group for a 
 simple orthorhombic supercell.


 Subroutine GETGRP returns: Found  2 space group operations
 (whereof  1 operations were pure point group operations)
 out of a pool of  8 trial point group operations.


The dynamic configuration has the point symmetry C_1 .
 The point group associated with its full space group is C_1h.


 Subroutine INISYM returns: Found  2 space group operations
 (whereof  1 operations are pure point group operations),
 and found     1 'primitive' translations


----------------------------------------------------------------------------------------

                                     Primitive cell                                     

  volume of cell :    2615.0026

  direct lattice vectors                    reciprocal lattice vectors
    16.884694054  0.000000000  0.000000000     0.059225237  0.000000000  0.000000000
     0.000000000  9.578410000  0.000000000     0.000000000  0.104401461  0.000000000
     0.000000000  0.000000000 16.169087120     0.000000000  0.000000000  0.061846411

  length of vectors
    16.884694054  9.578410000 16.169087120     0.059225237  0.104401461  0.061846411

  position of ions in fractional coordinates (direct lattice)
     0.780046307  0.145296954  0.120584992
     0.814614264  0.145296954  0.311352939
     0.262762328  0.645296954  0.025201018
     0.297330285  0.645296954  0.215968965
     0.435190321  0.145296954  0.056995676
     0.469758278  0.145296954  0.247763623
     0.952474300  0.645296954  0.152379650
     0.987042257  0.645296954  0.343147597
     0.124902293  0.145296954  0.184174308
     0.159470250  0.145296954  0.374942255
     0.607618314  0.645296954  0.088790334
     0.642186271  0.645296954  0.279558281
     0.942150733  0.013193954  0.286151921
     0.390298797  0.513193954  0.000000000
     0.424866755  0.513193954  0.190767947
     0.459434712  0.513193954  0.381535895
     0.562726790  0.013193954  0.031794658
     0.597294747  0.013193954  0.222562605
     0.080010769  0.513193954  0.127178632
     0.114578726  0.513193954  0.317946579
     0.252438762  0.013193954  0.158973289
     0.287006719  0.013193954  0.349741237
     0.735154783  0.513193954  0.063589316
     0.769722740  0.513193954  0.254357263
     0.942150733  0.277399954  0.286151921
     0.390298797  0.777399954  0.000000000
     0.424866755  0.777399954  0.190767947
     0.459434712  0.777399954  0.381535895
     0.562726790  0.277399954  0.031794658
     0.597294747  0.277399954  0.222562605
     0.080010769  0.777399954  0.127178632
     0.114578726  0.777399954  0.317946579
     0.252438762  0.277399954  0.158973289
     0.287006719  0.277399954  0.349741237
     0.735154783  0.777399954  0.063589316
     0.769722740  0.777399954  0.254357263
     0.026029163  0.145296954  0.373177651
     0.991461206  0.145296954  0.182409704
     0.474177227  0.645296954  0.087025730
     0.508745184  0.645296954  0.277793678
     0.646605220  0.145296954  0.118820388
     0.681173177  0.145296954  0.309588336
     0.129321241  0.645296954  0.023436415
     0.163889198  0.645296954  0.214204362
     0.301749234  0.145296954  0.055231073
     0.336317191  0.145296954  0.245999020
     0.819033213  0.645296954  0.150615046
     0.853601170  0.645296954  0.341382993
     0.794493097  0.313511954  0.023731787
     0.829061055  0.313511954  0.214499734
     0.311777076  0.813511954  0.119115761
     0.346345033  0.813511954  0.309883708
     0.484205069  0.313511954  0.150910419
     0.518773026  0.313511954  0.341678366
     0.001489047  0.813511954  0.246294392
     0.966921090  0.813511954  0.055526445
     0.139349083  0.313511954  0.087321103
     0.173917040  0.313511954  0.278089050
     0.656633062  0.813511954  0.182705076
     0.691201019  0.813511954  0.373473024
     0.311777076  0.477081954  0.119115761
     0.346345033  0.477081954  0.309883708
     0.794493097  0.977081954  0.023731787
     0.829061055  0.977081954  0.214499734
     0.001489047  0.477081954  0.246294392
     0.966921090  0.477081954  0.055526445
     0.484205069  0.977081954  0.150910419
     0.518773026  0.977081954  0.341678366
     0.656633062  0.477081954  0.182705076
     0.691201019  0.477081954  0.373473024
     0.139349083  0.977081954  0.087321103
     0.173917040  0.977081954  0.278089050

  ion indices of the primitive-cell ions
   primitive index   ion index
                 1           1
                 2           2
                 3           3
                 4           4
                 5           5
                 6           6
                 7           7
                 8           8
                 9           9
                10          10
                11          11
                12          12
                13          13
                14          14
                15          15
                16          16
                17          17
                18          18
                19          19
                20          20
                21          21
                22          22
                23          23
                24          24
                25          25
                26          26
                27          27
                28          28
                29          29
                30          30
                31          31
                32          32
                33          33
                34          34
                35          35
                36          36
                37          37
                38          38
                39          39
                40          40
                41          41
                42          42
                43          43
                44          44
                45          45
                46          46
                47          47
                48          48
                49          49
                50          50
                51          51
                52          52
                53          53
                54          54
                55          55
                56          56
                57          57
                58          58
                59          59
                60          60
                61          61
                62          62
                63          63
                64          64
                65          65
                66          66
                67          67
                68          68
                69          69
                70          70
                71          71
                72          72

----------------------------------------------------------------------------------------

 
 
 KPOINTS: gamma-point-only calculation. no periodi

Automatic generation of k-mesh.
Space group operators:
 irot       det(A)        alpha          n_x          n_y          n_z        tau_x        tau_y        tau_z
    1     1.000000     0.000000     1.000000     0.000000     0.000000     0.000000     0.000000     0.000000
    2    -1.000000   180.000000     0.000000     1.000000     0.000000     0.000000     0.290594     0.000000
 
 Subroutine IBZKPT returns following result:
 ===========================================
 
 Found      1 irreducible k-points:
 
 Following reciprocal coordinates:
            Coordinates               Weight
  0.000000  0.000000  0.000000      1.000000
 
 Following cartesian coordinates:
            Coordinates               Weight
  0.000000  0.000000  0.000000      1.000000
 


--------------------------------------------------------------------------------------------------------




 Dimension of arrays:
   k-points           NKPTS =      1   k-points in BZ     NKDIM =      1   number of bands    NBANDS=    480
   number of dos      NEDOS =    301   number of ions     NIONS =     72
   non local maximal  LDIM  =      6   non local SUM 2l+1 LMDIM =     18
   total plane-waves  NPLWV = 378000
   max r-space proj   IRMAX =   1644   max aug-charges    IRDMAX=   4753
   dimension x,y,z NGX =    90 NGY =   50 NGZ =   84
   dimension x,y,z NGXF=   180 NGYF=  100 NGZF=  168
   support grid    NGXF=   180 NGYF=  100 NGZF=  168
   ions per type =              36  36
   NGX,Y,Z   is equivalent  to a cutoff of   8.86,  8.68,  8.64 a.u.
   NGXF,Y,Z  is equivalent  to a cutoff of  17.72, 17.36, 17.27 a.u.

 SYSTEM =  "Millerite NiS"                         
 POSCAR =  Structure 41 made from -112-10.xsd file 

 Startparameter for this run:
   NWRITE =      2    write-flag & timer
   PREC   = normal    normal or accurate (medium, high low for compatibility)
   ISTART =      0    job   : 0-new  1-cont  2-samecut
   ICHARG =      2    charge: 1-file 2-atom 10-const
   ISPIN  =      1    spin polarized calculation?
   LNONCOLLINEAR =      F non collinear calculations
   LSORBIT =      F    spin-orbit coupling
   INIWAV =      1    electr: 0-lowe 1-rand  2-diag
   LASPH  =      F    aspherical Exc in radial PAW
   METAGGA=      F    non-selfconsistent MetaGGA calc.

 Electronic Relaxation 1
   ENCUT  =  450.0 eV  33.07 Ry    5.75 a.u.  29.20 16.57 27.97*2*pi/ulx,y,z
   ENINI  =  450.0     initial cutoff
   ENAUG  =  703.4 eV  augmentation charge cutoff
   NELM   =    100;   NELMIN=  2; NELMDL= -5     # of ELM steps 
   EDIFF  = 0.1E-03   stopping-criterion for ELM
   LREAL  =      T    real-space projection
   NLSPLINE    = F    spline interpolate recip. space projectors
   LCOMPAT=      F    compatible to vasp.4.4
   GGA_COMPAT  = T    GGA compatible to vasp.4.4-vasp.4.6
   LMAXPAW     = -100 max onsite density
   LMAXMIX     =    2 max onsite mixed and CHGCAR
   VOSKOWN=      0    Vosko Wilk Nusair interpolation
   ROPT   =   -0.00050  -0.00050
 Ionic relaxation
   EDIFFG = 0.1E-02   stopping-criterion for IOM
   NSW    =      0    number of steps for IOM
   NBLOCK =      1;   KBLOCK =      1    inner block; outer block 
   IBRION =     -1    ionic relax: 0-MD 1-quasi-New 2-CG
   NFREE  =      0    steps in history (QN), initial steepest desc. (CG)
   ISIF   =      2    stress and relaxation
   IWAVPR =     10    prediction:  0-non 1-charg 2-wave 3-comb
   ISYM   =      2    0-nonsym 1-usesym 2-fastsym
   LCORR  =      T    Harris-Foulkes like correction to forces

   POTIM  = 0.5000    time-step for ionic-motion
   TEIN   =    0.0    initial temperature
   TEBEG  =    0.0;   TEEND  =   0.0 temperature during run
   SMASS  =  -3.00    Nose mass-parameter (am)
   estimated Nose-frequenzy (Omega)   =  0.10E-29 period in steps = 0.13E+47 mass=  -0.652E-26a.u.
   SCALEE = 1.0000    scale energy and forces
   NPACO  =    256;   APACO  = 16.0  distance and # of slots for P.C.
   PSTRESS=    0.0 pullay stress

  Mass of Ions in am
   POMASS =  58.69 32.07
  Ionic Valenz
   ZVAL   =  16.00  6.00
  Atomic Wigner-Seitz radii
   RWIGS  =  -1.00 -1.00
  virtual crystal weights 
   VCA    =   1.00  1.00
   NELECT =     792.0000    total number of electrons
   NUPDOWN=      -1.0000    fix difference up-down

 DOS related values:
   EMIN   =  10.00;   EMAX   =-10.00  energy-range for DOS
   EFERMI =   0.00
   ISMEAR =     0;   SIGMA  =   0.20  broadening in eV -4-tet -1-fermi 0-gaus

 Electronic relaxation 2 (details)
   IALGO  =     38    algorithm
   LDIAG  =      T    sub-space diagonalisation (order eigenvalues)
   LSUBROT=      F    optimize rotation matrix (better conditioning)
   TURBO    =      0    0=normal 1=particle mesh
   IRESTART =      0    0=no restart 2=restart with 2 vectors
   NREBOOT  =      0    no. of reboots
   NMIN     =      0    reboot dimension
   EREF     =   0.00    reference energy to select bands
   IMIX   =      4    mixing-type and parameters
     AMIX     =   0.40;   BMIX     =  1.00
     AMIX_MAG =   1.60;   BMIX_MAG =  1.00
     AMIN     =   0.10
     WC   =   100.;   INIMIX=   1;  MIXPRE=   1;  MAXMIX= -45

 Intra band minimization:
   WEIMIN = 0.0000     energy-eigenvalue tresh-hold
   EBREAK =  0.52E-07  absolut break condition
   DEPER  =   0.30     relativ break condition  

   TIME   =   0.40     timestep for ELM

  volume/ion in A,a.u.               =      36.32       245.10
  Fermi-wavevector in a.u.,A,eV,Ry     =   1.099409  2.077581 16.445356  1.208700
  Thomas-Fermi vector in A             =   2.235803
 
 Write flags
   LWAVE        =      F    write WAVECAR
   LDOWNSAMPLE  =      F    k-point downsampling of WAVECAR
   LCHARG       =      F    write CHGCAR
   LVTOT        =      F    write LOCPOT, total local potential
   LVHAR        =      F    write LOCPOT, Hartree potential only
   LELF         =      F    write electronic localiz. function (ELF)
   LORBIT       =      0    0 simple, 1 ext, 2 COOP (PROOUT), +10 PAW based schemes


 Dipole corrections
   LMONO  =      F    monopole corrections only (constant potential shift)
   LDIPOL =      F    correct potential (dipole corrections)
   IDIPOL =      0    1-x, 2-y, 3-z, 4-all directions 
   EPSILON=  1.0000000 bulk dielectric constant

 Exchange correlation treatment:
   GGA     =    --    GGA type
   LEXCH   =     8    internal setting for exchange type
   VOSKOWN=      0    Vosko Wilk Nusair interpolation
   LHFCALC =     F    Hartree Fock is set to
   LHFONE  =     F    Hartree Fock one center treatment
   AEXX    =    0.0000 exact exchange contribution

 Linear response parameters
   LEPSILON=     F    determine dielectric tensor
   LRPA    =     F    only Hartree local field effects (RPA)
   LNABLA  =     F    use nabla operator in PAW spheres
   LVEL    =     F    velocity operator in full k-point grid
   LINTERFAST=   F  fast interpolation
   KINTER  =     0    interpolate to denser k-point grid
   CSHIFT  =0.1000    complex shift for real part using Kramers Kronig
   OMEGAMAX=  -1.0    maximum frequency
   DEG_THRESHOLD= 0.2000000E-02 threshold for treating states as degnerate
   RTIME   =   -0.100 relaxation time in fs
  (WPLASMAI=    0.000 imaginary part of plasma frequency in eV, 0.658/RTIME)
   DFIELD  = 0.0000000 0.0000000 0.0000000 field for delta impulse in time
 
 Orbital magnetization related:
   ORBITALMAG=     F  switch on orbital magnetization
   LCHIMAG   =     F  perturbation theory with respect to B field
   DQ        =  0.001000  dq finite difference perturbation B field
   LLRAUG    =     F  two centre corrections for induced B field



--------------------------------------------------------------------------------------------------------


 Static calculation
 charge density and potential will be updated during run
 non-spin polarized calculation
 Variant of blocked Davidson
 Davidson routine will perform the subspace rotation
 perform sub-space diagonalisation
    after iterative eigenvector-optimisation
 modified Broyden-mixing scheme, WC =      100.0
 initial mixing is a Kerker type mixing with AMIX =  0.4000 and BMIX =      1.0000
 Hartree-type preconditioning will be used
 using additional bands           84
 real space projection scheme for non local part
 use partial core corrections
 calculate Harris-corrections to forces 
   (improved forces if not selfconsistent)
 use gradient corrections 
 use of overlap-Matrix (Vanderbilt PP)
 Gauss-broadening in eV      SIGMA  =   0.20


--------------------------------------------------------------------------------------------------------


  energy-cutoff  :      450.00
  volume of cell :     2615.00
      direct lattice vectors                 reciprocal lattice vectors
    16.884694054  0.000000000  0.000000000     0.059225237  0.000000000  0.000000000
     0.000000000  9.578410000  0.000000000     0.000000000  0.104401461  0.000000000
     0.000000000  0.000000000 16.169087120     0.000000000  0.000000000  0.061846411

  length of vectors
    16.884694054  9.578410000 16.169087120     0.059225237  0.104401461  0.061846411


 
 k-points in units of 2pi/SCALE and weight: gamma-point-only calculation. no periodi
   0.00000000  0.00000000  0.00000000       1.000
 
 k-points in reciprocal lattice and weights: gamma-point-only calculation. no periodi
   0.00000000  0.00000000  0.00000000       1.000
 
 position of ions in fractional coordinates (direct lattice) 
   0.78004631  0.14529695  0.12058499
   0.81461426  0.14529695  0.31135294
   0.26276233  0.64529695  0.02520102
   0.29733029  0.64529695  0.21596897
   0.43519032  0.14529695  0.05699568
   0.46975828  0.14529695  0.24776362
   0.95247430  0.64529695  0.15237965
   0.98704226  0.64529695  0.34314760
   0.12490229  0.14529695  0.18417431
   0.15947025  0.14529695  0.37494226
   0.60761831  0.64529695  0.08879033
   0.64218627  0.64529695  0.27955828
   0.94215073  0.01319395  0.28615192
   0.39029880  0.51319395  0.00000000
   0.42486675  0.51319395  0.19076795
   0.45943471  0.51319395  0.38153589
   0.56272679  0.01319395  0.03179466
   0.59729475  0.01319395  0.22256261
   0.08001077  0.51319395  0.12717863
   0.11457873  0.51319395  0.31794658
   0.25243876  0.01319395  0.15897329
   0.28700672  0.01319395  0.34974124
   0.73515478  0.51319395  0.06358932
   0.76972274  0.51319395  0.25435726
   0.94215073  0.27739995  0.28615192
   0.39029880  0.77739995  0.00000000
   0.42486675  0.77739995  0.19076795
   0.45943471  0.77739995  0.38153589
   0.56272679  0.27739995  0.03179466
   0.59729475  0.27739995  0.22256261
   0.08001077  0.77739995  0.12717863
   0.11457873  0.77739995  0.31794658
   0.25243876  0.27739995  0.15897329
   0.28700672  0.27739995  0.34974124
   0.73515478  0.77739995  0.06358932
   0.76972274  0.77739995  0.25435726
   0.02602916  0.14529695  0.37317765
   0.99146121  0.14529695  0.18240970
   0.47417723  0.64529695  0.08702573
   0.50874518  0.64529695  0.27779368
   0.64660522  0.14529695  0.11882039
   0.68117318  0.14529695  0.30958834
   0.12932124  0.64529695  0.02343641
   0.16388920  0.64529695  0.21420436
   0.30174923  0.14529695  0.05523107
   0.33631719  0.14529695  0.24599902
   0.81903321  0.64529695  0.15061505
   0.85360117  0.64529695  0.34138299
   0.79449310  0.31351195  0.02373179
   0.82906105  0.31351195  0.21449973
   0.31177708  0.81351195  0.11911576
   0.34634503  0.81351195  0.30988371
   0.48420507  0.31351195  0.15091042
   0.51877303  0.31351195  0.34167837
   0.00148905  0.81351195  0.24629439
   0.96692109  0.81351195  0.05552644
   0.13934908  0.31351195  0.08732110
   0.17391704  0.31351195  0.27808905
   0.65663306  0.81351195  0.18270508
   0.69120102  0.81351195  0.37347302
   0.31177708  0.47708195  0.11911576
   0.34634503  0.47708195  0.30988371
   0.79449310  0.97708195  0.02373179
   0.82906105  0.97708195  0.21449973
   0.00148905  0.47708195  0.24629439
   0.96692109  0.47708195  0.05552644
   0.48420507  0.97708195  0.15091042
   0.51877303  0.97708195  0.34167837
   0.65663306  0.47708195  0.18270508
   0.69120102  0.47708195  0.37347302
   0.13934908  0.97708195  0.08732110
   0.17391704  0.97708195  0.27808905
 
 position of ions in cartesian coordinates  (Angst):
  13.17084324  1.39171380  1.94974924
  13.75451262  1.39171380  5.03429280
   4.43666152  6.18091880  0.40747746
   5.02033090  6.18091880  3.49202101
   7.34805543  1.39171380  0.92156805
   7.93172480  1.39171380  4.00611161
  16.08223715  6.18091880  2.46383984
  16.66590653  6.18091880  5.54838339
   2.10893700  1.39171380  2.97793043
   2.69260638  1.39171380  6.06247399
  10.25944933  6.18091880  1.43565865
  10.84311871  6.18091880  4.52020220
  15.90792688  0.12637710  4.62681534
   6.59007578  4.91558210  0.00000000
   7.17374517  4.91558210  3.08454355
   7.75741455  4.91558210  6.16908713
   9.50146969  0.12637710  0.51409060
  10.08513906  0.12637710  3.59863415
   1.35095736  4.91558210  2.05636238
   1.93462673  4.91558210  5.14090594
   4.26235126  0.12637710  2.57045296
   4.84602064  0.12637710  5.65499653
  12.41286359  4.91558210  1.02818119
  12.99653297  4.91558210  4.11272474
  15.90792688  2.65705049  4.62681534
   6.59007578  7.44625549  0.00000000
   7.17374517  7.44625549  3.08454355
   7.75741455  7.44625549  6.16908713
   9.50146969  2.65705049  0.51409060
  10.08513906  2.65705049  3.59863415
   1.35095736  7.44625549  2.05636238
   1.93462673  7.44625549  5.14090594
   4.26235126  2.65705049  2.57045296
   4.84602064  2.65705049  5.65499653
  12.41286359  7.44625549  1.02818119
  12.99653297  7.44625549  4.11272474
   0.43949445  1.39171380  6.03394195
  16.74051913  1.39171380  2.94939840
   8.00633741  6.18091880  1.40712661
   8.59000678  6.18091880  4.49167018
  10.91773131  1.39171380  1.92121721
  11.50140069  1.39171380  5.00576078
   2.18354959  6.18091880  0.37894544
   2.76721897  6.18091880  3.46348899
   5.09494350  1.39171380  0.89303603
   5.67861288  1.39171380  3.97757959
  13.82912522  6.18091880  2.43530780
  14.41279460  6.18091880  5.51985136
  13.41477287  3.00294604  0.38372133
  13.99844227  3.00294604  3.46826489
   5.26426054  7.79215104  1.92599312
   5.84792992  7.79215104  5.01053667
   8.17565445  3.00294604  2.44008371
   8.75932383  3.00294604  5.52462727
   0.02514210  7.79215104  3.98235548
  16.32616678  7.79215104  0.89781193
   2.35286663  3.00294604  1.41190252
   2.93653601  3.00294604  4.49644608
  11.08704836  7.79215104  2.95417429
  11.67071774  7.79215104  6.03871786
   5.26426054  4.56968656  1.92599312
   5.84792992  4.56968656  5.01053667
  13.41477287  9.35889156  0.38372133
  13.99844227  9.35889156  3.46826489
   0.02514210  4.56968656  3.98235548
  16.32616678  4.56968656  0.89781193
   8.17565445  9.35889156  2.44008371
   8.75932383  9.35889156  5.52462727
  11.08704836  4.56968656  2.95417429
  11.67071774  4.56968656  6.03871786
   2.35286663  9.35889156  1.41190252
   2.93653601  9.35889156  4.49644608
 


--------------------------------------------------------------------------------------------------------


 use parallel FFT for orbitals z direction half grid
 k-point   1 :   0.0000 0.0000 0.0000  plane waves:   28369

 maximum and minimum number of plane-waves per node :      4733     4722

 maximum number of plane-waves:     28369
 maximum index in each direction: 
   IXMAX=   29   IYMAX=   16   IZMAX=   27
   IXMIN=  -29   IYMIN=  -16   IZMIN=    0


 real space projection operators:
  total allocation   :      10062.92 KBytes
  max/ min on nodes  :       1683.80       1673.20


 parallel 3D FFT for wavefunctions:
    minimum data exchange during FFTs selected (reduces bandwidth)
 parallel 3D FFT for charge:
    minimum data exchange during FFTs selected (reduces bandwidth)


 total amount of memory used by VASP MPI-rank0    46724. kBytes
=======================================================================

   base      :      30000. kBytes
   nonlr-proj:       2058. kBytes
   fftplans  :       3623. kBytes
   grid      :       6327. kBytes
   one-center:         93. kBytes
   wavefun   :       4623. kBytes
 
     INWAV:  cpu time    0.0000: real time    0.0000
 Broyden mixing: mesh for mixing (old mesh)
   NGX = 59   NGY = 33   NGZ = 55
  (NGX  =180   NGY  =100   NGZ  =168)
  gives a total of 107085 points

 initial charge density was supplied:
 charge density of overlapping atoms calculated
 number of electron     792.0000000 magnetization 
 keeping initial charge density in first step


--------------------------------------------------------------------------------------------------------


 Maximum index for non-local projection operator          266
 Maximum index for augmentation-charges          321 (set IRDMAX)


--------------------------------------------------------------------------------------------------------


 First call to EWALD:  gamma=   0.129
 Maximum number of real-space cells 2x 4x 2
 Maximum number of reciprocal cells 3x 2x 3

    FEWALD:  cpu time    0.0049: real time    0.0050


--------------------------------------- Iteration      1(   1)  ---------------------------------------


    POTLOK:  cpu time    0.0524: real time    0.0564
    SETDIJ:  cpu time    0.0046: real time    0.0065
     EDDAV:  cpu time    2.4877: real time    2.4960
       DOS:  cpu time    0.0026: real time    0.0026
    --------------------------------------------
      LOOP:  cpu time    2.5474: real time    2.5615

 eigenvalue-minimisations  :  1168
 total energy-change (2. order) : 0.8612782E+04  (-0.4994640E+05)
 number of electron     792.0000000 magnetization 
 augmentation part      792.0000000 magnetization 

 Free energy of the ion-electron system (eV)
  ---------------------------------------------------
  alpha Z        PSCENC =      1422.52235994
  Ewald energy   TEWEN  =    101978.21785678
  -Hartree energ DENC   =   -222850.93915084
  -exchange      EXHF   =         0.00000000
  -V(xc)+E(xc)   XCENC  =      3637.90593383
  PAW double counting   =    112729.53333415  -117641.51188735
  entropy T*S    EENTRO =        -0.52810800
  eigenvalues    EBANDS =     -6665.02293225
  atomic energy  EATOM  =    136002.60505376
  Solvation  Ediel_sol  =         0.00000000
  ---------------------------------------------------
  free energy    TOTEN  =      8612.78246003 eV

  energy without entropy =     8613.31056803  energy(sigma->0) =     8613.04651403


--------------------------------------------------------------------------------------------------------




--------------------------------------- Iteration      1(   2)  ---------------------------------------


     EDDAV:  cpu time    2.2047: real time    2.2129
       DOS:  cpu time    0.0022: real time    0.0022
    --------------------------------------------
      LOOP:  cpu time    2.2069: real time    2.2151

 eigenvalue-minimisations  :  1016
 total energy-change (2. order) :-0.8124549E+04  (-0.7844180E+04)
 number of electron     792.0000000 magnetization 
 augmentation part      792.0000000 magnetization 

 Free energy of the ion-electron system (eV)
  ---------------------------------------------------
  alpha Z        PSCENC =      1422.52235994
  Ewald energy   TEWEN  =    101978.21785678
  -Hartree energ DENC   =   -222850.93915084
  -exchange      EXHF   =         0.00000000
  -V(xc)+E(xc)   XCENC  =      3637.90593383
  PAW double counting   =    112729.53333415  -117641.51188735
  entropy T*S    EENTRO =        -0.90783341
  eigenvalues    EBANDS =    -14789.19207214
  atomic energy  EATOM  =    136002.60505376
  Solvation  Ediel_sol  =         0.00000000
  ---------------------------------------------------
  free energy    TOTEN  =       488.23359472 eV

  energy without entropy =      489.14142813  energy(sigma->0) =      488.68751142


--------------------------------------------------------------------------------------------------------




--------------------------------------- Iteration      1(   3)  ---------------------------------------


     EDDAV:  cpu time    2.4017: real time    2.4102
       DOS:  cpu time    0.0025: real time    0.0025
    --------------------------------------------
      LOOP:  cpu time    2.4042: real time    2.4127

 eigenvalue-minimisations  :  1120
 total energy-change (2. order) :-0.8316056E+03  (-0.7820410E+03)
 number of electron     792.0000000 magnetization 
 augmentation part      792.0000000 magnetization 

 Free energy of the ion-electron system (eV)
  ---------------------------------------------------
  alpha Z        PSCENC =      1422.52235994
  Ewald energy   TEWEN  =    101978.21785678
  -Hartree energ DENC   =   -222850.93915084
  -exchange      EXHF   =         0.00000000
  -V(xc)+E(xc)   XCENC  =      3637.90593383
  PAW double counting   =    112729.53333415  -117641.51188735
  entropy T*S    EENTRO =        -1.63784033
  eigenvalues    EBANDS =    -15620.06767605
  atomic energy  EATOM  =    136002.60505376
  Solvation  Ediel_sol  =         0.00000000
  ---------------------------------------------------
  free energy    TOTEN  =      -343.37201611 eV

  energy without entropy =     -341.73417578  energy(sigma->0) =     -342.55309594


--------------------------------------------------------------------------------------------------------




--------------------------------------- Iteration      1(   4)  ---------------------------------------


     EDDAV:  cpu time    2.3480: real time    2.3560
       DOS:  cpu time    0.0025: real time    0.0025
    --------------------------------------------
      LOOP:  cpu time    2.3505: real time    2.3584

 eigenvalue-minimisations  :  1104
 total energy-change (2. order) :-0.5073805E+02  (-0.5005907E+02)
 number of electron     792.0000000 magnetization 
 augmentation part      792.0000000 magnetization 

 Free energy of the ion-electron system (eV)
  ---------------------------------------------------
  alpha Z        PSCENC =      1422.52235994
  Ewald energy   TEWEN  =    101978.21785678
  -Hartree energ DENC   =   -222850.93915084
  -exchange      EXHF   =         0.00000000
  -V(xc)+E(xc)   XCENC  =      3637.90593383
  PAW double counting   =    112729.53333415  -117641.51188735
  entropy T*S    EENTRO =        -1.70984322
  eigenvalues    EBANDS =    -15670.73372813
  atomic energy  EATOM  =    136002.60505376
  Solvation  Ediel_sol  =         0.00000000
  ---------------------------------------------------
  free energy    TOTEN  =      -394.11007108 eV

  energy without entropy =     -392.40022786  energy(sigma->0) =     -393.25514947


--------------------------------------------------------------------------------------------------------




--------------------------------------- Iteration      1(   5)  ---------------------------------------


     EDDAV:  cpu time    2.5309: real time    2.5371
       DOS:  cpu time    0.0024: real time    0.0024
    CHARGE:  cpu time    0.0885: real time    0.0888
    MIXING:  cpu time    0.0030: real time    0.0031
    --------------------------------------------
      LOOP:  cpu time    2.6249: real time    2.6314

 eigenvalue-minimisations  :  1216
 total energy-change (2. order) :-0.1871690E+01  (-0.1868977E+01)
 number of electron     791.9997399 magnetization 
 augmentation part      284.3931514 magnetization 

 Broyden mixing:
  rms(total) = 0.82509E+01    rms(broyden)= 0.82358E+01
  rms(prec ) = 0.90079E+01
  weight for this iteration     100.00

 Free energy of the ion-electron system (eV)
  ---------------------------------------------------
  alpha Z        PSCENC =      1422.52235994
  Ewald energy   TEWEN  =    101978.21785678
  -Hartree energ DENC   =   -222850.93915084
  -exchange      EXHF   =         0.00000000
  -V(xc)+E(xc)   XCENC  =      3637.90593383
  PAW double counting   =    112729.53333415  -117641.51188735
  entropy T*S    EENTRO =        -1.71157328
  eigenvalues    EBANDS =    -15672.60368803
  atomic energy  EATOM  =    136002.60505376
  Solvation  Ediel_sol  =         0.00000000
  ---------------------------------------------------
  free energy    TOTEN  =      -395.98176104 eV

  energy without entropy =     -394.27018776  energy(sigma->0) =     -395.12597440


--------------------------------------------------------------------------------------------------------




--------------------------------------- Iteration      1(   6)  ---------------------------------------


    POTLOK:  cpu time    0.0491: real time    0.0492
    SETDIJ:  cpu time    0.0043: real time    0.0060
     EDDAV:  cpu time    2.4433: real time    2.4495
       DOS:  cpu time    0.0007: real time    0.0007
    CHARGE:  cpu time    0.0877: real time    0.0879
    MIXING:  cpu time    0.0022: real time    0.0026
    --------------------------------------------
      LOOP:  cpu time    2.5873: real time    2.5959

 eigenvalue-minimisations  :  1160
 total energy-change (2. order) :-0.1307567E+03  (-0.1082245E+03)
 number of electron     791.9996759 magnetization 
 augmentation part      358.3718154 magnetization 

 Broyden mixing:
  rms(total) = 0.18141E+02    rms(broyden)= 0.18137E+02
  rms(prec ) = 0.19342E+02
  weight for this iteration     100.00

 eigenvalues of (default mixing * dielectric matrix)
  average eigenvalue GAMMA=   0.1991
  0.1991

 Free energy of the ion-electron system (eV)
  ---------------------------------------------------
  alpha Z        PSCENC =      1422.52235994
  Ewald energy   TEWEN  =    101978.21785678
  -Hartree energ DENC   =   -219916.82759009
  -exchange      EXHF   =         0.00000000
  -V(xc)+E(xc)   XCENC  =      3557.21247878
  PAW double counting   =    113548.64767551  -118208.23398276
  entropy T*S    EENTRO =        -0.75124664
  eigenvalues    EBANDS =    -18910.13104008
  atomic energy  EATOM  =    136002.60505376
  Solvation  Ediel_sol  =         0.00000000
  ---------------------------------------------------
  free energy    TOTEN  =      -526.73843481 eV

  energy without entropy =     -525.98718816  energy(sigma->0) =     -526.36281149


--------------------------------------------------------------------------------------------------------




--------------------------------------- Iteration      1(   7)  ---------------------------------------


    POTLOK:  cpu time    0.0495: real time    0.0497
    SETDIJ:  cpu time    0.0047: real time    0.0047
     EDDAV:  cpu time    2.5831: real time    2.5910
       DOS:  cpu time    0.0007: real time    0.0007
    CHARGE:  cpu time    0.0889: real time    0.0891
    MIXING:  cpu time    0.0023: real time    0.0023
    --------------------------------------------
      LOOP:  cpu time    2.7293: real time    2.7375

 eigenvalue-minimisations  :  1160
 total energy-change (2. order) : 0.1507382E+03  (-0.1964763E+02)
 number of electron     791.9996924 magnetization 
 augmentation part      336.9217128 magnetization 

 Broyden mixing:
  rms(total) = 0.78411E+01    rms(broyden)= 0.78401E+01
  rms(prec ) = 0.84538E+01
  weight for this iteration     100.00

 eigenvalues of (default mixing * dielectric matrix)
  average eigenvalue GAMMA=   0.4877
  0.4877  0.4877

 Free energy of the ion-electron system (eV)
  ---------------------------------------------------
  alpha Z        PSCENC =      1422.52235994
  Ewald energy   TEWEN  =    101978.21785678
  -Hartree energ DENC   =   -221142.74671017
  -exchange      EXHF   =         0.00000000
  -V(xc)+E(xc)   XCENC  =      3587.66304623
  PAW double counting   =    117666.42270231  -122475.56267124
  entropy T*S    EENTRO =        -1.27953107
  eigenvalues    EBANDS =    -17413.84229267
  atomic energy  EATOM  =    136002.60505376
  Solvation  Ediel_sol  =         0.00000000
  ---------------------------------------------------
  free energy    TOTEN  =      -376.00018612 eV

  energy without entropy =     -374.72065505  energy(sigma->0) =     -375.36042059


--------------------------------------------------------------------------------------------------------




--------------------------------------- Iteration      1(   8)  ---------------------------------------


    POTLOK:  cpu time    0.0508: real time    0.0518
    SETDIJ:  cpu time    0.0042: real time    0.0059
     EDDAV:  cpu time    2.8590: real time    2.8661
       DOS:  cpu time    0.0007: real time    0.0007
    CHARGE:  cpu time    0.0888: real time    0.0890
    MIXING:  cpu time    0.0021: real time    0.0021
    --------------------------------------------
      LOOP:  cpu time    3.0056: real time    3.0156

 eigenvalue-minimisations  :  1352
 total energy-change (2. order) :-0.1685717E+02  (-0.1785287E+02)
 number of electron     791.9997261 magnetization 
 augmentation part      307.4871433 magnetization 

 Broyden mixing:
  rms(total) = 0.11231E+02    rms(broyden)= 0.11228E+02
  rms(prec ) = 0.14608E+02
  weight for this iteration     100.00

 eigenvalues of (default mixing * dielectric matrix)
  average eigenvalue GAMMA=   0.3893
  0.5230  0.5230  0.1220

 Free energy of the ion-electron system (eV)
  ---------------------------------------------------
  alpha Z        PSCENC =      1422.52235994
  Ewald energy   TEWEN  =    101978.21785678
  -Hartree energ DENC   =   -221964.28873416
  -exchange      EXHF   =         0.00000000
  -V(xc)+E(xc)   XCENC  =      3610.28592647
  PAW double counting   =    122551.61524418  -127466.75846051
  entropy T*S    EENTRO =        -1.46664447
  eigenvalues    EBANDS =    -16525.58996128
  atomic energy  EATOM  =    136002.60505376
  Solvation  Ediel_sol  =         0.00000000
  ---------------------------------------------------
  free energy    TOTEN  =      -392.85735929 eV

  energy without entropy =     -391.39071482  energy(sigma->0) =     -392.12403706


--------------------------------------------------------------------------------------------------------




--------------------------------------- Iteration      1(   9)  ---------------------------------------


    POTLOK:  cpu time    0.0492: real time    0.0493
    SETDIJ:  cpu time    0.0046: real time    0.0046
     EDDAV:  cpu time    2.6854: real time    2.6924
       DOS:  cpu time    0.0006: real time    0.0006
    CHARGE:  cpu time    0.0891: real time    0.0893
    MIXING:  cpu time    0.0022: real time    0.0022
    --------------------------------------------
      LOOP:  cpu time    2.8312: real time    2.8385

 eigenvalue-minimisations  :  1240
 total energy-change (2. order) : 0.3035103E+02  (-0.1455457E+02)
 number of electron     791.9997237 magnetization 
 augmentation part      306.9171022 magnetization 

 Broyden mixing:
  rms(total) = 0.68682E+01    rms(broyden)= 0.68615E+01
  rms(prec ) = 0.79874E+01
  weight for this iteration     100.00

 eigenvalues of (default mixing * dielectric matrix)
  average eigenvalue GAMMA=   0.3917
  0.8490  0.3063  0.3063  0.1050

 Free energy of the ion-electron system (eV)
  ---------------------------------------------------
  alpha Z        PSCENC =      1422.52235994
  Ewald energy   TEWEN  =    101978.21785678
  -Hartree energ DENC   =   -222042.35161801
  -exchange      EXHF   =         0.00000000
  -V(xc)+E(xc)   XCENC  =      3612.39169796
  PAW double counting   =    124236.93273380  -129174.07518062
  entropy T*S    EENTRO =        -1.53998587
  eigenvalues    EBANDS =    -16397.20924374
  atomic energy  EATOM  =    136002.60505376
  Solvation  Ediel_sol  =         0.00000000
  ---------------------------------------------------
  free energy    TOTEN  =      -362.50632600 eV

  energy without entropy =     -360.96634013  energy(sigma->0) =     -361.73633307


--------------------------------------------------------------------------------------------------------




--------------------------------------- Iteration      1(  10)  ---------------------------------------


    POTLOK:  cpu time    0.0495: real time    0.0496
    SETDIJ:  cpu time    0.0045: real time    0.0045
     EDDAV:  cpu time    2.8452: real time    2.8521
       DOS:  cpu time    0.0007: real time    0.0007
    CHARGE:  cpu time    0.0904: real time    0.0906
    MIXING:  cpu time    0.0023: real time    0.0023
    --------------------------------------------
      LOOP:  cpu time    2.9927: real time    3.0000

 eigenvalue-minimisations  :  1336
 total energy-change (2. order) : 0.3505573E+01  (-0.5988758E+01)
 number of electron     791.9997115 magnetization 
 augmentation part      303.8645933 magnetization 

 Broyden mixing:
  rms(total) = 0.81338E+01    rms(broyden)= 0.81286E+01
  rms(prec ) = 0.97555E+01
  weight for this iteration     100.00

 eigenvalues of (default mixing * dielectric matrix)
  average eigenvalue GAMMA=   0.4678
  1.3809  0.3743  0.3743  0.1047  0.1047

 Free energy of the ion-electron system (eV)
  ---------------------------------------------------
  alpha Z        PSCENC =      1422.52235994
  Ewald energy   TEWEN  =    101978.21785678
  -Hartree energ DENC   =   -222050.14543521
  -exchange      EXHF   =         0.00000000
  -V(xc)+E(xc)   XCENC  =      3613.20136077
  PAW double counting   =    125814.06522186  -130769.94274895
  entropy T*S    EENTRO =        -1.79836738
  eigenvalues    EBANDS =    -16367.72605502
  atomic energy  EATOM  =    136002.60505376
  Solvation  Ediel_sol  =         0.00000000
  ---------------------------------------------------
  free energy    TOTEN  =      -359.00075344 eV

  energy without entropy =     -357.20238606  energy(sigma->0) =     -358.10156975


--------------------------------------------------------------------------------------------------------




--------------------------------------- Iteration      1(  11)  ---------------------------------------


    POTLOK:  cpu time    0.0493: real time    0.0494
    SETDIJ:  cpu time    0.0047: real time    0.0047
     EDDAV:  cpu time    2.7953: real time    2.8047
       DOS:  cpu time    0.0006: real time    0.0006
    CHARGE:  cpu time    0.0897: real time    0.0899
    MIXING:  cpu time    0.0025: real time    0.0025
    --------------------------------------------
      LOOP:  cpu time    2.9421: real time    2.9518

 eigenvalue-minimisations  :  1320
 total energy-change (2. order) : 0.3725157E+00  (-0.5690291E+01)
 number of electron     791.9997160 magnetization 
 augmentation part      307.3544645 magnetization 

 Broyden mixing:
  rms(total) = 0.64149E+01    rms(broyden)= 0.64117E+01
  rms(prec ) = 0.77664E+01
  weight for this iteration     100.00

 eigenvalues of (default mixing * dielectric matrix)
  average eigenvalue GAMMA=   0.4740
  1.7211  0.3904  0.3904  0.1257  0.1257  0.0906

 Free energy of the ion-electron system (eV)
  ---------------------------------------------------
  alpha Z        PSCENC =      1422.52235994
  Ewald energy   TEWEN  =    101978.21785678
  -Hartree energ DENC   =   -221969.67519699
  -exchange      EXHF   =         0.00000000
  -V(xc)+E(xc)   XCENC  =      3609.88969787
  PAW double counting   =    127807.26115313  -132774.02864125
  entropy T*S    EENTRO =        -1.77474527
  eigenvalues    EBANDS =    -16433.64577568
  atomic energy  EATOM  =    136002.60505376
  Solvation  Ediel_sol  =         0.00000000
  ---------------------------------------------------
  free energy    TOTEN  =      -358.62823771 eV

  energy without entropy =     -356.85349244  energy(sigma->0) =     -357.74086508


--------------------------------------------------------------------------------------------------------




--------------------------------------- Iteration      1(  12)  ---------------------------------------


    POTLOK:  cpu time    0.0499: real time    0.0519
    SETDIJ:  cpu time    0.0042: real time    0.0059
     EDDAV:  cpu time    2.7426: real time    2.7498
       DOS:  cpu time    0.0006: real time    0.0006
    CHARGE:  cpu time    0.0881: real time    0.0883
    MIXING:  cpu time    0.0025: real time    0.0025
    --------------------------------------------
      LOOP:  cpu time    2.8877: real time    2.8989

 eigenvalue-minimisations  :  1304
 total energy-change (2. order) : 0.4292999E+01  (-0.5303362E+01)
 number of electron     791.9997184 magnetization 
 augmentation part      311.8967594 magnetization 

 Broyden mixing:
  rms(total) = 0.45472E+01    rms(broyden)= 0.45433E+01
  rms(prec ) = 0.53155E+01
  weight for this iteration     100.00

 eigenvalues of (default mixing * dielectric matrix)
  average eigenvalue GAMMA=   0.4522
  1.8476  0.3950  0.3950  0.2068  0.1185  0.1011  0.1011

 Free energy of the ion-electron system (eV)
  ---------------------------------------------------
  alpha Z        PSCENC =      1422.52235994
  Ewald energy   TEWEN  =    101978.21785678
  -Hartree energ DENC   =   -221917.72093406
  -exchange      EXHF   =         0.00000000
  -V(xc)+E(xc)   XCENC  =      3607.56390701
  PAW double counting   =    129202.41705614  -134177.98335238
  entropy T*S    EENTRO =        -1.33209684
  eigenvalues    EBANDS =    -16470.62508937
  atomic energy  EATOM  =    136002.60505376
  Solvation  Ediel_sol  =         0.00000000
  ---------------------------------------------------
  free energy    TOTEN  =      -354.33523902 eV

  energy without entropy =     -353.00314218  energy(sigma->0) =     -353.66919060


--------------------------------------------------------------------------------------------------------




--------------------------------------- Iteration      1(  13)  ---------------------------------------


    POTLOK:  cpu time    0.0489: real time    0.0490
    SETDIJ:  cpu time    0.0046: real time    0.0046
     EDDAV:  cpu time    2.7457: real time    2.7524
       DOS:  cpu time    0.0006: real time    0.0006
    CHARGE:  cpu time    0.0885: real time    0.0887
    MIXING:  cpu time    0.0026: real time    0.0026
    --------------------------------------------
      LOOP:  cpu time    2.8908: real time    2.8979

 eigenvalue-minimisations  :  1304
 total energy-change (2. order) : 0.7690765E+01  (-0.2624618E+01)
 number of electron     791.9997167 magnetization 
 augmentation part      314.4956595 magnetization 

 Broyden mixing:
  rms(total) = 0.31968E+01    rms(broyden)= 0.31936E+01
  rms(prec ) = 0.37881E+01
  weight for this iteration     100.00

 eigenvalues of (default mixing * dielectric matrix)
  average eigenvalue GAMMA=   0.4375
  1.8085  0.4312  0.3910  0.3910  0.1337  0.1337  0.1132  0.0981

 Free energy of the ion-electron system (eV)
  ---------------------------------------------------
  alpha Z        PSCENC =      1422.52235994
  Ewald energy   TEWEN  =    101978.21785678
  -Hartree energ DENC   =   -221909.98547642
  -exchange      EXHF   =         0.00000000
  -V(xc)+E(xc)   XCENC  =      3607.10987224
  PAW double counting   =    129713.28949246  -134693.72831429
  entropy T*S    EENTRO =        -1.20333683
  eigenvalues    EBANDS =    -16465.47198207
  atomic energy  EATOM  =    136002.60505376
  Solvation  Ediel_sol  =         0.00000000
  ---------------------------------------------------
  free energy    TOTEN  =      -346.64447442 eV

  energy without entropy =     -345.44113760  energy(sigma->0) =     -346.04280601


--------------------------------------------------------------------------------------------------------




--------------------------------------- Iteration      1(  14)  ---------------------------------------


    POTLOK:  cpu time    0.0493: real time    0.0494
    SETDIJ:  cpu time    0.0046: real time    0.0046
     EDDAV:  cpu time    2.7551: real time    2.7625
       DOS:  cpu time    0.0006: real time    0.0006
    CHARGE:  cpu time    0.0875: real time    0.0877
    MIXING:  cpu time    0.0027: real time    0.0027
    --------------------------------------------
      LOOP:  cpu time    2.8997: real time    2.9074

 eigenvalue-minimisations  :  1312
 total energy-change (2. order) :-0.9657193E+00  (-0.1162800E+01)
 number of electron     791.9997177 magnetization 
 augmentation part      311.3507071 magnetization 

 Broyden mixing:
  rms(total) = 0.50930E+01    rms(broyden)= 0.50908E+01
  rms(prec ) = 0.61472E+01
  weight for this iteration     100.00

 eigenvalues of (default mixing * dielectric matrix)
  average eigenvalue GAMMA=   0.4125
  1.7626  0.5728  0.4002  0.4002  0.1331  0.1331  0.1304  0.0901  0.0901

 Free energy of the ion-electron system (eV)
  ---------------------------------------------------
  alpha Z        PSCENC =      1422.52235994
  Ewald energy   TEWEN  =    101978.21785678
  -Hartree energ DENC   =   -221968.20202849
  -exchange      EXHF   =         0.00000000
  -V(xc)+E(xc)   XCENC  =      3608.23721124
  PAW double counting   =    129535.83635061  -134517.87040232
  entropy T*S    EENTRO =        -1.43353118
  eigenvalues    EBANDS =    -16407.52306406
  atomic energy  EATOM  =    136002.60505376
  Solvation  Ediel_sol  =         0.00000000
  ---------------------------------------------------
  free energy    TOTEN  =      -347.61019371 eV

  energy without entropy =     -346.17666253  energy(sigma->0) =     -346.89342812


--------------------------------------------------------------------------------------------------------




--------------------------------------- Iteration      1(  15)  ---------------------------------------


    POTLOK:  cpu time    0.0486: real time    0.0487
    SETDIJ:  cpu time    0.0046: real time    0.0046
     EDDAV:  cpu time    2.6071: real time    2.6135
       DOS:  cpu time    0.0006: real time    0.0006
    CHARGE:  cpu time    0.0879: real time    0.0881
    MIXING:  cpu time    0.0028: real time    0.0028
    --------------------------------------------
      LOOP:  cpu time    2.7516: real time    2.7583

 eigenvalue-minimisations  :  1224
 total energy-change (2. order) : 0.2402838E+01  (-0.2361523E+01)
 number of electron     791.9997165 magnetization 
 augmentation part      313.0195100 magnetization 

 Broyden mixing:
  rms(total) = 0.26536E+01    rms(broyden)= 0.26501E+01
  rms(prec ) = 0.32043E+01
  weight for this iteration     100.00

 eigenvalues of (default mixing * dielectric matrix)
  average eigenvalue GAMMA=   0.3895
  1.7504  0.5327  0.4129  0.4129  0.2409  0.1343  0.1200  0.1200  0.0964  0.0746

 Free energy of the ion-electron system (eV)
  ---------------------------------------------------
  alpha Z        PSCENC =      1422.52235994
  Ewald energy   TEWEN  =    101978.21785678
  -Hartree energ DENC   =   -221995.05513467
  -exchange      EXHF   =         0.00000000
  -V(xc)+E(xc)   XCENC  =      3608.50384004
  PAW double counting   =    129397.47754649  -134379.30530226
  entropy T*S    EENTRO =        -1.14570020
  eigenvalues    EBANDS =    -16379.02787560
  atomic energy  EATOM  =    136002.60505376
  Solvation  Ediel_sol  =         0.00000000
  ---------------------------------------------------
  free energy    TOTEN  =      -345.20735572 eV

  energy without entropy =     -344.06165552  energy(sigma->0) =     -344.63450562


--------------------------------------------------------------------------------------------------------




--------------------------------------- Iteration      1(  16)  ---------------------------------------


    POTLOK:  cpu time    0.0493: real time    0.0494
    SETDIJ:  cpu time    0.0047: real time    0.0047
     EDDAV:  cpu time    2.5645: real time    2.5708
       DOS:  cpu time    0.0006: real time    0.0006
    CHARGE:  cpu time    0.0868: real time    0.0870
    MIXING:  cpu time    0.0029: real time    0.0029
    --------------------------------------------
      LOOP:  cpu time    2.7088: real time    2.7154

 eigenvalue-minimisations  :  1208
 total energy-change (2. order) : 0.2405292E+01  (-0.3730939E+00)
 number of electron     791.9997169 magnetization 
 augmentation part      312.8359502 magnetization 

 Broyden mixing:
  rms(total) = 0.18689E+01    rms(broyden)= 0.18672E+01
  rms(prec ) = 0.22862E+01
  weight for this iteration     100.00

 eigenvalues of (default mixing * dielectric matrix)
  average eigenvalue GAMMA=   0.4201
  1.7874  0.6806  0.6806  0.3863  0.3863  0.1667  0.1233  0.1233  0.1149  0.0860
  0.0860

 Free energy of the ion-electron system (eV)
  ---------------------------------------------------
  alpha Z        PSCENC =      1422.52235994
  Ewald energy   TEWEN  =    101978.21785678
  -Hartree energ DENC   =   -222013.79701910
  -exchange      EXHF   =         0.00000000
  -V(xc)+E(xc)   XCENC  =      3608.98864873
  PAW double counting   =    129327.69066364  -134310.19574007
  entropy T*S    EENTRO =        -1.27026623
  eigenvalues    EBANDS =    -16357.56362114
  atomic energy  EATOM  =    136002.60505376
  Solvation  Ediel_sol  =         0.00000000
  ---------------------------------------------------
  free energy    TOTEN  =      -342.80206369 eV

  energy without entropy =     -341.53179746  energy(sigma->0) =     -342.16693057


--------------------------------------------------------------------------------------------------------




--------------------------------------- Iteration      1(  17)  ---------------------------------------


    POTLOK:  cpu time    0.0494: real time    0.0495
    SETDIJ:  cpu time    0.0046: real time    0.0046
     EDDAV:  cpu time    2.7691: real time    2.7761
       DOS:  cpu time    0.0006: real time    0.0006
    CHARGE:  cpu time    0.0869: real time    0.0871
    MIXING:  cpu time    0.0030: real time    0.0030
    --------------------------------------------
      LOOP:  cpu time    2.9135: real time    2.9209

 eigenvalue-minimisations  :  1328
 total energy-change (2. order) : 0.8020563E-01  (-0.3192187E+00)
 number of electron     791.9997176 magnetization 
 augmentation part      312.6169521 magnetization 

 Broyden mixing:
  rms(total) = 0.20659E+01    rms(broyden)= 0.20643E+01
  rms(prec ) = 0.24548E+01
  weight for this iteration     100.00

 eigenvalues of (default mixing * dielectric matrix)
  average eigenvalue GAMMA=   0.4201
  1.8312  0.8161  0.8161  0.3890  0.3890  0.1438  0.1438  0.1231  0.1231  0.0876
  0.0876  0.0910

 Free energy of the ion-electron system (eV)
  ---------------------------------------------------
  alpha Z        PSCENC =      1422.52235994
  Ewald energy   TEWEN  =    101978.21785678
  -Hartree energ DENC   =   -222028.99472012
  -exchange      EXHF   =         0.00000000
  -V(xc)+E(xc)   XCENC  =      3609.20419618
  PAW double counting   =    129242.55122562  -134223.43399134
  entropy T*S    EENTRO =        -1.27412205
  eigenvalues    EBANDS =    -16344.11971681
  atomic energy  EATOM  =    136002.60505376
  Solvation  Ediel_sol  =         0.00000000
  ---------------------------------------------------
  free energy    TOTEN  =      -342.72185805 eV

  energy without entropy =     -341.44773600  energy(sigma->0) =     -342.08479703


--------------------------------------------------------------------------------------------------------




--------------------------------------- Iteration      1(  18)  ---------------------------------------


    POTLOK:  cpu time    0.0492: real time    0.0494
    SETDIJ:  cpu time    0.0047: real time    0.0047
     EDDAV:  cpu time    2.6871: real time    2.6936
       DOS:  cpu time    0.0006: real time    0.0006
    CHARGE:  cpu time    0.0885: real time    0.0887
    MIXING:  cpu time    0.0031: real time    0.0031
    --------------------------------------------
      LOOP:  cpu time    2.8333: real time    2.8401

 eigenvalue-minimisations  :  1280
 total energy-change (2. order) : 0.1353887E+01  (-0.3258217E+00)
 number of electron     791.9997161 magnetization 
 augmentation part      312.6385263 magnetization 

 Broyden mixing:
  rms(total) = 0.10279E+01    rms(broyden)= 0.10258E+01
  rms(prec ) = 0.12324E+01
  weight for this iteration     100.00

 eigenvalues of (default mixing * dielectric matrix)
  average eigenvalue GAMMA=   0.4223
  1.8493  0.8793  0.8793  0.3891  0.3891  0.3038  0.1698  0.1206  0.1206  0.1081
  0.1081  0.0862  0.0862

 Free energy of the ion-electron system (eV)
  ---------------------------------------------------
  alpha Z        PSCENC =      1422.52235994
  Ewald energy   TEWEN  =    101978.21785678
  -Hartree energ DENC   =   -222040.01452405
  -exchange      EXHF   =         0.00000000
  -V(xc)+E(xc)   XCENC  =      3609.43052669
  PAW double counting   =    129206.09382046  -134186.03880824
  entropy T*S    EENTRO =        -1.32447209
  eigenvalues    EBANDS =    -16332.85978404
  atomic energy  EATOM  =    136002.60505376
  Solvation  Ediel_sol  =         0.00000000
  ---------------------------------------------------
  free energy    TOTEN  =      -341.36797080 eV

  energy without entropy =     -340.04349870  energy(sigma->0) =     -340.70573475


--------------------------------------------------------------------------------------------------------




--------------------------------------- Iteration      1(  19)  ---------------------------------------


    POTLOK:  cpu time    0.0497: real time    0.0498
    SETDIJ:  cpu time    0.0046: real time    0.0046
     EDDAV:  cpu time    2.7819: real time    2.7903
       DOS:  cpu time    0.0006: real time    0.0006
    CHARGE:  cpu time    0.0886: real time    0.0889
    MIXING:  cpu time    0.0035: real time    0.0035
    --------------------------------------------
      LOOP:  cpu time    2.9290: real time    2.9377

 eigenvalue-minimisations  :  1320
 total energy-change (2. order) : 0.2223800E+00  (-0.8484562E-01)
 number of electron     791.9997161 magnetization 
 augmentation part      312.2092968 magnetization 

 Broyden mixing:
  rms(total) = 0.86099E+00    rms(broyden)= 0.86016E+00
  rms(prec ) = 0.10092E+01
  weight for this iteration     100.00

 eigenvalues of (default mixing * dielectric matrix)
  average eigenvalue GAMMA=   0.4390
  1.8817  1.0264  1.0264  0.4841  0.3940  0.3940  0.1714  0.1214  0.1214  0.1261
  0.1261  0.0991  0.0869  0.0869

 Free energy of the ion-electron system (eV)
  ---------------------------------------------------
  alpha Z        PSCENC =      1422.52235994
  Ewald energy   TEWEN  =    101978.21785678
  -Hartree energ DENC   =   -222051.81562347
  -exchange      EXHF   =         0.00000000
  -V(xc)+E(xc)   XCENC  =      3609.58589256
  PAW double counting   =    129150.17667514  -134128.74662385
  entropy T*S    EENTRO =        -1.36404713
  eigenvalues    EBANDS =    -16322.32713451
  atomic energy  EATOM  =    136002.60505376
  Solvation  Ediel_sol  =         0.00000000
  ---------------------------------------------------
  free energy    TOTEN  =      -341.14559080 eV

  energy without entropy =     -339.78154366  energy(sigma->0) =     -340.46356723


--------------------------------------------------------------------------------------------------------




--------------------------------------- Iteration      1(  20)  ---------------------------------------


    POTLOK:  cpu time    0.0513: real time    0.0523
    SETDIJ:  cpu time    0.0040: real time    0.0057
     EDDAV:  cpu time    2.7237: real time    2.7305
       DOS:  cpu time    0.0006: real time    0.0006
    CHARGE:  cpu time    0.0872: real time    0.0874
    MIXING:  cpu time    0.0033: real time    0.0034
    --------------------------------------------
      LOOP:  cpu time    2.8702: real time    2.8798

 eigenvalue-minimisations  :  1304
 total energy-change (2. order) : 0.1198606E+00  (-0.6260596E-01)
 number of electron     791.9997167 magnetization 
 augmentation part      311.8644513 magnetization 

 Broyden mixing:
  rms(total) = 0.69926E+00    rms(broyden)= 0.69798E+00
  rms(prec ) = 0.82073E+00
  weight for this iteration     100.00

 eigenvalues of (default mixing * dielectric matrix)
  average eigenvalue GAMMA=   0.4518
  1.9318  1.1251  1.1251  0.4599  0.4599  0.3790  0.3790  0.1620  0.1204  0.1204
  0.1254  0.1083  0.1083  0.0866  0.0866

 Free energy of the ion-electron system (eV)
  ---------------------------------------------------
  alpha Z        PSCENC =      1422.52235994
  Ewald energy   TEWEN  =    101978.21785678
  -Hartree energ DENC   =   -222066.11066230
  -exchange      EXHF   =         0.00000000
  -V(xc)+E(xc)   XCENC  =      3609.64822387
  PAW double counting   =    129091.98360621  -134068.64931369
  entropy T*S    EENTRO =        -1.43468343
  eigenvalues    EBANDS =    -16309.80817136
  atomic energy  EATOM  =    136002.60505376
  Solvation  Ediel_sol  =         0.00000000
  ---------------------------------------------------
  free energy    TOTEN  =      -341.02573023 eV

  energy without entropy =     -339.59104680  energy(sigma->0) =     -340.30838851


--------------------------------------------------------------------------------------------------------




--------------------------------------- Iteration      1(  21)  ---------------------------------------


    POTLOK:  cpu time    0.0495: real time    0.0496
    SETDIJ:  cpu time    0.0045: real time    0.0046
     EDDAV:  cpu time    2.6710: real time    2.6776
       DOS:  cpu time    0.0006: real time    0.0006
    CHARGE:  cpu time    0.0879: real time    0.0882
    MIXING:  cpu time    0.0034: real time    0.0034
    --------------------------------------------
      LOOP:  cpu time    2.8170: real time    2.8240

 eigenvalue-minimisations  :  1288
 total energy-change (2. order) :-0.8242320E-01  (-0.5163209E-01)
 number of electron     791.9997158 magnetization 
 augmentation part      312.1251208 magnetization 

 Broyden mixing:
  rms(total) = 0.81200E+00    rms(broyden)= 0.81118E+00
  rms(prec ) = 0.95236E+00
  weight for this iteration     100.00

 eigenvalues of (default mixing * dielectric matrix)
  average eigenvalue GAMMA=   0.4630
  1.9634  1.2384  1.2384  0.5778  0.5778  0.3846  0.3846  0.1545  0.1545  0.1210
  0.1210  0.1109  0.1109  0.0867  0.0867  0.0963

 Free energy of the ion-electron system (eV)
  ---------------------------------------------------
  alpha Z        PSCENC =      1422.52235994
  Ewald energy   TEWEN  =    101978.21785678
  -Hartree energ DENC   =   -222067.75497547
  -exchange      EXHF   =         0.00000000
  -V(xc)+E(xc)   XCENC  =      3609.53449851
  PAW double counting   =    129042.34151171  -134017.08949464
  entropy T*S    EENTRO =        -1.44114929
  eigenvalues    EBANDS =    -16310.04381472
  atomic energy  EATOM  =    136002.60505376
  Solvation  Ediel_sol  =         0.00000000
  ---------------------------------------------------
  free energy    TOTEN  =      -341.10815343 eV

  energy without entropy =     -339.66700414  energy(sigma->0) =     -340.38757879


--------------------------------------------------------------------------------------------------------




--------------------------------------- Iteration      1(  22)  ---------------------------------------


    POTLOK:  cpu time    0.0495: real time    0.0496
    SETDIJ:  cpu time    0.0046: real time    0.0046
     EDDAV:  cpu time    2.5641: real time    2.5704
       DOS:  cpu time    0.0006: real time    0.0006
[...]
    FORCOR:  cpu time    0.0669: real time    0.0671
    FORHAR:  cpu time    0.0285: real time    0.0286
    MIXING:  cpu time    0.0074: real time    0.0075
    OFIELD:  cpu time    0.0001: real time    0.0001

  FORCE on cell =-STRESS in cart. coord.  units (eV):
  Direction    XX          YY          ZZ          XY          YZ          ZX
  --------------------------------------------------------------------------------------
  Alpha Z  1422.52236  1422.52236  1422.52236
  Ewald  144042.18234150284.08616************    -0.00000     0.00000 -1597.12872
  Hartree179973.33610186095.93721************     0.00018     0.00009 -1481.63410
  E(xc)   -5016.24427 -5016.61123 -5023.11162    -0.00000    -0.00001     0.16473
  Local  ************************323722.06708    -0.00007    -0.00014  3080.50168
  n-local  -694.81095  -700.11583  -706.78593     0.00133    -0.00966     1.19142
  augment  5779.73999  5789.19466  5802.51454     0.00017    -0.00092    -1.63940
  Kinetic 10931.98697 10930.45426 10967.72672    -0.00050    -0.00031   -10.58239
  Fock        0.00000     0.00000     0.00000     0.00000     0.00000     0.00000
  -------------------------------------------------------------------------------------
  Total     -43.38775   -45.24686   -61.92856     0.00000     0.00000    -9.12679
  in kB     -26.58310   -27.72215   -37.94280     0.00000     0.00000    -5.59186
  external pressure =      -30.75 kB  Pullay stress =        0.00 kB


 VOLUME and BASIS-vectors are now :
 -----------------------------------------------------------------------------
  energy-cutoff  :      450.00
  volume of cell :     2615.00
      direct lattice vectors                 reciprocal lattice vectors
    16.884694054  0.000000000  0.000000000     0.059225237  0.000000000  0.000000000
     0.000000000  9.578410000  0.000000000     0.000000000  0.104401461  0.000000000
     0.000000000  0.000000000 16.169087120     0.000000000  0.000000000  0.061846411

  length of vectors
    16.884694054  9.578410000 16.169087120     0.059225237  0.104401461  0.061846411


 FORCES acting on ions
    electron-ion (+dipol)            ewald-force                    non-local-force                 convergence-correction
 -----------------------------------------------------------------------------------------------
   -.675E+03 -.839E-03 0.163E+04   0.675E+03 -.475E-13 -.164E+04   0.115E+01 -.181E-18 0.544E+01   -.686E-01 -.340E-06 -.291E-01
   0.270E+03 -.854E-03 -.243E+04   -.272E+03 0.178E-14 0.242E+04   0.186E+00 -.403E-19 0.774E+01   -.304E-01 -.346E-06 0.124E-02
   0.962E+03 -.897E-03 0.299E+04   -.964E+03 -.178E-13 -.299E+04   0.211E+01 -.369E-19 -.196E+01   0.167E+00 -.294E-06 -.581E-01
   0.707E+03 -.808E-03 -.725E+03   -.708E+03 -.142E-13 0.726E+03   0.107E+01 0.510E-19 -.120E+01   0.429E-01 -.132E-06 -.876E-01
   0.555E+03 -.934E-03 0.264E+04   -.558E+03 0.648E-13 -.264E+04   0.234E+01 0.602E-19 -.117E+01   0.831E-01 -.191E-06 -.601E-01
   0.217E+03 -.842E-03 -.143E+04   -.218E+03 -.782E-13 0.144E+04   0.697E+00 -.361E-19 -.340E+01   0.764E-02 -.251E-06 -.820E-01
   0.640E+03 -.888E-03 0.118E+04   -.642E+03 -.355E-14 -.119E+04   0.142E+01 0.674E-19 0.570E+01   0.900E-02 -.131E-06 -.401E-02
   0.644E+03 -.895E-03 -.291E+04   -.644E+03 -.146E-12 0.290E+04   -.103E+01 -.192E-19 0.570E+01   0.275E-01 -.124E-06 0.166E-01
   0.104E+04 -.825E-03 0.756E+03   -.105E+04 -.142E-12 -.760E+03   0.436E+01 -.345E-19 0.350E+01   0.437E-01 -.359E-06 -.253E-01
   0.705E+03 -.761E-03 -.320E+04   -.705E+03 0.284E-13 0.319E+04   -.548E+00 -.103E-19 0.572E+01   0.312E-01 -.358E-06 0.199E-01
   0.483E+02 -.805E-03 0.220E+04   -.453E+02 -.252E-12 -.220E+04   -.269E+01 0.329E-21 -.117E+01   -.106E+00 -.171E-06 -.512E-01
   0.664E+02 -.809E-03 -.195E+04   -.662E+02 0.386E-13 0.196E+04   -.135E+00 -.345E-19 -.442E+01   -.381E-01 -.155E-06 -.268E-01
   0.593E+02 0.336E+03 -.150E+04   -.570E+02 -.332E+03 0.150E+04   -.148E+01 -.308E+01 0.224E+01   0.515E-02 -.541E-02 0.779E-02
   -.105E+03 0.641E+03 0.332E+04   0.101E+03 -.631E+03 -.331E+04   0.400E+01 -.946E+01 -.641E+01   0.162E-01 0.598E-01 -.221E-01
   -.273E+03 0.472E+03 -.316E+00   0.273E+03 -.474E+03 0.344E+00   0.119E+00 0.164E+01 0.151E+00   -.447E-02 -.710E-03 -.124E+00
   -.189E+03 0.343E+03 -.329E+04   0.187E+03 -.342E+03 0.328E+04   0.224E+01 -.695E+00 0.882E+01   -.958E-02 -.765E-02 -.759E-02
   -.579E+03 0.489E+03 0.306E+04   0.574E+03 -.479E+03 -.306E+04   0.517E+01 -.915E+01 -.616E+01   -.676E-01 0.426E-01 -.294E-01
   -.644E+03 0.339E+03 -.848E+03   0.645E+03 -.340E+03 0.851E+03   -.845E+00 0.120E+01 -.214E+01   -.489E-01 0.220E-01 -.866E-01
   0.263E+03 0.645E+03 0.176E+04   -.263E+03 -.649E+03 -.176E+04   -.154E+00 0.320E+01 0.499E+01   0.628E-01 0.602E-02 -.282E-01
   -.274E+02 0.334E+03 -.245E+04   0.251E+02 -.330E+03 0.244E+04   0.226E+01 -.413E+01 0.473E+01   0.300E-01 0.106E-01 0.963E-02
   0.192E+03 0.334E+03 0.112E+04   -.193E+03 -.335E+03 -.113E+04   0.674E+00 0.552E+00 0.434E+01   0.787E-01 -.264E-01 -.581E-01
   -.226E+03 0.474E+03 -.290E+04   0.223E+03 -.471E+03 0.290E+04   0.263E+01 -.291E+01 0.460E+01   0.211E-01 0.133E-02 -.524E-02
   -.696E+03 0.445E+03 0.270E+04   0.697E+03 -.448E+03 -.270E+04   -.463E+00 0.276E+01 -.101E+01   -.708E-01 -.261E-01 -.313E-01
   -.567E+03 0.545E+03 -.127E+04   0.568E+03 -.547E+03 0.128E+04   -.436E+00 0.186E+01 -.335E+01   -.352E-01 -.543E-02 -.962E-02
   0.593E+02 -.336E+03 -.150E+04   -.570E+02 0.332E+03 0.150E+04   -.148E+01 0.308E+01 0.224E+01   0.515E-02 0.541E-02 0.779E-02
   -.105E+03 -.641E+03 0.332E+04   0.101E+03 0.631E+03 -.331E+04   0.400E+01 0.946E+01 -.641E+01   0.162E-01 -.598E-01 -.221E-01
   -.273E+03 -.472E+03 -.316E+00   0.273E+03 0.474E+03 0.344E+00   0.119E+00 -.164E+01 0.151E+00   -.447E-02 0.710E-03 -.124E+00
   -.189E+03 -.343E+03 -.329E+04   0.187E+03 0.342E+03 0.328E+04   0.224E+01 0.695E+00 0.882E+01   -.958E-02 0.765E-02 -.759E-02
   -.579E+03 -.489E+03 0.306E+04   0.574E+03 0.479E+03 -.306E+04   0.517E+01 0.915E+01 -.616E+01   -.676E-01 -.426E-01 -.294E-01
   -.644E+03 -.339E+03 -.848E+03   0.645E+03 0.340E+03 0.851E+03   -.845E+00 -.120E+01 -.214E+01   -.489E-01 -.220E-01 -.866E-01
   0.263E+03 -.645E+03 0.176E+04   -.263E+03 0.649E+03 -.176E+04   -.154E+00 -.320E+01 0.499E+01   0.628E-01 -.602E-02 -.282E-01
   -.274E+02 -.334E+03 -.245E+04   0.251E+02 0.330E+03 0.244E+04   0.226E+01 0.413E+01 0.473E+01   0.300E-01 -.106E-01 0.963E-02
   0.192E+03 -.334E+03 0.112E+04   -.193E+03 0.335E+03 -.113E+04   0.674E+00 -.552E+00 0.434E+01   0.787E-01 0.264E-01 -.581E-01
   -.226E+03 -.474E+03 -.290E+04   0.223E+03 0.471E+03 0.290E+04   0.263E+01 0.291E+01 0.460E+01   0.211E-01 -.133E-02 -.524E-02
   -.696E+03 -.445E+03 0.270E+04   0.697E+03 0.448E+03 -.270E+04   -.463E+00 -.276E+01 -.101E+01   -.708E-01 0.261E-01 -.313E-01
   -.567E+03 -.545E+03 -.127E+04   0.568E+03 0.547E+03 0.128E+04   -.436E+00 -.186E+01 -.335E+01   -.352E-01 0.543E-02 -.962E-02
   0.156E+03 -.142E-04 -.119E+04   -.157E+03 -.213E-13 0.119E+04   -.610E+00 -.953E-19 -.381E+01   0.895E-02 -.510E-07 0.102E-01
   0.141E+03 -.926E-05 0.570E+03   -.143E+03 0.320E-13 -.575E+03   0.200E+01 -.234E-18 0.580E+01   -.334E-03 -.519E-07 -.903E-02
   -.249E+03 -.191E-04 0.826E+03   0.252E+03 -.209E-13 -.826E+03   -.282E+01 -.127E-18 -.206E+01   -.462E-01 -.204E-07 -.551E-01
   -.225E+03 -.200E-04 -.557E+03   0.227E+03 0.242E-13 0.556E+03   -.190E+01 -.225E-18 0.186E+01   -.588E-02 -.189E-07 -.268E-01
   -.358E+03 0.194E-04 0.618E+03   0.361E+03 -.220E-13 -.619E+03   -.293E+01 0.105E-18 -.440E-01   -.508E-01 -.198E-07 -.366E-01
   -.130E+03 0.540E-06 -.102E+04   0.130E+03 0.399E-13 0.102E+04   0.775E+00 -.128E-18 -.467E+01   -.180E-01 -.385E-07 -.129E-01
   0.216E+03 0.245E-05 0.133E+04   -.217E+03 0.275E-13 -.134E+04   0.207E+01 -.279E-19 0.515E+01   0.415E-01 0.173E-07 -.158E-01
   -.361E+02 0.136E-04 -.467E+02   0.380E+02 0.639E-13 0.461E+02   -.186E+01 0.329E-18 0.165E+01   0.194E-01 0.469E-07 -.774E-02
   0.204E+03 0.150E-04 0.124E+04   -.206E+03 -.711E-14 -.124E+04   0.256E+01 -.207E-18 0.478E+01   0.314E-01 0.144E-07 -.180E-01
   -.130E+03 0.149E-06 -.283E+03   0.132E+03 -.711E-14 0.282E+03   -.195E+01 0.278E-19 0.140E+01   0.151E-01 -.440E-07 -.167E-01
   -.291E+03 0.653E-05 0.488E+03   0.293E+03 0.513E-13 -.488E+03   -.203E+01 -.306E-19 -.377E+00   -.905E-02 0.357E-07 -.425E-02
   -.146E+02 -.103E-05 -.112E+04   0.146E+02 0.382E-13 0.112E+04   -.177E+00 -.747E-19 -.424E+01   -.143E-02 0.212E-07 0.494E-02
   -.319E+03 0.690E+02 0.116E+04   0.321E+03 -.687E+02 -.117E+04   -.202E+01 0.520E+00 0.416E+01   -.217E-01 -.907E-02 -.903E-02
   -.109E+03 -.483E+02 0.787E+02   0.109E+03 0.493E+02 -.799E+02   -.114E+00 -.156E+01 0.267E+01   -.140E-01 -.379E-02 -.843E-02
   0.217E+03 -.203E+03 0.597E+03   -.219E+03 0.205E+03 -.597E+03   0.111E+01 -.172E+01 -.122E+01   0.348E-01 -.157E-01 -.545E-01
   0.150E+03 -.706E+01 -.899E+03   -.152E+03 0.783E+01 0.900E+03   0.208E+01 -.669E+00 -.210E+00   0.186E-02 0.351E-02 -.163E-01
   0.276E+02 -.124E+03 0.328E+03   -.289E+02 0.126E+03 -.327E+03   0.129E+01 -.214E+01 -.156E+01   0.437E-02 -.482E-02 -.490E-01
   -.167E+03 0.765E+02 -.117E+04   0.169E+03 -.772E+02 0.117E+04   -.114E+01 0.542E+00 -.374E+01   -.361E-02 -.664E-02 -.153E-01
   0.211E+03 -.211E+03 -.235E+03   -.212E+03 0.213E+03 0.235E+03   0.128E+01 -.187E+01 0.127E+01   0.105E-01 -.323E-02 0.371E-02
   0.184E+03 -.277E+03 0.116E+04   -.186E+03 0.279E+03 -.117E+04   0.182E+01 -.249E+01 0.410E+01   0.575E-02 0.167E-02 -.133E-01
   0.285E+03 0.698E+02 0.112E+04   -.285E+03 -.708E+02 -.112E+04   0.583E+00 0.107E+01 0.571E+01   0.264E-01 0.834E-02 -.199E-01
   0.210E+03 -.162E+03 -.491E+03   -.212E+03 0.164E+03 0.490E+03   0.223E+01 -.256E+01 0.193E+01   0.163E-01 0.873E-02 0.174E-02
   -.635E+02 -.173E+03 0.111E+03   0.622E+02 0.174E+03 -.110E+03   0.138E+01 -.232E+01 -.126E+01   -.281E-01 0.130E-01 -.152E-01
   -.902E+02 -.174E+03 -.130E+04   0.897E+02 0.177E+03 0.130E+04   0.727E+00 -.339E+01 -.450E+01   -.106E-01 0.881E-03 0.913E-03
   0.217E+03 0.203E+03 0.597E+03   -.219E+03 -.205E+03 -.597E+03   0.111E+01 0.172E+01 -.122E+01   0.348E-01 0.157E-01 -.545E-01
   0.150E+03 0.706E+01 -.899E+03   -.152E+03 -.783E+01 0.900E+03   0.208E+01 0.669E+00 -.210E+00   0.186E-02 -.351E-02 -.163E-01
   -.319E+03 -.690E+02 0.116E+04   0.321E+03 0.687E+02 -.117E+04   -.202E+01 -.520E+00 0.416E+01   -.217E-01 0.907E-02 -.903E-02
   -.109E+03 0.483E+02 0.787E+02   0.109E+03 -.493E+02 -.799E+02   -.114E+00 0.156E+01 0.267E+01   -.140E-01 0.379E-02 -.843E-02
   0.211E+03 0.211E+03 -.235E+03   -.212E+03 -.213E+03 0.235E+03   0.128E+01 0.187E+01 0.127E+01   0.105E-01 0.323E-02 0.371E-02
   0.184E+03 0.277E+03 0.116E+04   -.186E+03 -.279E+03 -.117E+04   0.182E+01 0.249E+01 0.410E+01   0.575E-02 -.167E-02 -.133E-01
   0.276E+02 0.124E+03 0.328E+03   -.289E+02 -.126E+03 -.327E+03   0.129E+01 0.214E+01 -.156E+01   0.437E-02 0.482E-02 -.490E-01
   -.167E+03 -.765E+02 -.117E+04   0.169E+03 0.772E+02 0.117E+04   -.114E+01 -.542E+00 -.374E+01   -.361E-02 0.664E-02 -.153E-01
   -.635E+02 0.173E+03 0.111E+03   0.622E+02 -.174E+03 -.110E+03   0.138E+01 0.232E+01 -.126E+01   -.281E-01 -.130E-01 -.152E-01
   -.902E+02 0.174E+03 -.130E+04   0.897E+02 -.177E+03 0.130E+04   0.727E+00 0.339E+01 -.450E+01   -.106E-01 -.881E-03 0.913E-03
   0.285E+03 -.698E+02 0.112E+04   -.285E+03 0.708E+02 -.112E+04   0.583E+00 -.107E+01 0.571E+01   0.264E-01 -.834E-02 -.199E-01
   0.210E+03 0.162E+03 -.491E+03   -.212E+03 -.164E+03 0.490E+03   0.223E+01 0.256E+01 0.193E+01   0.163E-01 -.873E-02 0.174E-02
 -----------------------------------------------------------------------------------------------
   -.482E+02 -.126E-01 -.604E+02   0.117E-11 0.426E-12 0.625E-11   0.480E+02 -.311E-14 0.622E+02   0.152E+00 -.237E-05 -.173E+01
 
 
 POSITION                                       TOTAL-FORCE (eV/Angst)
 -----------------------------------------------------------------------------------
     13.17084      1.39171      1.94975         0.832201      0.000000     -0.336118
     13.75451      1.39171      5.03429        -1.079850      0.000000     -1.723160
      4.43666      6.18092      0.40748        -0.319214      0.000000      1.131602
      5.02033      6.18092      3.49202        -0.231832      0.000000      0.230335
      7.34806      1.39171      0.92157        -0.322542      0.000000      0.873033
      7.93172      1.39171      4.00611        -0.220556      0.000000      0.176168
     16.08224      6.18092      2.46384        -0.157251      0.000000     -0.537609
     16.66591      6.18092      5.54838        -0.834211      0.000000     -1.662011
      2.10894      1.39171      2.97793        -0.585243      0.000000     -0.071192
      2.69261      1.39171      6.06247        -0.577471      0.000000     -1.494640
     10.25945      6.18092      1.43566         0.147744      0.000000      0.728578
     10.84312      6.18092      4.52020         0.091780      0.000000      0.623482
     15.90793      0.12638      4.62682         0.822810      0.545561     -0.910467
      6.59008      4.91558      0.00000         0.019233      0.644651      1.706949
      7.17375      4.91558      3.08454        -0.110239     -0.203722      0.054072
      7.75741      4.91558      6.16909        -0.190537     -0.390970     -2.021420
      9.50147      0.12638      0.51409        -0.220457      0.490343      1.609712
     10.08514      0.12638      3.59863         0.118996      0.025814      0.188868
      1.35096      4.91558      2.05636         0.153811     -0.470069     -0.355858
      1.93463      4.91558      5.14091        -0.097051     -0.155285     -1.401594
      4.26235      0.12638      2.57045         0.105071     -0.190609     -0.247475
      4.84602      0.12638      5.65500        -0.171986     -0.243796     -1.504816
     12.41286      4.91558      1.02818         0.397513     -0.656506      0.761913
     12.99653      4.91558      4.11272         0.255763     -0.148805      0.460441
     15.90793      2.65705      4.62682         0.822810     -0.545561     -0.910467
      6.59008      7.44626      0.00000         0.019233     -0.644651      1.706949
      7.17375      7.44626      3.08454        -0.110239      0.203722      0.054072
      7.75741      7.44626      6.16909        -0.190537      0.390970     -2.021420
      9.50147      2.65705      0.51409        -0.220457     -0.490343      1.609712
     10.08514      2.65705      3.59863         0.118996     -0.025814      0.188868
      1.35096      7.44626      2.05636         0.153811      0.470069     -0.355858
      1.93463      7.44626      5.14091        -0.097051      0.155285     -1.401594
      4.26235      2.65705      2.57045         0.105071      0.190609     -0.247475
      4.84602      2.65705      5.65500        -0.171986      0.243796     -1.504816
     12.41286      7.44626      1.02818         0.397513      0.656506      0.761913
     12.99653      7.44626      4.11272         0.255763      0.148805      0.460441
      0.43949      1.39171      6.03394        -1.152275      0.000000     -0.027095
     16.74052      1.39171      2.94940         0.438435      0.000000      0.845469
      8.00634      6.18092      1.40713         0.301804      0.000000     -1.448931
      8.59001      6.18092      4.49167        -0.082771      0.000000      1.304531
     10.91773      1.39171      1.92122        -0.448325      0.000000     -1.046424
     11.50140      1.39171      5.00576         0.236649      0.000000      0.304949
      2.18355      6.18092      0.37895         1.095149      0.000000      0.212692
      2.76722      6.18092      3.46349         0.103778      0.000000      1.080003
      5.09494      1.39171      0.89304         1.275176      0.000000     -0.015680
      5.67861      1.39171      3.97758         0.076723      0.000000      1.002947
     13.82913      6.18092      2.43531        -0.565687      0.000000     -0.640143
     14.41279      6.18092      5.51985        -0.190026      0.000000      0.119107
     13.41477      3.00295      0.38372        -0.721763      0.783993      0.534723
     13.99844      3.00295      3.46826        -0.065528     -0.506537      1.459225
      5.26426      7.79215      1.92599        -0.161002     -0.187367     -1.129203
      5.84793      7.79215      5.01054         0.410562      0.106123      0.824511
      8.17565      3.00295      2.44008         0.058368     -0.283827     -0.917881
      8.75932      3.00295      5.52463         0.004977     -0.222552      0.061327
      0.02514      7.79215      3.98236         0.021560     -0.118803      0.816184
     16.32617      7.79215      0.89781         0.218902     -0.518268      0.541010
      2.35287      3.00295      1.41190        -0.127958      0.063072      0.510413
      2.93654      3.00295      4.49645         0.070104      0.068638      1.024477
     11.08705      7.79215      2.95417         0.092539     -0.468647     -0.596041
     11.67072      7.79215      6.03872         0.200221     -0.965263     -1.284018
      5.26426      4.56969      1.92599        -0.161002      0.187367     -1.129203
      5.84793      4.56969      5.01054         0.410562     -0.106123      0.824511
     13.41477      9.35889      0.38372        -0.721763     -0.783993      0.534723
     13.99844      9.35889      3.46826        -0.065528      0.506537      1.459225
      0.02514      4.56969      3.98236         0.021560      0.118803      0.816184
     16.32617      4.56969      0.89781         0.218902      0.518268      0.541010
      8.17565      9.35889      2.44008         0.058368      0.283827     -0.917881
      8.75932      9.35889      5.52463         0.004977      0.222552      0.061327
     11.08705      4.56969      2.95417         0.092539      0.468647     -0.596041
     11.67072      4.56969      6.03872         0.200221      0.965263     -1.284018
      2.35287      9.35889      1.41190        -0.127958     -0.063072      0.510413
      2.93654      9.35889      4.49645         0.070104     -0.068638      1.024477
 -----------------------------------------------------------------------------------
    total drift:                               -0.045940     -0.012646      0.009771


--------------------------------------------------------------------------------------------------------



  FREE ENERGIE OF THE ION-ELECTRON SYSTEM (eV)
  ---------------------------------------------------
  free  energy   TOTEN  =      -340.88709209 eV

  energy  without entropy=     -339.46632887  energy(sigma->0) =     -340.17671048
 


--------------------------------------------------------------------------------------------------------


    POTLOK:  cpu time    0.0552: real time    0.0561


--------------------------------------------------------------------------------------------------------


     LOOP+:  cpu time  119.5215: real time  119.9071
    4ORBIT:  cpu time    0.0000: real time    0.0000

 total amount of memory used by VASP MPI-rank0    46724. kBytes
=======================================================================

   base      :      30000. kBytes
   nonlr-proj:       2058. kBytes
   fftplans  :       3623. kBytes
   grid      :       6327. kBytes
   one-center:         93. kBytes
   wavefun   :       4623. kBytes
 
  
  
 General timing and accounting informations for this job:
 ========================================================
  
                  Total CPU time used (sec):      121.798
                            User time (sec):      121.183
                          System time (sec):        0.615
                         Elapsed time (sec):      122.850
  
                   Maximum memory used (kb):      261600.
                   Average memory used (kb):           0.
  
                          Minor page faults:        96924
                          Major page faults:            0
                 Voluntary context switches:          990
