  96  96   0   0
  0.2657162E+02  0.1125646E-08  0.1125646E-08  0.2251996E-08  0.5000000E-15
  1.000000000000000E-004
  CAR 
 "Millerite NiS"                         
     11.39653442    -66.72309121  301      1.58409618      1.00000000
    -66.723  0.0000E+00  0.0000E+00
    -66.463  0.0000E+00  0.0000E+00
    -66.202  0.0000E+00  0.0000E+00
    -65.942  0.0000E+00  0.0000E+00
    -65.681  0.0000E+00  0.0000E+00
    -65.421  0.0000E+00  0.0000E+00
    -65.161  0.0000E+00  0.0000E+00
    -64.900  0.0000E+00  0.0000E+00
    -64.640  0.0000E+00  0.0000E+00
    -64.380  0.0000E+00  0.0000E+00
    -64.119  0.1231E-09  0.3205E-10
    -63.859  0.8325E-05  0.2168E-05
    -63.598  0.2371E-01  0.6176E-02
    -63.338  0.3537E+01  0.9271E+00
    -63.078  0.4831E+02  0.1351E+02
    -62.817  0.1537E+03  0.5354E+02
    -62.557  0.2768E+03  0.1256E+03
    -62.296  0.3663E+03  0.2210E+03
    -62.036  0.1769E+03  0.2671E+03
    -61.776  0.5948E+02  0.2826E+03
    -61.515  0.1924E+02  0.2876E+03
    -61.255  0.1567E+01  0.2880E+03
    -60.994  0.1175E-01  0.2880E+03
    -60.734  0.4182E-05  0.2880E+03
    -60.474  0.5789E-10  0.2880E+03
    -60.213  0.0000E+00  0.2880E+03
    -59.953  0.0000E+00  0.2880E+03
    -59.692  0.0000E+00  0.2880E+03
    -59.432  0.0000E+00  0.2880E+03
    -59.172  0.0000E+00  0.2880E+03
    -58.911  0.0000E+00  0.2880E+03
    -58.651  0.0000E+00  0.2880E+03
    -58.390  0.0000E+00  0.2880E+03
    -58.130  0.0000E+00  0.2880E+03
    -57.870  0.0000E+00  0.2880E+03
    -57.609  0.0000E+00  0.2880E+03
    -57.349  0.0000E+00  0.2880E+03
    -57.088  0.0000E+00  0.2880E+03
    -56.828  0.0000E+00  0.2880E+03
    -56.568  0.0000E+00  0.2880E+03
    -56.307  0.0000E+00  0.2880E+03
    -56.047  0.0000E+00  0.2880E+03
    -55.786  0.0000E+00  0.2880E+03
    -55.526  0.0000E+00  0.2880E+03
    -55.266  0.0000E+00  0.2880E+03
    -55.005  0.0000E+00  0.2880E+03
    -54.745  0.0000E+00  0.2880E+03
    -54.484  0.0000E+00  0.2880E+03
    -54.224  0.0000E+00  0.2880E+03
    -53.964  0.0000E+00  0.2880E+03
    -53.703  0.0000E+00  0.2880E+03
    -53.443  0.0000E+00  0.2880E+03
    -53.182  0.0000E+00  0.2880E+03
    -52.922  0.0000E+00  0.2880E+03
    -52.662  0.0000E+00  0.2880E+03
    -52.401  0.0000E+00  0.2880E+03
    -52.141  0.0000E+00  0.2880E+03
    -51.880  0.0000E+00  0.2880E+03
    -51.620  0.0000E+00  0.2880E+03
    -51.360  0.0000E+00  0.2880E+03
    -51.099  0.0000E+00  0.2880E+03
    -50.839  0.0000E+00  0.2880E+03
    -50.578  0.0000E+00  0.2880E+03
    -50.318  0.0000E+00  0.2880E+03
    -50.058  0.0000E+00  0.2880E+03
    -49.797  0.0000E+00  0.2880E+03
    -49.537  0.0000E+00  0.2880E+03
    -49.276  0.0000E+00  0.2880E+03
    -49.016  0.0000E+00  0.2880E+03
    -48.756  0.0000E+00  0.2880E+03
    -48.495  0.0000E+00  0.2880E+03
    -48.235  0.0000E+00  0.2880E+03
    -47.974  0.0000E+00  0.2880E+03
    -47.714  0.0000E+00  0.2880E+03
    -47.454  0.0000E+00  0.2880E+03
    -47.193  0.0000E+00  0.2880E+03
    -46.933  0.0000E+00  0.2880E+03
    -46.672  0.0000E+00  0.2880E+03
    -46.412  0.0000E+00  0.2880E+03
    -46.152  0.0000E+00  0.2880E+03
    -45.891  0.0000E+00  0.2880E+03
    -45.631  0.0000E+00  0.2880E+03
    -45.370  0.0000E+00  0.2880E+03
    -45.110  0.0000E+00  0.2880E+03
    -44.850  0.0000E+00  0.2880E+03
    -44.589  0.0000E+00  0.2880E+03
    -44.329  0.0000E+00  0.2880E+03
    -44.068  0.0000E+00  0.2880E+03
    -43.808  0.0000E+00  0.2880E+03
    -43.548  0.0000E+00  0.2880E+03
    -43.287  0.0000E+00  0.2880E+03
    -43.027  0.0000E+00  0.2880E+03
    -42.766  0.0000E+00  0.2880E+03
    -42.506  0.0000E+00  0.2880E+03
    -42.246  0.0000E+00  0.2880E+03
    -41.985  0.0000E+00  0.2880E+03
    -41.725  0.0000E+00  0.2880E+03
    -41.464  0.0000E+00  0.2880E+03
    -41.204  0.0000E+00  0.2880E+03
    -40.944  0.0000E+00  0.2880E+03
    -40.683  0.0000E+00  0.2880E+03
    -40.423  0.0000E+00  0.2880E+03
    -40.162  0.0000E+00  0.2880E+03
    -39.902  0.0000E+00  0.2880E+03
    -39.642  0.0000E+00  0.2880E+03
    -39.381  0.0000E+00  0.2880E+03
    -39.121  0.0000E+00  0.2880E+03
    -38.860  0.0000E+00  0.2880E+03
    -38.600  0.0000E+00  0.2880E+03
    -38.340  0.0000E+00  0.2880E+03
    -38.079  0.0000E+00  0.2880E+03
    -37.819  0.0000E+00  0.2880E+03
    -37.558  0.0000E+00  0.2880E+03
    -37.298  0.0000E+00  0.2880E+03
    -37.038  0.0000E+00  0.2880E+03
    -36.777  0.0000E+00  0.2880E+03
    -36.517  0.0000E+00  0.2880E+03
    -36.256  0.0000E+00  0.2880E+03
    -35.996  0.0000E+00  0.2880E+03
    -35.736  0.0000E+00  0.2880E+03
    -35.475  0.0000E+00  0.2880E+03
    -35.215  0.0000E+00  0.2880E+03
    -34.954  0.0000E+00  0.2880E+03
    -34.694  0.0000E+00  0.2880E+03
    -34.434  0.0000E+00  0.2880E+03
    -34.173  0.0000E+00  0.2880E+03
    -33.913  0.0000E+00  0.2880E+03
    -33.652  0.0000E+00  0.2880E+03
    -33.392  0.0000E+00  0.2880E+03
    -33.132  0.0000E+00  0.2880E+03
    -32.871  0.0000E+00  0.2880E+03
    -32.611  0.0000E+00  0.2880E+03
    -32.350  0.0000E+00  0.2880E+03
    -32.090  0.0000E+00  0.2880E+03
    -31.830  0.0000E+00  0.2880E+03
    -31.569  0.0000E+00  0.2880E+03
    -31.309  0.0000E+00  0.2880E+03
    -31.048  0.0000E+00  0.2880E+03
    -30.788  0.0000E+00  0.2880E+03
    -30.528  0.0000E+00  0.2880E+03
    -30.267  0.0000E+00  0.2880E+03
    -30.007  0.0000E+00  0.2880E+03
    -29.746  0.0000E+00  0.2880E+03
    -29.486  0.0000E+00  0.2880E+03
    -29.226  0.0000E+00  0.2880E+03
    -28.965  0.0000E+00  0.2880E+03
    -28.705  0.0000E+00  0.2880E+03
    -28.444  0.0000E+00  0.2880E+03
    -28.184  0.0000E+00  0.2880E+03
    -27.924  0.0000E+00  0.2880E+03
    -27.663  0.0000E+00  0.2880E+03
    -27.403  0.0000E+00  0.2880E+03
    -27.142  0.0000E+00  0.2880E+03
    -26.882  0.0000E+00  0.2880E+03
    -26.622  0.0000E+00  0.2880E+03
    -26.361  0.0000E+00  0.2880E+03
    -26.101  0.0000E+00  0.2880E+03
    -25.840  0.0000E+00  0.2880E+03
    -25.580  0.0000E+00  0.2880E+03
    -25.320  0.0000E+00  0.2880E+03
    -25.059  0.0000E+00  0.2880E+03
    -24.799  0.0000E+00  0.2880E+03
    -24.538  0.0000E+00  0.2880E+03
    -24.278  0.0000E+00  0.2880E+03
    -24.018  0.0000E+00  0.2880E+03
    -23.757  0.0000E+00  0.2880E+03
    -23.497  0.0000E+00  0.2880E+03
    -23.236  0.0000E+00  0.2880E+03
    -22.976  0.0000E+00  0.2880E+03
    -22.716  0.0000E+00  0.2880E+03
    -22.455  0.0000E+00  0.2880E+03
    -22.195  0.0000E+00  0.2880E+03
    -21.935  0.0000E+00  0.2880E+03
    -21.674  0.0000E+00  0.2880E+03
    -21.414  0.0000E+00  0.2880E+03
    -21.153  0.0000E+00  0.2880E+03
    -20.893  0.0000E+00  0.2880E+03
    -20.633  0.0000E+00  0.2880E+03
    -20.372  0.0000E+00  0.2880E+03
    -20.112  0.0000E+00  0.2880E+03
    -19.851  0.0000E+00  0.2880E+03
    -19.591  0.0000E+00  0.2880E+03
    -19.331  0.0000E+00  0.2880E+03
    -19.070  0.0000E+00  0.2880E+03
    -18.810  0.0000E+00  0.2880E+03
    -18.549  0.0000E+00  0.2880E+03
    -18.289  0.0000E+00  0.2880E+03
    -18.029  0.0000E+00  0.2880E+03
    -17.768  0.0000E+00  0.2880E+03
    -17.508  0.0000E+00  0.2880E+03
    -17.247  0.0000E+00  0.2880E+03
    -16.987  0.0000E+00  0.2880E+03
    -16.727  0.0000E+00  0.2880E+03
    -16.466  0.0000E+00  0.2880E+03
    -16.206  0.0000E+00  0.2880E+03
    -15.945  0.0000E+00  0.2880E+03
    -15.685  0.1279E-14  0.2880E+03
    -15.425  0.1123E-08  0.2880E+03
    -15.164  0.3126E-04  0.2880E+03
    -14.904  0.3377E-01  0.2880E+03
    -14.643  0.1685E+01  0.2884E+03
    -14.383  0.6782E+01  0.2902E+03
    -14.123  0.7812E+01  0.2922E+03
    -13.862  0.9398E+01  0.2947E+03
    -13.602  0.2016E+02  0.2999E+03
    -13.341  0.2762E+02  0.3071E+03
    -13.081  0.2724E+02  0.3142E+03
    -12.821  0.2667E+02  0.3212E+03
    -12.560  0.4124E+02  0.3319E+03
    -12.300  0.4666E+02  0.3441E+03
    -12.039  0.4465E+02  0.3557E+03
    -11.779  0.4473E+02  0.3673E+03
    -11.519  0.3832E+02  0.3773E+03
    -11.258  0.1969E+02  0.3824E+03
    -10.998  0.5647E+01  0.3839E+03
    -10.737  0.3257E+00  0.3840E+03
    -10.477  0.1269E-02  0.3840E+03
    -10.217  0.2121E-06  0.3840E+03
     -9.956  0.1329E-11  0.3840E+03
     -9.696  0.0000E+00  0.3840E+03
     -9.435  0.0000E+00  0.3840E+03
     -9.175  0.0000E+00  0.3840E+03
     -8.915  0.0000E+00  0.3840E+03
     -8.654  0.0000E+00  0.3840E+03
     -8.394  0.0000E+00  0.3840E+03
     -8.133  0.0000E+00  0.3840E+03
     -7.873  0.0000E+00  0.3840E+03
     -7.613  0.0000E+00  0.3840E+03
     -7.352  0.1261E-10  0.3840E+03
     -7.092  0.1223E-05  0.3840E+03
     -6.831  0.4789E-02  0.3840E+03
     -6.571  0.9237E+00  0.3842E+03
     -6.311  0.1342E+02  0.3877E+03
     -6.050  0.2884E+02  0.3952E+03
     -5.790  0.2625E+02  0.4021E+03
     -5.529  0.3279E+02  0.4106E+03
     -5.269  0.4760E+02  0.4230E+03
     -5.009  0.6165E+02  0.4391E+03
     -4.748  0.6213E+02  0.4552E+03
     -4.488  0.5514E+02  0.4696E+03
     -4.227  0.5979E+02  0.4852E+03
     -3.967  0.6302E+02  0.5016E+03
     -3.707  0.6871E+02  0.5195E+03
     -3.446  0.7953E+02  0.5402E+03
     -3.186  0.9036E+02  0.5637E+03
     -2.925  0.8172E+02  0.5850E+03
     -2.665  0.8245E+02  0.6065E+03
     -2.405  0.8488E+02  0.6286E+03
     -2.144  0.7020E+02  0.6468E+03
     -1.884  0.5489E+02  0.6611E+03
     -1.623  0.6260E+02  0.6774E+03
     -1.363  0.9240E+02  0.7015E+03
     -1.103  0.1040E+03  0.7286E+03
     -0.842  0.1183E+03  0.7594E+03
     -0.582  0.1459E+03  0.7974E+03
     -0.321  0.1629E+03  0.8398E+03
     -0.061  0.1786E+03  0.8863E+03
      0.199  0.1742E+03  0.9317E+03
      0.460  0.1308E+03  0.9657E+03
      0.720  0.1039E+03  0.9928E+03
      0.981  0.8208E+02  0.1014E+04
      1.241  0.7225E+02  0.1033E+04
      1.501  0.6794E+02  0.1051E+04
      1.762  0.6109E+02  0.1067E+04
      2.022  0.5513E+02  0.1081E+04
      2.283  0.6993E+02  0.1099E+04
      2.543  0.7341E+02  0.1118E+04
      2.803  0.5900E+02  0.1134E+04
      3.064  0.4477E+02  0.1145E+04
      3.324  0.2175E+02  0.1151E+04
      3.585  0.3910E+01  0.1152E+04
      3.845  0.8846E-01  0.1152E+04
      4.105  0.3632E+00  0.1152E+04
      4.366  0.4150E+01  0.1153E+04
      4.626  0.7476E+01  0.1155E+04
      4.887  0.1691E+02  0.1160E+04
      5.147  0.1960E+02  0.1165E+04
      5.407  0.1842E+02  0.1169E+04
      5.668  0.1968E+02  0.1175E+04
      5.928  0.2518E+02  0.1181E+04
      6.189  0.3298E+02  0.1190E+04
      6.449  0.3339E+02  0.1198E+04
      6.709  0.4096E+02  0.1209E+04
      6.970  0.4905E+02  0.1222E+04
      7.230  0.4760E+02  0.1234E+04
      7.491  0.5662E+02  0.1249E+04
      7.751  0.4758E+02  0.1261E+04
      8.011  0.2313E+02  0.1267E+04
      8.272  0.2351E+01  0.1268E+04
      8.532  0.1909E-01  0.1268E+04
      8.793  0.7658E-05  0.1268E+04
      9.053  0.1238E-09  0.1268E+04
      9.313  0.0000E+00  0.1268E+04
      9.574  0.0000E+00  0.1268E+04
      9.834  0.0000E+00  0.1268E+04
     10.095  0.0000E+00  0.1268E+04
     10.355  0.0000E+00  0.1268E+04
     10.615  0.0000E+00  0.1268E+04
     10.876  0.0000E+00  0.1268E+04
     11.136  0.0000E+00  0.1268E+04
     11.397  0.0000E+00  0.1268E+04
