       N       E                     dE             d eps       ncg     rms          rms(c)
DAV:   1     0.134517825633E+05    0.13452E+05   -0.68512E+05  1556   0.167E+03
DAV:   2     0.854271918034E+03   -0.12598E+05   -0.12161E+05  1342   0.537E+02
DAV:   3    -0.450155787758E+03   -0.13044E+04   -0.12368E+04  1432   0.188E+02
DAV:   4    -0.532522011782E+03   -0.82366E+02   -0.81434E+02  1464   0.427E+01
DAV:   5    -0.535681942923E+03   -0.31599E+01   -0.31547E+01  1680   0.890E+00    0.111E+02
DAV:   6    -0.632288578552E+03   -0.96607E+02   -0.12284E+03  1584   0.129E+02    0.187E+02
DAV:   7    -0.503644500402E+03    0.12864E+03   -0.27377E+02  1408   0.841E+01    0.848E+01
DAV:   8    -0.583820403761E+03   -0.80176E+02   -0.29774E+02  1640   0.103E+02    0.172E+02
DAV:   9    -0.519221775813E+03    0.64599E+02   -0.18671E+02  1632   0.673E+01    0.934E+01
DAV:  10    -0.569416604181E+03   -0.50195E+02   -0.18423E+02  1792   0.765E+01    0.121E+02
DAV:  11    -0.557476351150E+03    0.11940E+02   -0.10722E+02  1728   0.637E+01    0.116E+02
DAV:  12    -0.518798362427E+03    0.38678E+02   -0.61490E+01  1712   0.425E+01    0.679E+01
DAV:  13    -0.503974777290E+03    0.14824E+02   -0.59483E+01  1664   0.479E+01    0.608E+01
DAV:  14    -0.493318606566E+03    0.10656E+02   -0.41340E+01  1736   0.352E+01    0.522E+01
DAV:  15    -0.483182255936E+03    0.10136E+02   -0.19210E+01  1728   0.260E+01    0.347E+01
DAV:  16    -0.479746786004E+03    0.34355E+01   -0.73874E+00  1752   0.140E+01    0.302E+01
DAV:  17    -0.477386709580E+03    0.23601E+01   -0.30523E+00  1744   0.897E+00    0.256E+01
DAV:  18    -0.476605538351E+03    0.78117E+00   -0.77768E-01  1728   0.395E+00    0.243E+01
DAV:  19    -0.475750228239E+03    0.85531E+00   -0.34458E-01  1704   0.350E+00    0.230E+01
DAV:  20    -0.474642512021E+03    0.11077E+01   -0.41608E-01  1752   0.429E+00    0.212E+01
DAV:  21    -0.472568436170E+03    0.20741E+01   -0.69755E-01  1872   0.555E+00    0.166E+01
DAV:  22    -0.471229028993E+03    0.13394E+01   -0.88168E-01  1744   0.514E+00    0.120E+01
DAV:  23    -0.470836999467E+03    0.39203E+00   -0.40339E-01  1720   0.241E+00    0.979E+00
DAV:  24    -0.470792494958E+03    0.44505E-01   -0.10655E-01  1520   0.151E+00    0.956E+00
DAV:  25    -0.470815870050E+03   -0.23375E-01   -0.10700E-01  1456   0.210E+00    0.974E+00
DAV:  26    -0.470295140187E+03    0.52073E+00   -0.53325E-01  1912   0.546E+00    0.543E+00
DAV:  27    -0.470278981977E+03    0.16158E-01   -0.81110E-01  1800   0.542E+00    0.531E+00
DAV:  28    -0.470144560115E+03    0.13442E+00   -0.31491E-01  1680   0.278E+00    0.191E+00
DAV:  29    -0.470137028693E+03    0.75314E-02   -0.55255E-02  1672   0.129E+00    0.133E+00
DAV:  30    -0.470139767619E+03   -0.27389E-02   -0.25911E-02  1496   0.909E-01    0.132E+00
DAV:  31    -0.470134552703E+03    0.52149E-02   -0.17169E-02  1568   0.826E-01    0.801E-01
DAV:  32    -0.470135610434E+03   -0.10577E-02   -0.10984E-02  1472   0.616E-01    0.784E-01
DAV:  33    -0.470133778449E+03    0.18320E-02   -0.53861E-03  1512   0.500E-01    0.409E-01
DAV:  34    -0.470134717651E+03   -0.93920E-03   -0.27925E-03  1536   0.327E-01    0.468E-01
DAV:  35    -0.470134371661E+03    0.34599E-03   -0.11344E-03  1400   0.230E-01    0.333E-01
DAV:  36    -0.470134668124E+03   -0.29646E-03   -0.67383E-04  1224   0.169E-01    0.262E-01
DAV:  37    -0.470134874978E+03   -0.20685E-03   -0.57855E-04  1192   0.154E-01    0.158E-01
DAV:  38    -0.470135185179E+03   -0.31020E-03   -0.22459E-04   824   0.851E-02    0.154E-01
DAV:  39    -0.470135417720E+03   -0.23254E-03   -0.18495E-04   792   0.764E-02    0.123E-01
DAV:  40    -0.470135755578E+03   -0.33786E-03   -0.13774E-04   792   0.758E-02    0.889E-02
DAV:  41    -0.470135998877E+03   -0.24330E-03   -0.10879E-04   808   0.593E-02    0.656E-02
DAV:  42    -0.470136335879E+03   -0.33700E-03   -0.11864E-04   848   0.373E-02    0.621E-02
DAV:  43    -0.470136513613E+03   -0.17773E-03   -0.65236E-05   792   0.406E-02    0.534E-02
DAV:  44    -0.470136848833E+03   -0.33522E-03   -0.42487E-05   800   0.277E-02    0.463E-02
DAV:  45    -0.470136930301E+03   -0.81468E-04   -0.26379E-05   792   0.240E-02
   1 F= -.47013693E+03 E0= -.46948581E+03  d E =-.130224E+01
