 vasp.5.4.4.18Apr17-6-g9f103f2a35 (build Aug 13 2019 17:33:20) gamma-only       
  
 executed on             LinuxIFC date 2020.05.11  15:47:43
 running on   12 total cores
 distrk:  each k-point on   12 cores,    1 groups
 distr:  one band on NCORES_PER_BAND=   6 cores,    2 groups


--------------------------------------------------------------------------------------------------------


 INCAR:
 POTCAR:    PAW_PBE Ni_pv 06Sep2000               
 POTCAR:    PAW_PBE S 06Sep2000                   
 POTCAR:    PAW_PBE Ni_pv 06Sep2000               
   VRHFIN =Ni:                                                                  
   LEXCH  = PE                                                                  
   EATOM  =  3501.1230 eV,  257.3253 Ry                                         
                                                                                
   TITEL  = PAW_PBE Ni_pv 06Sep2000                                             
   LULTRA =        F    use ultrasoft PP ?                                      
   IUNSCR =        1    unscreen: 0-lin 1-nonlin 2-no                           
   RPACOR =    1.500    partial core radius                                     
   POMASS =   58.690; ZVAL   =   16.000    mass and valenz                      
   RCORE  =    2.000    outmost cutoff radius                                   
   RWIGS  =    2.000; RWIGS  =    1.058    wigner-seitz radius (au A)           
   ENMAX  =  367.986; ENMIN  =  275.989 eV                                      
   RCLOC  =    1.301    cutoff for local pot                                    
   LCOR   =        T    correct aug charges                                     
   LPAW   =        T    paw PP                                                  
   EAUG   =  703.443                                                            
   DEXC   =    0.000                                                            
   RMAX   =    2.041    core radius for proj-oper                               
   RAUG   =    1.300    factor for augmentation sphere                          
   RDEP   =    2.103    radius for radial grids                                 
   RDEPT  =    1.618    core radius for aug-charge                              
                                                                                
   Atomic configuration                                                         
    8 entries                                                                   
     n  l   j            E        occ.                                          
     1  0  0.50     -8206.4253   2.0000                                         
     2  0  0.50      -976.1748   2.0000                                         
     2  1  1.50      -839.0571   6.0000                                         
     3  0  0.50      -105.9991   2.0000                                         
     3  1  1.50       -66.4603   6.0000                                         
     3  2  2.50        -4.6458   9.0000                                         
     4  0  0.50        -4.4926   1.0000                                         
     4  3  2.50        -1.3606   0.0000                                         
   Description                                                                  
     l       E           TYP  RCUT    TYP  RCUT                                 
     1    -66.4602962     23  1.700                                             
     1     -1.3605826     23  1.700                                             
     2     -4.6457867     23  2.000                                             
     2     -6.0063693     23  2.000                                             
     0     -4.4925576     23  1.900                                             
     0     16.3626226     23  1.900                                             
  local pseudopotential read in
  partial core-charges read in
  partial kinetic energy density read in
  atomic valenz-charges read in
  non local Contribution for L=           1  read in
    real space projection operators read in
  non local Contribution for L=           1  read in
    real space projection operators read in
  non local Contribution for L=           2  read in
    real space projection operators read in
  non local Contribution for L=           2  read in
    real space projection operators read in
  non local Contribution for L=           0  read in
    real space projection operators read in
  non local Contribution for L=           0  read in
    real space projection operators read in
    PAW grid and wavefunctions read in
 
   number of l-projection  operators is LMAX  =           6
   number of lm-projection operators is LMMAX =          18
 
 POTCAR:    PAW_PBE S 06Sep2000                   
   VRHFIN =S : s2p4                                                             
   LEXCH  = PE                                                                  
   EATOM  =   276.8230 eV,   20.3459 Ry                                         
                                                                                
   TITEL  = PAW_PBE S 06Sep2000                                                 
   LULTRA =        F    use ultrasoft PP ?                                      
   IUNSCR =        1    unscreen: 0-lin 1-nonlin 2-no                           
   RPACOR =    1.500    partial core radius                                     
   POMASS =   32.066; ZVAL   =    6.000    mass and valenz                      
   RCORE  =    1.900    outmost cutoff radius                                   
   RWIGS  =    2.200; RWIGS  =    1.164    wigner-seitz radius (au A)           
   ENMAX  =  258.689; ENMIN  =  194.016 eV                                      
   ICORE  =        2    local potential                                         
   LCOR   =        T    correct aug charges                                     
   LPAW   =        T    paw PP                                                  
   EAUG   =  335.092                                                            
   DEXC   =    0.000                                                            
   RMAX   =    1.942    core radius for proj-oper                               
   RAUG   =    1.300    factor for augmentation sphere                          
   RDEP   =    1.954    radius for radial grids                                 
   RDEPT  =    1.744    core radius for aug-charge                              
                                                                                
   Atomic configuration                                                         
    6 entries                                                                   
     n  l   j            E        occ.                                          
     1  0  0.50     -2405.8406   2.0000                                         
     2  0  0.50      -211.7007   2.0000                                         
     2  1  1.50      -156.4958   6.0000                                         
     3  0  0.50       -17.2562   2.0000                                         
     3  1  0.50        -7.0085   4.0000                                         
     3  2  1.50        -6.8029   0.0000                                         
   Description                                                                  
     l       E           TYP  RCUT    TYP  RCUT                                 
     0    -17.2561641     23  1.900                                             
     0    -15.8743224     23  1.900                                             
     1     -7.0085400     23  1.900                                             
     1     -2.7779785     23  1.900                                             
     2     -6.8029130     23  1.900                                             
  local pseudopotential read in
  partial core-charges read in
  partial kinetic energy density read in
  atomic valenz-charges read in
  non local Contribution for L=           0  read in
    real space projection operators read in
  non local Contribution for L=           0  read in
    real space projection operators read in
  non local Contribution for L=           1  read in
    real space projection operators read in
  non local Contribution for L=           1  read in
    real space projection operators read in
    PAW grid and wavefunctions read in
 
   number of l-projection  operators is LMAX  =           4
   number of lm-projection operators is LMMAX =           8
 
 Optimization of the real space projectors (new method)

 maximal supplied QI-value         = 18.90
 optimisation between [QCUT,QGAM] = [ 10.77, 21.73] = [ 32.49,132.25] Ry 
 Optimized for a Real-space Cutoff    1.38 Angstroem

   l    n(q)    QCUT    max X(q) W(low)/X(q) W(high)/X(q)  e(spline) 
   1      8    10.771     2.836    0.40E-04    0.29E-04    0.12E-06
   1      8    10.771     4.023    0.10E-03    0.48E-04    0.29E-06
   2      8    10.771    73.368    0.42E-03    0.97E-04    0.44E-06
   2      8    10.771    69.010    0.42E-03    0.99E-04    0.45E-06
   0      9    10.771    54.797    0.10E-03    0.56E-04    0.74E-07
   0      9    10.771    24.266    0.89E-04    0.49E-04    0.67E-07
 Optimization of the real space projectors (new method)

 maximal supplied QI-value         = 19.84
 optimisation between [QCUT,QGAM] = [ 10.71, 21.63] = [ 32.15,130.99] Ry 
 Optimized for a Real-space Cutoff    1.19 Angstroem

   l    n(q)    QCUT    max X(q) W(low)/X(q) W(high)/X(q)  e(spline) 
   0      8    10.715   187.594    0.41E-03    0.53E-04    0.66E-07
   0      8    10.715   164.243    0.41E-03    0.53E-04    0.65E-07
   1      7    10.715    67.533    0.19E-03    0.59E-03    0.68E-07
   1      7    10.715    50.729    0.19E-03    0.58E-03    0.67E-07
  PAW_PBE Ni_pv 06Sep2000               :
 energy of atom  1       EATOM=-3501.1230
 kinetic energy error for atom=    0.0925 (will be added to EATOM!!)
  PAW_PBE S 06Sep2000                   :
 energy of atom  2       EATOM= -276.8230
 kinetic energy error for atom=    0.0033 (will be added to EATOM!!)
 
 
 POSCAR: Type_048 Type_148                       
  positions in cartesian coordinates
  No initial velocities read in
 exchange correlation table for  LEXCH =        8
   RHO(1)=    0.500       N(1)  =     2000
   RHO(2)=  100.500       N(2)  =     4000
 


--------------------------------------------------------------------------------------------------------


 ion  position               nearest neighbor table
   1  0.261  0.479  0.295-  73 2.25  58 2.26  80 2.26  59 2.36  54 2.36   8 2.53  23 2.53
   2  0.355  0.385  0.426-  65 2.12  74 2.19  60 2.19  54 2.26  59 2.26   9 2.53  24 2.53
   3  0.067  0.267  0.096-  55 2.04  63 2.16  64 2.18  25 2.29  57 2.36  26 2.47   4 2.50
   4  0.167  0.073  0.165-  81 2.12  55 2.16  64 2.25  56 2.36  82 2.36   3 2.50  36 2.53  31 2.53

   5  0.024  0.053  0.490-  72 2.02  50 2.03  77 2.04  22 2.43
   6  0.201  0.537  0.060-  51 2.02  79 2.05  57 2.07  29 2.40
   7  0.274  0.333  0.130-  57 2.09  55 2.14  51 2.15  52 2.36  58 2.36  13 2.53  29 2.53
   8  0.368  0.239  0.261-  56 2.25  58 2.26  52 2.26  59 2.36  61 2.36   1 2.53  23 2.53
   9  0.462  0.145  0.391-  60 2.10  62 2.24  78 2.25  59 2.26  61 2.26  18 2.35   2 2.53  24 2.53

  10  0.000  0.372  0.261-  58 2.25  64 2.26  92 2.26  49 2.36  66 2.36  21 2.53  14 2.53
  11  0.094  0.278  0.391-  53 2.08  59 2.25  49 2.26  66 2.26  12 2.32  50 2.36  30 2.44  15 2.53
                            22 2.53
  12  0.258  0.197  0.463-  60 2.03  50 2.13  53 2.22  11 2.32
  13  0.406  0.465  0.130-  79 2.12  51 2.13  69 2.19  52 2.36  80 2.36  29 2.53   7 2.53
  14  0.761  0.479  0.295-  85 2.25  70 2.26  92 2.26  71 2.36  66 2.36  21 2.53  10 2.53
  15  0.855  0.385  0.426-  72 2.07  86 2.21  66 2.26  71 2.26  53 2.27  22 2.53  11 2.53
  16  0.535  0.212  0.089-  51 2.03  52 2.16  67 2.20  93 2.30  17 2.34  42 2.53
  17  0.667  0.073  0.165-  52 2.25  67 2.26  93 2.26  16 2.34  68 2.36  94 2.36  48 2.53  43 2.53

  18  0.564  0.002  0.471-  89 2.01  62 2.06  60 2.11   9 2.35
  19  0.694  0.326  0.038-  67 2.11  69 2.12  63 2.20  20 2.28
  20  0.774  0.333  0.130-  69 2.09  63 2.10  67 2.25  19 2.28  64 2.36  70 2.36  26 2.44  25 2.53
                            40 2.53
  21  0.868  0.239  0.261-  68 2.25  70 2.26  64 2.26  71 2.36  49 2.36  14 2.53  10 2.53
  22  0.962  0.145  0.391-  72 2.07  90 2.25  71 2.26  49 2.26  50 2.36   5 2.43  15 2.53  11 2.53

  23  0.500  0.372  0.261-  70 2.25  52 2.26  80 2.26  61 2.36  54 2.36   8 2.53   1 2.53
  24  0.594  0.278  0.391-  65 2.07  62 2.19  71 2.25  61 2.26  54 2.26   2 2.53   9 2.53
  25  0.906  0.465  0.130-  57 2.09  91 2.09  63 2.25   3 2.29  64 2.36  92 2.36  40 2.53  20 2.53

  26  0.933  0.150  0.070-  81 2.07  63 2.10  67 2.11  20 2.44   3 2.47
  27  0.261  0.979  0.295-  49 2.25  82 2.26  56 2.26  83 2.36  78 2.36  32 2.53  46 2.53
  28  0.355  0.885  0.426-  89 2.08  84 2.10  50 2.25  78 2.26  83 2.26  33 2.53  47 2.53
  29  0.167  0.573  0.165-  79 2.11  88 2.25  57 2.28  80 2.36  58 2.36   6 2.40  13 2.53   7 2.53

  30  0.105  0.455  0.450-  53 2.05  74 2.08  96 2.11  45 2.42  11 2.44
  31  0.274  0.833  0.130-  75 1.99  81 2.11  79 2.13  76 2.36  82 2.36  36 2.53   4 2.53
  32  0.368  0.739  0.261-  80 2.25  82 2.26  76 2.26  83 2.36  85 2.36  27 2.53  46 2.53
  33  0.462  0.645  0.391-  84 2.06  86 2.19  54 2.25  83 2.26  85 2.26  41 2.40  28 2.53  47 2.53

  34  0.000  0.872  0.261-  82 2.25  88 2.26  68 2.26  73 2.36  90 2.36  44 2.53  37 2.53
  35  0.094  0.778  0.391-  74 2.13  77 2.15  83 2.25  73 2.26  90 2.26  38 2.53  45 2.53
  36  0.406  0.965  0.130-  75 1.99  55 2.06  93 2.25  76 2.36  56 2.36   4 2.53  31 2.53
  37  0.761  0.979  0.295-  61 2.25  94 2.26  68 2.26  95 2.36  90 2.36  44 2.53  34 2.53
  38  0.855  0.885  0.426-  77 2.08  62 2.18  90 2.26  95 2.26  45 2.53  35 2.53
  39  0.036  0.692  0.488-  96 2.02  77 2.05  74 2.08  45 2.47
  40  0.667  0.573  0.165-  91 2.05  69 2.22  76 2.25  92 2.36  70 2.36  25 2.53  20 2.53
  41  0.552  0.553  0.487-  65 2.02  84 2.03  86 2.03  33 2.40
  42  0.732  0.006  0.051-  87 2.01  93 2.04  67 2.07  43 2.53  16 2.53
  43  0.774  0.833  0.130-  87 2.06  91 2.10  93 2.26  88 2.36  94 2.36  42 2.53  48 2.53  17 2.53

  44  0.868  0.739  0.261-  92 2.25  94 2.26  88 2.26  95 2.36  73 2.36  37 2.53  34 2.53
  45  0.962  0.645  0.391-  96 2.06  66 2.25  95 2.26  73 2.26  30 2.42  74 2.43  39 2.47  38 2.53
                            35 2.53
  46  0.500  0.872  0.261-  94 2.25  76 2.26  56 2.26  85 2.36  78 2.36  32 2.53  27 2.53
  47  0.594  0.778  0.391-  89 2.06  86 2.19  95 2.25  85 2.26  78 2.26  28 2.53  33 2.53
  48  0.906  0.965  0.130-  87 2.08  81 2.15  67 2.26  88 2.36  68 2.36  17 2.53  43 2.53
  49  0.073  0.167  0.311-  27 2.25  11 2.26  22 2.26  10 2.36  21 2.36
  50  0.167  0.073  0.442-   5 2.03  12 2.13  28 2.25  11 2.36  22 2.36  53 2.64
  51  0.373  0.368  0.056-   6 2.02  16 2.03  13 2.13   7 2.15
  52  0.479  0.261  0.181-  16 2.16  17 2.25   8 2.26  23 2.26  13 2.36   7 2.36
  53  0.043  0.320  0.480-  30 2.05  11 2.08  12 2.22  15 2.27  50 2.64  72 2.76
  54  0.436  0.472  0.355-  33 2.25   2 2.26  24 2.26   1 2.36  23 2.36  65 2.67
  55  0.266  0.153  0.107-   3 2.04  36 2.06   7 2.14   4 2.16
  56  0.342  0.066  0.225-   8 2.25  27 2.26  46 2.26   4 2.36  36 2.36
  57  0.083  0.468  0.104-   6 2.07  25 2.09   7 2.09  29 2.28   3 2.36
  58  0.174  0.397  0.225-  10 2.25   1 2.26   8 2.26   7 2.36  29 2.36
  59  0.268  0.303  0.355-  11 2.25   9 2.26   2 2.26   8 2.36   1 2.36
  60  0.431  0.205  0.480-  12 2.03   9 2.10  18 2.11   2 2.19  65 2.76  62 2.79
  61  0.573  0.167  0.311-  37 2.25  24 2.26   9 2.26  23 2.36   8 2.36  62 2.73
  62  0.673  0.071  0.421-  18 2.06  38 2.18  24 2.19   9 2.24  61 2.73  60 2.79
  63  0.873  0.354  0.055-  20 2.10  26 2.10   3 2.16  19 2.20  25 2.25
  64  0.979  0.261  0.181-   3 2.18   4 2.25  21 2.26  10 2.26  25 2.36  20 2.36
  65  0.520  0.395  0.466-  41 2.02  24 2.07   2 2.12  54 2.67  60 2.76
  66  0.936  0.472  0.355-  45 2.25  15 2.26  11 2.26  14 2.36  10 2.36
  67  0.748  0.160  0.094-  42 2.07  26 2.11  19 2.11  16 2.20  20 2.25  17 2.26  48 2.26
  68  0.842  0.066  0.225-  21 2.25  37 2.26  34 2.26  17 2.36  48 2.36
  69  0.588  0.475  0.101-  20 2.09  19 2.12  13 2.19  40 2.22
  70  0.674  0.397  0.225-  23 2.25  14 2.26  21 2.26  20 2.36  40 2.36
  71  0.768  0.303  0.355-  24 2.25  22 2.26  15 2.26  21 2.36  14 2.36  72 2.77
  72  0.860  0.221  0.469-   5 2.02  22 2.07  15 2.07  53 2.76  71 2.77
  73  0.073  0.667  0.311-   1 2.25  35 2.26  45 2.26  34 2.36  44 2.36
  74  0.186  0.583  0.428-  30 2.08  39 2.08  35 2.13   2 2.19  45 2.43
  75  0.368  0.872  0.064-  31 1.99  36 1.99
  76  0.479  0.761  0.181-  40 2.25  32 2.26  46 2.26  36 2.36  31 2.36
  77  0.016  0.880  0.473-   5 2.04  39 2.05  38 2.08  35 2.15
  78  0.436  0.972  0.355-   9 2.25  28 2.26  47 2.26  27 2.36  46 2.36
  79  0.258  0.658  0.108-   6 2.05  29 2.11  13 2.12  31 2.13
  80  0.342  0.566  0.225-  32 2.25   1 2.26  23 2.26  29 2.36  13 2.36
  81  0.084  0.982  0.107-  26 2.07  31 2.11   4 2.12  48 2.15
  82  0.174  0.897  0.225-  34 2.25  27 2.26  32 2.26  31 2.36   4 2.36
  83  0.268  0.803  0.355-  35 2.25  33 2.26  28 2.26  32 2.36  27 2.36
  84  0.376  0.715  0.472-  41 2.03  33 2.06  28 2.10  89 2.68
  85  0.573  0.667  0.311-  14 2.25  47 2.26  33 2.26  46 2.36  32 2.36  86 2.73
  86  0.668  0.572  0.422-  41 2.03  47 2.19  33 2.19  15 2.21  85 2.73
  87  0.900  0.837  0.065-  42 2.01  43 2.06  48 2.08  88 2.77
  88  0.979  0.761  0.181-  29 2.25  44 2.26  34 2.26  48 2.36  43 2.36  87 2.77
  89  0.525  0.845  0.475-  18 2.01  47 2.06  28 2.08  84 2.68
  90  0.936  0.972  0.355-  22 2.25  38 2.26  35 2.26  37 2.36  34 2.36
  91  0.758  0.657  0.113-  40 2.05  25 2.09  43 2.10  92 2.73
  92  0.842  0.566  0.225-  44 2.25  14 2.26  10 2.26  40 2.36  25 2.36  91 2.73
  93  0.580  0.991  0.094-  42 2.04  36 2.25  43 2.26  17 2.26  16 2.30
  94  0.674  0.897  0.225-  46 2.25  37 2.26  44 2.26  43 2.36  17 2.36
  95  0.768  0.803  0.355-  47 2.25  45 2.26  38 2.26  44 2.36  37 2.36
  96  0.916  0.604  0.475-  39 2.02  45 2.06  30 2.11
 
  LATTYP: Found a base centered orthorhombic cell.
 ALAT       =    11.8257374459
 B/A-ratio  =     1.6199260857
 C/A-ratio  =     1.9043172636
  
  Lattice vectors:
  
 A1 = (  11.2564630382,   0.0000000000,   0.0000000000)
 A2 = (  -5.0445621212, -10.0628203371,   0.0000000000)
 A3 = (   0.0000000000,   0.0000000000, -22.5199559732)


Analysis of symmetry for initial positions (statically):
=====================================================================
 Subroutine PRICEL returns:
 Original cell was already a primitive cell.
 

 Routine SETGRP: Setting up the symmetry group for a 
 base centered orthorhombic supercell.


 Subroutine GETGRP returns: Found  1 space group operations
 (whereof  1 operations were pure point group operations)
 out of a pool of  8 trial point group operations.


The static configuration has the point symmetry C_1 .


Analysis of symmetry for dynamics (positions and initial velocities):
=====================================================================
 Subroutine PRICEL returns:
 Original cell was already a primitive cell.
 

 Routine SETGRP: Setting up the symmetry group for a 
 base centered orthorhombic supercell.


 Subroutine GETGRP returns: Found  1 space group operations
 (whereof  1 operations were pure point group operations)
 out of a pool of  8 trial point group operations.


The dynamic configuration has the point symmetry C_1 .


 Subroutine INISYM returns: Found  1 space group operations
 (whereof  1 operations are pure point group operations),
 and found     1 'primitive' translations

 
 
 KPOINTS: gamma-point-only calculation. no periodi

Automatic generation of k-mesh.
Space group operators:
 irot       det(A)        alpha          n_x          n_y          n_z        tau_x        tau_y        tau_z
    1     1.000000     0.000000     1.000000     0.000000     0.000000     0.000000     0.000000     0.000000
 
 Subroutine IBZKPT returns following result:
 ===========================================
 
 Found      1 irreducible k-points:
 
 Following reciprocal coordinates:
            Coordinates               Weight
  0.000000  0.000000  0.000000      1.000000
 
 Following cartesian coordinates:
            Coordinates               Weight
  0.000000  0.000000  0.000000      1.000000
 


--------------------------------------------------------------------------------------------------------




 Dimension of arrays:
   k-points           NKPTS =      1   k-points in BZ     NKDIM =      1   number of bands    NBANDS=    634
   number of dos      NEDOS =    301   number of ions     NIONS =     96
   non local maximal  LDIM  =      6   non local SUM 2l+1 LMDIM =     18
   total plane-waves  NPLWV = 432000
   max r-space proj   IRMAX =   1917   max aug-charges    IRDMAX=   5534
   dimension x,y,z NGX =    60 NGY =   60 NGZ =  120
   dimension x,y,z NGXF=   120 NGYF=  120 NGZF=  240
   support grid    NGXF=   120 NGYF=  120 NGZF=  240
   ions per type =              48  48
   NGX,Y,Z   is equivalent  to a cutoff of   8.86,  8.86,  8.86 a.u.
   NGXF,Y,Z  is equivalent  to a cutoff of  17.72, 17.72, 17.72 a.u.

 SYSTEM =  "Millerite NiS"                         
 POSCAR =  Type_048 Type_148                       

 Startparameter for this run:
   NWRITE =      2    write-flag & timer
   PREC   = normal    normal or accurate (medium, high low for compatibility)
   ISTART =      0    job   : 0-new  1-cont  2-samecut
   ICHARG =      2    charge: 1-file 2-atom 10-const
   ISPIN  =      1    spin polarized calculation?
   LNONCOLLINEAR =      F non collinear calculations
   LSORBIT =      F    spin-orbit coupling
   INIWAV =      1    electr: 0-lowe 1-rand  2-diag
   LASPH  =      F    aspherical Exc in radial PAW
   METAGGA=      F    non-selfconsistent MetaGGA calc.

 Electronic Relaxation 1
   ENCUT  =  450.0 eV  33.07 Ry    5.75 a.u.  19.47 19.47 38.95*2*pi/ulx,y,z
   ENINI  =  450.0     initial cutoff
   ENAUG  =  703.4 eV  augmentation charge cutoff
   NELM   =    100;   NELMIN=  2; NELMDL= -5     # of ELM steps 
   EDIFF  = 0.1E-03   stopping-criterion for ELM
   LREAL  =      T    real-space projection
   NLSPLINE    = F    spline interpolate recip. space projectors
   LCOMPAT=      F    compatible to vasp.4.4
   GGA_COMPAT  = T    GGA compatible to vasp.4.4-vasp.4.6
   LMAXPAW     = -100 max onsite density
   LMAXMIX     =    2 max onsite mixed and CHGCAR
   VOSKOWN=      0    Vosko Wilk Nusair interpolation
   ROPT   =   -0.00050  -0.00050
 Ionic relaxation
   EDIFFG = 0.1E-02   stopping-criterion for IOM
   NSW    =      0    number of steps for IOM
   NBLOCK =      1;   KBLOCK =      1    inner block; outer block 
   IBRION =     -1    ionic relax: 0-MD 1-quasi-New 2-CG
   NFREE  =      0    steps in history (QN), initial steepest desc. (CG)
   ISIF   =      2    stress and relaxation
   IWAVPR =     10    prediction:  0-non 1-charg 2-wave 3-comb
   ISYM   =      2    0-nonsym 1-usesym 2-fastsym
   LCORR  =      T    Harris-Foulkes like correction to forces

   POTIM  = 0.5000    time-step for ionic-motion
   TEIN   =    0.0    initial temperature
   TEBEG  =    0.0;   TEEND  =   0.0 temperature during run
   SMASS  =  -3.00    Nose mass-parameter (am)
   estimated Nose-frequenzy (Omega)   =  0.10E-29 period in steps =****** mass=  -0.290E-26a.u.
   SCALEE = 1.0000    scale energy and forces
   NPACO  =    256;   APACO  = 16.0  distance and # of slots for P.C.
   PSTRESS=    0.0 pullay stress

  Mass of Ions in am
   POMASS =  58.69 32.07
  Ionic Valenz
   ZVAL   =  16.00  6.00
  Atomic Wigner-Seitz radii
   RWIGS  =  -1.00 -1.00
  virtual crystal weights 
   VCA    =   1.00  1.00
   NELECT =    1056.0000    total number of electrons
   NUPDOWN=      -1.0000    fix difference up-down

 DOS related values:
   EMIN   =  10.00;   EMAX   =-10.00  energy-range for DOS
   EFERMI =   0.00
   ISMEAR =     0;   SIGMA  =   0.20  broadening in eV -4-tet -1-fermi 0-gaus

 Electronic relaxation 2 (details)
   IALGO  =     38    algorithm
   LDIAG  =      T    sub-space diagonalisation (order eigenvalues)
   LSUBROT=      F    optimize rotation matrix (better conditioning)
   TURBO    =      0    0=normal 1=particle mesh
   IRESTART =      0    0=no restart 2=restart with 2 vectors
   NREBOOT  =      0    no. of reboots
   NMIN     =      0    reboot dimension
   EREF     =   0.00    reference energy to select bands
   IMIX   =      4    mixing-type and parameters
     AMIX     =   0.40;   BMIX     =  1.00
     AMIX_MAG =   1.60;   BMIX_MAG =  1.00
     AMIN     =   0.10
     WC   =   100.;   INIMIX=   1;  MIXPRE=   1;  MAXMIX= -45

 Intra band minimization:
   WEIMIN = 0.0000     energy-eigenvalue tresh-hold
   EBREAK =  0.39E-07  absolut break condition
   DEPER  =   0.30     relativ break condition  

   TIME   =   0.40     timestep for ELM

  volume/ion in A,a.u.               =      26.57       179.31
  Fermi-wavevector in a.u.,A,eV,Ry     =   1.220112  2.305678 20.254633  1.488674
  Thomas-Fermi vector in A             =   2.355341
 
 Write flags
   LWAVE        =      F    write WAVECAR
   LDOWNSAMPLE  =      F    k-point downsampling of WAVECAR
   LCHARG       =      F    write CHGCAR
   LVTOT        =      F    write LOCPOT, total local potential
   LVHAR        =      F    write LOCPOT, Hartree potential only
   LELF         =      F    write electronic localiz. function (ELF)
   LORBIT       =      0    0 simple, 1 ext, 2 COOP (PROOUT), +10 PAW based schemes


 Dipole corrections
   LMONO  =      F    monopole corrections only (constant potential shift)
   LDIPOL =      F    correct potential (dipole corrections)
   IDIPOL =      0    1-x, 2-y, 3-z, 4-all directions 
   EPSILON=  1.0000000 bulk dielectric constant

 Exchange correlation treatment:
   GGA     =    --    GGA type
   LEXCH   =     8    internal setting for exchange type
   VOSKOWN=      0    Vosko Wilk Nusair interpolation
   LHFCALC =     F    Hartree Fock is set to
   LHFONE  =     F    Hartree Fock one center treatment
   AEXX    =    0.0000 exact exchange contribution

 Linear response parameters
   LEPSILON=     F    determine dielectric tensor
   LRPA    =     F    only Hartree local field effects (RPA)
   LNABLA  =     F    use nabla operator in PAW spheres
   LVEL    =     F    velocity operator in full k-point grid
   LINTERFAST=   F  fast interpolation
   KINTER  =     0    interpolate to denser k-point grid
   CSHIFT  =0.1000    complex shift for real part using Kramers Kronig
   OMEGAMAX=  -1.0    maximum frequency
   DEG_THRESHOLD= 0.2000000E-02 threshold for treating states as degnerate
   RTIME   =   -0.100 relaxation time in fs
  (WPLASMAI=    0.000 imaginary part of plasma frequency in eV, 0.658/RTIME)
   DFIELD  = 0.0000000 0.0000000 0.0000000 field for delta impulse in time
 
 Orbital magnetization related:
   ORBITALMAG=     F  switch on orbital magnetization
   LCHIMAG   =     F  perturbation theory with respect to B field
   DQ        =  0.001000  dq finite difference perturbation B field
   LLRAUG    =     F  two centre corrections for induced B field



--------------------------------------------------------------------------------------------------------


 Static calculation
 charge density and potential will be updated during run
 non-spin polarized calculation
 Variant of blocked Davidson
 Davidson routine will perform the subspace rotation
 perform sub-space diagonalisation
    after iterative eigenvector-optimisation
 modified Broyden-mixing scheme, WC =      100.0
 initial mixing is a Kerker type mixing with AMIX =  0.4000 and BMIX =      1.0000
 Hartree-type preconditioning will be used
 using additional bands          106
 real space projection scheme for non local part
 use partial core corrections
 calculate Harris-corrections to forces 
   (improved forces if not selfconsistent)
 use gradient corrections 
 use of overlap-Matrix (Vanderbilt PP)
 Gauss-broadening in eV      SIGMA  =   0.20


--------------------------------------------------------------------------------------------------------


  energy-cutoff  :      450.00
  volume of cell :     2550.88
      direct lattice vectors                 reciprocal lattice vectors
    11.256463038  0.000000000  0.000000000     0.088837852 -0.044535036  0.000000000
     5.044562121 10.062820337  0.000000000     0.000000000  0.099375718  0.000000000
     0.000000000  0.000000000 22.519955973     0.000000000  0.000000000  0.044405060

  length of vectors
    11.256463038 11.256463038 22.519955973     0.099375718  0.099375718  0.044405060


 
 k-points in units of 2pi/SCALE and weight: gamma-point-only calculation. no periodi
   0.00000000  0.00000000  0.00000000       1.000
 
 k-points in reciprocal lattice and weights: gamma-point-only calculation. no periodi
   0.00000000  0.00000000  0.00000000       1.000
 
 position of ions in fractional coordinates (direct lattice) 
   0.26092069  0.47878037  0.29519774
   0.35488056  0.38482050  0.42557357
   0.06718887  0.26681040  0.09553595
   0.16696082  0.07274025  0.16482191
   0.02438297  0.05305457  0.49024002
   0.20082136  0.53732914  0.05971783
   0.27423906  0.33335901  0.13037583
   0.36819893  0.23939914  0.26075166
   0.46215879  0.14543927  0.39112749
   0.00030194  0.37150214  0.26075166
   0.09426180  0.27754227  0.39112749
   0.25820221  0.19735589  0.46320958
   0.40634206  0.46546200  0.13037583
   0.76092069  0.47878037  0.29519774
   0.85488056  0.38482050  0.42557357
   0.53525743  0.21173875  0.08905457
   0.66696082  0.07274025  0.16482191
   0.56438102  0.00203790  0.47133751
   0.69430339  0.32583018  0.03794249
   0.77423906  0.33335901  0.13037583
   0.86819893  0.23939914  0.26075166
   0.96215879  0.14543927  0.39112749
   0.50030194  0.37150214  0.26075166
   0.59426180  0.27754227  0.39112749
   0.90634206  0.46546200  0.13037583
   0.93320132  0.15045040  0.07025848
   0.26092069  0.97878037  0.29519774
   0.35488056  0.88482051  0.42557357
   0.16696083  0.57274025  0.16482191
   0.10526277  0.45467148  0.44968788
   0.27423906  0.83335901  0.13037583
   0.36819893  0.73939914  0.26075166
   0.46215879  0.64543927  0.39112749
   0.00030194  0.87150214  0.26075166
   0.09426180  0.77754227  0.39112749
   0.40634206  0.96546200  0.13037583
   0.76092069  0.97878037  0.29519774
   0.85488056  0.88482051  0.42557357
   0.03580745  0.69206967  0.48765497
   0.66696083  0.57274025  0.16482191
   0.55168368  0.55347002  0.48667659
   0.73212909  0.00597208  0.05072261
   0.77423906  0.83335901  0.13037583
   0.86819893  0.73939914  0.26075166
   0.96215879  0.64543927  0.39112749
   0.50030194  0.87150214  0.26075166
   0.59426180  0.77754227  0.39112749
   0.90634206  0.96546200  0.13037583
   0.07287763  0.16682345  0.31134757
   0.16683750  0.07286358  0.44172340
   0.37280457  0.36837203  0.05558415
   0.47891775  0.26078331  0.18097174
   0.04309283  0.32042359  0.48022603
   0.43627354  0.47164252  0.35520991
   0.26601757  0.15295978  0.10662719
   0.34231367  0.06560240  0.22483408
   0.08287673  0.46791028  0.10356294
   0.17409868  0.39738739  0.22483408
   0.26805854  0.30342752  0.35520991
   0.43147909  0.20498083  0.48043273
   0.57287763  0.16682345  0.31134757
   0.67299194  0.07112852  0.42118333
   0.87261115  0.35381572  0.05483253
   0.97891775  0.26078331  0.18097174
   0.52028176  0.39496895  0.46591842
   0.93627354  0.47164252  0.35520991
   0.74835381  0.15956227  0.09445824
   0.84231367  0.06560240  0.22483408
   0.58780876  0.47493669  0.10143974
   0.67409868  0.39738739  0.22483408
   0.76805854  0.30342752  0.35520991
   0.86014894  0.22068402  0.46945781
   0.07287763  0.66682345  0.31134757
   0.18587099  0.58262900  0.42780710
   0.36801775  0.87157173  0.06367478
   0.47891775  0.76078331  0.18097174
   0.01558019  0.87961897  0.47318362
   0.43627354  0.97164252  0.35520991
   0.25759482  0.65774931  0.10819886
   0.34231367  0.56560240  0.22483408
   0.08370140  0.98158807  0.10680964
   0.17409868  0.89738739  0.22483408
   0.26805854  0.80342752  0.35520991
   0.37561289  0.71540697  0.47235614
   0.57287763  0.66682345  0.31134757
   0.66799122  0.57172188  0.42191524
   0.89998243  0.83743394  0.06493487
   0.97891775  0.76078331  0.18097174
   0.52474098  0.84525983  0.47505489
   0.93627354  0.97164252  0.35520991
   0.75841721  0.65748917  0.11296908
   0.84231367  0.56560240  0.22483408
   0.58013881  0.99134726  0.09445824
   0.67409868  0.89738739  0.22483408
   0.76805854  0.80342752  0.35520991
   0.91625145  0.60414710  0.47487825
 
 position of ions in cartesian coordinates  (Angst):
   5.35228144  4.81788086  6.64784004
   5.93595083  3.87237960  9.58389801
   2.10225062  2.68486512  2.15146536
   2.24633108  0.73197210  3.71178209
   0.54210309  0.53387860 11.04018375
   4.97112846  5.40704661  1.34484291
   4.76861206  3.35453179  2.93605795
   5.35228145  2.40903053  5.87211593
   5.93595082  1.46352927  8.80817388
   1.87746436  3.73835925  5.87211593
   2.46113373  2.79285799  8.80817388
   3.90201764  1.98595683 10.43145927
   6.92202632  4.68386050  2.93605795
  10.98051296  4.81788086  6.64784004
  11.56418235  3.87237960  9.58389801
   7.09323475  2.13068897  2.00550496
   7.87456260  0.73197210  3.71178209
   6.36321437  0.02050700 10.61450000
   9.45907104  3.27877053  0.85446331
  10.39684358  3.35453179  2.93605795
  10.98051297  2.40903053  5.87211593
  11.56418234  1.46352927  8.80817388
   7.50569588  3.73835925  5.87211593
   8.08936525  2.79285799  8.80817388
  12.55025784  4.68386050  2.93605795
  11.26350254  1.51395537  1.58221796
   7.87456250  9.84929103  6.64784004
   8.45823189  8.90378977  9.58389801
   4.76861214  5.76338227  3.71178209
   3.47850497  4.57527741 10.12695123
   7.29089312  8.38594195  2.93605795
   7.87456251  7.44044070  5.87211593
   8.45823188  6.49493944  8.80817388
   4.39974542  8.76976942  5.87211593
   4.98341479  7.82426816  8.80817388
   9.44430738  9.71527067  2.93605795
  13.50279402  9.84929103  6.64784004
  14.08646341  8.90378977  9.58389801
   3.89425372  6.96417278 10.98196842
  10.39684366  5.76338227  3.71178209
   9.00202088  5.56946938 10.95993530
   8.27131060  0.06009595  1.14227101
  12.91912464  8.38594195  2.93605795
  13.50279403  7.44044070  5.87211593
  14.08646340  6.49493944  8.80817388
  10.02797694  8.76976942  5.87211593
  10.61164631  7.82426816  8.80817388
  15.07253890  9.71527067  2.93605795
   1.66189560  1.67871438  7.01153346
   2.24556499  0.73321311  9.94759143
   6.05473646  3.70686154  1.25175250
   6.70645757  2.62421563  4.07547550
   2.10146958  3.22436502 10.81466911
   7.29012695  4.74605393  7.99931144
   3.76603200  1.53920677  2.40123972
   4.18417659  0.66014516  5.06325349
   3.29330131  4.70849708  2.33223296
   3.96438071  3.99883791  5.06325349
   4.54805009  3.05333666  7.99931144
   5.89096698  2.06268525 10.81932397
   7.29012712  1.67871438  7.01153346
   7.93432116  0.71575351  9.48502999
  11.60736052  3.56038398  1.23482606
  12.33468909  2.62421563  4.07547550
   7.84897775  3.97450155 10.49246228
  12.91835847  4.74605393  7.99931144
   9.22873872  1.60564642  2.12719552
   9.81240811  0.66014516  5.06325349
   9.01249526  4.77920257  2.28441854
   9.59261223  3.99883791  5.06325349
  10.17628161  3.05333666  7.99931144
  10.79548899  2.22070369 10.57216931
   4.18417666  6.71012454  7.01153346
   5.03135804  5.86289090  9.63419716
   8.53927595  8.77046970  1.43395332
   9.22873863  7.65562579  4.07547550
   4.61267039  8.85144762 10.65607432
   9.81240801  9.77746410  7.99931144
   6.21766382  6.61881313  2.43663351
   6.70645765  5.69155533  5.06325349
   5.89386373  9.87754436  2.40534834
   6.48666177  9.03024808  5.06325349
   7.07033115  8.08474683  7.99931144
   7.83698756  7.19901181 10.63743937
   9.81240818  6.71012454  7.01153346
  10.40330506  5.75313461  9.50151263
  14.35510649  8.42694731  1.46233038
  14.85697015  7.65562579  4.07547550
  10.17069312  8.50569782 10.69821518
  15.44063953  9.77746410  7.99931144
  11.85384025  6.61619537  2.54405866
  12.33468917  5.69155533  5.06325349
  11.53122390  9.97574934  2.12719552
  12.11489329  9.03024808  5.06325349
  12.69856267  8.08474683  7.99931144
  13.36140819  6.07942371 10.69423727
 


--------------------------------------------------------------------------------------------------------


 use parallel FFT for orbitals z direction half grid
 k-point  1 :   0.0000 0.0000 0.0000  plane waves:   27671

 maximum and minimum number of plane-waves per node :      4613     4610

 maximum number of plane-waves:     27671
 maximum index in each direction: 
   IXMAX=   19   IYMAX=   19   IZMAX=   38
   IXMIN=  -19   IYMIN=  -19   IZMIN=    0


 real space projection operators:
  total allocation   :      15707.55 KBytes
  max/ min on nodes  :       2648.03       2591.25


 parallel 3D FFT for wavefunctions:
    minimum data exchange during FFTs selected (reduces bandwidth)
 parallel 3D FFT for charge:
    minimum data exchange during FFTs selected (reduces bandwidth)


 total amount of memory used by VASP MPI-rank0    87626. kBytes
=======================================================================

   base      :      30000. kBytes
   nonlr-proj:       3196. kBytes
   fftplans  :      11274. kBytes
   grid      :      19113. kBytes
   one-center:        124. kBytes
   wavefun   :      23919. kBytes
 
     INWAV:  cpu time    0.0000: real time    0.0000
 Broyden mixing: mesh for mixing (old mesh)
   NGX = 39   NGY = 39   NGZ = 77
  (NGX  =120   NGY  =120   NGZ  =240)
  gives a total of 117117 points

 initial charge density was supplied:
 charge density of overlapping atoms calculated
 number of electron    1056.0000000 magnetization 
 keeping initial charge density in first step


--------------------------------------------------------------------------------------------------------


 Maximum index for non-local projection operator          322
 Maximum index for augmentation-charges          494 (set IRDMAX)


--------------------------------------------------------------------------------------------------------


 First call to EWALD:  gamma=   0.130
 Maximum number of real-space cells 4x 4x 2
 Maximum number of reciprocal cells 2x 2x 4

    FEWALD:  cpu time    0.0133: real time    0.0133


--------------------------------------- Iteration      1(   1)  ---------------------------------------


    POTLOK:  cpu time    0.4773: real time    0.4776
    SETDIJ:  cpu time    0.0337: real time    0.0338
     EDDAV:  cpu time   13.5925: real time   13.5952
       DOS:  cpu time    0.0018: real time    0.0018
    --------------------------------------------
      LOOP:  cpu time   14.1054: real time   14.1084

 eigenvalue-minimisations  :  1556
 total energy-change (2. order) : 0.1345178E+05  (-0.6851167E+05)
 number of electron    1056.0000000 magnetization 
 augmentation part     1056.0000000 magnetization 

 Free energy of the ion-electron system (eV)
  ---------------------------------------------------
  alpha Z        PSCENC =      2592.50432107
  Ewald energy   TEWEN  =    347721.21571001
  -Hartree energ DENC   =   -510921.20411120
  -exchange      EXHF   =         0.00000000
  -V(xc)+E(xc)   XCENC  =      4907.44426499
  PAW double counting   =    150306.04444553  -156855.34918313
  entropy T*S    EENTRO =        -0.53368051
  eigenvalues    EBANDS =     -5635.14594185
  atomic energy  EATOM  =    181336.80673834
  Solvation  Ediel_sol  =         0.00000000
  ---------------------------------------------------
  free energy    TOTEN  =     13451.78256327 eV

  energy without entropy =    13452.31624378  energy(sigma->0) =    13452.04940352


--------------------------------------------------------------------------------------------------------




--------------------------------------- Iteration      1(   2)  ---------------------------------------


     EDDAV:  cpu time   12.1912: real time   12.1944
       DOS:  cpu time    0.0016: real time    0.0016
    --------------------------------------------
      LOOP:  cpu time   12.1929: real time   12.1961

 eigenvalue-minimisations  :  1342
 total energy-change (2. order) :-0.1259751E+05  (-0.1216058E+05)
 number of electron    1056.0000000 magnetization 
 augmentation part     1056.0000000 magnetization 

 Free energy of the ion-electron system (eV)
  ---------------------------------------------------
  alpha Z        PSCENC =      2592.50432107
  Ewald energy   TEWEN  =    347721.21571001
  -Hartree energ DENC   =   -510921.20411120
  -exchange      EXHF   =         0.00000000
  -V(xc)+E(xc)   XCENC  =      4907.44426499
  PAW double counting   =    150306.04444553  -156855.34918313
  entropy T*S    EENTRO =        -0.94539781
  eigenvalues    EBANDS =    -18232.24486978
  atomic energy  EATOM  =    181336.80673834
  Solvation  Ediel_sol  =         0.00000000
  ---------------------------------------------------
  free energy    TOTEN  =       854.27191803 eV

  energy without entropy =      855.21731584  energy(sigma->0) =      854.74461694


--------------------------------------------------------------------------------------------------------




--------------------------------------- Iteration      1(   3)  ---------------------------------------


     EDDAV:  cpu time   13.0146: real time   13.0170
       DOS:  cpu time    0.0015: real time    0.0015
    --------------------------------------------
      LOOP:  cpu time   13.0161: real time   13.0185

 eigenvalue-minimisations  :  1432
 total energy-change (2. order) :-0.1304428E+04  (-0.1236837E+04)
 number of electron    1056.0000000 magnetization 
 augmentation part     1056.0000000 magnetization 

 Free energy of the ion-electron system (eV)
  ---------------------------------------------------
  alpha Z        PSCENC =      2592.50432107
  Ewald energy   TEWEN  =    347721.21571001
  -Hartree energ DENC   =   -510921.20411120
  -exchange      EXHF   =         0.00000000
  -V(xc)+E(xc)   XCENC  =      4907.44426499
  PAW double counting   =    150306.04444553  -156855.34918313
  entropy T*S    EENTRO =        -1.29421651
  eigenvalues    EBANDS =    -19536.32375687
  atomic energy  EATOM  =    181336.80673834
  Solvation  Ediel_sol  =         0.00000000
  ---------------------------------------------------
  free energy    TOTEN  =      -450.15578776 eV

  energy without entropy =     -448.86157125  energy(sigma->0) =     -449.50867950


--------------------------------------------------------------------------------------------------------




--------------------------------------- Iteration      1(   4)  ---------------------------------------


     EDDAV:  cpu time   12.9548: real time   12.9572
       DOS:  cpu time    0.0015: real time    0.0015
    --------------------------------------------
      LOOP:  cpu time   12.9563: real time   12.9588

 eigenvalue-minimisations  :  1464
 total energy-change (2. order) :-0.8236622E+02  (-0.8143419E+02)
 number of electron    1056.0000000 magnetization 
 augmentation part     1056.0000000 magnetization 

 Free energy of the ion-electron system (eV)
  ---------------------------------------------------
  alpha Z        PSCENC =      2592.50432107
  Ewald energy   TEWEN  =    347721.21571001
  -Hartree energ DENC   =   -510921.20411120
  -exchange      EXHF   =         0.00000000
  -V(xc)+E(xc)   XCENC  =      4907.44426499
  PAW double counting   =    150306.04444553  -156855.34918313
  entropy T*S    EENTRO =        -1.35142138
  eigenvalues    EBANDS =    -19618.63277603
  atomic energy  EATOM  =    181336.80673834
  Solvation  Ediel_sol  =         0.00000000
  ---------------------------------------------------
  free energy    TOTEN  =      -532.52201178 eV

  energy without entropy =     -531.17059040  energy(sigma->0) =     -531.84630109


--------------------------------------------------------------------------------------------------------




--------------------------------------- Iteration      1(   5)  ---------------------------------------


     EDDAV:  cpu time   14.6705: real time   14.6735
       DOS:  cpu time    0.0017: real time    0.0017
    CHARGE:  cpu time    0.4138: real time    0.4139
    MIXING:  cpu time    0.0107: real time    0.0107
    --------------------------------------------
      LOOP:  cpu time   15.0966: real time   15.0998

 eigenvalue-minimisations  :  1680
 total energy-change (2. order) :-0.3159931E+01  (-0.3154743E+01)
 number of electron    1056.0000646 magnetization 
 augmentation part      382.2708904 magnetization 

 Broyden mixing:
  rms(total) = 0.11124E+02    rms(broyden)= 0.11111E+02
  rms(prec ) = 0.11460E+02
  weight for this iteration     100.00

 Free energy of the ion-electron system (eV)
  ---------------------------------------------------
  alpha Z        PSCENC =      2592.50432107
  Ewald energy   TEWEN  =    347721.21571001
  -Hartree energ DENC   =   -510921.20411120
  -exchange      EXHF   =         0.00000000
  -V(xc)+E(xc)   XCENC  =      4907.44426499
  PAW double counting   =    150306.04444553  -156855.34918313
  entropy T*S    EENTRO =        -1.36828004
  eigenvalues    EBANDS =    -19621.77584851
  atomic energy  EATOM  =    181336.80673834
  Solvation  Ediel_sol  =         0.00000000
  ---------------------------------------------------
  free energy    TOTEN  =      -535.68194292 eV

  energy without entropy =     -534.31366289  energy(sigma->0) =     -534.99780291


--------------------------------------------------------------------------------------------------------




--------------------------------------- Iteration      1(   6)  ---------------------------------------


    POTLOK:  cpu time    0.3621: real time    0.3622
    SETDIJ:  cpu time    0.0233: real time    0.0233
     EDDAV:  cpu time   13.8775: real time   13.8799
       DOS:  cpu time    0.0018: real time    0.0018
    CHARGE:  cpu time    0.5706: real time    0.5717
    MIXING:  cpu time    0.0224: real time    0.0224
    --------------------------------------------
      LOOP:  cpu time   14.8577: real time   14.8612

 eigenvalue-minimisations  :  1584
 total energy-change (2. order) :-0.9660664E+02  (-0.1228411E+03)
 number of electron    1056.0000618 magnetization 
 augmentation part      457.7527489 magnetization 

 Broyden mixing:
  rms(total) = 0.18674E+02    rms(broyden)= 0.18670E+02
  rms(prec ) = 0.19347E+02
  weight for this iteration     100.00

 eigenvalues of (default mixing * dielectric matrix)
  average eigenvalue GAMMA=   0.2351
  0.2351

 Free energy of the ion-electron system (eV)
  ---------------------------------------------------
  alpha Z        PSCENC =      2592.50432107
  Ewald energy   TEWEN  =    347721.21571001
  -Hartree energ DENC   =   -507257.91796110
  -exchange      EXHF   =         0.00000000
  -V(xc)+E(xc)   XCENC  =      4808.54876972
  PAW double counting   =    156542.09209144  -162783.53237278
  entropy T*S    EENTRO =        -1.19652175
  eigenvalues    EBANDS =    -23590.80935350
  atomic energy  EATOM  =    181336.80673834
  Solvation  Ediel_sol  =         0.00000000
  ---------------------------------------------------
  free energy    TOTEN  =      -632.28857855 eV

  energy without entropy =     -631.09205680  energy(sigma->0) =     -631.69031768


--------------------------------------------------------------------------------------------------------




--------------------------------------- Iteration      1(   7)  ---------------------------------------


    POTLOK:  cpu time    0.3998: real time    0.4005
    SETDIJ:  cpu time    0.0232: real time    0.0232
     EDDAV:  cpu time   12.6901: real time   12.6953
       DOS:  cpu time    0.0014: real time    0.0014
    CHARGE:  cpu time    0.3943: real time    0.3944
    MIXING:  cpu time    0.0130: real time    0.0130
    --------------------------------------------
      LOOP:  cpu time   13.5218: real time   13.5278

 eigenvalue-minimisations  :  1408
 total energy-change (2. order) : 0.1286441E+03  (-0.2737712E+02)
 number of electron    1056.0000712 magnetization 
 augmentation part      443.6019883 magnetization 

 Broyden mixing:
  rms(total) = 0.84765E+01    rms(broyden)= 0.84744E+01
  rms(prec ) = 0.87491E+01
  weight for this iteration     100.00

 eigenvalues of (default mixing * dielectric matrix)
  average eigenvalue GAMMA=   0.4490
  0.4490  0.4490

 Free energy of the ion-electron system (eV)
  ---------------------------------------------------
  alpha Z        PSCENC =      2592.50432107
  Ewald energy   TEWEN  =    347721.21571001
  -Hartree energ DENC   =   -508764.27377333
  -exchange      EXHF   =         0.00000000
  -V(xc)+E(xc)   XCENC  =      4839.12217533
  PAW double counting   =    161992.96909305  -168401.01113551
  entropy T*S    EENTRO =        -0.99875367
  eigenvalues    EBANDS =    -21819.97887569
  atomic energy  EATOM  =    181336.80673834
  Solvation  Ediel_sol  =         0.00000000
  ---------------------------------------------------
  free energy    TOTEN  =      -503.64450040 eV

  energy without entropy =     -502.64574673  energy(sigma->0) =     -503.14512357


--------------------------------------------------------------------------------------------------------




--------------------------------------- Iteration      1(   8)  ---------------------------------------


    POTLOK:  cpu time    0.3642: real time    0.3642
    SETDIJ:  cpu time    0.0234: real time    0.0234
     EDDAV:  cpu time   14.3916: real time   14.3985
       DOS:  cpu time    0.0016: real time    0.0016
    CHARGE:  cpu time    0.3923: real time    0.3923
    MIXING:  cpu time    0.0134: real time    0.0134
    --------------------------------------------
      LOOP:  cpu time   15.1866: real time   15.1935

 eigenvalue-minimisations  :  1640
 total energy-change (2. order) :-0.8017590E+02  (-0.2977388E+02)
 number of electron    1056.0000480 magnetization 
 augmentation part      407.2981630 magnetization 

 Broyden mixing:
  rms(total) = 0.17199E+02    rms(broyden)= 0.17197E+02
  rms(prec ) = 0.19492E+02
  weight for this iteration     100.00

 eigenvalues of (default mixing * dielectric matrix)
  average eigenvalue GAMMA=   0.4448
  0.6815  0.4907  0.1621

 Free energy of the ion-electron system (eV)
  ---------------------------------------------------
  alpha Z        PSCENC =      2592.50432107
  Ewald energy   TEWEN  =    347721.21571001
  -Hartree energ DENC   =   -509741.36985362
  -exchange      EXHF   =         0.00000000
  -V(xc)+E(xc)   XCENC  =      4876.33406575
  PAW double counting   =    170377.31186474  -176979.89407620
  entropy T*S    EENTRO =        -1.20612984
  eigenvalues    EBANDS =    -20765.52304401
  atomic energy  EATOM  =    181336.80673834
  Solvation  Ediel_sol  =         0.00000000
  ---------------------------------------------------
  free energy    TOTEN  =      -583.82040376 eV

  energy without entropy =     -582.61427392  energy(sigma->0) =     -583.21733884


--------------------------------------------------------------------------------------------------------




--------------------------------------- Iteration      1(   9)  ---------------------------------------


    POTLOK:  cpu time    0.3569: real time    0.3573
    SETDIJ:  cpu time    0.0236: real time    0.0236
     EDDAV:  cpu time   14.1328: real time   14.1370
       DOS:  cpu time    0.0016: real time    0.0016
    CHARGE:  cpu time    0.6621: real time    0.6621
    MIXING:  cpu time    0.0130: real time    0.0130
    --------------------------------------------
      LOOP:  cpu time   15.1901: real time   15.1948

 eigenvalue-minimisations  :  1632
 total energy-change (2. order) : 0.6459863E+02  (-0.1867144E+02)
 number of electron    1056.0000589 magnetization 
 augmentation part      405.6128785 magnetization 

 Broyden mixing:
  rms(total) = 0.93427E+01    rms(broyden)= 0.93349E+01
  rms(prec ) = 0.10983E+02
  weight for this iteration     100.00

 eigenvalues of (default mixing * dielectric matrix)
  average eigenvalue GAMMA=   0.5020
  1.1759  0.3548  0.3548  0.1227

 Free energy of the ion-electron system (eV)
  ---------------------------------------------------
  alpha Z        PSCENC =      2592.50432107
  Ewald energy   TEWEN  =    347721.21571001
  -Hartree energ DENC   =   -510120.83497296
  -exchange      EXHF   =         0.00000000
  -V(xc)+E(xc)   XCENC  =      4875.19711926
  PAW double counting   =    174758.09725632  -181390.02888620
  entropy T*S    EENTRO =        -1.40206172
  eigenvalues    EBANDS =    -20290.77699994
  atomic energy  EATOM  =    181336.80673834
  Solvation  Ediel_sol  =         0.00000000
  ---------------------------------------------------
  free energy    TOTEN  =      -519.22177581 eV

  energy without entropy =     -517.81971410  energy(sigma->0) =     -518.52074495


--------------------------------------------------------------------------------------------------------




--------------------------------------- Iteration      1(  10)  ---------------------------------------


    POTLOK:  cpu time    0.3614: real time    0.3617
    SETDIJ:  cpu time    0.0232: real time    0.0232
     EDDAV:  cpu time   15.2940: real time   15.3001
       DOS:  cpu time    0.0015: real time    0.0015
    CHARGE:  cpu time    0.6597: real time    0.6598
    MIXING:  cpu time    0.0129: real time    0.0129
    --------------------------------------------
      LOOP:  cpu time   16.3528: real time   16.3592

 eigenvalue-minimisations  :  1792
 total energy-change (2. order) :-0.5019483E+02  (-0.1842288E+02)
 number of electron    1056.0000796 magnetization 
 augmentation part      402.2887263 magnetization 

 Broyden mixing:
  rms(total) = 0.12139E+02    rms(broyden)= 0.12134E+02
  rms(prec ) = 0.14320E+02
  weight for this iteration     100.00

 eigenvalues of (default mixing * dielectric matrix)
  average eigenvalue GAMMA=   0.5661
  1.8109  0.3914  0.3914  0.1183  0.1183

 Free energy of the ion-electron system (eV)
  ---------------------------------------------------
  alpha Z        PSCENC =      2592.50432107
  Ewald energy   TEWEN  =    347721.21571001
  -Hartree energ DENC   =   -510183.52947027
  -exchange      EXHF   =         0.00000000
  -V(xc)+E(xc)   XCENC  =      4870.99156126
  PAW double counting   =    179082.05407529  -185735.79346164
  entropy T*S    EENTRO =        -1.55053708
  eigenvalues    EBANDS =    -20252.11554117
  atomic energy  EATOM  =    181336.80673834
  Solvation  Ediel_sol  =         0.00000000
  ---------------------------------------------------
  free energy    TOTEN  =      -569.41660418 eV

  energy without entropy =     -567.86606710  energy(sigma->0) =     -568.64133564


--------------------------------------------------------------------------------------------------------




--------------------------------------- Iteration      1(  11)  ---------------------------------------


    POTLOK:  cpu time    0.3627: real time    0.3627
    SETDIJ:  cpu time    0.0238: real time    0.0238
     EDDAV:  cpu time   14.7545: real time   14.7599
       DOS:  cpu time    0.0017: real time    0.0016
    CHARGE:  cpu time    0.4016: real time    0.4028
    MIXING:  cpu time    0.0133: real time    0.0133
    --------------------------------------------
      LOOP:  cpu time   15.5576: real time   15.5642

 eigenvalue-minimisations  :  1728
 total energy-change (2. order) : 0.1194025E+02  (-0.1072193E+02)
 number of electron    1056.0000846 magnetization 
 augmentation part      406.5064921 magnetization 

 Broyden mixing:
  rms(total) = 0.11587E+02    rms(broyden)= 0.11582E+02
  rms(prec ) = 0.13243E+02
  weight for this iteration     100.00

 eigenvalues of (default mixing * dielectric matrix)
  average eigenvalue GAMMA=   0.5618
  2.1802  0.4000  0.4000  0.1496  0.1496  0.0915

 Free energy of the ion-electron system (eV)
  ---------------------------------------------------
  alpha Z        PSCENC =      2592.50432107
  Ewald energy   TEWEN  =    347721.21571001
  -Hartree energ DENC   =   -510016.79900151
  -exchange      EXHF   =         0.00000000
  -V(xc)+E(xc)   XCENC  =      4865.48740992
  PAW double counting   =    185466.93096126  -192154.75552609
  entropy T*S    EENTRO =        -1.39221150
  eigenvalues    EBANDS =    -20367.47475266
  atomic energy  EATOM  =    181336.80673834
  Solvation  Ediel_sol  =         0.00000000
  ---------------------------------------------------
  free energy    TOTEN  =      -557.47635115 eV

  energy without entropy =     -556.08413966  energy(sigma->0) =     -556.78024540


--------------------------------------------------------------------------------------------------------




--------------------------------------- Iteration      1(  12)  ---------------------------------------


    POTLOK:  cpu time    0.4248: real time    0.4248
    SETDIJ:  cpu time    0.0499: real time    0.0499
     EDDAV:  cpu time   14.8569: real time   14.8621
       DOS:  cpu time    0.0015: real time    0.0015
    CHARGE:  cpu time    0.3941: real time    0.3941
    MIXING:  cpu time    0.0138: real time    0.0138
    --------------------------------------------
      LOOP:  cpu time   15.7409: real time   15.7462

 eigenvalue-minimisations  :  1712
 total energy-change (2. order) : 0.3867799E+02  (-0.6148961E+01)
 number of electron    1056.0000754 magnetization 
 augmentation part      415.0316713 magnetization 

 Broyden mixing:
  rms(total) = 0.67879E+01    rms(broyden)= 0.67853E+01
  rms(prec ) = 0.74599E+01
  weight for this iteration     100.00

 eigenvalues of (default mixing * dielectric matrix)
  average eigenvalue GAMMA=   0.5429
  2.2967  0.4044  0.4044  0.2351  0.2351  0.1353  0.0891

 Free energy of the ion-electron system (eV)
  ---------------------------------------------------
  alpha Z        PSCENC =      2592.50432107
  Ewald energy   TEWEN  =    347721.21571001
  -Hartree energ DENC   =   -509847.80299795
  -exchange      EXHF   =         0.00000000
  -V(xc)+E(xc)   XCENC  =      4862.23854392
  PAW double counting   =    189655.66591950  -196368.92927463
  entropy T*S    EENTRO =        -1.13383723
  eigenvalues    EBANDS =    -20469.36348545
  atomic energy  EATOM  =    181336.80673834
  Solvation  Ediel_sol  =         0.00000000
  ---------------------------------------------------
  free energy    TOTEN  =      -518.79836243 eV

  energy without entropy =     -517.66452519  energy(sigma->0) =     -518.23144381


--------------------------------------------------------------------------------------------------------




--------------------------------------- Iteration      1(  13)  ---------------------------------------


    POTLOK:  cpu time    0.3555: real time    0.3555
    SETDIJ:  cpu time    0.0238: real time    0.0238
     EDDAV:  cpu time   14.5923: real time   14.5950
       DOS:  cpu time    0.0015: real time    0.0015
    CHARGE:  cpu time    0.3988: real time    0.3989
    MIXING:  cpu time    0.0165: real time    0.0165
    --------------------------------------------
      LOOP:  cpu time   15.3884: real time   15.3912

 eigenvalue-minimisations  :  1664
 total energy-change (2. order) : 0.1482359E+02  (-0.5948257E+01)
 number of electron    1056.0000734 magnetization 
 augmentation part      416.2927588 magnetization 

 Broyden mixing:
  rms(total) = 0.60826E+01    rms(broyden)= 0.60794E+01
  rms(prec ) = 0.67861E+01
  weight for this iteration     100.00

 eigenvalues of (default mixing * dielectric matrix)
  average eigenvalue GAMMA=   0.5414
  2.3230  0.5512  0.3864  0.3864  0.3037  0.1447  0.1447  0.0911

 Free energy of the ion-electron system (eV)
  ---------------------------------------------------
  alpha Z        PSCENC =      2592.50432107
  Ewald energy   TEWEN  =    347721.21571001
  -Hartree energ DENC   =   -509833.41370701
  -exchange      EXHF   =         0.00000000
  -V(xc)+E(xc)   XCENC  =      4862.13066060
  PAW double counting   =    190773.53584355  -197494.65530081
  entropy T*S    EENTRO =        -1.04429097
  eigenvalues    EBANDS =    -20461.05475207
  atomic energy  EATOM  =    181336.80673834
  Solvation  Ediel_sol  =         0.00000000
  ---------------------------------------------------
  free energy    TOTEN  =      -503.97477729 eV

  energy without entropy =     -502.93048632  energy(sigma->0) =     -503.45263181


--------------------------------------------------------------------------------------------------------




--------------------------------------- Iteration      1(  14)  ---------------------------------------


    POTLOK:  cpu time    0.3626: real time    0.3626
    SETDIJ:  cpu time    0.0253: real time    0.0253
     EDDAV:  cpu time   15.1233: real time   15.1285
       DOS:  cpu time    0.0016: real time    0.0016
    CHARGE:  cpu time    0.3949: real time    0.3950
    MIXING:  cpu time    0.0160: real time    0.0160
    --------------------------------------------
      LOOP:  cpu time   15.9237: real time   15.9289

 eigenvalue-minimisations  :  1736
 total energy-change (2. order) : 0.1065617E+02  (-0.4133986E+01)
 number of electron    1056.0000730 magnetization 
 augmentation part      416.8330316 magnetization 

 Broyden mixing:
  rms(total) = 0.52158E+01    rms(broyden)= 0.52136E+01
  rms(prec ) = 0.59285E+01
  weight for this iteration     100.00

 eigenvalues of (default mixing * dielectric matrix)
  average eigenvalue GAMMA=   0.5094
  2.3137  0.4059  0.4059  0.4508  0.4508  0.1665  0.1665  0.1342  0.0905

 Free energy of the ion-electron system (eV)
  ---------------------------------------------------
  alpha Z        PSCENC =      2592.50432107
  Ewald energy   TEWEN  =    347721.21571001
  -Hartree energ DENC   =   -509830.62236405
  -exchange      EXHF   =         0.00000000
  -V(xc)+E(xc)   XCENC  =      4862.22155988
  PAW double counting   =    190575.13154691  -197289.28558987
  entropy T*S    EENTRO =        -1.12539562
  eigenvalues    EBANDS =    -20460.16513324
  atomic energy  EATOM  =    181336.80673834
  Solvation  Ediel_sol  =         0.00000000
  ---------------------------------------------------
  free energy    TOTEN  =      -493.31860657 eV

  energy without entropy =     -492.19321094  energy(sigma->0) =     -492.75590875


--------------------------------------------------------------------------------------------------------




--------------------------------------- Iteration      1(  15)  ---------------------------------------


    POTLOK:  cpu time    0.3613: real time    0.3616
    SETDIJ:  cpu time    0.0232: real time    0.0232
     EDDAV:  cpu time   15.0136: real time   15.0231
       DOS:  cpu time    0.0015: real time    0.0015
    CHARGE:  cpu time    0.3956: real time    0.3956
    MIXING:  cpu time    0.0158: real time    0.0158
    --------------------------------------------
      LOOP:  cpu time   15.8110: real time   15.8209

 eigenvalue-minimisations  :  1728
 total energy-change (2. order) : 0.1013635E+02  (-0.1920984E+01)
 number of electron    1056.0000695 magnetization 
 augmentation part      417.9704950 magnetization 

 Broyden mixing:
  rms(total) = 0.34707E+01    rms(broyden)= 0.34685E+01
  rms(prec ) = 0.38678E+01
  weight for this iteration     100.00

 eigenvalues of (default mixing * dielectric matrix)
  average eigenvalue GAMMA=   0.4890
  2.2252  0.5280  0.5280  0.4214  0.4214  0.1982  0.1982  0.0907  0.1398  0.1398

 Free energy of the ion-electron system (eV)
  ---------------------------------------------------
  alpha Z        PSCENC =      2592.50432107
  Ewald energy   TEWEN  =    347721.21571001
  -Hartree energ DENC   =   -509799.07394981
  -exchange      EXHF   =         0.00000000
  -V(xc)+E(xc)   XCENC  =      4862.62238225
  PAW double counting   =    190358.87125406  -197070.62930919
  entropy T*S    EENTRO =        -1.05963899
  eigenvalues    EBANDS =    -20484.43976369
  atomic energy  EATOM  =    181336.80673834
  Solvation  Ediel_sol  =         0.00000000
  ---------------------------------------------------
  free energy    TOTEN  =      -483.18225594 eV

  energy without entropy =     -482.12261695  energy(sigma->0) =     -482.65243644


--------------------------------------------------------------------------------------------------------




--------------------------------------- Iteration      1(  16)  ---------------------------------------


    POTLOK:  cpu time    0.3562: real time    0.3562
    SETDIJ:  cpu time    0.0231: real time    0.0231
     EDDAV:  cpu time   15.1493: real time   15.1536
       DOS:  cpu time    0.0016: real time    0.0016
    CHARGE:  cpu time    0.3979: real time    0.3979
    MIXING:  cpu time    0.0168: real time    0.0168
    --------------------------------------------
      LOOP:  cpu time   15.9450: real time   15.9493

 eigenvalue-minimisations  :  1752
 total energy-change (2. order) : 0.3435470E+01  (-0.7387414E+00)
 number of electron    1056.0000707 magnetization 
 augmentation part      417.3655409 magnetization 

 Broyden mixing:
  rms(total) = 0.30183E+01    rms(broyden)= 0.30175E+01
  rms(prec ) = 0.33618E+01
  weight for this iteration     100.00

 eigenvalues of (default mixing * dielectric matrix)
  average eigenvalue GAMMA=   0.4689
  2.1591  0.6168  0.6168  0.3989  0.3989  0.2254  0.2254  0.0906  0.1480  0.1480
  0.1302

 Free energy of the ion-electron system (eV)
  ---------------------------------------------------
  alpha Z        PSCENC =      2592.50432107
  Ewald energy   TEWEN  =    347721.21571001
  -Hartree energ DENC   =   -509823.86848949
  -exchange      EXHF   =         0.00000000
  -V(xc)+E(xc)   XCENC  =      4863.52281906
  PAW double counting   =    189669.99050383  -196377.16539975
  entropy T*S    EENTRO =        -1.15575925
  eigenvalues    EBANDS =    -20461.59722982
  atomic energy  EATOM  =    181336.80673834
  Solvation  Ediel_sol  =         0.00000000
  ---------------------------------------------------
  free energy    TOTEN  =      -479.74678600 eV

  energy without entropy =     -478.59102675  energy(sigma->0) =     -479.16890638


--------------------------------------------------------------------------------------------------------




--------------------------------------- Iteration      1(  17)  ---------------------------------------


    POTLOK:  cpu time    0.3559: real time    0.3559
    SETDIJ:  cpu time    0.0231: real time    0.0231
     EDDAV:  cpu time   15.1037: real time   15.1071
       DOS:  cpu time    0.0015: real time    0.0015
    CHARGE:  cpu time    0.4737: real time    0.4737
    MIXING:  cpu time    0.0176: real time    0.0176
    --------------------------------------------
      LOOP:  cpu time   15.9756: real time   15.9791

 eigenvalue-minimisations  :  1744
 total energy-change (2. order) : 0.2360076E+01  (-0.3052262E+00)
 number of electron    1056.0000691 magnetization 
 augmentation part      416.9731015 magnetization 

 Broyden mixing:
  rms(total) = 0.25610E+01    rms(broyden)= 0.25607E+01
  rms(prec ) = 0.28657E+01
  weight for this iteration     100.00

 eigenvalues of (default mixing * dielectric matrix)
  average eigenvalue GAMMA=   0.4530
  2.1264  0.6336  0.6336  0.3597  0.3597  0.3271  0.3271  0.1596  0.1596  0.0906
  0.1293  0.1293

 Free energy of the ion-electron system (eV)
  ---------------------------------------------------
  alpha Z        PSCENC =      2592.50432107
  Ewald energy   TEWEN  =    347721.21571001
  -Hartree energ DENC   =   -509837.26215410
  -exchange      EXHF   =         0.00000000
  -V(xc)+E(xc)   XCENC  =      4864.19210310
  PAW double counting   =    189098.98752894  -195802.43588398
  entropy T*S    EENTRO =        -1.13747897
  eigenvalues    EBANDS =    -20450.25759400
  atomic energy  EATOM  =    181336.80673834
  Solvation  Ediel_sol  =         0.00000000
  ---------------------------------------------------
  free energy    TOTEN  =      -477.38670958 eV

  energy without entropy =     -476.24923061  energy(sigma->0) =     -476.81797009


--------------------------------------------------------------------------------------------------------




--------------------------------------- Iteration      1(  18)  ---------------------------------------


    POTLOK:  cpu time    0.3619: real time    0.3619
    SETDIJ:  cpu time    0.0232: real time    0.0232
     EDDAV:  cpu time   14.8910: real time   14.8949
       DOS:  cpu time    0.0015: real time    0.0015
    CHARGE:  cpu time    0.4081: real time    0.4081
    MIXING:  cpu time    0.0183: real time    0.0183
    --------------------------------------------
      LOOP:  cpu time   15.7039: real time   15.7078

 eigenvalue-minimisations  :  1728
 total energy-change (2. order) : 0.7811712E+00  (-0.7776779E-01)
 number of electron    1056.0000691 magnetization 
 augmentation part      416.7009885 magnetization 

 Broyden mixing:
  rms(total) = 0.24342E+01    rms(broyden)= 0.24341E+01
  rms(prec ) = 0.27199E+01
  weight for this iteration     100.00

 eigenvalues of (default mixing * dielectric matrix)
  average eigenvalue GAMMA=   0.4599
  2.0972  0.7344  0.7344  0.3991  0.3991  0.3775  0.3775  0.1781  0.1781  0.0906
  0.1414  0.1414  0.1300

 Free energy of the ion-electron system (eV)
  ---------------------------------------------------
  alpha Z        PSCENC =      2592.50432107
  Ewald energy   TEWEN  =    347721.21571001
  -Hartree energ DENC   =   -509846.06185879
  -exchange      EXHF   =         0.00000000
  -V(xc)+E(xc)   XCENC  =      4864.53039554
  PAW double counting   =    188752.27402501  -195453.18874959
  entropy T*S    EENTRO =        -1.16806276
  eigenvalues    EBANDS =    -20443.51805719
  atomic energy  EATOM  =    181336.80673834
  Solvation  Ediel_sol  =         0.00000000
  ---------------------------------------------------
  free energy    TOTEN  =      -476.60553835 eV

  energy without entropy =     -475.43747559  energy(sigma->0) =     -476.02150697


--------------------------------------------------------------------------------------------------------




--------------------------------------- Iteration      1(  19)  ---------------------------------------


    POTLOK:  cpu time    0.3599: real time    0.3600
    SETDIJ:  cpu time    0.0232: real time    0.0232
     EDDAV:  cpu time   14.5868: real time   14.5889
       DOS:  cpu time    0.0015: real time    0.0015
    CHARGE:  cpu time    0.6590: real time    0.6590
    MIXING:  cpu time    0.0204: real time    0.0204
    --------------------------------------------
      LOOP:  cpu time   15.6508: real time   15.6530

 eigenvalue-minimisations  :  1704
 total energy-change (2. order) : 0.8553101E+00  (-0.3445770E-01)
 number of electron    1056.0000691 magnetization 
 augmentation part      416.4143216 magnetization 

 Broyden mixing:
  rms(total) = 0.22984E+01    rms(broyden)= 0.22983E+01
  rms(prec ) = 0.25758E+01
  weight for this iteration     100.00

 eigenvalues of (default mixing * dielectric matrix)
  average eigenvalue GAMMA=   0.5032
  2.1029  0.9958  0.9958  0.5084  0.5084  0.4187  0.4187  0.2213  0.2106  0.0906
  0.1521  0.1521  0.1345  0.1345

 Free energy of the ion-electron system (eV)
  ---------------------------------------------------
  alpha Z        PSCENC =      2592.50432107
  Ewald energy   TEWEN  =    347721.21571001
  -Hartree energ DENC   =   -509858.95222647
  -exchange      EXHF   =         0.00000000
  -V(xc)+E(xc)   XCENC  =      4864.91948514
  PAW double counting   =    188276.54025212  -194973.53706810
  entropy T*S    EENTRO =        -1.16471378
  eigenvalues    EBANDS =    -20434.08272658
  atomic energy  EATOM  =    181336.80673834
  Solvation  Ediel_sol  =         0.00000000
  ---------------------------------------------------
  free energy    TOTEN  =      -475.75022824 eV

  energy without entropy =     -474.58551446  energy(sigma->0) =     -475.16787135


--------------------------------------------------------------------------------------------------------




--------------------------------------- Iteration      1(  20)  ---------------------------------------


    POTLOK:  cpu time    0.3582: real time    0.3582
    SETDIJ:  cpu time    0.0244: real time    0.0245
     EDDAV:  cpu time   14.9455: real time   14.9530
       DOS:  cpu time    0.0014: real time    0.0014
    CHARGE:  cpu time    0.3981: real time    0.3981
    MIXING:  cpu time    0.0209: real time    0.0219
    --------------------------------------------
      LOOP:  cpu time   15.7485: real time   15.7571

 eigenvalue-minimisations  :  1752
 total energy-change (2. order) : 0.1107716E+01  (-0.4160768E-01)
 number of electron    1056.0000690 magnetization 
 augmentation part      416.2750768 magnetization 

 Broyden mixing:
  rms(total) = 0.21215E+01    rms(broyden)= 0.21214E+01
  rms(prec ) = 0.23699E+01
  weight for this iteration     100.00

 eigenvalues of (default mixing * dielectric matrix)
  average eigenvalue GAMMA=   0.5447
  2.1115  1.3656  1.3656  0.6164  0.6164  0.4067  0.4067  0.2300  0.2300  0.0906
  0.1588  0.1588  0.1403  0.1403  0.1322

 Free energy of the ion-electron system (eV)
  ---------------------------------------------------
  alpha Z        PSCENC =      2592.50432107
  Ewald energy   TEWEN  =    347721.21571001
  -Hartree energ DENC   =   -509870.93759923
  -exchange      EXHF   =         0.00000000
  -V(xc)+E(xc)   XCENC  =      4865.22667425
  PAW double counting   =    187744.92341090  -194435.88338620
  entropy T*S    EENTRO =        -1.17330371
  eigenvalues    EBANDS =    -20427.32507745
  atomic energy  EATOM  =    181336.80673834
  Solvation  Ediel_sol  =         0.00000000
  ---------------------------------------------------
  free energy    TOTEN  =      -474.64251202 eV

  energy without entropy =     -473.46920831  energy(sigma->0) =     -474.05586016


--------------------------------------------------------------------------------------------------------




--------------------------------------- Iteration      1(  21)  ---------------------------------------


    POTLOK:  cpu time    0.4664: real time    0.4667
    SETDIJ:  cpu time    0.0456: real time    0.0456
     EDDAV:  cpu time   15.7080: real time   15.7174
       DOS:  cpu time    0.0040: real time    0.0040
    CHARGE:  cpu time    0.6834: real time    0.6834
    MIXING:  cpu time    0.0206: real time    0.0207
    --------------------------------------------
      LOOP:  cpu time   16.9281: real time   16.9377

 eigenvalue-minimisations  :  1872
 total energy-change (2. order) : 0.2074076E+01  (-0.6975496E-01)
 number of electron    1056.0000685 magnetization 
 augmentation part      416.0935697 magnetization 

 Broyden mixing:
  rms(total) = 0.16571E+01    rms(broyden)= 0.16569E+01
  rms(prec ) = 0.18511E+01
  weight for this iteration     100.00

 eigenvalues of (default mixing * dielectric matrix)
  average eigenvalue GAMMA=   0.5658
  2.1158  1.6122  1.6122  0.6522  0.6522  0.4009  0.4009  0.2971  0.2971  0.0906
  0.1756  0.1756  0.1499  0.1499  0.1356  0.1356

 Free energy of the ion-electron system (eV)
  ---------------------------------------------------
  alpha Z        PSCENC =      2592.50432107
  Ewald energy   TEWEN  =    347721.21571001
  -Hartree energ DENC   =   -509894.27410281
  -exchange      EXHF   =         0.00000000
  -V(xc)+E(xc)   XCENC  =      4865.79166901
  PAW double counting   =    186830.33703684  -193510.49328612
  entropy T*S    EENTRO =        -1.19654970
  eigenvalues    EBANDS =    -20413.25997280
  atomic energy  EATOM  =    181336.80673834
  Solvation  Ediel_sol  =         0.00000000
  ---------------------------------------------------
  free energy    TOTEN  =      -472.56843617 eV

  energy without entropy =     -471.37188647  energy(sigma->0) =     -471.97016132


--------------------------------------------------------------------------------------------------------




--------------------------------------- Iteration      1(  22)  ---------------------------------------


    POTLOK:  cpu time    0.3605: real time    0.3610
    SETDIJ:  cpu time    0.0282: real time    0.0282
     EDDAV:  cpu time   14.9305: real time   14.9373
       DOS:  cpu time    0.0054: real time    0.0054
    CHARGE:  cpu time    0.4011: real time    0.4011
    MIXING:  cpu time    0.0216: real time    0.0216
    --------------------------------------------
      LOOP:  cpu time   15.7472: real time   15.7546

 eigenvalue-minimisations  :  1744
 total energy-change (2. order) : 0.1339407E+01  (-0.8816849E-01)
 number of electron    1056.0000677 magnetization 
 augmentation part      415.8679730 magnetization 

 Broyden mixing:
  rms(total) = 0.12046E+01    rms(broyden)= 0.12045E+01
  rms(prec ) = 0.13377E+01
  weight for this iteration     100.00

 eigenvalues of (default mixing * dielectric matrix)
  average eigenvalue GAMMA=   0.5533
  2.1017  1.6834  1.6834  0.6552  0.6552  0.3975  0.3975  0.3198  0.3198  0.1950
  0.1950  0.0906  0.1528  0.1528  0.1374  0.1374  0.1321

 Free energy of the ion-electron system (eV)
  ---------------------------------------------------
  alpha Z        PSCENC =      2592.50432107
  Ewald energy   TEWEN  =    347721.21571001
  -Hartree energ DENC   =   -509914.21272056
  -exchange      EXHF   =         0.00000000
  -V(xc)+E(xc)   XCENC  =      4866.22735083
  PAW double counting   =    186074.98527690  -192745.46900336
  entropy T*S    EENTRO =        -1.22573678
  eigenvalues    EBANDS =    -20402.06096545
  atomic energy  EATOM  =    181336.80673834
  Solvation  Ediel_sol  =         0.00000000
  ---------------------------------------------------
  free energy    TOTEN  =      -471.22902899 eV

  energy without entropy =     -470.00329221  energy(sigma->0) =     -470.61616060


--------------------------------------------------------------------------------------------------------




--------------------------------------- Iteration      1(  23)  ---------------------------------------


    POTLOK:  cpu time    0.4650: real time    0.4650
    SETDIJ:  cpu time    0.0444: real time    0.0444
     EDDAV:  cpu time   14.6889: real time   14.6984
       DOS:  cpu time    0.0038: real time    0.0038
    CHARGE:  cpu time    0.4133: real time    0.4145
    MIXING:  cpu time    0.0228: real time    0.0228
    --------------------------------------------
      LOOP:  cpu time   15.6383: real time   15.6490

 eigenvalue-minimisations  :  1720
 total energy-change (2. order) : 0.3920295E+00  (-0.4033894E-01)
 number of electron    1056.0000675 magnetization 
 augmentation part      415.7522025 magnetization 

 Broyden mixing:
  rms(total) = 0.97858E+00    rms(broyden)= 0.97850E+00
  rms(prec ) = 0.10813E+01
  weight for this iteration     100.00

 eigenvalues of (default mixing * dielectric matrix)
  average eigenvalue GAMMA=   0.5494
  2.0990  1.7221  1.7221  0.6299  0.6299  0.4097  0.4097  0.4018  0.4018  0.2323
  0.2323  0.0906  0.1673  0.1673  0.1500  0.1500  0.1362  0.1362

 Free energy of the ion-electron system (eV)
  ---------------------------------------------------
  alpha Z        PSCENC =      2592.50432107
  Ewald energy   TEWEN  =    347721.21571001
  -Hartree energ DENC   =   -509921.82919294
  -exchange      EXHF   =         0.00000000
  -V(xc)+E(xc)   XCENC  =      4866.40458236
  PAW double counting   =    185765.99738637  -192432.62649943
  entropy T*S    EENTRO =        -1.24401655
  eigenvalues    EBANDS =    -20398.06602871
  atomic energy  EATOM  =    181336.80673834
  Solvation  Ediel_sol  =         0.00000000
  ---------------------------------------------------
  free energy    TOTEN  =      -470.83699947 eV

  energy without entropy =     -469.59298292  energy(sigma->0) =     -470.21499119


[...]
   -.554E+03 -.111E+03 0.279E+03   0.555E+03 0.112E+03 -.279E+03   -.125E+01 -.818E+00 0.195E+00   0.177E-01 0.269E-02 -.464E-01
   -.662E+03 0.499E+02 -.328E+04   0.667E+03 -.501E+02 0.328E+04   -.464E+01 0.260E+00 -.924E+00   0.235E-01 -.390E-02 -.634E-01
   -.300E+03 -.813E+03 0.395E+04   0.300E+03 0.817E+03 -.395E+04   -.573E-01 -.368E+01 0.122E+01   -.287E-01 0.110E-01 0.352E-01
   -.467E+03 0.627E+03 0.570E+04   0.473E+03 -.628E+03 -.570E+04   -.559E+01 0.153E+00 0.209E+01   0.123E-01 0.234E-04 0.286E-01
   0.245E+03 -.269E+03 -.734E+03   -.246E+03 0.270E+03 0.734E+03   0.612E+00 -.116E+01 -.467E-01   -.125E-01 0.762E-02 -.513E-01
   0.346E+03 -.234E+03 -.439E+04   -.347E+03 0.237E+03 0.439E+04   0.843E+00 -.300E+01 -.247E+01   -.291E-01 0.296E-02 -.483E-01
   0.317E+03 -.675E+03 0.253E+04   -.320E+03 0.678E+03 -.253E+04   0.165E+01 -.236E+01 -.132E+01   -.101E-01 0.430E-02 0.322E-01
   -.560E+02 -.314E+02 -.509E+04   0.564E+02 0.299E+02 0.509E+04   0.568E+00 0.146E+01 -.167E+01   -.763E-02 0.345E-01 -.159E-01
   0.778E+02 0.567E+03 0.419E+04   -.779E+02 -.571E+03 -.419E+04   -.616E+00 0.277E+01 0.294E+01   0.442E-01 0.266E-01 -.786E-02
   0.196E+03 0.443E+03 0.466E+03   -.197E+03 -.444E+03 -.468E+03   0.728E+00 0.438E+00 0.135E+01   0.259E-02 0.292E-02 -.521E-01
   0.264E+03 0.328E+03 -.291E+04   -.267E+03 -.330E+03 0.291E+04   0.252E+01 0.182E+01 0.128E+01   -.113E-01 0.880E-02 -.714E-01
   -.530E+03 0.422E+02 0.379E+03   0.531E+03 -.415E+02 -.380E+03   -.898E+00 -.681E+00 0.125E+01   0.739E-02 -.282E-02 -.337E-01
   -.701E+03 -.161E+03 -.293E+04   0.705E+03 0.164E+03 0.293E+04   -.366E+01 -.205E+01 0.172E+01   0.116E-02 -.357E-02 -.380E-01
   -.467E+03 0.338E+03 0.415E+04   0.470E+03 -.340E+03 -.415E+04   -.183E+01 0.156E+01 0.314E+01   -.302E-01 -.288E-01 -.158E-01
   0.240E+03 -.337E+03 -.809E+03   -.241E+03 0.337E+03 0.808E+03   0.779E+00 -.985E+00 0.896E+00   0.900E-02 -.895E-02 -.494E-01
   0.452E+03 -.515E+03 -.442E+04   -.454E+03 0.516E+03 0.442E+04   0.531E+00 -.667E+00 0.268E-01   0.308E-01 -.240E-01 -.396E-01
   -.176E+03 -.146E+03 -.632E+04   0.176E+03 0.148E+03 0.632E+04   0.953E+00 -.162E+01 -.377E+01   -.110E-03 -.709E-04 -.263E-01
   0.339E+03 -.747E+03 0.294E+04   -.342E+03 0.750E+03 -.294E+04   0.211E+01 -.248E+01 0.201E+01   0.154E-01 0.211E-02 -.392E-02
   -.196E+03 0.229E+03 -.599E+04   0.197E+03 -.227E+03 0.599E+04   -.624E+00 -.220E+01 0.230E+01   -.347E-02 0.186E-02 -.168E-01
   0.300E+03 0.515E+03 0.638E+04   -.299E+03 -.519E+03 -.638E+04   -.583E+00 0.457E+01 0.521E+01   -.179E-01 -.911E-02 0.461E-01
   0.497E+03 0.872E+03 0.389E+04   -.500E+03 -.876E+03 -.389E+04   0.254E+01 0.398E+01 0.622E+00   -.267E-01 -.231E-01 0.198E-01
   0.290E+03 0.436E+03 0.435E+03   -.291E+03 -.436E+03 -.436E+03   0.807E+00 0.474E+00 0.104E+01   -.109E-01 -.227E-01 -.434E-01
   0.538E+03 0.404E+02 -.271E+04   -.541E+03 -.387E+02 0.271E+04   0.315E+01 -.148E+01 0.173E+01   0.786E-02 0.174E-02 -.479E-01
   -.491E+03 0.838E+02 0.477E+03   0.492E+03 -.835E+02 -.478E+03   -.101E+01 -.327E+00 0.713E+00   0.478E-02 -.667E-02 -.617E-01
   -.565E+03 0.144E+03 -.314E+04   0.569E+03 -.144E+03 0.314E+04   -.377E+01 -.756E+00 -.107E+01   0.142E-02 -.140E-01 -.724E-01
   -.635E+03 0.553E+03 0.360E+04   0.640E+03 -.555E+03 -.360E+04   -.334E+01 0.238E+01 -.104E+01   0.662E-02 -.919E-02 0.206E-01
   -.466E+02 0.149E+03 -.264E+03   0.478E+02 -.151E+03 0.262E+03   -.120E+01 0.180E+01 0.126E+01   -.839E-02 0.367E-02 -.266E-01
   -.329E+02 0.220E+03 -.171E+04   0.334E+02 -.223E+03 0.171E+04   0.651E+00 0.210E+01 -.121E+01   -.856E-02 -.662E-02 -.108E-01
   0.982E+01 0.327E+02 0.247E+04   -.959E+01 -.341E+02 -.247E+04   -.510E-01 0.633E+00 0.261E+01   0.657E-02 -.184E-01 0.814E-02
   -.145E+02 0.768E+02 0.782E+03   0.146E+02 -.778E+02 -.780E+03   0.425E-01 0.101E+01 -.821E+00   -.288E-02 0.169E-02 -.464E-02
   0.221E+03 -.194E+02 -.244E+04   -.223E+03 0.200E+02 0.245E+04   0.113E+01 0.548E-01 -.412E+01   -.702E-02 -.573E-03 0.892E-02
   -.111E+03 -.163E+03 -.779E+03   0.112E+03 0.166E+03 0.779E+03   -.147E+01 -.320E+01 -.647E+00   0.490E-02 0.843E-02 -.259E-01
   -.160E+03 0.109E+03 0.192E+04   0.162E+03 -.108E+03 -.192E+04   -.950E+00 -.661E+00 0.306E+01   -.209E-04 -.182E-01 0.883E-02
   -.770E+02 -.780E+02 0.484E+03   0.779E+02 0.808E+02 -.485E+03   -.732E+00 -.273E+01 0.955E+00   -.640E-02 -.347E-02 -.232E-01
   0.194E+03 -.223E+03 0.185E+04   -.195E+03 0.226E+03 -.185E+04   0.287E+00 -.232E+01 0.152E+01   -.144E-01 -.623E-02 0.230E-01
   0.158E+03 -.414E+02 0.451E+03   -.161E+03 0.414E+02 -.451E+03   0.276E+01 -.179E+00 0.104E+01   -.116E-01 0.490E-03 -.122E-01
   0.956E+02 0.131E+02 -.642E+03   -.980E+02 -.130E+02 0.640E+03   0.240E+01 -.200E+00 0.151E+01   -.408E-02 0.429E-03 -.264E-01
   -.220E+03 -.722E+02 -.243E+04   0.220E+03 0.728E+02 0.243E+04   0.630E+00 -.494E+00 -.377E+01   -.264E-02 0.318E-02 0.735E-02
   -.983E+02 0.120E+03 -.281E+03   0.993E+02 -.122E+03 0.279E+03   -.117E+01 0.194E+01 0.942E+00   0.181E-02 0.289E-02 -.241E-01
   -.261E+03 -.426E+01 -.158E+04   0.263E+03 0.373E+01 0.158E+04   -.951E+00 0.225E-01 -.956E-01   0.950E-02 0.158E-02 -.161E-01
   -.188E+03 -.366E+03 0.244E+04   0.190E+03 0.369E+03 -.245E+04   -.112E+01 -.229E+01 0.319E+01   0.184E-02 0.538E-02 0.119E-01
   -.390E+02 0.966E+02 0.757E+03   0.386E+02 -.982E+02 -.756E+03   0.211E+00 0.151E+01 -.241E+00   -.146E-02 0.561E-02 0.557E-02
   -.963E+02 0.726E+02 -.217E+04   0.981E+02 -.733E+02 0.218E+04   -.124E+01 0.106E+00 -.181E+01   0.100E-02 -.133E-02 -.616E-03
   0.383E+02 -.188E+03 -.723E+03   -.377E+02 0.190E+03 0.723E+03   -.647E+00 -.196E+01 -.865E+00   -.402E-02 0.599E-02 -.318E-01
   -.163E+01 -.167E+02 0.167E+04   0.178E+01 0.181E+02 -.167E+04   0.124E-02 -.552E+00 -.149E+01   0.301E-02 0.462E-02 0.128E-01
   -.740E+02 -.104E+03 0.394E+03   0.749E+02 0.106E+03 -.395E+03   -.900E+00 -.255E+01 0.778E+00   0.885E-02 0.577E-02 -.844E-02
   0.109E+03 -.484E+03 0.181E+04   -.111E+03 0.488E+03 -.182E+04   0.142E+00 -.230E+01 0.179E+01   0.118E-01 0.903E-02 0.150E-01
   0.169E+03 -.792E+02 0.427E+03   -.172E+03 0.795E+02 -.428E+03   0.265E+01 -.486E+00 0.726E+00   0.112E-01 0.276E-02 -.118E-01
   0.195E+03 -.296E+01 -.828E+03   -.198E+03 0.302E+01 0.827E+03   0.261E+01 -.110E+00 0.161E+00   0.917E-02 -.124E-02 -.283E-01
   0.377E+03 -.102E+03 -.220E+04   -.382E+03 0.101E+03 0.220E+04   0.260E+01 0.548E+00 -.997E+00   0.360E-02 -.534E-02 -.450E-02
   -.818E+02 0.759E+02 -.217E+03   0.829E+02 -.776E+02 0.216E+03   -.128E+01 0.181E+01 0.579E+00   -.488E-02 0.283E-02 -.131E-01
   -.377E+03 -.120E+02 -.156E+04   0.381E+03 0.119E+02 0.156E+04   -.219E+01 -.180E+00 0.119E+01   -.684E-02 0.190E-01 -.107E-01
   -.984E+02 0.190E+03 0.240E+04   0.991E+02 -.191E+03 -.241E+04   -.482E-01 0.187E+00 0.101E+01   -.402E-03 0.200E-02 0.205E-01
   -.889E+02 0.137E+03 0.112E+04   0.896E+02 -.139E+03 -.112E+04   -.648E+00 0.133E+01 0.176E+01   0.547E-04 0.571E-02 -.231E-01
   -.120E+03 -.127E+03 -.217E+04   0.122E+03 0.128E+03 0.218E+04   -.433E+00 -.410E+00 -.115E+01   0.507E-02 -.715E-02 -.508E-02
   -.599E+02 -.790E+02 -.730E+03   0.610E+02 0.813E+02 0.731E+03   -.126E+01 -.232E+01 -.114E+01   -.590E-02 -.191E-02 -.226E-01
   -.163E+03 -.342E+03 0.181E+04   0.163E+03 0.344E+03 -.182E+04   0.450E+00 -.283E+00 0.133E+01   0.182E-01 0.220E-01 0.211E-01
   -.103E+03 -.208E+03 0.481E+03   0.104E+03 0.210E+03 -.481E+03   -.977E+00 -.260E+01 0.954E+00   0.547E-03 0.114E-02 -.134E-01
   -.651E+02 0.285E+03 0.184E+04   0.642E+02 -.286E+03 -.184E+04   0.200E+00 0.326E+00 0.209E+01   0.208E-01 -.828E-02 0.929E-02
   0.140E+03 0.482E+02 0.492E+03   -.143E+03 -.478E+02 -.492E+03   0.271E+01 -.524E+00 0.118E+01   0.500E-02 0.425E-02 -.225E-01
   0.158E+03 0.327E+01 -.793E+03   -.160E+03 -.324E+01 0.794E+03   0.228E+01 0.171E+00 -.600E+00   -.589E-02 0.164E-02 -.133E-01
   0.269E+03 -.722E+02 -.224E+04   -.273E+03 0.718E+02 0.224E+04   0.173E+01 0.861E+00 -.159E+01   -.114E-01 0.808E-02 -.851E-02
   -.717E+02 0.106E+03 -.248E+03   0.729E+02 -.107E+03 0.248E+03   -.121E+01 0.193E+01 -.215E-02   0.515E-02 -.714E-02 -.221E-01
   -.211E+03 0.607E+02 -.154E+04   0.213E+03 -.614E+02 0.154E+04   -.496E-01 0.424E+00 0.928E-01   0.668E-02 -.176E-02 -.239E-01
   -.195E+03 0.487E+03 0.228E+04   0.196E+03 -.490E+03 -.228E+04   -.431E+00 0.102E+01 0.123E+01   -.676E-02 -.197E-02 0.136E-01
   -.771E+02 0.154E+03 0.104E+04   0.777E+02 -.156E+03 -.104E+04   -.582E+00 0.133E+01 0.149E+01   -.530E-02 -.312E-02 -.257E-02
   -.634E+02 0.151E+03 -.232E+04   0.649E+02 -.152E+03 0.233E+04   -.896E+00 0.132E+01 -.124E+01   -.848E-02 -.314E-02 -.374E-02
   -.608E+02 -.158E+03 -.784E+03   0.619E+02 0.161E+03 0.783E+03   -.100E+01 -.290E+01 -.340E+00   0.112E-01 0.936E-03 -.169E-01
   0.736E+02 -.192E+03 0.190E+04   -.754E+02 0.193E+03 -.191E+04   0.174E+01 -.146E+00 0.378E+01   -.671E-02 0.289E-02 0.129E-01
   -.476E+02 -.211E+03 0.494E+03   0.488E+02 0.213E+03 -.494E+03   -.107E+01 -.218E+01 0.350E-01   -.426E-02 -.634E-02 -.110E-01
   0.432E+03 0.243E+03 0.191E+04   -.435E+03 -.244E+03 -.191E+04   0.155E+01 0.115E+01 0.296E+01   -.164E-01 -.923E-02 0.883E-02
   0.202E+03 0.540E+02 0.486E+03   -.205E+03 -.536E+02 -.486E+03   0.275E+01 -.453E+00 0.554E+00   -.318E-02 -.107E-01 -.186E-01
   0.188E+03 0.969E+01 -.801E+03   -.191E+03 -.911E+01 0.802E+03   0.294E+01 -.871E+00 -.296E+00   0.293E-02 -.120E-01 -.245E-01
   0.503E+03 -.603E+02 -.224E+04   -.508E+03 0.612E+02 0.225E+04   0.232E+01 -.863E+00 -.555E+00   0.642E-02 0.490E-02 -.285E-02
 -----------------------------------------------------------------------------------------------
   -.147E+02 0.155E+02 -.419E+02   0.193E-11 0.554E-12 -.909E-12   0.145E+02 -.154E+02 0.433E+02   -.380E-01 -.969E-01 -.127E+01
 
 
 POSITION                                       TOTAL-FORCE (eV/Angst)
 -----------------------------------------------------------------------------------
      5.35228      4.81788      6.64784         0.142335     -0.307564     -0.209274
      5.93595      3.87238      9.58390        -0.395526      0.190170     -0.800752
      2.10225      2.68487      2.15147         0.495576     -0.203154     -1.104152
      2.24633      0.73197      3.71178         0.049166     -0.348666      1.728852
      0.54210      0.53388     11.04018         0.132137     -0.585693      1.399390
      4.97113      5.40705      1.34484        -0.772454      1.032085     -1.667289
      4.76861      3.35453      2.93606         0.345495     -0.998584      1.866724
      5.35228      2.40903      5.87212        -0.067303      0.079794      0.045065
      5.93595      1.46353      8.80817        -0.558602      0.322521     -2.214220
      1.87746      3.73836      5.87212        -0.004725      0.075993     -0.052261
      2.46113      2.79286      8.80817        -0.638983     -0.303411     -2.386375
      3.90202      1.98596     10.43146        -0.562543      0.281721      0.552379
      6.92203      4.68386      2.93606         1.223711     -0.365554      1.553698
     10.98051      4.81788      6.64784         0.247654     -0.254757     -0.281540
     11.56418      3.87238      9.58390         0.393486      0.542691     -0.617367
      7.09323      2.13069      2.00550         0.347356     -0.536947     -0.822773
      7.87456      0.73197      3.71178        -0.074833     -0.476899      1.508278
      6.36321      0.02051     10.61450         1.117152      0.278825      0.963441
      9.45907      3.27877      0.85446        -0.617413     -0.265864     -1.301541
     10.39684      3.35453      2.93606         0.414269     -0.208781      3.902973
     10.98051      2.40903      5.87212        -0.119077     -0.054152      0.136044
     11.56418      1.46353      8.80817         0.233938      0.019771     -2.351749
      7.50570      3.73836      5.87212        -0.022465      0.119289      0.070163
      8.08937      2.79286      8.80817         0.426403      0.056584     -1.646672
     12.55026      4.68386      2.93606        -0.683687      0.904335      1.420134
     11.26350      1.51396      1.58222        -0.017294     -0.535044     -0.860472
      7.87456      9.84929      6.64784         0.162306     -0.242171     -0.154749
      8.45823      8.90379      9.58390        -0.779694      0.754928     -1.325449
      4.76861      5.76338      3.71178        -0.686733      0.307047      1.950867
      3.47850      4.57528     10.12695         0.957163      0.025455      0.638405
      7.29089      8.38594      2.93606        -0.645827     -0.891535      2.394291
      7.87456      7.44044      5.87212        -0.007961      0.111495      0.005894
      8.45823      6.49494      8.80817        -0.410299      0.051020     -2.857563
      4.39975      8.76977      5.87212        -0.054650     -0.024339      0.104079
      4.98341      7.82427      8.80817         0.259949      0.979472     -1.824051
      9.44431      9.71527      2.93606         1.489986     -0.292974      2.384206
     13.50279      9.84929      6.64784         0.216251     -0.370555     -0.084849
     14.08646      8.90379      9.58390        -0.886289      0.311261     -0.877923
      3.89425      6.96417     10.98197         0.528081      0.060954      1.515587
     10.39684      5.76338      3.71178        -0.650275     -0.081749      1.339522
      9.00202      5.56947     10.95994         0.105995     -0.856239      1.461150
      8.27131      0.06010      1.14227        -0.224550      0.887966     -1.948334
     12.91912      8.38594      2.93606        -0.731914     -0.482018      2.063995
     13.50279      7.44044      5.87212         0.012583      0.022594      0.081500
     14.08646      6.49494      8.80817        -0.316974      0.223561     -2.672423
     10.02798      8.76977      5.87212        -0.188603     -0.000278     -0.052786
     10.61165      7.82427      8.80817         0.496739     -0.381722     -1.851976
     15.07254      9.71527      2.93606         1.037741     -0.112086      1.598292
      1.66190      1.67871      7.01153        -0.021718     -0.170801     -0.288657
      2.24556      0.73321      9.94759         1.188633     -1.734415     -0.091198
      6.05474      3.70686      1.25175         0.192125     -0.818277     -3.327577
      6.70646      2.62422      4.07548         0.101535     -0.045486      0.896117
      2.10147      3.22437     10.81467        -0.161839      0.598745      2.828483
      7.29013      4.74605      7.99931        -0.088187     -0.006535     -1.304773
      3.76603      1.53921      2.40124         0.820813      0.684115     -1.918275
      4.18418      0.66015      5.06325         0.190161      0.119996      0.445717
      3.29330      4.70850      2.33223        -1.204292      0.879768     -1.438306
      3.96438      3.99884      5.06325        -0.026512     -0.152399      0.536662
      4.54805      3.05334      7.99931        -0.019428     -0.110748     -0.437160
      5.89097      2.06269     10.81932        -0.074344      0.188282      3.265092
      7.29013      1.67871      7.01153        -0.124184      0.264250     -0.964562
      7.93432      0.71575      9.48503         1.187483     -0.506618      1.214406
     11.60736      3.56038      1.23483         0.809410      0.873020     -3.060387
     12.33469      2.62422      4.07548        -0.202971     -0.023168      0.838909
      7.84898      3.97450     10.49246         0.558007     -0.583739      2.717672
     12.91836      4.74605      7.99931        -0.046981      0.113664     -1.072525
      9.22874      1.60565      2.12720         0.153923      0.821479     -0.061319
      9.81241      0.66015      5.06325        -0.005278      0.141145      0.072650
      9.01250      4.77920      2.28442        -1.336790      1.847907     -1.137294
      9.59261      3.99884      5.06325        -0.121078     -0.199258      0.374846
     10.17628      3.05334      7.99931        -0.134821     -0.050593     -0.809857
     10.79549      2.22070     10.57217        -2.590774      0.114079      2.438215
      4.18418      6.71012      7.01153        -0.240838      0.068378     -0.678766
      5.03136      5.86289      9.63420         1.768985     -0.282314      1.022753
      8.53928      8.77047      1.43395         0.667479     -0.920829     -4.279883
      9.22874      7.65563      4.07548         0.115619     -0.198468     -0.036724
      4.61267      8.85145     10.65607         0.869654      0.367671      2.338994
      9.81241      9.77746      7.99931        -0.161487      0.017217     -0.619027
      6.21766      6.61881      2.43663         0.480637      1.541241     -1.284590
      6.70646      5.69156      5.06325         0.116107     -0.080607      0.638338
      5.89386      9.87754      2.40535        -0.674879     -0.033517     -1.363024
      6.48666      9.03025      5.06325        -0.081786     -0.187008      0.580641
      7.07033      8.08475      7.99931        -0.169825      0.196846     -0.295829
      7.83699      7.19901     10.63744        -2.179082      0.464734      2.684426
      9.81241      6.71012      7.01153        -0.063454      0.210106     -0.941867
     10.40331      5.75313      9.50151         1.428195     -0.248603      1.176572
     14.35511      8.42695      1.46233         1.450536     -2.166012     -3.025707
     14.85697      7.65563      4.07548         0.021488     -0.178727      0.729151
     10.17069      8.50570     10.69822         0.572797     -0.041847      3.032046
     15.44064      9.77746      7.99931         0.193255     -0.048995     -0.939728
     11.85384      6.61620      2.54406         0.005814      1.098593     -2.360014
     12.33469      5.69156      5.06325         0.090971     -0.083605      0.806074
     11.53122      9.97575      2.12720        -1.668999      0.028484      0.068110
     12.11489      9.03025      5.06325         0.036270     -0.026456      0.219270
     12.69856      8.08475      7.99931         0.132255     -0.302755      0.098619
     13.36141      6.07942     10.69424        -2.469403      0.103265      1.994896
 -----------------------------------------------------------------------------------
    total drift:                               -0.241866      0.044034      0.120123


--------------------------------------------------------------------------------------------------------



  FREE ENERGIE OF THE ION-ELECTRON SYSTEM (eV)
  ---------------------------------------------------
  free  energy   TOTEN  =      -470.13693030 eV

  energy  without entropy=     -468.83468922  energy(sigma->0) =     -469.48580976
 


--------------------------------------------------------------------------------------------------------


    POTLOK:  cpu time    0.3875: real time    0.3875


--------------------------------------------------------------------------------------------------------


     LOOP+:  cpu time  636.1471: real time  636.3567
    4ORBIT:  cpu time    0.0000: real time    0.0000

 total amount of memory used by VASP MPI-rank0    87626. kBytes
=======================================================================

   base      :      30000. kBytes
   nonlr-proj:       3196. kBytes
   fftplans  :      11274. kBytes
   grid      :      19113. kBytes
   one-center:        124. kBytes
   wavefun   :      23919. kBytes
 
  
  
 General timing and accounting informations for this job:
 ========================================================
  
                  Total CPU time used (sec):      640.333
                            User time (sec):      639.932
                          System time (sec):        0.401
                         Elapsed time (sec):      640.782
  
                   Maximum memory used (kb):      253532.
                   Average memory used (kb):           0.
  
                          Minor page faults:       130070
                          Major page faults:            0
                 Voluntary context switches:          195
