LAMMPS (5 Jun 2019)
OMP_NUM_THREADS environment is not set. Defaulting to 1 thread. (../comm.cpp:88)
  using 1 OpenMP thread(s) per MPI task
Reading data file ...
  triclinic box = (0 0 0) to (16.8847 9.57841 16.1976) with tilt (0 0 0)
  1 by 1 by 1 MPI processor grid
  reading atoms ...
  74 atoms
  read_data CPU = 0.000805702 secs
34 atoms in group bulk
WARNING: Using 'neigh_modify every 1 delay 0 check yes' setting during minimization (../min.cpp:168)
Neighbor list info ...
  update every 1 steps, delay 0 steps, check yes
  max neighbors/atom: 2000, page size: 100000
  master list distance cutoff = 8.5
  ghost atom cutoff = 8.5
  binsize = 4.25, bins = 4 3 4
  1 neighbor lists, perpetual/occasional/extra = 1 0 0
  (1) pair eam/alloy, perpetual
      attributes: half, newton on
      pair build: half/bin/newton/tri
      stencil: half/bin/3d/newton/tri
      bin: standard
Setting up cg style minimization ...
  Unit style    : metal
  Current step  : 0
Per MPI rank memory allocation (min/avg/max) = 4.106 | 4.106 | 4.106 Mbytes
Step Temp E_pair E_mol TotEng Press 
       0            0   -305.91384            0   -305.91384   -104151.56 
      25            0   -332.33173            0   -332.33173   -18381.953 
Loop time of 0.0133056 on 1 procs for 25 steps with 74 atoms

99.5% CPU use with 1 MPI tasks x 1 OpenMP threads

Minimization stats:
  Stopping criterion = energy tolerance
  Energy initial, next-to-last, final = 
        -305.913843424     -332.328680388     -332.331734007
  Force two-norm initial, final = 14.3508 0.139379
  Force max component initial, final = 2.8406 0.0592226
  Final line search alpha, max atom move = 0.588654 0.0348617
  Iterations, force evaluations = 25 33

MPI task timing breakdown:
Section |  min time  |  avg time  |  max time  |%varavg| %total
---------------------------------------------------------------
Pair    | 0.012187   | 0.012187   | 0.012187   |   0.0 | 91.60
Neigh   | 0.00052365 | 0.00052365 | 0.00052365 |   0.0 |  3.94
Comm    | 0.00026196 | 0.00026196 | 0.00026196 |   0.0 |  1.97
Output  | 0          | 0          | 0          |   0.0 |  0.00
Modify  | 2.23e-05   | 2.23e-05   | 2.23e-05   |   0.0 |  0.17
Other   |            | 0.0003104  |            |       |  2.33

Nlocal:    74 ave 74 max 74 min
Histogram: 1 0 0 0 0 0 0 0 0 0
Nghost:    738 ave 738 max 738 min
Histogram: 1 0 0 0 0 0 0 0 0 0
Neighs:    3496 ave 3496 max 3496 min
Histogram: 1 0 0 0 0 0 0 0 0 0

Total # of neighbors = 3496
Ave neighs/atom = 47.2432
Neighbor list builds = 1
Dangerous builds = 0
System init for write_data ...
Total wall time: 0:00:00
