 vasp.6.1.0 28Jan20 (build Mar 31 2020 17:42:31) gamma-only                     
  
 executed on             LinuxIFC date 2020.04.12  21:34:30
 running on   48 total cores
 distrk:  each k-point on   48 cores,    1 groups
 distr:  one band on NCORE=   6 cores,    8 groups


--------------------------------------------------------------------------------------------------------


 INCAR:
 POTCAR:    PAW_PBE Ni_pv 06Sep2000               
 POTCAR:    PAW_PBE S 06Sep2000                   
 POTCAR:    PAW_PBE Ni_pv 06Sep2000               
   VRHFIN =Ni:                                                                                      
   LEXCH  = PE                                                                                      
   EATOM  =  3501.1230 eV,  257.3253 Ry                                                             
                                                                                                    
   TITEL  = PAW_PBE Ni_pv 06Sep2000                                                                 
   LULTRA =        F    use ultrasoft PP ?                                                          
   IUNSCR =        1    unscreen: 0-lin 1-nonlin 2-no                                               
   RPACOR =    1.500    partial core radius                                                         
   POMASS =   58.690; ZVAL   =   16.000    mass and valenz                                          
   RCORE  =    2.000    outmost cutoff radius                                                       
   RWIGS  =    2.000; RWIGS  =    1.058    wigner-seitz radius (au A)                               
   ENMAX  =  367.986; ENMIN  =  275.989 eV                                                          
   RCLOC  =    1.301    cutoff for local pot                                                        
   LCOR   =        T    correct aug charges                                                         
   LPAW   =        T    paw PP                                                                      
   EAUG   =  703.443                                                                                
   DEXC   =    0.000                                                                                
   RMAX   =    2.041    core radius for proj-oper                                                   
   RAUG   =    1.300    factor for augmentation sphere                                              
   RDEP   =    2.103    radius for radial grids                                                     
   RDEPT  =    1.618    core radius for aug-charge                                                  
                                                                                                    
   Atomic configuration                                                                             
    8 entries                                                                                       
     n  l   j            E        occ.                                                              
     1  0  0.50     -8206.4253   2.0000                                                             
     2  0  0.50      -976.1748   2.0000                                                             
     2  1  1.50      -839.0571   6.0000                                                             
     3  0  0.50      -105.9991   2.0000                                                             
     3  1  1.50       -66.4603   6.0000                                                             
     3  2  2.50        -4.6458   9.0000                                                             
     4  0  0.50        -4.4926   1.0000                                                             
     4  3  2.50        -1.3606   0.0000                                                             
   Description                                                                                      
     l       E           TYP  RCUT    TYP  RCUT                                                     
     1    -66.4602962     23  1.700                                                                 
     1     -1.3605826     23  1.700                                                                 
     2     -4.6457867     23  2.000                                                                 
     2     -6.0063693     23  2.000                                                                 
     0     -4.4925576     23  1.900                                                                 
     0     16.3626226     23  1.900                                                                 
  local pseudopotential read in
  partial core-charges read in
  partial kinetic energy density read in
  atomic valenz-charges read in
  non local Contribution for L=           1  read in
    real space projection operators read in
  non local Contribution for L=           1  read in
    real space projection operators read in
  non local Contribution for L=           2  read in
    real space projection operators read in
  non local Contribution for L=           2  read in
    real space projection operators read in
  non local Contribution for L=           0  read in
    real space projection operators read in
  non local Contribution for L=           0  read in
    real space projection operators read in
    PAW grid and wavefunctions read in
 
   number of l-projection  operators is LMAX  =           6
   number of lm-projection operators is LMMAX =          18
 
 POTCAR:    PAW_PBE S 06Sep2000                   
   VRHFIN =S : s2p4                                                                                 
   LEXCH  = PE                                                                                      
   EATOM  =   276.8230 eV,   20.3459 Ry                                                             
                                                                                                    
   TITEL  = PAW_PBE S 06Sep2000                                                                     
   LULTRA =        F    use ultrasoft PP ?                                                          
   IUNSCR =        1    unscreen: 0-lin 1-nonlin 2-no                                               
   RPACOR =    1.500    partial core radius                                                         
   POMASS =   32.066; ZVAL   =    6.000    mass and valenz                                          
   RCORE  =    1.900    outmost cutoff radius                                                       
   RWIGS  =    2.200; RWIGS  =    1.164    wigner-seitz radius (au A)                               
   ENMAX  =  258.689; ENMIN  =  194.016 eV                                                          
   ICORE  =        2    local potential                                                             
   LCOR   =        T    correct aug charges                                                         
   LPAW   =        T    paw PP                                                                      
   EAUG   =  335.092                                                                                
   DEXC   =    0.000                                                                                
   RMAX   =    1.942    core radius for proj-oper                                                   
   RAUG   =    1.300    factor for augmentation sphere                                              
   RDEP   =    1.954    radius for radial grids                                                     
   RDEPT  =    1.744    core radius for aug-charge                                                  
                                                                                                    
   Atomic configuration                                                                             
    6 entries                                                                                       
     n  l   j            E        occ.                                                              
     1  0  0.50     -2405.8406   2.0000                                                             
     2  0  0.50      -211.7007   2.0000                                                             
     2  1  1.50      -156.4958   6.0000                                                             
     3  0  0.50       -17.2562   2.0000                                                             
     3  1  0.50        -7.0085   4.0000                                                             
     3  2  1.50        -6.8029   0.0000                                                             
   Description                                                                                      
     l       E           TYP  RCUT    TYP  RCUT                                                     
     0    -17.2561641     23  1.900                                                                 
     0    -15.8743224     23  1.900                                                                 
     1     -7.0085400     23  1.900                                                                 
     1     -2.7779785     23  1.900                                                                 
     2     -6.8029130     23  1.900                                                                 
  local pseudopotential read in
  partial core-charges read in
  partial kinetic energy density read in
  atomic valenz-charges read in
  non local Contribution for L=           0  read in
    real space projection operators read in
  non local Contribution for L=           0  read in
    real space projection operators read in
  non local Contribution for L=           1  read in
    real space projection operators read in
  non local Contribution for L=           1  read in
    real space projection operators read in
    PAW grid and wavefunctions read in
 
   number of l-projection  operators is LMAX  =           4
   number of lm-projection operators is LMMAX =           8
 
 Optimization of the real space projectors (new method)

 maximal supplied QI-value         = 18.90
 optimisation between [QCUT,QGAM] = [ 10.77, 21.73] = [ 32.49,132.25] Ry 
 Optimized for a Real-space Cutoff    1.38 Angstroem

   l    n(q)    QCUT    max X(q) W(low)/X(q) W(high)/X(q)  e(spline) 
   1      8    10.771     2.836    0.40E-04    0.29E-04    0.12E-06
   1      8    10.771     4.023    0.10E-03    0.48E-04    0.29E-06
   2      8    10.771    73.368    0.42E-03    0.97E-04    0.44E-06
   2      8    10.771    69.010    0.42E-03    0.99E-04    0.45E-06
   0      9    10.771    54.797    0.10E-03    0.56E-04    0.74E-07
   0      9    10.771    24.266    0.89E-04    0.49E-04    0.67E-07
 Optimization of the real space projectors (new method)

 maximal supplied QI-value         = 19.84
 optimisation between [QCUT,QGAM] = [ 10.71, 21.63] = [ 32.15,130.99] Ry 
 Optimized for a Real-space Cutoff    1.19 Angstroem

   l    n(q)    QCUT    max X(q) W(low)/X(q) W(high)/X(q)  e(spline) 
   0      8    10.715   187.594    0.41E-03    0.53E-04    0.66E-07
   0      8    10.715   164.243    0.41E-03    0.53E-04    0.65E-07
   1      7    10.715    67.533    0.19E-03    0.59E-03    0.68E-07
   1      7    10.715    50.729    0.19E-03    0.58E-03    0.67E-07
  PAW_PBE Ni_pv 06Sep2000               :
 energy of atom  1       EATOM=-3501.1230
 kinetic energy error for atom=    0.0925 (will be added to EATOM!!)
  PAW_PBE S 06Sep2000                   :
 energy of atom  2       EATOM= -276.8230
 kinetic energy error for atom=    0.0033 (will be added to EATOM!!)
 
 
 POSCAR: Structure 1 made from 0-21-4.xsd file
  positions in direct lattice
  No initial velocities read in
 exchange correlation table for  LEXCH =        8
   RHO(1)=    0.500       N(1)  =     2000
   RHO(2)=  100.500       N(2)  =     4000
 


--------------------------------------------------------------------------------------------------------


 ion  position               nearest neighbor table
   1  0.638  0.429  0.051-  42 2.25  61 2.26  62 2.36  51 2.36  27 2.53  13 2.53
   2  0.729  0.611  0.176-  43 2.25  51 2.26  62 2.26  52 2.36  63 2.36  14 2.53  28 2.53
   3  0.820  0.793  0.301-  44 2.25  52 2.26  63 2.26  50 2.36  64 2.36  15 2.53  25 2.53
   4  0.911  0.975  0.427-  41 2.25  64 2.26  50 2.26  49 2.36  26 2.53  16 2.53
   5  0.456  0.066  0.260-  45 2.25  68 2.26  53 2.26  54 2.36  65 2.36  29 2.53  20 2.53
   6  0.547  0.248  0.385-  46 2.25  65 2.26  54 2.26  55 2.36  17 2.53  30 2.53
   7  0.274  0.702  0.009-  66 2.26  67 2.36  56 2.36  31 2.53  18 2.53
   8  0.365  0.884  0.135-  48 2.25  56 2.26  67 2.26  68 2.36  53 2.36  19 2.53  32 2.53
   9  0.002  0.156  0.093-  39 2.25  72 2.26  71 2.36  57 2.36  23 2.53  33 2.53
  10  0.093  0.339  0.218-  40 2.25  57 2.26  71 2.26  69 2.36  58 2.36  34 2.53  21 2.53
  11  0.184  0.521  0.343-  37 2.25  69 2.26  58 2.26  59 2.36  70 2.36  22 2.53  35 2.53
  12  0.275  0.703  0.468-  38 2.25  70 2.26  59 2.26  60 2.36  36 2.53
  13  0.686  0.261  0.117-  53 2.25  39 2.26  61 2.26  62 2.36  40 2.36  27 2.53   1 2.53
  14  0.777  0.443  0.242-  54 2.25  62 2.26  40 2.26  63 2.36  37 2.36   2 2.53  28 2.53
  15  0.868  0.625  0.368-  55 2.25  37 2.26  63 2.26  64 2.36  38 2.36   3 2.53  25 2.53
  16  0.959  0.807  0.493-  38 2.26  64 2.26  26 2.53   4 2.53
  17  0.596  0.080  0.451-  60 2.25  65 2.26  41 2.26   6 2.53  30 2.53
  18  0.322  0.534  0.076-  57 2.25  42 2.26  66 2.26  67 2.36  43 2.36  31 2.53   7 2.53
  19  0.413  0.716  0.201-  58 2.25  67 2.26  43 2.26  68 2.36  44 2.36   8 2.53  32 2.53
  20  0.504  0.898  0.326-  59 2.25  44 2.26  68 2.26  65 2.36  41 2.36  29 2.53   5 2.53
  21  0.141  0.171  0.284-  50 2.25  45 2.26  71 2.26  46 2.36  69 2.36  34 2.53  10 2.53
  22  0.232  0.353  0.409-  49 2.25  46 2.26  69 2.26  70 2.36  47 2.36  11 2.53  35 2.53
  23  0.050  0.988  0.159-  52 2.25  48 2.26  72 2.26  71 2.36  45 2.36   9 2.53  33 2.53
  24  0.959  0.806  0.034-  51 2.25  72 2.36  48 2.36
  25  0.084  0.793  0.301-  68 2.25  37 2.26  52 2.26  50 2.36  38 2.36   3 2.53  15 2.53
  26  0.175  0.975  0.427-  65 2.25  38 2.26  50 2.26  49 2.36  16 2.53   4 2.53
  27  0.902  0.429  0.051-  66 2.25  39 2.26  51 2.36  40 2.36  13 2.53   1 2.53
  28  0.993  0.611  0.176-  67 2.25  51 2.26  40 2.26  52 2.36  37 2.36   2 2.53  14 2.53
  29  0.721  0.066  0.260-  71 2.25  53 2.26  44 2.26  54 2.36  41 2.36  20 2.53   5 2.53
  30  0.812  0.248  0.385-  69 2.25  41 2.26  54 2.26  55 2.36   6 2.53  17 2.53
  31  0.538  0.702  0.009-  42 2.26  43 2.36  56 2.36  18 2.53   7 2.53
  32  0.630  0.884  0.135-  72 2.25  43 2.26  56 2.26  44 2.36  53 2.36   8 2.53  19 2.53
  33  0.266  0.156  0.093-  61 2.25  48 2.26  45 2.36  57 2.36   9 2.53  23 2.53
  34  0.357  0.339  0.218-  62 2.25  57 2.26  45 2.26  46 2.36  58 2.36  10 2.53  21 2.53
  35  0.448  0.521  0.343-  63 2.25  46 2.26  58 2.26  47 2.36  59 2.36  11 2.53  22 2.53
  36  0.539  0.703  0.468-  64 2.25  47 2.26  59 2.26  60 2.36  12 2.53
  37  0.013  0.579  0.292-  11 2.25  25 2.26  15 2.26  14 2.36  28 2.36
  38  0.104  0.761  0.417-  12 2.25  16 2.26  26 2.26  25 2.36  15 2.36
  39  0.831  0.215  0.042-   9 2.25  13 2.26  27 2.26
  40  0.922  0.397  0.167-  10 2.25  14 2.26  28 2.26  13 2.36  27 2.36
  41  0.741  0.034  0.376-   4 2.25  17 2.26  30 2.26  20 2.36  29 2.36
  42  0.468  0.488  0.000-   1 2.25  18 2.26  31 2.26
  43  0.559  0.670  0.125-   2 2.25  32 2.26  19 2.26  31 2.36  18 2.36
  44  0.650  0.852  0.250-   3 2.25  29 2.26  20 2.26  32 2.36  19 2.36
  45  0.286  0.125  0.209-   5 2.25  34 2.26  21 2.26  33 2.36  23 2.36
  46  0.377  0.307  0.334-   6 2.25  35 2.26  22 2.26  21 2.36  34 2.36
  47  0.468  0.489  0.459-  36 2.26  35 2.36  22 2.36
  48  0.195  0.942  0.083-   8 2.25  23 2.26  33 2.26  24 2.36
  49  0.134  0.157  0.458-  22 2.25   4 2.36  26 2.36
  50  0.043  0.975  0.333-  21 2.25  26 2.26   4 2.26  25 2.36   3 2.36
  51  0.861  0.611  0.083-  24 2.25  28 2.26   2 2.26  27 2.36   1 2.36
  52  0.952  0.793  0.208-  23 2.25   3 2.26  25 2.26  28 2.36   2 2.36
  53  0.588  0.066  0.166-  13 2.25  29 2.26   5 2.26   8 2.36  32 2.36
  54  0.680  0.248  0.291-  14 2.25  30 2.26   6 2.26  29 2.36   5 2.36
  55  0.771  0.430  0.416-  15 2.25  30 2.36   6 2.36
  56  0.497  0.884  0.041-   8 2.26  32 2.26   7 2.36  31 2.36
  57  0.225  0.339  0.124-  18 2.25  10 2.26  34 2.26   9 2.36  33 2.36
  58  0.316  0.521  0.250-  19 2.25  11 2.26  35 2.26  10 2.36  34 2.36
  59  0.407  0.703  0.375-  20 2.25  12 2.26  36 2.26  11 2.36  35 2.36
  60  0.498  0.885  0.500-  17 2.25  12 2.36  36 2.36
  61  0.495  0.215  0.042-  33 2.25  13 2.26   1 2.26
  62  0.586  0.397  0.167-  34 2.25  14 2.26   2 2.26  13 2.36   1 2.36
  63  0.677  0.579  0.292-  35 2.25   3 2.26  15 2.26  14 2.36   2 2.36
  64  0.768  0.761  0.417-  36 2.25   4 2.26  16 2.26   3 2.36  15 2.36
  65  0.404  0.034  0.376-  26 2.25  17 2.26   6 2.26  20 2.36   5 2.36
  66  0.131  0.488  0.000-  27 2.25   7 2.26  18 2.26
  67  0.222  0.670  0.125-  28 2.25  19 2.26   8 2.26   7 2.36  18 2.36
  68  0.313  0.852  0.250-  25 2.25   5 2.26  20 2.26   8 2.36  19 2.36
  69  0.041  0.307  0.334-  30 2.25  11 2.26  22 2.26  10 2.36  21 2.36
  70  0.132  0.489  0.459-  12 2.26  11 2.36  22 2.36
  71  0.950  0.125  0.209-  29 2.25  10 2.26  21 2.26   9 2.36  23 2.36
  72  0.859  0.942  0.083-  32 2.25   9 2.26  23 2.26  24 2.36
 
  LATTYP: Found a base centered orthorhombic cell.
 ALAT       =     9.5784100000
 B/A-ratio  =     2.1722506660
 C/A-ratio  =     2.0877114223
  
  Lattice vectors:
  
 A1 = (   8.7007307979,   7.4473846003,   0.0000000000)
 A2 = (   0.0000000000, -11.4527836704,   0.0000000000)
 A3 = (   0.0000000000,   0.0000000000, -19.9969559647)


Analysis of symmetry for initial positions (statically):
=====================================================================
 Subroutine PRICEL returns:
 Original cell was already a primitive cell.
 

 Routine SETGRP: Setting up the symmetry group for a 
 base centered orthorhombic supercell.


 Subroutine GETGRP returns: Found  2 space group operations
 (whereof  1 operations were pure point group operations)
 out of a pool of  8 trial point group operations.


The static configuration has the point symmetry C_1 .
 The point group associated with its full space group is C_1h.


Analysis of symmetry for dynamics (positions and initial velocities):
=====================================================================
 Subroutine PRICEL returns:
 Original cell was already a primitive cell.
 

 Routine SETGRP: Setting up the symmetry group for a 
 base centered orthorhombic supercell.


 Subroutine GETGRP returns: Found  2 space group operations
 (whereof  1 operations were pure point group operations)
 out of a pool of  8 trial point group operations.


The dynamic configuration has the point symmetry C_1 .
 The point group associated with its full space group is C_1h.


 Subroutine INISYM returns: Found  2 space group operations
 (whereof  1 operations are pure point group operations),
 and found     1 'primitive' translations


----------------------------------------------------------------------------------------

                                     Primitive cell                                     

  volume of cell :    1992.6484

  direct lattice vectors                    reciprocal lattice vectors
     8.700730798 -4.005399070  0.000000000     0.114932874  0.000000000  0.000000000
     0.000000000 11.452783670  0.000000000     0.040195645  0.087315017  0.000000000
     0.000000000  0.000000000 19.996955965     0.000000000  0.000000000  0.050007611

  length of vectors
     9.578410000 11.452783670 19.996955965     0.114932874  0.096122849  0.050007611

  position of ions in fractional coordinates (direct lattice)
     0.637935915  0.429045577  0.051148169
     0.728992923  0.611159592  0.176322953
     0.820049931  0.793273607  0.301497738
     0.911106938  0.975387622  0.426672522
     0.456364261  0.065902269  0.259772810
     0.547421269  0.248016284  0.384947594
     0.274250246  0.701674238  0.009423241
     0.365307254  0.883788253  0.134598025
     0.001621585  0.156416915  0.092873097
     0.092678592  0.338530930  0.218047881
     0.183735600  0.520644945  0.343222666
     0.274792607  0.702758960  0.468397450
     0.686051531  0.261070808  0.117292027
     0.777108538  0.443184823  0.242466811
     0.868165546  0.625298838  0.367641596
     0.959222554  0.807412853  0.492816380
     0.595536884  0.080041515  0.451091452
     0.322365862  0.533699469  0.075567099
     0.413422869  0.715813484  0.200741883
     0.504479877  0.897927500  0.325916668
     0.140794208  0.170556161  0.284191740
     0.231851215  0.352670176  0.409366524
     0.049737200  0.988442146  0.159016955
     0.958680192  0.806328131  0.033842171
     0.084255931  0.793273607  0.301497738
     0.175312938  0.975387622  0.426672522
     0.902141915  0.429045577  0.051148169
     0.993198923  0.611159592  0.176322953
     0.720570261  0.065902269  0.259772810
     0.811627269  0.248016284  0.384947594
     0.538456246  0.701674238  0.009423241
     0.629513254  0.883788253  0.134598025
     0.265827585  0.156416915  0.092873097
     0.356884592  0.338530930  0.218047881
     0.447941600  0.520644945  0.343222666
     0.538998607  0.702758960  0.468397450
     0.013407098  0.579351942  0.292074496
     0.104464106  0.761465958  0.417249281
     0.831293083  0.215123912  0.041724928
     0.922350091  0.397237927  0.166899712
     0.740778437  0.034094619  0.375524353
     0.467607414  0.487752574  0.000000000
     0.558664422  0.669866589  0.125174784
     0.649721429  0.851980604  0.250349568
     0.286035760  0.124609266  0.208624640
     0.377092767  0.306723281  0.333799424
     0.468149775  0.488837296  0.458974209
     0.194978752  0.942495251  0.083449856
     0.134252495  0.157472737  0.458198959
     0.043195488  0.975358721  0.333024175
     0.861081473  0.611130691  0.082674607
     0.952138480  0.793244706  0.207849391
     0.588452811  0.065873368  0.166124463
     0.679509819  0.247987383  0.291299247
     0.770566826  0.430101398  0.416474031
     0.497395803  0.883759353  0.040949679
     0.224767142  0.338502030  0.124399535
     0.315824149  0.520616045  0.249574319
     0.406881157  0.702730060  0.374749103
     0.497938164  0.884844075  0.499923888
     0.494863083  0.215123912  0.041724928
     0.585920091  0.397237927  0.166899712
     0.676977098  0.579351942  0.292074496
     0.768034106  0.761465958  0.417249281
     0.404348437  0.034094619  0.375524353
     0.131177414  0.487752574  0.000000000
     0.222234422  0.669866589  0.125174784
     0.313291429  0.851980604  0.250349568
     0.040662767  0.306723281  0.333799424
     0.131719775  0.488837296  0.458974209
     0.949605760  0.124609266  0.208624640
     0.858548752  0.942495251  0.083449856

  ion indices of the primitive-cell ions
   primitive index   ion index
                 1           1
                 2           2
                 3           3
                 4           4
                 5           5
                 6           6
                 7           7
                 8           8
                 9           9
                10          10
                11          11
                12          12
                13          13
                14          14
                15          15
                16          16
                17          17
                18          18
                19          19
                20          20
                21          21
                22          22
                23          23
                24          24
                25          25
                26          26
                27          27
                28          28
                29          29
                30          30
                31          31
                32          32
                33          33
                34          34
                35          35
                36          36
                37          37
                38          38
                39          39
                40          40
                41          41
                42          42
                43          43
                44          44
                45          45
                46          46
                47          47
                48          48
                49          49
                50          50
                51          51
                52          52
                53          53
                54          54
                55          55
                56          56
                57          57
                58          58
                59          59
                60          60
                61          61
                62          62
                63          63
                64          64
                65          65
                66          66
                67          67
                68          68
                69          69
                70          70
                71          71
                72          72

----------------------------------------------------------------------------------------

 
 
 KPOINTS: gamma-point-only calculation. no periodi

Automatic generation of k-mesh.
Space group operators:
 irot       det(A)        alpha          n_x          n_y          n_z        tau_x        tau_y        tau_z
    1     1.000000     0.000000     1.000000     0.000000     0.000000     0.000000     0.000000     0.000000
    2    -1.000000   180.000000     0.908369    -0.418170     0.000000     0.111032    -0.000000     0.000000
 
 Subroutine IBZKPT returns following result:
 ===========================================
 
 Found      1 irreducible k-points:
 
 Following reciprocal coordinates:
            Coordinates               Weight
  0.000000  0.000000  0.000000      1.000000
 
 Following cartesian coordinates:
            Coordinates               Weight
  0.000000  0.000000  0.000000      1.000000
 


--------------------------------------------------------------------------------------------------------




 Dimension of arrays:
   k-points           NKPTS =      1   k-points in BZ     NKDIM =      1   number of bands    NBANDS=    480
   number of dos      NEDOS =    301   number of ions     NIONS =     72
   non local maximal  LDIM  =      6   non local SUM 2l+1 LMDIM =     18
   total plane-waves  NPLWV = 324000
   max r-space proj   IRMAX =   1843   max aug-charges    IRDMAX=   5322
   dimension x,y,z NGX =    50 NGY =   60 NGZ =  108
   dimension x,y,z NGXF=   100 NGYF=  120 NGZF=  216
   support grid    NGXF=   100 NGYF=  120 NGZF=  216
   ions per type =              36  36
   NGX,Y,Z   is equivalent  to a cutoff of   8.68,  8.71,  8.98 a.u.
   NGXF,Y,Z  is equivalent  to a cutoff of  17.36, 17.42, 17.96 a.u.

 SYSTEM =  "Millerite NiS"                         
 POSCAR =  Structure 1 made from 0-21-4.xsd file   

 Startparameter for this run:
   NWRITE =      2    write-flag & timer
   PREC   = normal    normal or accurate (medium, high low for compatibility)
   ISTART =      0    job   : 0-new  1-cont  2-samecut
   ICHARG =      2    charge: 1-file 2-atom 10-const
   ISPIN  =      1    spin polarized calculation?
   LNONCOLLINEAR =      F non collinear calculations
   LSORBIT =      F    spin-orbit coupling
   INIWAV =      1    electr: 0-lowe 1-rand  2-diag
   LASPH  =      F    aspherical Exc in radial PAW
   METAGGA=      F    non-selfconsistent MetaGGA calc.

 Electronic Relaxation 1
   ENCUT  =  450.0 eV  33.07 Ry    5.75 a.u.  16.57 19.81 34.59*2*pi/ulx,y,z
   ENINI  =  450.0     initial cutoff
   ENAUG  =  703.4 eV  augmentation charge cutoff
   NELM   =    100;   NELMIN=  2; NELMDL= -5     # of ELM steps 
   EDIFF  = 0.1E-03   stopping-criterion for ELM
   LREAL  =      T    real-space projection
   NLSPLINE    = F    spline interpolate recip. space projectors
   LCOMPAT=      F    compatible to vasp.4.4
   GGA_COMPAT  = T    GGA compatible to vasp.4.4-vasp.4.6
   LMAXPAW     = -100 max onsite density
   LMAXMIX     =    2 max onsite mixed and CHGCAR
   VOSKOWN=      0    Vosko Wilk Nusair interpolation
   ROPT   =   -0.00050  -0.00050
 Ionic relaxation
   EDIFFG = 0.1E-02   stopping-criterion for IOM
   NSW    =      0    number of steps for IOM
   NBLOCK =      1;   KBLOCK =      1    inner block; outer block 
   IBRION =     -1    ionic relax: 0-MD 1-quasi-New 2-CG
   NFREE  =      0    steps in history (QN), initial steepest desc. (CG)
   ISIF   =      2    stress and relaxation
   IWAVPR =     10    prediction:  0-non 1-charg 2-wave 3-comb
   ISYM   =      2    0-nonsym 1-usesym 2-fastsym
   LCORR  =      T    Harris-Foulkes like correction to forces

   POTIM  = 0.5000    time-step for ionic-motion
   TEIN   =    0.0    initial temperature
   TEBEG  =    0.0;   TEEND  =   0.0 temperature during run
   SMASS  =  -3.00    Nose mass-parameter (am)
   estimated Nose-frequenzy (Omega)   =  0.10E-29 period in steps = 0.13E+47 mass=  -0.210E-26a.u.
   SCALEE = 1.0000    scale energy and forces
   NPACO  =    256;   APACO  = 16.0  distance and # of slots for P.C.
   PSTRESS=    0.0 pullay stress

  Mass of Ions in am
   POMASS =  58.69 32.07
  Ionic Valenz
   ZVAL   =  16.00  6.00
  Atomic Wigner-Seitz radii
   RWIGS  =  -1.00 -1.00
  virtual crystal weights 
   VCA    =   1.00  1.00
   NELECT =     792.0000    total number of electrons
   NUPDOWN=      -1.0000    fix difference up-down

 DOS related values:
   EMIN   =  10.00;   EMAX   =-10.00  energy-range for DOS
   EFERMI =   0.00
   ISMEAR =     0;   SIGMA  =   0.20  broadening in eV -4-tet -1-fermi 0-gaus

 Electronic relaxation 2 (details)
   IALGO  =     38    algorithm
   LDIAG  =      T    sub-space diagonalisation (order eigenvalues)
   LSUBROT=      F    optimize rotation matrix (better conditioning)
   TURBO    =      0    0=normal 1=particle mesh
   IRESTART =      0    0=no restart 2=restart with 2 vectors
   NREBOOT  =      0    no. of reboots
   NMIN     =      0    reboot dimension
   EREF     =   0.00    reference energy to select bands
   IMIX   =      4    mixing-type and parameters
     AMIX     =   0.40;   BMIX     =  1.00
     AMIX_MAG =   1.60;   BMIX_MAG =  1.00
     AMIN     =   0.10
     WC   =   100.;   INIMIX=   1;  MIXPRE=   1;  MAXMIX= -45

 Intra band minimization:
   WEIMIN = 0.0000     energy-eigenvalue tresh-hold
   EBREAK =  0.52E-07  absolut break condition
   DEPER  =   0.30     relativ break condition  

   TIME   =   0.40     timestep for ELM

  volume/ion in A,a.u.               =      27.68       186.76
  Fermi-wavevector in a.u.,A,eV,Ry     =   1.203667  2.274601 19.712313  1.448814
  Thomas-Fermi vector in A             =   2.339414
 
 Write flags
   LWAVE        =      F    write WAVECAR
   LDOWNSAMPLE  =      F    k-point downsampling of WAVECAR
   LCHARG       =      F    write CHGCAR
   LVTOT        =      F    write LOCPOT, total local potential
   LVHAR        =      F    write LOCPOT, Hartree potential only
   LELF         =      F    write electronic localiz. function (ELF)
   LORBIT       =      0    0 simple, 1 ext, 2 COOP (PROOUT), +10 PAW based schemes


 Dipole corrections
   LMONO  =      F    monopole corrections only (constant potential shift)
   LDIPOL =      F    correct potential (dipole corrections)
   IDIPOL =      0    1-x, 2-y, 3-z, 4-all directions 
   EPSILON=  1.0000000 bulk dielectric constant

 Exchange correlation treatment:
   GGA     =    --    GGA type
   LEXCH   =     8    internal setting for exchange type
   VOSKOWN=      0    Vosko Wilk Nusair interpolation
   LHFCALC =     F    Hartree Fock is set to
   LHFONE  =     F    Hartree Fock one center treatment
   AEXX    =    0.0000 exact exchange contribution

 Linear response parameters
   LEPSILON=     F    determine dielectric tensor
   LRPA    =     F    only Hartree local field effects (RPA)
   LNABLA  =     F    use nabla operator in PAW spheres
   LVEL    =     F    velocity operator in full k-point grid
   LINTERFAST=   F  fast interpolation
   KINTER  =     0    interpolate to denser k-point grid
   CSHIFT  =0.1000    complex shift for real part using Kramers Kronig
   OMEGAMAX=  -1.0    maximum frequency
   DEG_THRESHOLD= 0.2000000E-02 threshold for treating states as degnerate
   RTIME   =   -0.100 relaxation time in fs
  (WPLASMAI=    0.000 imaginary part of plasma frequency in eV, 0.658/RTIME)
   DFIELD  = 0.0000000 0.0000000 0.0000000 field for delta impulse in time
 
 Orbital magnetization related:
   ORBITALMAG=     F  switch on orbital magnetization
   LCHIMAG   =     F  perturbation theory with respect to B field
   DQ        =  0.001000  dq finite difference perturbation B field
   LLRAUG    =     F  two centre corrections for induced B field



--------------------------------------------------------------------------------------------------------


 Static calculation
 charge density and potential will be updated during run
 non-spin polarized calculation
 Variant of blocked Davidson
 Davidson routine will perform the subspace rotation
 perform sub-space diagonalisation
    after iterative eigenvector-optimisation
 modified Broyden-mixing scheme, WC =      100.0
 initial mixing is a Kerker type mixing with AMIX =  0.4000 and BMIX =      1.0000
 Hartree-type preconditioning will be used
 using additional bands           84
 real space projection scheme for non local part
 use partial core corrections
 calculate Harris-corrections to forces 
   (improved forces if not selfconsistent)
 use gradient corrections 
 use of overlap-Matrix (Vanderbilt PP)
 Gauss-broadening in eV      SIGMA  =   0.20


--------------------------------------------------------------------------------------------------------


  energy-cutoff  :      450.00
  volume of cell :     1992.65
      direct lattice vectors                 reciprocal lattice vectors
     8.700730798 -4.005399070  0.000000000     0.114932874  0.000000000  0.000000000
     0.000000000 11.452783670  0.000000000     0.040195645  0.087315017  0.000000000
     0.000000000  0.000000000 19.996955965     0.000000000  0.000000000  0.050007611

  length of vectors
     9.578410000 11.452783670 19.996955965     0.114932874  0.096122849  0.050007611


 
 k-points in units of 2pi/SCALE and weight: gamma-point-only calculation. no periodi
   0.00000000  0.00000000  0.00000000       1.000
 
 k-points in reciprocal lattice and weights: gamma-point-only calculation. no periodi
   0.00000000  0.00000000  0.00000000       1.000
 
 position of ions in fractional coordinates (direct lattice) 
   0.63793591  0.42904558  0.05114817
   0.72899292  0.61115959  0.17632295
   0.82004993  0.79327361  0.30149774
   0.91110694  0.97538762  0.42667252
   0.45636426  0.06590227  0.25977281
   0.54742127  0.24801628  0.38494759
   0.27425025  0.70167424  0.00942324
   0.36530725  0.88378825  0.13459803
   0.00162159  0.15641692  0.09287310
   0.09267859  0.33853093  0.21804788
   0.18373560  0.52064495  0.34322267
   0.27479261  0.70275896  0.46839745
   0.68605153  0.26107081  0.11729203
   0.77710854  0.44318482  0.24246681
   0.86816555  0.62529884  0.36764160
   0.95922255  0.80741285  0.49281638
   0.59553688  0.08004151  0.45109145
   0.32236586  0.53369947  0.07556710
   0.41342287  0.71581348  0.20074188
   0.50447988  0.89792750  0.32591667
   0.14079421  0.17055616  0.28419174
   0.23185121  0.35267018  0.40936652
   0.04973720  0.98844215  0.15901695
   0.95868019  0.80632813  0.03384217
   0.08425593  0.79327361  0.30149774
   0.17531294  0.97538762  0.42667252
   0.90214192  0.42904558  0.05114817
   0.99319892  0.61115959  0.17632295
   0.72057026  0.06590227  0.25977281
   0.81162727  0.24801628  0.38494759
   0.53845625  0.70167424  0.00942324
   0.62951325  0.88378825  0.13459803
   0.26582758  0.15641692  0.09287310
   0.35688459  0.33853093  0.21804788
   0.44794160  0.52064495  0.34322267
   0.53899861  0.70275896  0.46839745
   0.01340710  0.57935194  0.29207450
   0.10446411  0.76146596  0.41724928
   0.83129308  0.21512391  0.04172493
   0.92235009  0.39723793  0.16689971
   0.74077844  0.03409462  0.37552435
   0.46760741  0.48775257  0.00000000
   0.55866442  0.66986659  0.12517478
   0.64972143  0.85198060  0.25034957
   0.28603576  0.12460927  0.20862464
   0.37709277  0.30672328  0.33379942
   0.46814978  0.48883730  0.45897421
   0.19497875  0.94249525  0.08344986
   0.13425249  0.15747274  0.45819896
   0.04319549  0.97535872  0.33302417
   0.86108147  0.61113069  0.08267461
   0.95213848  0.79324471  0.20784939
   0.58845281  0.06587337  0.16612446
   0.67950982  0.24798738  0.29129925
   0.77056683  0.43010140  0.41647403
   0.49739580  0.88375935  0.04094968
   0.22476714  0.33850203  0.12439954
   0.31582415  0.52061604  0.24957432
   0.40688116  0.70273006  0.37474910
   0.49793816  0.88484407  0.49992389
   0.49486308  0.21512391  0.04172493
   0.58592009  0.39723793  0.16689971
   0.67697710  0.57935194  0.29207450
   0.76803411  0.76146596  0.41724928
   0.40434844  0.03409462  0.37552435
   0.13117741  0.48775257  0.00000000
   0.22223442  0.66986659  0.12517478
   0.31329143  0.85198060  0.25034957
   0.04066277  0.30672328  0.33379942
   0.13171978  0.48883730  0.45897421
   0.94960576  0.12460927  0.20862464
   0.85854875  0.94249525  0.08344986
 
 position of ions in cartesian coordinates  (Angst):
   5.55050866  2.35857826  1.02280768
   6.34277118  4.07957102  3.52592233
   7.13503369  5.80056378  6.02903699
   7.92729620  7.52155655  8.53215163
   3.97070258 -1.07315656  5.19466544
   4.76296509  0.64783621  7.69778009
   2.38617756  6.93764157  0.18843614
   3.17844008  8.65863434  2.69155078
   0.01410897  1.78491399  1.85717923
   0.80637148  3.50590676  4.36029387
   1.59863399  5.22689952  6.86340854
   2.39089650  6.94789229  9.36652318
   5.96914968  0.24207732  2.34548350
   6.76141219  1.96307009  4.84859814
   7.55367470  3.68406285  7.35171281
   8.34593722  5.40505561  9.85482745
   5.18160611 -1.46866473  9.02045590
   2.80481858  4.82114064  1.51111195
   3.59708109  6.54213341  4.01422659
   4.38934360  8.26312618  6.51734126
   1.22501250  1.38940583  5.68296971
   2.01727501  3.11039859  8.18608435
   0.43274999 11.12119673  3.17985505
   8.34121827  5.39480490  0.67674040
   0.73308817  8.74771238  6.02903699
   1.52535068 10.46870515  8.53215163
   7.84929394  1.30032779  1.02280768
   8.64155646  3.02132055  3.52592233
   6.26948786 -2.13140702  5.19466544
   7.06175038 -0.41041426  7.69778009
   4.68496284  5.87939111  0.18843614
   5.47722536  7.60038387  2.69155078
   2.31289426  0.72666353  1.85717923
   3.10515676  2.44765629  4.36029387
   3.89741927  4.16864906  6.86340854
   4.68968178  5.88964182  9.36652318
   0.11665155  6.58149168  5.84060083
   0.90891406  8.30248446  8.34371550
   7.23285733 -0.86589292  0.83437155
   8.02511984  0.85509985  3.33748619
   6.44531376 -2.57663497  7.50934395
   4.06852623  3.71317041  0.00000000
   4.86078874  5.43416318  2.50311464
   5.65305125  7.15515594  5.00622929
   2.48872015  0.28143560  4.17185774
   3.28098265  2.00242837  6.67497238
   4.07324517  3.72342113  9.17808705
   1.69645763 10.01322651  1.66874310
   1.16809482  1.26576637  9.16258441
   0.37583231 10.99755727  6.65946976
   7.49203809  3.55017267  1.65324048
   8.28430060  5.27116543  4.15635512
   5.11996950 -1.60255491  3.32198357
   5.91223201  0.11843785  5.82509821
   6.70449451  1.83943062  8.32821286
   4.32770698  8.12923600  0.81886893
   1.95563839  2.97650842  2.48761202
   2.74790090  4.69750119  4.99072667
   3.54016341  6.41849395  7.49384131
   4.33242592  8.13948671  9.99695597
   4.30567047  0.48164349  0.83437155
   5.09793298  2.20263626  3.33748619
   5.89019549  3.92362902  5.84060083
   6.68245800  5.64462180  8.34371550
   3.51812690 -1.22909856  7.50934395
   1.14133937  5.06070682  0.00000000
   1.93360188  6.78169958  2.50311464
   2.72586439  8.50269235  5.00622929
   0.35379579  3.34996477  6.67497238
   1.14605830  5.07095754  9.17808705
   8.26226408 -2.37642706  4.17185774
   7.47000157  7.35536385  1.66874310
 


--------------------------------------------------------------------------------------------------------


 use parallel FFT for orbitals z direction half grid
 k-point   1 :   0.0000 0.0000 0.0000  plane waves:   21612

 maximum and minimum number of plane-waves per node :      3606     3598

 maximum number of plane-waves:     21612
 maximum index in each direction: 
   IXMAX=   16   IYMAX=   19   IZMAX=   34
   IXMIN=  -16   IYMIN=  -19   IZMIN=    0


 real space projection operators:
  total allocation   :      11317.08 KBytes
  max/ min on nodes  :       2043.03       1807.23


 parallel 3D FFT for wavefunctions:
    minimum data exchange during FFTs selected (reduces bandwidth)
 parallel 3D FFT for charge:
    minimum data exchange during FFTs selected (reduces bandwidth)


 total amount of memory used by VASP MPI-rank0    46570. kBytes
=======================================================================

   base      :      30000. kBytes
   nonlr-proj:       2496. kBytes
   fftplans  :       3717. kBytes
   grid      :       6724. kBytes
   one-center:         93. kBytes
   wavefun   :       3540. kBytes
 
     INWAV:  cpu time    0.0000: real time    0.0000
 Broyden mixing: mesh for mixing (old mesh)
   NGX = 33   NGY = 39   NGZ = 69
  (NGX  =100   NGY  =120   NGZ  =216)
  gives a total of  88803 points

 initial charge density was supplied:
 charge density of overlapping atoms calculated
 number of electron     792.0000000 magnetization 
 keeping initial charge density in first step


--------------------------------------------------------------------------------------------------------


 Maximum index for non-local projection operator          397
 Maximum index for augmentation-charges          604 (set IRDMAX)


--------------------------------------------------------------------------------------------------------


 First call to EWALD:  gamma=   0.141
 Maximum number of real-space cells 4x 3x 2
 Maximum number of reciprocal cells 2x 3x 4

    FEWALD:  cpu time    0.0030: real time    0.0030


--------------------------------------- Iteration      1(   1)  ---------------------------------------


    POTLOK:  cpu time    0.0500: real time    0.0556
    SETDIJ:  cpu time    0.0051: real time    0.0070
     EDDAV:  cpu time    2.1111: real time    2.1188
       DOS:  cpu time    0.0007: real time    0.0008
    --------------------------------------------
      LOOP:  cpu time    2.1670: real time    2.1822

 eigenvalue-minimisations  :  1168
 total energy-change (2. order) : 0.9701030E+04  (-0.5076785E+05)
 number of electron     792.0000000 magnetization 
 augmentation part      792.0000000 magnetization 

 Free energy of the ion-electron system (eV)
  ---------------------------------------------------
  alpha Z        PSCENC =      1866.81181918
  Ewald energy   TEWEN  =    160536.47795687
  -Hartree energ DENC   =   -282996.60939851
  -exchange      EXHF   =         0.00000000
  -V(xc)+E(xc)   XCENC  =      3653.00112503
  PAW double counting   =    112729.53333415  -117641.51188735
  entropy T*S    EENTRO =        -0.37719673
  eigenvalues    EBANDS =     -4448.90127059
  atomic energy  EATOM  =    136002.60505376
  Solvation  Ediel_sol  =         0.00000000
  ---------------------------------------------------
  free energy    TOTEN  =      9701.02953581 eV

  energy without entropy =     9701.40673255  energy(sigma->0) =     9701.21813418


--------------------------------------------------------------------------------------------------------




--------------------------------------- Iteration      1(   2)  ---------------------------------------


     EDDAV:  cpu time    1.8803: real time    1.8884
       DOS:  cpu time    0.0007: real time    0.0007
    --------------------------------------------
      LOOP:  cpu time    1.8810: real time    1.8890

 eigenvalue-minimisations  :  1008
 total energy-change (2. order) :-0.9098435E+04  (-0.8779322E+04)
 number of electron     792.0000000 magnetization 
 augmentation part      792.0000000 magnetization 

 Free energy of the ion-electron system (eV)
  ---------------------------------------------------
  alpha Z        PSCENC =      1866.81181918
  Ewald energy   TEWEN  =    160536.47795687
  -Hartree energ DENC   =   -282996.60939851
  -exchange      EXHF   =         0.00000000
  -V(xc)+E(xc)   XCENC  =      3653.00112503
  PAW double counting   =    112729.53333415  -117641.51188735
  entropy T*S    EENTRO =        -0.81992707
  eigenvalues    EBANDS =    -13546.89374058
  atomic energy  EATOM  =    136002.60505376
  Solvation  Ediel_sol  =         0.00000000
  ---------------------------------------------------
  free energy    TOTEN  =       602.59433549 eV

  energy without entropy =      603.41426256  energy(sigma->0) =      603.00429902


--------------------------------------------------------------------------------------------------------




--------------------------------------- Iteration      1(   3)  ---------------------------------------


     EDDAV:  cpu time    1.9966: real time    2.0037
       DOS:  cpu time    0.0006: real time    0.0006
    --------------------------------------------
      LOOP:  cpu time    1.9972: real time    2.0042

 eigenvalue-minimisations  :  1104
 total energy-change (2. order) :-0.9482589E+03  (-0.8930664E+03)
 number of electron     792.0000000 magnetization 
 augmentation part      792.0000000 magnetization 

 Free energy of the ion-electron system (eV)
  ---------------------------------------------------
  alpha Z        PSCENC =      1866.81181918
  Ewald energy   TEWEN  =    160536.47795687
  -Hartree energ DENC   =   -282996.60939851
  -exchange      EXHF   =         0.00000000
  -V(xc)+E(xc)   XCENC  =      3653.00112503
  PAW double counting   =    112729.53333415  -117641.51188735
  entropy T*S    EENTRO =        -1.17130514
  eigenvalues    EBANDS =    -14494.80128358
  atomic energy  EATOM  =    136002.60505376
  Solvation  Ediel_sol  =         0.00000000
  ---------------------------------------------------
  free energy    TOTEN  =      -345.66458558 eV

  energy without entropy =     -344.49328044  energy(sigma->0) =     -345.07893301


--------------------------------------------------------------------------------------------------------




--------------------------------------- Iteration      1(   4)  ---------------------------------------


     EDDAV:  cpu time    2.0167: real time    2.0232
       DOS:  cpu time    0.0006: real time    0.0006
    --------------------------------------------
      LOOP:  cpu time    2.0173: real time    2.0237

 eigenvalue-minimisations  :  1096
 total energy-change (2. order) :-0.6050863E+02  (-0.5974657E+02)
 number of electron     792.0000000 magnetization 
 augmentation part      792.0000000 magnetization 

 Free energy of the ion-electron system (eV)
  ---------------------------------------------------
  alpha Z        PSCENC =      1866.81181918
  Ewald energy   TEWEN  =    160536.47795687
  -Hartree energ DENC   =   -282996.60939851
  -exchange      EXHF   =         0.00000000
  -V(xc)+E(xc)   XCENC  =      3653.00112503
  PAW double counting   =    112729.53333415  -117641.51188735
  entropy T*S    EENTRO =        -1.23671449
  eigenvalues    EBANDS =    -14555.24450492
  atomic energy  EATOM  =    136002.60505376
  Solvation  Ediel_sol  =         0.00000000
  ---------------------------------------------------
  free energy    TOTEN  =      -406.17321628 eV

  energy without entropy =     -404.93650178  energy(sigma->0) =     -405.55485903


--------------------------------------------------------------------------------------------------------




--------------------------------------- Iteration      1(   5)  ---------------------------------------


     EDDAV:  cpu time    2.1689: real time    2.1758
       DOS:  cpu time    0.0007: real time    0.0006
    CHARGE:  cpu time    0.0771: real time    0.0772
    MIXING:  cpu time    0.0023: real time    0.0027
    --------------------------------------------
      LOOP:  cpu time    2.2489: real time    2.2564

 eigenvalue-minimisations  :  1232
 total energy-change (2. order) :-0.2457691E+01  (-0.2453916E+01)
 number of electron     792.0000682 magnetization 
 augmentation part      286.0737137 magnetization 

 Broyden mixing:
  rms(total) = 0.82452E+01    rms(broyden)= 0.82294E+01
  rms(prec ) = 0.86869E+01
  weight for this iteration     100.00

 Free energy of the ion-electron system (eV)
  ---------------------------------------------------
  alpha Z        PSCENC =      1866.81181918
  Ewald energy   TEWEN  =    160536.47795687
  -Hartree energ DENC   =   -282996.60939851
  -exchange      EXHF   =         0.00000000
  -V(xc)+E(xc)   XCENC  =      3653.00112503
  PAW double counting   =    112729.53333415  -117641.51188735
  entropy T*S    EENTRO =        -1.23930445
  eigenvalues    EBANDS =    -14557.69960551
  atomic energy  EATOM  =    136002.60505376
  Solvation  Ediel_sol  =         0.00000000
  ---------------------------------------------------
  free energy    TOTEN  =      -408.63090682 eV

  energy without entropy =     -407.39160237  energy(sigma->0) =     -408.01125459


--------------------------------------------------------------------------------------------------------




--------------------------------------- Iteration      1(   6)  ---------------------------------------


    POTLOK:  cpu time    0.0440: real time    0.0441
    SETDIJ:  cpu time    0.0044: real time    0.0062
     EDDAV:  cpu time    2.0669: real time    2.0719
       DOS:  cpu time    0.0006: real time    0.0006
    CHARGE:  cpu time    0.0762: real time    0.0764
    MIXING:  cpu time    0.0018: real time    0.0019
    --------------------------------------------
      LOOP:  cpu time    2.1940: real time    2.2011

 eigenvalue-minimisations  :  1160
 total energy-change (2. order) :-0.8211477E+02  (-0.9719140E+02)
 number of electron     792.0001023 magnetization 
 augmentation part      352.3004546 magnetization 

 Broyden mixing:
  rms(total) = 0.15824E+02    rms(broyden)= 0.15820E+02
  rms(prec ) = 0.16496E+02
  weight for this iteration     100.00

 eigenvalues of (default mixing * dielectric matrix)
  average eigenvalue GAMMA=   0.2260
  0.2260

 Free energy of the ion-electron system (eV)
  ---------------------------------------------------
  alpha Z        PSCENC =      1866.81181918
  Ewald energy   TEWEN  =    160536.47795687
  -Hartree energ DENC   =   -280211.98704391
  -exchange      EXHF   =         0.00000000
  -V(xc)+E(xc)   XCENC  =      3575.69681271
  PAW double counting   =    114554.90773217  -119225.78721939
  entropy T*S    EENTRO =        -0.83199461
  eigenvalues    EBANDS =    -17588.63879198
  atomic energy  EATOM  =    136002.60505376
  Solvation  Ediel_sol  =         0.00000000
  ---------------------------------------------------
  free energy    TOTEN  =      -490.74567521 eV

  energy without entropy =     -489.91368060  energy(sigma->0) =     -490.32967790


--------------------------------------------------------------------------------------------------------




--------------------------------------- Iteration      1(   7)  ---------------------------------------


    POTLOK:  cpu time    0.0431: real time    0.0432
    SETDIJ:  cpu time    0.0051: real time    0.0051
     EDDAV:  cpu time    2.0461: real time    2.0528
       DOS:  cpu time    0.0006: real time    0.0006
    CHARGE:  cpu time    0.0788: real time    0.0790
    MIXING:  cpu time    0.0018: real time    0.0018
    --------------------------------------------
      LOOP:  cpu time    2.1755: real time    2.1825

 eigenvalue-minimisations  :  1128
 total energy-change (2. order) : 0.1122271E+03  (-0.1802776E+02)
 number of electron     792.0000898 magnetization 
 augmentation part      331.9979312 magnetization 

 Broyden mixing:
  rms(total) = 0.62475E+01    rms(broyden)= 0.62458E+01
  rms(prec ) = 0.65963E+01
  weight for this iteration     100.00

 eigenvalues of (default mixing * dielectric matrix)
  average eigenvalue GAMMA=   0.5029
  0.5029  0.5029

 Free energy of the ion-electron system (eV)
  ---------------------------------------------------
  alpha Z        PSCENC =      1866.81181918
  Ewald energy   TEWEN  =    160536.47795687
  -Hartree energ DENC   =   -281430.14116998
  -exchange      EXHF   =         0.00000000
  -V(xc)+E(xc)   XCENC  =      3604.46348542
  PAW double counting   =    118644.47318511  -123459.73157019
  entropy T*S    EENTRO =        -0.83761981
  eigenvalues    EBANDS =    -16142.63970609
  atomic energy  EATOM  =    136002.60505376
  Solvation  Ediel_sol  =         0.00000000
  ---------------------------------------------------
  free energy    TOTEN  =      -378.51856572 eV

  energy without entropy =     -377.68094591  energy(sigma->0) =     -378.09975582


--------------------------------------------------------------------------------------------------------




--------------------------------------- Iteration      1(   8)  ---------------------------------------


    POTLOK:  cpu time    0.0444: real time    0.0465
    SETDIJ:  cpu time    0.0055: real time    0.0063
     EDDAV:  cpu time    2.4426: real time    2.4504
       DOS:  cpu time    0.0006: real time    0.0006
    CHARGE:  cpu time    0.0752: real time    0.0754
    MIXING:  cpu time    0.0019: real time    0.0019
    --------------------------------------------
      LOOP:  cpu time    2.5703: real time    2.5811

 eigenvalue-minimisations  :  1416
 total energy-change (2. order) :-0.1086881E+03  (-0.1506215E+02)
 number of electron     792.0000842 magnetization 
 augmentation part      304.7429403 magnetization 

 Broyden mixing:
  rms(total) = 0.16637E+02    rms(broyden)= 0.16634E+02
  rms(prec ) = 0.20929E+02
  weight for this iteration     100.00

 eigenvalues of (default mixing * dielectric matrix)
  average eigenvalue GAMMA=   0.4114
  0.6776  0.4576  0.0991

 Free energy of the ion-electron system (eV)
  ---------------------------------------------------
  alpha Z        PSCENC =      1866.81181918
  Ewald energy   TEWEN  =    160536.47795687
  -Hartree energ DENC   =   -281974.21577817
  -exchange      EXHF   =         0.00000000
  -V(xc)+E(xc)   XCENC  =      3626.56219398
  PAW double counting   =    123917.63650474  -128842.76275254
  entropy T*S    EENTRO =        -0.72295182
  eigenvalues    EBANDS =    -15619.59871583
  atomic energy  EATOM  =    136002.60505376
  Solvation  Ediel_sol  =         0.00000000
  ---------------------------------------------------
  free energy    TOTEN  =      -487.20666983 eV

  energy without entropy =     -486.48371801  energy(sigma->0) =     -486.84519392


--------------------------------------------------------------------------------------------------------




--------------------------------------- Iteration      1(   9)  ---------------------------------------


    POTLOK:  cpu time    0.0439: real time    0.0457
    SETDIJ:  cpu time    0.0049: real time    0.0049
     EDDAV:  cpu time    2.1241: real time    2.1292
       DOS:  cpu time    0.0006: real time    0.0006
    CHARGE:  cpu time    0.0756: real time    0.0758
    MIXING:  cpu time    0.0018: real time    0.0018
    --------------------------------------------
      LOOP:  cpu time    2.2509: real time    2.2579

 eigenvalue-minimisations  :  1200
 total energy-change (2. order) : 0.1117148E+03  (-0.1773377E+02)
 number of electron     792.0000798 magnetization 
 augmentation part      307.6828256 magnetization 

 Broyden mixing:
  rms(total) = 0.76452E+01    rms(broyden)= 0.76390E+01
  rms(prec ) = 0.88706E+01
  weight for this iteration     100.00

 eigenvalues of (default mixing * dielectric matrix)
  average eigenvalue GAMMA=   0.3901
  0.8806  0.3862  0.2158  0.0780

 Free energy of the ion-electron system (eV)
  ---------------------------------------------------
  alpha Z        PSCENC =      1866.81181918
  Ewald energy   TEWEN  =    160536.47795687
  -Hartree energ DENC   =   -282079.82945828
  -exchange      EXHF   =         0.00000000
  -V(xc)+E(xc)   XCENC  =      3626.74372137
  PAW double counting   =    125491.29929748  -130430.84343750
  entropy T*S    EENTRO =        -1.26962577
  eigenvalues    EBANDS =    -15387.48722854
  atomic energy  EATOM  =    136002.60505376
  Solvation  Ediel_sol  =         0.00000000
  ---------------------------------------------------
  free energy    TOTEN  =      -375.49190143 eV

  energy without entropy =     -374.22227565  energy(sigma->0) =     -374.85708854


--------------------------------------------------------------------------------------------------------




--------------------------------------- Iteration      1(  10)  ---------------------------------------


    POTLOK:  cpu time    0.0430: real time    0.0431
    SETDIJ:  cpu time    0.0049: real time    0.0049
     EDDAV:  cpu time    2.2781: real time    2.2836
       DOS:  cpu time    0.0006: real time    0.0006
    CHARGE:  cpu time    0.0756: real time    0.0758
    MIXING:  cpu time    0.0019: real time    0.0019
    --------------------------------------------
      LOOP:  cpu time    2.4041: real time    2.4099

 eigenvalue-minimisations  :  1312
 total energy-change (2. order) :-0.1386099E+01  (-0.6774715E+01)
 number of electron     792.0000790 magnetization 
 augmentation part      307.0858987 magnetization 

 Broyden mixing:
  rms(total) = 0.52353E+01    rms(broyden)= 0.52317E+01
  rms(prec ) = 0.58066E+01
  weight for this iteration     100.00

 eigenvalues of (default mixing * dielectric matrix)
  average eigenvalue GAMMA=   0.5579
  1.7750  0.4118  0.4118  0.0954  0.0954

 Free energy of the ion-electron system (eV)
  ---------------------------------------------------
  alpha Z        PSCENC =      1866.81181918
  Ewald energy   TEWEN  =    160536.47795687
  -Hartree energ DENC   =   -282151.07823474
  -exchange      EXHF   =         0.00000000
  -V(xc)+E(xc)   XCENC  =      3626.21327896
  PAW double counting   =    126810.30244767  -131761.95495966
  entropy T*S    EENTRO =        -1.03274230
  eigenvalues    EBANDS =    -15305.22261978
  atomic energy  EATOM  =    136002.60505376
  Solvation  Ediel_sol  =         0.00000000
  ---------------------------------------------------
  free energy    TOTEN  =      -376.87800004 eV

  energy without entropy =     -375.84525774  energy(sigma->0) =     -376.36162889


--------------------------------------------------------------------------------------------------------




--------------------------------------- Iteration      1(  11)  ---------------------------------------


    POTLOK:  cpu time    0.0429: real time    0.0430
    SETDIJ:  cpu time    0.0049: real time    0.0049
     EDDAV:  cpu time    2.2774: real time    2.2828
       DOS:  cpu time    0.0006: real time    0.0006
    CHARGE:  cpu time    0.0782: real time    0.0784
    MIXING:  cpu time    0.0021: real time    0.0021
    --------------------------------------------
      LOOP:  cpu time    2.4061: real time    2.4119

 eigenvalue-minimisations  :  1304
 total energy-change (2. order) : 0.3404036E+01  (-0.2545151E+01)
 number of electron     792.0000961 magnetization 
 augmentation part      309.9847486 magnetization 

 Broyden mixing:
  rms(total) = 0.69707E+01    rms(broyden)= 0.69677E+01
  rms(prec ) = 0.82741E+01
  weight for this iteration     100.00

 eigenvalues of (default mixing * dielectric matrix)
  average eigenvalue GAMMA=   0.5172
  1.9513  0.4159  0.4159  0.1203  0.1203  0.0794

 Free energy of the ion-electron system (eV)
  ---------------------------------------------------
  alpha Z        PSCENC =      1866.81181918
  Ewald energy   TEWEN  =    160536.47795687
  -Hartree energ DENC   =   -282039.64793202
  -exchange      EXHF   =         0.00000000
  -V(xc)+E(xc)   XCENC  =      3622.82195119
  PAW double counting   =    130897.67255231  -135878.16933609
  entropy T*S    EENTRO =        -1.12279032
  eigenvalues    EBANDS =    -15380.92323936
  atomic energy  EATOM  =    136002.60505376
  Solvation  Ediel_sol  =         0.00000000
  ---------------------------------------------------
  free energy    TOTEN  =      -373.47396449 eV

  energy without entropy =     -372.35117416  energy(sigma->0) =     -372.91256932


--------------------------------------------------------------------------------------------------------




--------------------------------------- Iteration      1(  12)  ---------------------------------------


    POTLOK:  cpu time    0.0436: real time    0.0441
    SETDIJ:  cpu time    0.0049: real time    0.0049
     EDDAV:  cpu time    2.2583: real time    2.2646
       DOS:  cpu time    0.0006: real time    0.0006
    CHARGE:  cpu time    0.0779: real time    0.0781
    MIXING:  cpu time    0.0022: real time    0.0022
    --------------------------------------------
      LOOP:  cpu time    2.3874: real time    2.3945

 eigenvalue-minimisations  :  1296
 total energy-change (2. order) : 0.3371246E+01  (-0.3484299E+01)
 number of electron     792.0000783 magnetization 
 augmentation part      312.4872997 magnetization 

 Broyden mixing:
  rms(total) = 0.36231E+01    rms(broyden)= 0.36212E+01
  rms(prec ) = 0.41482E+01
  weight for this iteration     100.00

 eigenvalues of (default mixing * dielectric matrix)
  average eigenvalue GAMMA=   0.5199
  2.1321  0.4185  0.4185  0.3658  0.1276  0.0814  0.0954

 Free energy of the ion-electron system (eV)
  ---------------------------------------------------
  alpha Z        PSCENC =      1866.81181918
  Ewald energy   TEWEN  =    160536.47795687
  -Hartree energ DENC   =   -282062.88467765
  -exchange      EXHF   =         0.00000000
  -V(xc)+E(xc)   XCENC  =      3621.63495702
  PAW double counting   =    131704.48890006  -136688.57761744
  entropy T*S    EENTRO =        -0.92823796
  eigenvalues    EBANDS =    -15349.73087188
  atomic energy  EATOM  =    136002.60505376
  Solvation  Ediel_sol  =         0.00000000
  ---------------------------------------------------
  free energy    TOTEN  =      -370.10271804 eV

  energy without entropy =     -369.17448008  energy(sigma->0) =     -369.63859906


--------------------------------------------------------------------------------------------------------




--------------------------------------- Iteration      1(  13)  ---------------------------------------


    POTLOK:  cpu time    0.0436: real time    0.0448
    SETDIJ:  cpu time    0.0049: real time    0.0049
     EDDAV:  cpu time    2.1491: real time    2.1557
       DOS:  cpu time    0.0007: real time    0.0007
    CHARGE:  cpu time    0.0790: real time    0.0795
    MIXING:  cpu time    0.0024: real time    0.0024
    --------------------------------------------
      LOOP:  cpu time    2.2797: real time    2.2881

 eigenvalue-minimisations  :  1216
 total energy-change (2. order) : 0.4609496E+01  (-0.1298301E+01)
 number of electron     792.0000795 magnetization 
 augmentation part      312.9070029 magnetization 

 Broyden mixing:
  rms(total) = 0.33234E+01    rms(broyden)= 0.33215E+01
  rms(prec ) = 0.37888E+01
  weight for this iteration     100.00

 eigenvalues of (default mixing * dielectric matrix)
  average eigenvalue GAMMA=   0.5020
  2.1171  0.5070  0.4363  0.4363  0.2122  0.0810  0.1133  0.1133

 Free energy of the ion-electron system (eV)
  ---------------------------------------------------
  alpha Z        PSCENC =      1866.81181918
  Ewald energy   TEWEN  =    160536.47795687
  -Hartree energ DENC   =   -282059.10077876
  -exchange      EXHF   =         0.00000000
  -V(xc)+E(xc)   XCENC  =      3621.75987052
  PAW double counting   =    132575.43295198  -137568.94149679
  entropy T*S    EENTRO =        -0.96176954
  eigenvalues    EBANDS =    -15339.57682957
  atomic energy  EATOM  =    136002.60505376
  Solvation  Ediel_sol  =         0.00000000
  ---------------------------------------------------
  free energy    TOTEN  =      -365.49322235 eV

  energy without entropy =     -364.53145281  energy(sigma->0) =     -365.01233758


--------------------------------------------------------------------------------------------------------




--------------------------------------- Iteration      1(  14)  ---------------------------------------


    POTLOK:  cpu time    0.0438: real time    0.0452
    SETDIJ:  cpu time    0.0049: real time    0.0049
     EDDAV:  cpu time    2.2409: real time    2.2462
       DOS:  cpu time    0.0006: real time    0.0006
    CHARGE:  cpu time    0.0766: real time    0.0768
    MIXING:  cpu time    0.0021: real time    0.0021
    --------------------------------------------
      LOOP:  cpu time    2.3688: real time    2.3758

 eigenvalue-minimisations  :  1288
 total energy-change (2. order) : 0.1743863E+01  (-0.1008510E+01)
 number of electron     792.0000788 magnetization 
 augmentation part      313.1203575 magnetization 

 Broyden mixing:
  rms(total) = 0.27514E+01    rms(broyden)= 0.27487E+01
  rms(prec ) = 0.31843E+01
  weight for this iteration     100.00

 eigenvalues of (default mixing * dielectric matrix)
  average eigenvalue GAMMA=   0.4705
  2.0981  0.4699  0.4699  0.3868  0.3686  0.0810  0.1247  0.1247  0.1106

 Free energy of the ion-electron system (eV)
  ---------------------------------------------------
  alpha Z        PSCENC =      1866.81181918
  Ewald energy   TEWEN  =    160536.47795687
  -Hartree energ DENC   =   -282084.25243951
  -exchange      EXHF   =         0.00000000
  -V(xc)+E(xc)   XCENC  =      3621.99017436
  PAW double counting   =    132553.60772607  -137547.50056736
  entropy T*S    EENTRO =        -0.98099239
  eigenvalues    EBANDS =    -15312.50809003
  atomic energy  EATOM  =    136002.60505376
  Solvation  Ediel_sol  =         0.00000000
  ---------------------------------------------------
  free energy    TOTEN  =      -363.74935905 eV

  energy without entropy =     -362.76836666  energy(sigma->0) =     -363.25886286


--------------------------------------------------------------------------------------------------------




--------------------------------------- Iteration      1(  15)  ---------------------------------------


    POTLOK:  cpu time    0.0434: real time    0.0435
    SETDIJ:  cpu time    0.0048: real time    0.0048
     EDDAV:  cpu time    2.1816: real time    2.1868
       DOS:  cpu time    0.0006: real time    0.0006
    CHARGE:  cpu time    0.0773: real time    0.0775
    MIXING:  cpu time    0.0023: real time    0.0023
    --------------------------------------------
      LOOP:  cpu time    2.3100: real time    2.3155

 eigenvalue-minimisations  :  1248
 total energy-change (2. order) : 0.2601060E+01  (-0.3895482E+00)
 number of electron     792.0000801 magnetization 
 augmentation part      313.1318003 magnetization 

 Broyden mixing:
  rms(total) = 0.17865E+01    rms(broyden)= 0.17851E+01
  rms(prec ) = 0.20621E+01
  weight for this iteration     100.00

 eigenvalues of (default mixing * dielectric matrix)
  average eigenvalue GAMMA=   0.4732
  2.0532  0.6055  0.6055  0.4123  0.4123  0.1882  0.1504  0.0809  0.1121  0.1121

 Free energy of the ion-electron system (eV)
  ---------------------------------------------------
  alpha Z        PSCENC =      1866.81181918
  Ewald energy   TEWEN  =    160536.47795687
  -Hartree energ DENC   =   -282081.21027619
  -exchange      EXHF   =         0.00000000
  -V(xc)+E(xc)   XCENC  =      3622.40962777
  PAW double counting   =    132462.24241108  -137456.29026294
  entropy T*S    EENTRO =        -0.95482418
  eigenvalues    EBANDS =    -15313.23980417
  atomic energy  EATOM  =    136002.60505376
  Solvation  Ediel_sol  =         0.00000000
  ---------------------------------------------------
  free energy    TOTEN  =      -361.14829881 eV

  energy without entropy =     -360.19347462  energy(sigma->0) =     -360.67088672


--------------------------------------------------------------------------------------------------------




--------------------------------------- Iteration      1(  16)  ---------------------------------------


    POTLOK:  cpu time    0.0432: real time    0.0433
    SETDIJ:  cpu time    0.0050: real time    0.0050
     EDDAV:  cpu time    2.2130: real time    2.2183
       DOS:  cpu time    0.0006: real time    0.0006
    CHARGE:  cpu time    0.0809: real time    0.0811
    MIXING:  cpu time    0.0024: real time    0.0024
    --------------------------------------------
      LOOP:  cpu time    2.3450: real time    2.3507

 eigenvalue-minimisations  :  1264
 total energy-change (2. order) : 0.6279751E+00  (-0.2213324E+00)
 number of electron     792.0000781 magnetization 
 augmentation part      312.8693739 magnetization 

 Broyden mixing:
  rms(total) = 0.17269E+01    rms(broyden)= 0.17259E+01
  rms(prec ) = 0.19710E+01
  weight for this iteration     100.00

 eigenvalues of (default mixing * dielectric matrix)
  average eigenvalue GAMMA=   0.4665
  2.0334  0.7337  0.7337  0.4168  0.4168  0.2127  0.1609  0.0809  0.1166  0.1166
  0.1096

 Free energy of the ion-electron system (eV)
  ---------------------------------------------------
  alpha Z        PSCENC =      1866.81181918
  Ewald energy   TEWEN  =    160536.47795687
  -Hartree energ DENC   =   -282094.45212825
  -exchange      EXHF   =         0.00000000
  -V(xc)+E(xc)   XCENC  =      3622.67057556
  PAW double counting   =    132237.53062013  -137229.35344362
  entropy T*S    EENTRO =        -0.93059760
  eigenvalues    EBANDS =    -15301.88017970
  atomic energy  EATOM  =    136002.60505376
  Solvation  Ediel_sol  =         0.00000000
  ---------------------------------------------------
  free energy    TOTEN  =      -360.52032367 eV

  energy without entropy =     -359.58972607  energy(sigma->0) =     -360.05502487


--------------------------------------------------------------------------------------------------------




--------------------------------------- Iteration      1(  17)  ---------------------------------------


    POTLOK:  cpu time    0.0434: real time    0.0435
    SETDIJ:  cpu time    0.0050: real time    0.0050
     EDDAV:  cpu time    2.3029: real time    2.3084
       DOS:  cpu time    0.0006: real time    0.0006
    CHARGE:  cpu time    0.0795: real time    0.0797
    MIXING:  cpu time    0.0026: real time    0.0026
    --------------------------------------------
      LOOP:  cpu time    2.4340: real time    2.4398

 eigenvalue-minimisations  :  1328
 total energy-change (2. order) : 0.1036232E+01  (-0.9608197E-01)
 number of electron     792.0000795 magnetization 
 augmentation part      312.6392078 magnetization 

 Broyden mixing:
  rms(total) = 0.12876E+01    rms(broyden)= 0.12871E+01
  rms(prec ) = 0.14915E+01
  weight for this iteration     100.00

 eigenvalues of (default mixing * dielectric matrix)
  average eigenvalue GAMMA=   0.4730
  2.0342  0.8267  0.8267  0.4193  0.4193  0.3558  0.2168  0.0809  0.1364  0.1364
  0.1117  0.1117

 Free energy of the ion-electron system (eV)
  ---------------------------------------------------
  alpha Z        PSCENC =      1866.81181918
  Ewald energy   TEWEN  =    160536.47795687
  -Hartree energ DENC   =   -282101.16564551
  -exchange      EXHF   =         0.00000000
  -V(xc)+E(xc)   XCENC  =      3622.95325822
  PAW double counting   =    132076.88873687  -137067.25498483
  entropy T*S    EENTRO =        -0.95311033
  eigenvalues    EBANDS =    -15295.84717608
  atomic energy  EATOM  =    136002.60505376
  Solvation  Ediel_sol  =         0.00000000
  ---------------------------------------------------
  free energy    TOTEN  =      -359.48409185 eV

  energy without entropy =     -358.53098152  energy(sigma->0) =     -359.00753669


--------------------------------------------------------------------------------------------------------




--------------------------------------- Iteration      1(  18)  ---------------------------------------


    POTLOK:  cpu time    0.0438: real time    0.0439
    SETDIJ:  cpu time    0.0048: real time    0.0049
     EDDAV:  cpu time    2.2789: real time    2.2844
       DOS:  cpu time    0.0006: real time    0.0006
    CHARGE:  cpu time    0.0801: real time    0.0803
    MIXING:  cpu time    0.0025: real time    0.0025
    --------------------------------------------
      LOOP:  cpu time    2.4108: real time    2.4165

 eigenvalue-minimisations  :  1312
 total energy-change (2. order) : 0.2622913E+00  (-0.7051167E-01)
 number of electron     792.0000790 magnetization 
 augmentation part      312.4436110 magnetization 

 Broyden mixing:
  rms(total) = 0.11818E+01    rms(broyden)= 0.11814E+01
  rms(prec ) = 0.13559E+01
  weight for this iteration     100.00

 eigenvalues of (default mixing * dielectric matrix)
  average eigenvalue GAMMA=   0.4916
  2.0295  1.0204  1.0204  0.4871  0.4422  0.4422  0.2290  0.0809  0.1497  0.1497
  0.1134  0.1134  0.1130

 Free energy of the ion-electron system (eV)
  ---------------------------------------------------
  alpha Z        PSCENC =      1866.81181918
  Ewald energy   TEWEN  =    160536.47795687
  -Hartree energ DENC   =   -282110.80551793
  -exchange      EXHF   =         0.00000000
  -V(xc)+E(xc)   XCENC  =      3623.04750721
  PAW double counting   =    131941.51282930  -136929.82183743
  entropy T*S    EENTRO =        -0.96786209
  eigenvalues    EBANDS =    -15288.08174940
  atomic energy  EATOM  =    136002.60505376
  Solvation  Ediel_sol  =         0.00000000
  ---------------------------------------------------
  free energy    TOTEN  =      -359.22180053 eV

  energy without entropy =     -358.25393844  energy(sigma->0) =     -358.73786949


--------------------------------------------------------------------------------------------------------




--------------------------------------- Iteration      1(  19)  ---------------------------------------


    POTLOK:  cpu time    0.0434: real time    0.0435
    SETDIJ:  cpu time    0.0049: real time    0.0049
     EDDAV:  cpu time    2.3093: real time    2.3148
       DOS:  cpu time    0.0006: real time    0.0006
    CHARGE:  cpu time    0.0813: real time    0.0814
    MIXING:  cpu time    0.0028: real time    0.0028
    --------------------------------------------
      LOOP:  cpu time    2.4423: real time    2.4480

 eigenvalue-minimisations  :  1320
 total energy-change (2. order) : 0.3914126E+00  (-0.4682224E-01)
 number of electron     792.0000798 magnetization 
 augmentation part      312.3138689 magnetization 

 Broyden mixing:
  rms(total) = 0.89256E+00    rms(broyden)= 0.89216E+00
  rms(prec ) = 0.10187E+01
  weight for this iteration     100.00

 eigenvalues of (default mixing * dielectric matrix)
  average eigenvalue GAMMA=   0.5219
  2.0315  1.2707  1.2707  0.4747  0.4747  0.4312  0.4312  0.2048  0.0809  0.1571
  0.1130  0.1130  0.1264  0.1264

 Free energy of the ion-electron system (eV)
  ---------------------------------------------------
  alpha Z        PSCENC =      1866.81181918
  Ewald energy   TEWEN  =    160536.47795687
  -Hartree energ DENC   =   -282117.66114262
  -exchange      EXHF   =         0.00000000
  -V(xc)+E(xc)   XCENC  =      3623.09403009
  PAW double counting   =    131770.51599974  -136756.08989686
  entropy T*S    EENTRO =        -0.97235723
  eigenvalues    EBANDS =    -15283.61185092
  atomic energy  EATOM  =    136002.60505376
  Solvation  Ediel_sol  =         0.00000000
  ---------------------------------------------------
  free energy    TOTEN  =      -358.83038798 eV

  energy without entropy =     -357.85803075  energy(sigma->0) =     -358.34420937


--------------------------------------------------------------------------------------------------------




--------------------------------------- Iteration      1(  20)  ---------------------------------------


    POTLOK:  cpu time    0.0441: real time    0.0454
    SETDIJ:  cpu time    0.0064: real time    0.0064
     EDDAV:  cpu time    2.2892: real time    2.2946
       DOS:  cpu time    0.0006: real time    0.0006
    CHARGE:  cpu time    0.0813: real time    0.0815
    MIXING:  cpu time    0.0029: real time    0.0029
    --------------------------------------------
      LOOP:  cpu time    2.4244: real time    2.4314

 eigenvalue-minimisations  :  1312
 total energy-change (2. order) : 0.8350700E-01  (-0.3999797E-01)
 number of electron     792.0000794 magnetization 
 augmentation part      312.2093801 magnetization 

 Broyden mixing:
  rms(total) = 0.85779E+00    rms(broyden)= 0.85707E+00
  rms(prec ) = 0.97291E+00
  weight for this iteration     100.00

 eigenvalues of (default mixing * dielectric matrix)
  average eigenvalue GAMMA=   0.5372
  2.0319  1.4469  1.4469  0.6059  0.6059  0.4229  0.4229  0.2153  0.0809  0.1689
  0.1128  0.1128  0.1331  0.1331  0.1182

 Free energy of the ion-electron system (eV)
  ---------------------------------------------------
  alpha Z        PSCENC =      1866.81181918
  Ewald energy   TEWEN  =    160536.47795687
  -Hartree energ DENC   =   -282126.57265881
  -exchange      EXHF   =         0.00000000
  -V(xc)+E(xc)   XCENC  =      3623.11513963
  PAW double counting   =    131546.01827486  -136527.92826468
  entropy T*S    EENTRO =        -0.99791632
  eigenvalues    EBANDS =    -15278.27628548
  atomic energy  EATOM  =    136002.60505376
  Solvation  Ediel_sol  =         0.00000000
  ---------------------------------------------------
  free energy    TOTEN  =      -358.74688098 eV

  energy without entropy =     -357.74896466  energy(sigma->0) =     -358.24792282


--------------------------------------------------------------------------------------------------------




--------------------------------------- Iteration      1(  21)  ---------------------------------------


    POTLOK:  cpu time    0.0444: real time    0.0455
    SETDIJ:  cpu time    0.0044: real time    0.0061
     EDDAV:  cpu time    2.2295: real time    2.2349
       DOS:  cpu time    0.0006: real time    0.0006
    CHARGE:  cpu time    0.0770: real time    0.0772
    MIXING:  cpu time    0.0027: real time    0.0027
    --------------------------------------------
      LOOP:  cpu time    2.3588: real time    2.3672

 eigenvalue-minimisations  :  1272
 total energy-change (2. order) : 0.1702766E+00  (-0.2369043E-01)
 number of electron     792.0000807 magnetization 
 augmentation part      312.1505053 magnetization 

 Broyden mixing:
  rms(total) = 0.64193E+00    rms(broyden)= 0.64146E+00
  rms(prec ) = 0.76467E+00
  weight for this iteration     100.00

 eigenvalues of (default mixing * dielectric matrix)
  average eigenvalue GAMMA=   0.5519
  2.0020  1.5866  1.5866  0.6906  0.6906  0.4203  0.4203  0.3754  0.2131  0.0809
  0.1473  0.1473  0.1134  0.1134  0.1218  0.1218

 Free energy of the ion-electron system (eV)
  ---------------------------------------------------
  alpha Z        PSCENC =      1866.81181918
  Ewald energy   TEWEN  =    160536.47795687
  -Hartree energ DENC   =   -282134.82102744
  -exchange      EXHF   =         0.00000000
  -V(xc)+E(xc)   XCENC  =      3623.13710694
  PAW double counting   =    131343.04944962  -136321.82875640
  entropy T*S    EENTRO =        -1.01178765
  eigenvalues    EBANDS =    -15272.99641930
  atomic energy  EATOM  =    136002.60505376
  Solvation  Ediel_sol  =         0.00000000
  ---------------------------------------------------
  free energy    TOTEN  =      -358.57660442 eV

  energy without entropy =     -357.56481677  energy(sigma->0) =     -358.07071060


[...]
    FORCOR:  cpu time    0.0575: real time    0.0579
    FORHAR:  cpu time    0.0250: real time    0.0251
    MIXING:  cpu time    0.0056: real time    0.0056
    OFIELD:  cpu time    0.0001: real time    0.0001

  FORCE on cell =-STRESS in cart. coord.  units (eV):
  Direction    XX          YY          ZZ          XY          YZ          ZX
  --------------------------------------------------------------------------------------
  Alpha Z  1866.81182  1866.81182  1866.81182
  Ewald  210972.43799209411.85362************  -911.61026   178.46295    82.15578
  Hartree247712.89981246013.26863************  -992.83424    51.36206    23.64416
  E(xc)   -5026.92947 -5025.66239 -5031.84331     0.73989     0.73520     0.33844
  Local  ************************458376.55911  1922.81726  -202.59404   -93.26381
  n-local  -681.21303  -671.51475  -692.48520     5.66407     4.69377     2.16285
  augment  5800.56240  5780.78873  5812.46791   -11.51835   -14.70410    -6.77269
  Kinetic 10973.72806 10939.37863 11015.64201   -20.07042   -29.23553   -13.45896
  Fock        0.00000     0.00000     0.00000     0.00000     0.00000     0.00000
  -------------------------------------------------------------------------------------
  Total     -27.62076   -39.26586   -16.89592    -6.80244   -11.28028    -5.19290
  in kB     -22.20831   -31.57148   -13.58507    -5.46947    -9.06984    -4.17532
  external pressure =      -22.45 kB  Pullay stress =        0.00 kB


 VOLUME and BASIS-vectors are now :
 -----------------------------------------------------------------------------
  energy-cutoff  :      450.00
  volume of cell :     1992.65
      direct lattice vectors                 reciprocal lattice vectors
     8.700730798 -4.005399070  0.000000000     0.114932874  0.000000000  0.000000000
     0.000000000 11.452783670  0.000000000     0.040195645  0.087315017  0.000000000
     0.000000000  0.000000000 19.996955965     0.000000000  0.000000000  0.050007611

  length of vectors
     9.578410000 11.452783670 19.996955965     0.114932874  0.096122849  0.050007611


 FORCES acting on ions
    electron-ion (+dipol)            ewald-force                    non-local-force                 convergence-correction
 -----------------------------------------------------------------------------------------------
   0.301E+03 -.785E+02 0.431E+04   -.305E+03 0.784E+02 -.431E+04   0.359E+01 0.171E+00 0.201E+01   0.567E-02 0.258E-03 -.688E-02
   0.288E+03 -.389E+03 0.163E+04   -.290E+03 0.389E+03 -.163E+04   0.116E+01 -.237E-01 0.888E+00   -.680E-02 0.264E-01 -.592E-02
   0.302E+03 -.385E+03 -.108E+04   -.303E+03 0.385E+03 0.107E+04   0.744E+00 -.644E-01 0.135E+01   0.593E-02 0.206E-01 -.854E-02
   0.195E+03 -.641E+03 -.386E+04   -.192E+03 0.642E+03 0.386E+04   -.249E+01 -.365E+00 0.286E+00   -.150E-02 0.583E-02 -.266E-01
   0.280E+03 -.453E+03 -.151E+03   -.281E+03 0.453E+03 0.150E+03   0.623E+00 -.144E+00 0.793E+00   -.286E-02 -.197E-01 -.276E-02
   0.179E+03 -.550E+03 -.334E+04   -.176E+03 0.551E+03 0.334E+04   -.204E+01 0.997E-01 0.461E+00   -.674E-02 -.116E-01 -.123E-01
   0.378E+03 -.608E+03 0.468E+04   -.376E+03 0.600E+03 -.467E+04   -.179E+01 0.754E+01 -.328E+01   0.675E-02 -.166E-02 0.905E-02
   0.250E+03 -.587E+03 0.268E+04   -.252E+03 0.588E+03 -.268E+04   0.111E+01 -.908E+00 0.161E+01   0.101E-02 -.976E-02 0.150E-01
   0.276E+03 -.195E+03 0.384E+04   -.279E+03 0.197E+03 -.384E+04   0.235E+01 -.132E+01 0.163E+01   0.110E-02 -.103E-01 0.715E-03
   0.343E+03 -.341E+03 0.736E+03   -.344E+03 0.340E+03 -.737E+03   0.106E+01 0.447E+00 0.103E+01   -.791E-03 0.799E-03 -.102E-01
   0.398E+03 -.309E+03 -.213E+04   -.399E+03 0.309E+03 0.213E+04   0.157E+01 -.182E+00 -.146E+01   0.800E-02 0.140E-01 -.155E-01
   0.367E+03 -.492E+02 -.446E+04   -.365E+03 0.477E+02 0.445E+04   -.103E+01 0.143E+01 0.251E+01   0.641E-02 0.655E-02 -.110E-01
   0.253E+03 0.551E+03 0.272E+04   -.255E+03 -.553E+03 -.272E+04   0.100E+01 0.217E+01 0.301E+01   -.256E-02 -.555E-02 -.213E-02
   0.186E+03 0.405E+03 -.345E+03   -.187E+03 -.406E+03 0.344E+03   0.788E+00 0.171E+01 0.226E+00   -.514E-02 -.112E-01 0.308E-02
   0.268E+03 0.581E+03 -.315E+04   -.269E+03 -.584E+03 0.315E+04   0.136E+01 0.296E+01 -.778E+00   0.881E-02 0.191E-01 -.220E-01
   0.158E+03 0.343E+03 -.497E+04   -.156E+03 -.340E+03 0.495E+04   -.183E+01 -.398E+01 0.141E+02   0.759E-02 0.165E-01 -.240E-01
   -.743E+02 -.161E+03 -.469E+04   0.722E+02 0.157E+03 0.469E+04   0.152E+01 0.330E+01 0.500E+01   -.397E-02 -.863E-02 -.141E-01
   0.248E+03 0.539E+03 0.328E+04   -.249E+03 -.542E+03 -.328E+04   0.133E+01 0.289E+01 0.283E+01   0.790E-02 0.172E-01 0.429E-02
   0.147E+03 0.318E+03 0.639E+03   -.147E+03 -.320E+03 -.640E+03   0.694E+00 0.151E+01 0.272E+00   0.519E-02 0.113E-01 0.205E-02
   0.134E+03 0.291E+03 -.206E+04   -.135E+03 -.292E+03 0.206E+04   0.636E+00 0.138E+01 0.196E+00   -.272E-03 -.589E-03 -.235E-01
   0.149E+03 0.325E+03 -.121E+04   -.150E+03 -.326E+03 0.121E+04   0.612E+00 0.133E+01 0.263E+00   -.901E-02 -.196E-01 -.511E-02
   0.174E+03 0.378E+03 -.409E+04   -.174E+03 -.379E+03 0.409E+04   0.399E+00 0.867E+00 -.336E+01   -.133E-02 -.288E-02 -.510E-02
   0.132E+03 0.287E+03 0.181E+04   -.133E+03 -.288E+03 -.181E+04   0.560E+00 0.122E+01 0.154E+01   -.303E-02 -.658E-02 -.277E-02
   -.767E+02 -.167E+03 0.447E+04   0.763E+02 0.166E+03 -.446E+04   0.590E+00 0.128E+01 -.898E+01   0.131E-02 0.284E-02 -.175E-02
   -.489E+03 -.205E+02 -.108E+04   0.489E+03 0.201E+02 0.107E+04   -.532E+00 0.523E+00 0.135E+01   0.118E-01 0.179E-01 -.854E-02
   -.614E+03 -.269E+03 -.386E+04   0.613E+03 0.272E+03 0.386E+04   0.134E+01 -.213E+01 0.286E+00   0.541E-02 0.265E-02 -.266E-01
   -.255E+03 0.177E+03 0.431E+04   0.258E+03 -.181E+03 -.431E+04   -.221E+01 0.284E+01 0.201E+01   -.349E-02 0.447E-02 -.688E-02
   -.483E+03 -.336E+02 0.163E+04   0.484E+03 0.326E+02 -.163E+04   -.776E+00 0.870E+00 0.888E+00   0.245E-01 0.120E-01 -.592E-02
   -.526E+03 -.817E+02 -.151E+03   0.527E+03 0.814E+02 0.150E+03   -.514E+00 0.380E+00 0.793E+00   -.131E-01 -.150E-01 -.276E-02
   -.534E+03 -.222E+03 -.334E+04   0.533E+03 0.224E+03 0.334E+04   0.140E+01 -.149E+01 0.461E+00   -.444E-02 -.127E-01 -.123E-01
   -.707E+03 -.108E+03 0.468E+04   0.700E+03 0.104E+03 -.467E+04   0.689E+01 0.354E+01 -.328E+01   -.565E-02 0.405E-02 0.905E-02
   -.609E+03 -.192E+03 0.268E+04   0.610E+03 0.191E+03 -.268E+04   -.141E+01 0.251E+00 0.161E+01   -.807E-02 -.558E-02 0.150E-01
   -.328E+03 0.827E+02 0.384E+04   0.331E+03 -.840E+02 -.384E+04   -.253E+01 0.927E+00 0.163E+01   -.852E-02 -.585E-02 0.715E-03
   -.482E+03 0.388E+02 0.736E+03   0.482E+03 -.400E+02 -.737E+03   -.352E+00 0.110E+01 0.103E+01   0.112E-02 -.823E-04 -.102E-01
   -.493E+03 0.101E+03 -.213E+04   0.494E+03 -.103E+03 0.213E+04   -.116E+01 0.108E+01 -.146E+01   0.545E-02 0.152E-01 -.155E-01
   -.276E+03 0.246E+03 -.446E+04   0.274E+03 -.246E+03 0.445E+04   0.175E+01 0.148E+00 0.251E+01   0.810E-03 0.913E-02 -.110E-01
   -.700E+02 0.168E+03 -.431E+03   0.711E+02 -.170E+03 0.432E+03   -.120E+01 0.218E+01 -.114E+01   0.102E-01 0.618E-02 0.148E-03
   -.633E+02 0.180E+03 -.136E+04   0.647E+02 -.182E+03 0.136E+04   -.153E+01 0.263E+01 0.624E+00   0.100E-01 0.405E-02 -.135E-01
   0.798E+02 0.232E+03 0.176E+04   -.814E+02 -.233E+03 -.177E+04   0.234E+01 0.248E+01 0.383E+01   0.119E-02 -.519E-03 0.120E-02
   -.710E+02 0.175E+03 0.636E+03   0.724E+02 -.177E+03 -.636E+03   -.176E+01 0.227E+01 -.195E+00   0.134E-02 -.643E-02 -.630E-02
   -.131E+03 0.727E+02 -.110E+04   0.132E+03 -.746E+02 0.110E+04   -.911E+00 0.244E+01 -.987E-01   -.264E-03 -.614E-02 -.774E-02
   0.643E+02 0.244E+03 0.182E+04   -.663E+02 -.246E+03 -.183E+04   0.283E+01 0.252E+01 0.388E+01   0.121E-02 0.403E-02 0.275E-02
   -.119E+03 0.128E+03 0.948E+03   0.120E+03 -.131E+03 -.948E+03   -.132E+01 0.271E+01 -.634E+00   -.719E-02 0.850E-02 -.778E-03
   -.105E+03 0.127E+03 -.379E+02   0.106E+03 -.129E+03 0.389E+02   -.123E+01 0.212E+01 -.821E+00   -.265E-02 0.134E-02 0.243E-04
   -.929E+02 0.141E+03 0.327E+03   0.942E+02 -.143E+03 -.327E+03   -.160E+01 0.223E+01 -.124E+00   0.872E-03 -.850E-02 -.270E-02
   -.114E+03 0.151E+03 -.803E+03   0.115E+03 -.153E+03 0.804E+03   -.141E+01 0.224E+01 -.851E+00   0.211E-02 -.390E-02 -.205E-02
   -.118E+03 0.270E+03 -.178E+04   0.121E+03 -.274E+03 0.178E+04   -.283E+01 0.393E+01 -.353E+01   0.957E-03 0.155E-02 -.551E-03
   -.794E+02 0.372E+02 0.149E+04   0.803E+02 -.379E+02 -.150E+04   -.170E+01 0.113E+01 0.948E+00   -.474E-02 -.161E-02 -.938E-03
   -.679E+02 -.147E+03 -.175E+04   0.680E+02 0.148E+03 0.176E+04   -.701E+00 -.152E+01 -.398E+01   -.310E-02 -.672E-02 -.319E-02
   -.594E+02 -.129E+03 -.584E+03   0.600E+02 0.130E+03 0.582E+03   -.614E+00 -.133E+01 0.222E+01   -.381E-02 -.828E-02 -.107E-02
   -.569E+02 -.124E+03 0.146E+04   0.575E+02 0.125E+03 -.147E+04   -.553E+00 -.120E+01 0.187E+00   0.284E-02 0.617E-02 -.128E-01
   -.546E+02 -.119E+03 0.470E+03   0.552E+02 0.120E+03 -.472E+03   -.631E+00 -.137E+01 0.188E+01   0.431E-02 0.936E-02 0.636E-02
   -.540E+02 -.117E+03 0.875E+03   0.545E+02 0.118E+03 -.876E+03   -.473E+00 -.103E+01 0.114E+01   -.213E-02 -.462E-02 0.534E-02
   -.517E+02 -.112E+03 -.286E+03   0.524E+02 0.114E+03 0.285E+03   -.680E+00 -.148E+01 0.151E+01   -.478E-02 -.104E-01 -.186E-02
   -.158E+02 -.344E+02 -.159E+04   0.160E+02 0.347E+02 0.160E+04   -.686E+00 -.149E+01 -.397E+01   -.173E-02 -.375E-02 -.137E-02
   -.166E+03 -.360E+03 0.176E+04   0.168E+03 0.365E+03 -.177E+04   -.271E+01 -.589E+01 0.281E+01   -.226E-02 -.492E-02 0.216E-02
   -.152E+02 -.331E+02 0.118E+04   0.156E+02 0.340E+02 -.119E+04   -.647E+00 -.140E+01 0.536E+00   0.160E-03 0.347E-03 -.421E-02
   -.365E+02 -.794E+02 0.845E+02   0.371E+02 0.806E+02 -.862E+02   -.529E+00 -.115E+01 0.193E+01   0.476E-02 0.103E-01 -.560E-02
   -.263E+02 -.572E+02 -.921E+03   0.269E+02 0.584E+02 0.919E+03   -.654E+00 -.142E+01 0.253E+01   0.283E-02 0.615E-02 -.826E-02
   -.547E+02 -.119E+03 -.180E+04   0.550E+02 0.119E+03 0.180E+04   -.604E+00 -.131E+01 -.321E+01   -.254E-03 -.552E-03 -.255E-02
   0.124E+03 0.211E+03 0.176E+04   -.124E+03 -.214E+03 -.177E+04   0.367E+00 0.339E+01 0.383E+01   -.117E-02 0.564E-03 0.120E-02
   0.179E+03 0.601E+02 0.636E+03   -.182E+03 -.604E+02 -.636E+03   0.287E+01 0.138E+00 -.195E+00   -.575E-02 -.316E-02 -.630E-02
   0.173E+03 0.559E+02 -.431E+03   -.175E+03 -.565E+02 0.432E+03   0.243E+01 0.507E+00 -.114E+01   -.191E-02 0.117E-01 0.148E-03
   0.178E+03 0.690E+02 -.136E+04   -.181E+03 -.693E+02 0.136E+04   0.299E+01 0.550E+00 0.624E+00   -.344E-02 0.103E-01 -.135E-01
   0.140E+03 -.519E+02 -.110E+04   -.142E+03 0.515E+02 0.110E+04   0.244E+01 0.892E+00 -.987E-01   -.449E-02 -.419E-02 -.774E-02
   0.143E+03 0.207E+03 0.182E+04   -.143E+03 -.210E+03 -.183E+04   0.720E-01 0.379E+01 0.388E+01   0.228E-02 0.354E-02 0.275E-02
   0.174E+03 -.676E+01 0.948E+03   -.177E+03 0.587E+01 -.948E+03   0.291E+01 0.758E+00 -.634E+00   0.111E-01 0.653E-04 -.778E-03
   0.165E+03 0.278E+01 -.379E+02   -.167E+03 -.331E+01 0.389E+02   0.241E+01 0.446E+00 -.821E+00   0.275E-02 -.114E-02 0.243E-04
   0.189E+03 0.114E+02 -.803E+03   -.191E+03 -.119E+02 0.804E+03   0.262E+01 0.389E+00 -.851E+00   -.434E-02 -.929E-03 -.205E-02
   0.282E+03 0.862E+02 -.178E+04   -.286E+03 -.865E+02 0.178E+04   0.482E+01 0.407E+00 -.353E+01   0.556E-03 0.174E-02 -.551E-03
   0.168E+03 0.213E+02 0.327E+03   -.170E+03 -.216E+02 -.327E+03   0.273E+01 0.235E+00 -.124E+00   -.703E-02 -.487E-02 -.270E-02
   0.799E+02 -.361E+02 0.149E+04   -.810E+02 0.364E+02 -.150E+04   0.196E+01 -.557E+00 0.948E+00   0.186E-02 -.465E-02 -.938E-03
 -----------------------------------------------------------------------------------------------
   -.233E+02 -.506E+02 -.375E+02   -.117E-11 -.247E-11 0.118E-10   0.233E+02 0.506E+02 0.373E+02   0.278E-01 0.603E-01 -.329E+00
 
 
 POSITION                                       TOTAL-FORCE (eV/Angst)
 -----------------------------------------------------------------------------------
      5.55051      2.35858      1.02281        -0.853405      0.041198      0.391312
      6.34277      4.07957      3.52592        -0.051726     -0.069281     -0.079594
      7.13503      5.80056      6.02904         0.163562      0.041577     -0.026511
      7.92730      7.52156      8.53215         0.540899      0.388829     -0.794336
      3.97070     -1.07316      5.19467        -0.049038      0.180680     -0.068359
      4.76297      0.64784      7.69778         0.706021      0.166120     -0.668195
      2.38618      6.93764      0.18844         0.109321     -0.429049      1.221545
      3.17844      8.65863      2.69155        -0.073782     -0.273223     -0.195824
      0.01411      1.78491      1.85718        -0.692806      0.250886      0.197898
      0.80637      3.50591      4.36029        -0.095563     -0.064968     -0.202652
      1.59863      5.22690      6.86341         0.038382     -0.049359      0.211705
      2.39090      6.94789      9.36652         0.493358     -0.145887     -0.873913
      5.96915      0.24208      2.34548        -0.019771     -0.042947     -0.563767
      6.76141      1.96307      4.84860         0.048142      0.104576     -0.239905
      7.55367      3.68406      7.35171        -0.068252     -0.148261      0.402142
      8.34594      5.40506      9.85483        -0.142202     -0.308898     -1.714045
      5.18161     -1.46866      9.02046        -0.634567     -1.378438     -0.857650
      2.80482      4.82114      1.51111        -0.092812     -0.201610     -0.117707
      3.59708      6.54213      4.01423         0.076188      0.165498     -0.103523
      4.38934      8.26313      6.51734         0.070842      0.153888      0.109733
      1.22501      1.38941      5.68297         0.025532      0.055462     -0.055129
      2.01728      3.11040      8.18608         0.167463      0.363772      0.722272
      0.43275     11.12120      3.17986         0.036176      0.078583     -0.417519
      8.34122      5.39480      0.67674         0.147554      0.320524      1.664264
      0.73309      8.74771      6.02904        -0.074773      0.151295     -0.026511
      1.52535     10.46871      8.53215        -0.056334      0.663767     -0.794336
      7.84929      1.30033      1.02281         0.586240     -0.621546      0.391312
      8.64156      3.02132      3.52592        -0.018997     -0.084348     -0.079594
      6.26949     -2.13141      5.19467         0.169151      0.080236     -0.068359
      7.06175     -0.41041      7.69778        -0.332901      0.644390     -0.668195
      4.68496      5.87939      0.18844        -0.397039     -0.195945      1.221545
      5.47723      7.60038      2.69155        -0.159590     -0.233721     -0.195824
      2.31289      0.72666      1.85718         0.641110     -0.363185      0.197898
      3.10516      2.44766      4.36029         0.012785     -0.114846     -0.202652
      3.89742      4.16865      6.86341        -0.062457     -0.002937      0.211705
      4.68968      5.88964      9.36652        -0.431646      0.279940     -0.873913
      0.11665      6.58149      5.84060        -0.078042      0.024876      0.084268
      0.90891      8.30248      8.34372        -0.112705      0.518892      1.362143
      7.23286     -0.86589      0.83437         0.667100      0.600725      0.253708
      8.02512      0.85510      3.33749        -0.316469      0.196625      0.222857
      6.44531     -2.57663      7.50934         0.145719      0.592181      0.926986
      4.06853      3.71317      0.00000         0.825892      0.701156      0.007041
      4.86079      5.43416      2.50311        -0.258793      0.099262     -0.019840
      5.65305      7.15516      5.00623        -0.105795      0.000012      0.130762
      2.48872      0.28144      4.17186        -0.248169      0.120625      0.239637
      3.28098      2.00243      6.67497        -0.087543      0.025189      0.322798
      4.07325      3.72342      9.17809        -0.144958      0.359673     -0.626140
      1.69646     10.01323      1.66874        -0.753169      0.413439     -0.445061
      1.16809      1.26577      9.16258        -0.641000     -1.392412      0.343348
      0.37583     10.99756      6.65947        -0.016908     -0.036728      0.246481
      7.49204      3.55017      1.65324         0.017824      0.038719     -1.805374
      8.28430      5.27117      4.15636        -0.039818     -0.086494      0.056952
      5.11997     -1.60255      3.32198        -0.008756     -0.019021     -0.151051
      5.91223      0.11844      5.82510        -0.054897     -0.119251      0.150752
      6.70449      1.83943      8.32821        -0.575340     -1.249783      0.529085
      4.32771      8.12924      0.81887        -0.356887     -0.775248     -1.272610
      1.95564      2.97651      2.48761        -0.252489     -0.548470     -0.903534
      2.74790      4.69750      4.99073         0.043949      0.095469      0.226528
      3.54016      6.41849      7.49384        -0.099866     -0.216933      0.451037
      4.33243      8.13949      9.99696        -0.352513     -0.765746      0.154749
      4.30567      0.48164      0.83437         0.022579      0.897431      0.253708
      5.09793      2.20264      3.33749         0.355167     -0.112564      0.222857
      5.89020      3.92363      5.84060         0.069647     -0.043113      0.084268
      6.68246      5.64462      8.34372         0.467493      0.251797      1.362143
      3.51813     -1.22910      7.50934         0.355126      0.495780      0.926986
      1.14134      5.06071      0.00000        -0.004380      1.083374      0.007041
      1.93360      6.78170      2.50311         0.243695     -0.132060     -0.019840
      2.72586      8.50269      5.00623         0.068804     -0.080365      0.130762
      0.35380      3.34996      6.67497         0.076062     -0.050127      0.322798
      1.14606      5.07096      9.17809         0.367506      0.123759     -0.626140
      8.26226     -2.37643      4.17186         0.253016     -0.110097      0.239637
      7.47000      7.35536      1.66874         0.803853     -0.303340     -0.445061
 -----------------------------------------------------------------------------------
    total drift:                                0.005951      0.017360     -0.533766


--------------------------------------------------------------------------------------------------------



  FREE ENERGIE OF THE ION-ELECTRON SYSTEM (eV)
  ---------------------------------------------------
  free  energy   TOTEN  =      -358.37530535 eV

  energy  without entropy=     -357.37673188  energy(sigma->0) =     -357.87601862
 


--------------------------------------------------------------------------------------------------------


    POTLOK:  cpu time    0.0488: real time    0.0498


--------------------------------------------------------------------------------------------------------


     LOOP+:  cpu time   96.1480: real time   96.4701
    4ORBIT:  cpu time    0.0000: real time    0.0000

 total amount of memory used by VASP MPI-rank0    46570. kBytes
=======================================================================

   base      :      30000. kBytes
   nonlr-proj:       2496. kBytes
   fftplans  :       3717. kBytes
   grid      :       6724. kBytes
   one-center:         93. kBytes
   wavefun   :       3540. kBytes
 
  
  
 General timing and accounting informations for this job:
 ========================================================
  
                  Total CPU time used (sec):       98.094
                            User time (sec):       97.563
                          System time (sec):        0.532
                         Elapsed time (sec):       99.148
  
                   Maximum memory used (kb):      233420.
                   Average memory used (kb):           0.
  
                          Minor page faults:        81140
                          Major page faults:            0
                 Voluntary context switches:          972
