"Millerite NiS"                         
           1
     8.700731   -4.005399    0.000000
     0.000000   11.452784    0.000000
     0.000000    0.000000   19.996956
   Ni   S 
    36    36
Direct configuration=     1
   0.63793591  0.42904558  0.05114817
   0.72899292  0.61115959  0.17632295
   0.82004993  0.79327361  0.30149774
   0.91110694  0.97538762  0.42667252
   0.45636426  0.06590227  0.25977281
   0.54742127  0.24801628  0.38494759
   0.27425025  0.70167424  0.00942324
   0.36530725  0.88378825  0.13459803
   0.00162159  0.15641692  0.09287310
   0.09267859  0.33853093  0.21804788
   0.18373560  0.52064495  0.34322267
   0.27479261  0.70275896  0.46839745
   0.68605153  0.26107081  0.11729203
   0.77710854  0.44318482  0.24246681
   0.86816555  0.62529884  0.36764160
   0.95922255  0.80741285  0.49281638
   0.59553688  0.08004151  0.45109145
   0.32236586  0.53369947  0.07556710
   0.41342287  0.71581348  0.20074188
   0.50447988  0.89792750  0.32591667
   0.14079421  0.17055616  0.28419174
   0.23185121  0.35267018  0.40936652
   0.04973720  0.98844215  0.15901695
   0.95868019  0.80632813  0.03384217
   0.08425593  0.79327361  0.30149774
   0.17531294  0.97538762  0.42667252
   0.90214192  0.42904558  0.05114817
   0.99319892  0.61115959  0.17632295
   0.72057026  0.06590227  0.25977281
   0.81162727  0.24801628  0.38494759
   0.53845625  0.70167424  0.00942324
   0.62951325  0.88378825  0.13459803
   0.26582758  0.15641692  0.09287310
   0.35688459  0.33853093  0.21804788
   0.44794160  0.52064495  0.34322267
   0.53899861  0.70275896  0.46839745
   0.01340710  0.57935194  0.29207450
   0.10446411  0.76146596  0.41724928
   0.83129308  0.21512391  0.04172493
   0.92235009  0.39723793  0.16689971
   0.74077844  0.03409462  0.37552435
   0.46760741  0.48775257  0.00000000
   0.55866442  0.66986659  0.12517478
   0.64972143  0.85198060  0.25034957
   0.28603576  0.12460927  0.20862464
   0.37709277  0.30672328  0.33379942
   0.46814978  0.48883730  0.45897421
   0.19497875  0.94249525  0.08344986
   0.13425249  0.15747274  0.45819896
   0.04319549  0.97535872  0.33302417
   0.86108147  0.61113069  0.08267461
   0.95213848  0.79324471  0.20784939
   0.58845281  0.06587337  0.16612446
   0.67950982  0.24798738  0.29129925
   0.77056683  0.43010140  0.41647403
   0.49739580  0.88375935  0.04094968
   0.22476714  0.33850203  0.12439954
   0.31582415  0.52061604  0.24957432
   0.40688116  0.70273006  0.37474910
   0.49793816  0.88484407  0.49992389
   0.49486308  0.21512391  0.04172493
   0.58592009  0.39723793  0.16689971
   0.67697710  0.57935194  0.29207450
   0.76803411  0.76146596  0.41724928
   0.40434844  0.03409462  0.37552435
   0.13117741  0.48775257  0.00000000
   0.22223442  0.66986659  0.12517478
   0.31329143  0.85198060  0.25034957
   0.04066277  0.30672328  0.33379942
   0.13171978  0.48883730  0.45897421
   0.94960576  0.12460927  0.20862464
   0.85854875  0.94249525  0.08344986
