"Millerite NiS"                         
           1
     6.278560    0.000000    0.000000
     2.092853   11.060196    0.000000
     0.000000    0.000000   29.156820
   Ty   Ty
  48  48
Direct configuration=     1
   0.25630944  0.01645859  0.15239349
   0.25630944  0.01645859  0.48090702
   0.00630944  0.26645858  0.31665025
   0.04495357  0.26576571  0.63692939
   0.25630944  0.01645859  0.06559824
   0.25630944  0.01645859  0.39411177
   0.00630944  0.26645858  0.22985501
   0.00630944  0.26645858  0.55836854
   0.19025794  0.21461308  0.10899586
   0.19025794  0.21461308  0.43750940
   0.44025794  0.46461308  0.27325263
   0.42405260  0.47210217  0.59336327
   0.75630944  0.01645859  0.15239349
   0.75630944  0.01645859  0.48090702
   0.50630944  0.26645858  0.31665025
   0.46603030  0.27439264  0.63810168
   0.75630944  0.01645859  0.06559824
   0.75630944  0.01645859  0.39411177
   0.50630944  0.26645858  0.22985501
   0.50630944  0.26645858  0.55836854
   0.69025794  0.21461308  0.10899586
   0.69025794  0.21461308  0.43750940
   0.94025794  0.46461308  0.27325263
   0.95646936  0.47753711  0.59035981
   0.25630944  0.51645859  0.15239349
   0.25630944  0.51645859  0.48090702
   0.00630944  0.76645858  0.31665025
   0.04495357  0.76576571  0.63692939
   0.26724060  0.51682678  0.07334506
   0.25630944  0.51645859  0.39411177
   0.00630944  0.76645858  0.22985501
   0.00630944  0.76645858  0.55836854
   0.19514261  0.71689276  0.11563482
   0.19025794  0.71461308  0.43750940
   0.44025794  0.96461308  0.27325263
   0.42405260  0.97210217  0.59336327
   0.75630944  0.51645859  0.15239349
   0.75630944  0.51645859  0.48090702
   0.50630944  0.76645858  0.31665025
   0.46603030  0.77439264  0.63810168
   0.76397166  0.51635798  0.07327226
   0.75630944  0.51645859  0.39411177
   0.50630944  0.76645858  0.22985501
   0.50630944  0.76645858  0.55836854
   0.69632070  0.71671799  0.11573333
   0.69025794  0.71461308  0.43750940
   0.94025794  0.96461308  0.27325263
   0.95646936  0.97753711  0.59035981
   0.45952778  0.15551836  0.06772706
   0.46840410  0.16661759  0.38224849
   0.21840410  0.41661758  0.21799173
   0.21840410  0.41661758  0.54650526
   0.46840410  0.16661759  0.16425677
   0.46840410  0.16661759  0.49277030
   0.97144404  0.64399626  0.07215230
   0.21840410  0.41661758  0.32851354
   0.19997750  0.41240199  0.64022378
   0.05251161  0.41429508  0.10899586
   0.05251161  0.41429508  0.43750940
   0.30251160  0.16429509  0.27325263
   0.30251160  0.16429509  0.60176617
   0.95954733  0.15551344  0.06772245
   0.96840410  0.16661759  0.38224849
   0.71840410  0.41661758  0.21799173
   0.71840410  0.41661758  0.54650526
   0.96840410  0.16661759  0.16425677
   0.96840410  0.16661759  0.49277030
   0.71840410  0.41661758  0.32851354
   0.55251161  0.41429508  0.10899586
   0.55251161  0.41429508  0.43750940
   0.80251160  0.16429509  0.27325263
   0.80251160  0.16429509  0.60176617
   0.47130949  0.64597777  0.07203272
   0.46840411  0.66661759  0.38224849
   0.21840411  0.91661758  0.21799173
   0.21840411  0.91661758  0.54650526
   0.46840411  0.66661759  0.16425677
   0.46840411  0.66661759  0.49277030
   0.02368042  0.96342022  0.02375521
   0.21840411  0.91661758  0.32851354
   0.19997750  0.91240199  0.64022378
   0.05251161  0.91429508  0.10899586
   0.05251161  0.91429508  0.43750940
   0.30251161  0.66429509  0.27325263
   0.30251161  0.66429509  0.60176617
   0.96840411  0.66661759  0.38224849
   0.71840411  0.91661758  0.21799173
   0.71840411  0.91661758  0.54650526
   0.96840411  0.66661759  0.16425677
   0.96840411  0.66661759  0.49277030
   0.52364024  0.96354275  0.02373979
   0.71840411  0.91661758  0.32851354
   0.55251161  0.91429508  0.10899586
   0.55251161  0.91429508  0.43750940
   0.80251161  0.66429509  0.27325263
   0.80251161  0.66429509  0.60176617
