<?xml version="1.0" encoding="ISO-8859-1"?>
<modeling>
 <generator>
  <i name="program" type="string">vasp </i>
  <i name="version" type="string">5.4.4.18Apr17-6-g9f103f2a35  </i>
  <i name="subversion" type="string">(build Aug 13 2019 17:33:20) gamma-only         parallel </i>
  <i name="platform" type="string">LinuxIFC </i>
  <i name="date" type="string">2020 05 11 </i>
  <i name="time" type="string">20:11:00 </i>
 </generator>
 <incar>
  <i type="string" name="SYSTEM">"Millerite NiS"</i>
  <i type="string" name="PREC">normal</i>
  <i type="int" name="NSIM">     4</i>
  <i type="int" name="NELM">   100</i>
  <i name="ENCUT">    450.00000000</i>
  <i type="string" name="LREAL">A</i>
  <i type="int" name="ISMEAR">     0</i>
  <i type="int" name="NWRITE">     2</i>
  <i type="logical" name="LWAVE"> F  </i>
  <i type="logical" name="LCHARG"> F  </i>
  <v type="int" name="KPOINT_BSE">    -1     0     0     0</v>
  <i type="int" name="NELM">   100</i>
 </incar>
 <structure name="primitive_cell" >
  <crystal>
   <varray name="basis" >
    <v>      16.88469405       0.00000000       0.00000000 </v>
    <v>       0.00000000       9.57841000       0.00000000 </v>
    <v>       0.00000000       0.00000000      16.16908712 </v>
   </varray>
   <i name="volume">   2615.00256803 </i>
   <varray name="rec_basis" >
    <v>       0.05922524       0.00000000       0.00000000 </v>
    <v>       0.00000000       0.10440146       0.00000000 </v>
    <v>       0.00000000       0.00000000       0.06184641 </v>
   </varray>
  </crystal>
  <varray name="positions" >
   <v>      -0.21995369       0.14529695       0.12058499 </v>
   <v>      -0.18275002       0.00148351       0.03360689 </v>
   <v>      -0.16406705       0.29566434       0.04717715 </v>
   <v>      -0.35339478       0.14529695       0.11882039 </v>
   <v>      -0.17093895       0.31351195       0.21449973 </v>
   <v>      -0.17093895      -0.02291805       0.21449973 </v>
   <v>      -0.09039099       0.00503774       0.11667921 </v>
   <v>      -0.23690979      -0.12187337       0.11825540 </v>
   <v>      -0.19972682       0.14524666       0.28674360 </v>
   <v>      -0.22326620       0.43605803       0.11762514 </v>
   <v>      -0.07655360       0.35731653       0.13142150 </v>
   <v>      -0.32226001       0.14971717       0.28512430 </v>
   <v>      -0.38298246      -0.05965364       0.08597123 </v>
   <v>      -0.00853879       0.14529695       0.18240970 </v>
   <v>      -0.40270525       0.27739995       0.22256260 </v>
   <v>      -0.40270525       0.01319395       0.22256260 </v>
   <v>      -0.05917828       0.00638314       0.26983873 </v>
   <v>      -0.05788759       0.27086994       0.27457919 </v>
   <v>      -0.34336694       0.47708195       0.18270508 </v>
   <v>      -0.34336694      -0.18648805       0.18270508 </v>
   <v>      -0.23027726      -0.48680605       0.25435726 </v>
   <v>      -0.23027726      -0.22260005       0.25435726 </v>
   <v>      -0.47154472       0.14569824       0.08787003 </v>
   <v>      -0.03198299      -0.17565776       0.07912949 </v>
   <v>      -0.18096679      -0.35470305       0.15061505 </v>
   <v>      -0.02429819      -0.49502698       0.05730144 </v>
   <v>      -0.00804132       0.46563257       0.22481102 </v>
   <v>      -0.03499740       0.13371177       0.36847755 </v>
   <v>      -0.30648279       0.49582194       0.35027166 </v>
   <v>      -0.30466050      -0.20973266       0.35218552 </v>
   <v>       0.48420507       0.31351195       0.15091042 </v>
   <v>       0.48420507      -0.02291805       0.15091042 </v>
   <v>       0.00148905      -0.18648805       0.24629439 </v>
   <v>      -0.46931497       0.02127303       0.33133083 </v>
   <v>      -0.04752570      -0.35470305       0.15237965 </v>
   <v>       0.46975828       0.14529695       0.24776362 </v>
   <v>      -0.48833078       0.32217353       0.31502736 </v>
   <v>       0.07110812       0.08986140       0.31433161 </v>
   <v>      -0.15565359      -0.35509232       0.32217061 </v>
   <v>      -0.35781373      -0.35470305       0.27955828 </v>
   <v>       0.12490229       0.14529695       0.18417431 </v>
   <v>      -0.42885526      -0.35460841       0.15903878 </v>
   <v>       0.08001077      -0.48680605       0.12717863 </v>
   <v>       0.08001077      -0.22260005       0.12717863 </v>
   <v>      -0.03760429      -0.36845122       0.30127855 </v>
   <v>       0.14014196      -0.03323101       0.11097018 </v>
   <v>       0.14084236       0.32583283       0.11461920 </v>
   <v>       0.44349038       0.43639045       0.05192614 </v>
   <v>       0.38193599       0.20240160       0.12351133 </v>
   <v>       0.47116933      -0.16075903       0.32515131 </v>
   <v>       0.14710204       0.25788903       0.29247227 </v>
   <v>       0.42486676      -0.48680605       0.19076795 </v>
   <v>       0.42486676      -0.22260005       0.19076795 </v>
   <v>       0.47417723      -0.35470305       0.08702573 </v>
   <v>      -0.49125482      -0.35470305       0.27779368 </v>
   <v>       0.11936077      -0.21135077       0.27207195 </v>
   <v>       0.17391704      -0.02291805       0.27808905 </v>
   <v>       0.11039209      -0.35338834       0.03479636 </v>
   <v>       0.44165301       0.49444967       0.33696022 </v>
   <v>       0.33631719       0.14529695       0.24599902 </v>
   <v>       0.33161883       0.43051835       0.10543448 </v>
   <v>       0.33770858      -0.07052727       0.26394644 </v>
   <v>       0.25243876       0.27739995       0.15897329 </v>
   <v>       0.25243876       0.01319395       0.15897329 </v>
   <v>       0.16571543      -0.35539439       0.19162506 </v>
   <v>       0.31301591      -0.17658616       0.14091662 </v>
   <v>       0.28076925       0.14360041       0.06233902 </v>
   <v>       0.33270700       0.46094648       0.28258996 </v>
   <v>       0.36211753      -0.26070495       0.31449364 </v>
   <v>       0.35325673      -0.35815782       0.07719964 </v>
   <v>       0.26500744       0.28609018       0.30763095 </v>
   <v>       0.29733029      -0.35470305       0.21596896 </v>
  </varray>
 </structure>
 <varray name="primitive_index" >
  <v type="int" >        1 </v>
  <v type="int" >       63 </v>
  <v type="int" >       49 </v>
  <v type="int" >       41 </v>
  <v type="int" >       50 </v>
  <v type="int" >       64 </v>
  <v type="int" >       12 </v>
  <v type="int" >       35 </v>
  <v type="int" >        2 </v>
  <v type="int" >       22 </v>
  <v type="int" >       24 </v>
  <v type="int" >       42 </v>
  <v type="int" >       17 </v>
  <v type="int" >       38 </v>
  <v type="int" >       30 </v>
  <v type="int" >       18 </v>
  <v type="int" >       13 </v>
  <v type="int" >       25 </v>
  <v type="int" >       69 </v>
  <v type="int" >       59 </v>
  <v type="int" >       23 </v>
  <v type="int" >       36 </v>
  <v type="int" >       29 </v>
  <v type="int" >       56 </v>
  <v type="int" >       47 </v>
  <v type="int" >       66 </v>
  <v type="int" >       65 </v>
  <v type="int" >       37 </v>
  <v type="int" >       70 </v>
  <v type="int" >       60 </v>
  <v type="int" >       53 </v>
  <v type="int" >       67 </v>
  <v type="int" >       55 </v>
  <v type="int" >       68 </v>
  <v type="int" >        6 </v>
  <v type="int" >        5 </v>
  <v type="int" >       54 </v>
  <v type="int" >        9 </v>
  <v type="int" >       48 </v>
  <v type="int" >       11 </v>
  <v type="int" >        8 </v>
  <v type="int" >       10 </v>
  <v type="int" >       19 </v>
  <v type="int" >       31 </v>
  <v type="int" >        7 </v>
  <v type="int" >       71 </v>
  <v type="int" >       57 </v>
  <v type="int" >       14 </v>
  <v type="int" >        4 </v>
  <v type="int" >       28 </v>
  <v type="int" >       58 </v>
  <v type="int" >       15 </v>
  <v type="int" >       27 </v>
  <v type="int" >       39 </v>
  <v type="int" >       40 </v>
  <v type="int" >       32 </v>
  <v type="int" >       72 </v>
  <v type="int" >       43 </v>
  <v type="int" >       16 </v>
  <v type="int" >       46 </v>
  <v type="int" >       61 </v>
  <v type="int" >       21 </v>
  <v type="int" >       33 </v>
  <v type="int" >       20 </v>
  <v type="int" >       44 </v>
  <v type="int" >       51 </v>
  <v type="int" >       45 </v>
  <v type="int" >       62 </v>
  <v type="int" >       52 </v>
  <v type="int" >       26 </v>
  <v type="int" >       34 </v>
  <v type="int" >        3 </v>
 </varray>
 <kpoints>
  <generation param="Gamma">
   <v type="int" name="divisions">       1        1        1 </v>
   <v name="usershift">      0.00000000       0.00000000       0.00000000 </v>
   <v name="genvec1">      1.00000000       0.00000000       0.00000000 </v>
   <v name="genvec2">      0.00000000       1.00000000       0.00000000 </v>
   <v name="genvec3">      0.00000000       0.00000000       1.00000000 </v>
   <v name="shift">      0.00000000       0.00000000       0.00000000 </v>
  </generation>
  <varray name="kpointlist" >
   <v>       0.00000000       0.00000000       0.00000000 </v>
  </varray>
  <varray name="weights" >
   <v>       1.00000000 </v>
  </varray>
 </kpoints>
 <parameters>
  <separator name="general" >
   <i type="string" name="SYSTEM">"Millerite NiS"</i>
   <i type="logical" name="LCOMPAT"> F  </i>
  </separator>
  <separator name="electronic" >
   <i type="string" name="PREC">normal</i>
   <i name="ENMAX">    450.00000000</i>
   <i name="ENAUG">    703.44300000</i>
   <i name="EDIFF">      0.00010000</i>
   <i type="int" name="IALGO">    38</i>
   <i type="int" name="IWAVPR">    10</i>
   <i type="int" name="NBANDS">   476</i>
   <i name="NELECT">    792.00000000</i>
   <i type="int" name="TURBO">     0</i>
   <i type="int" name="IRESTART">     0</i>
   <i type="int" name="NREBOOT">     0</i>
   <i type="int" name="NMIN">     0</i>
   <i name="EREF">      0.00000000</i>
   <separator name="electronic smearing" >
    <i type="int" name="ISMEAR">     0</i>
    <i name="SIGMA">      0.20000000</i>
    <i name="KSPACING">      0.50000000</i>
    <i type="logical" name="KGAMMA"> T  </i>
   </separator>
   <separator name="electronic projectors" >
    <i type="logical" name="LREAL"> T  </i>
    <v name="ROPT">     -0.00050000     -0.00050000</v>
    <i type="int" name="LMAXPAW">  -100</i>
    <i type="int" name="LMAXMIX">     2</i>
    <i type="logical" name="NLSPLINE"> F  </i>
   </separator>
   <separator name="electronic startup" >
    <i type="int" name="ISTART">     0</i>
    <i type="int" name="ICHARG">     2</i>
    <i type="int" name="INIWAV">     1</i>
   </separator>
   <separator name="electronic spin" >
    <i type="int" name="ISPIN">     1</i>
    <i type="logical" name="LNONCOLLINEAR"> F  </i>
    <v name="MAGMOM">      1.00000000      1.00000000      1.00000000      1.00000000      1.00000000      1.00000000      1.00000000      1.00000000      1.00000000      1.00000000      1.00000000      1.00000000      1.00000000      1.00000000      1.00000000      1.00000000      1.00000000      1.00000000      1.00000000      1.00000000
      1.00000000      1.00000000      1.00000000      1.00000000      1.00000000      1.00000000      1.00000000      1.00000000      1.00000000      1.00000000      1.00000000      1.00000000      1.00000000      1.00000000      1.00000000      1.00000000      1.00000000      1.00000000      1.00000000      1.00000000
      1.00000000      1.00000000      1.00000000      1.00000000      1.00000000      1.00000000      1.00000000      1.00000000      1.00000000      1.00000000      1.00000000      1.00000000      1.00000000      1.00000000      1.00000000      1.00000000      1.00000000      1.00000000      1.00000000      1.00000000
      1.00000000      1.00000000      1.00000000      1.00000000      1.00000000      1.00000000      1.00000000      1.00000000      1.00000000      1.00000000      1.00000000      1.00000000</v>
    <i name="NUPDOWN">     -1.00000000</i>
    <i type="logical" name="LSORBIT"> F  </i>
    <v name="SAXIS">      0.00000000      0.00000000      1.00000000</v>
    <i type="logical" name="LSPIRAL"> F  </i>
    <v name="QSPIRAL">      0.00000000      0.00000000      0.00000000</v>
    <i type="logical" name="LZEROZ"> F  </i>
   </separator>
   <separator name="electronic exchange-correlation" >
    <i type="logical" name="LASPH"> F  </i>
    <i type="logical" name="LMETAGGA"> F  </i>
   </separator>
   <separator name="electronic convergence" >
    <i type="int" name="NELM">   100</i>
    <i type="int" name="NELMDL">    -5</i>
    <i type="int" name="NELMIN">     2</i>
    <i name="ENINI">    450.00000000</i>
    <separator name="electronic convergence detail" >
     <i type="logical" name="LDIAG"> T  </i>
     <i type="logical" name="LSUBROT"> F  </i>
     <i name="WEIMIN">      0.00000000</i>
     <i name="EBREAK">      0.00000005</i>
     <i name="DEPER">      0.30000000</i>
     <i type="int" name="NRMM">     4</i>
     <i name="TIME">      0.40000000</i>
    </separator>
   </separator>
   <separator name="electronic mixer" >
    <i name="AMIX">      0.40000000</i>
    <i name="BMIX">      1.00000000</i>
    <i name="AMIN">      0.10000000</i>
    <i name="AMIX_MAG">      1.60000000</i>
    <i name="BMIX_MAG">      1.00000000</i>
    <separator name="electronic mixer details" >
     <i type="int" name="IMIX">     4</i>
     <i type="logical" name="MIXFIRST"> F  </i>
     <i type="int" name="MAXMIX">   -45</i>
     <i name="WC">    100.00000000</i>
     <i type="int" name="INIMIX">     1</i>
     <i type="int" name="MIXPRE">     1</i>
     <i type="int" name="MREMOVE">     5</i>
    </separator>
   </separator>
   <separator name="electronic dipolcorrection" >
    <i type="logical" name="LDIPOL"> F  </i>
    <i type="logical" name="LMONO"> F  </i>
    <i type="int" name="IDIPOL">     0</i>
    <i name="EPSILON">      1.00000000</i>
    <v name="DIPOL">   -100.00000000   -100.00000000   -100.00000000</v>
    <i name="EFIELD">      0.00000000</i>
   </separator>
  </separator>
  <separator name="grids" >
   <i type="int" name="NGX">    90</i>
   <i type="int" name="NGY">    50</i>
   <i type="int" name="NGZ">    84</i>
   <i type="int" name="NGXF">   180</i>
   <i type="int" name="NGYF">   100</i>
   <i type="int" name="NGZF">   168</i>
   <i type="logical" name="ADDGRID"> F  </i>
  </separator>
  <separator name="ionic" >
   <i type="int" name="NSW">     0</i>
   <i type="int" name="IBRION">    -1</i>
   <i type="int" name="MDALGO">     0</i>
   <i type="int" name="ISIF">     2</i>
   <i name="PSTRESS">      0.00000000</i>
   <i name="EDIFFG">      0.00100000</i>
   <i type="int" name="NFREE">     0</i>
   <i name="POTIM">      0.50000000</i>
   <i name="SMASS">     -3.00000000</i>
   <i name="SCALEE">      1.00000000</i>
  </separator>
  <separator name="ionic md" >
   <i name="TEBEG">      0.00010000</i>
   <i name="TEEND">      0.00010000</i>
   <i type="int" name="NBLOCK">     1</i>
   <i type="int" name="KBLOCK">     1</i>
   <i type="int" name="NPACO">   256</i>
   <i name="APACO">     16.00000000</i>
  </separator>
  <separator name="symmetry" >
   <i type="int" name="ISYM">     2</i>
   <i name="SYMPREC">      0.00001000</i>
  </separator>
  <separator name="dos" >
   <i type="int" name="LORBIT">     0</i>
   <v name="RWIGS">     -1.00000000     -1.00000000</v>
   <i type="int" name="NEDOS">   301</i>
   <i name="EMIN">     10.00000000</i>
   <i name="EMAX">    -10.00000000</i>
   <i name="EFERMI">      0.00000000</i>
  </separator>
  <separator name="writing" >
   <i type="int" name="NWRITE">     2</i>
   <i type="logical" name="LWAVE"> F  </i>
   <i type="logical" name="LDOWNSAMPLE"> F  </i>
   <i type="logical" name="LCHARG"> F  </i>
   <i type="logical" name="LPARD"> F  </i>
   <i type="logical" name="LVTOT"> F  </i>
   <i type="logical" name="LVHAR"> F  </i>
   <i type="logical" name="LELF"> F  </i>
   <i type="logical" name="LOPTICS"> F  </i>
   <v name="STM">      0.00000000      0.00000000      0.00000000      0.00000000      0.00000000      0.00000000      0.00000000</v>
  </separator>
  <separator name="performance" >
   <i type="int" name="NPAR">     2</i>
   <i type="int" name="NSIM">     4</i>
   <i type="int" name="NBLK">    -1</i>
   <i type="logical" name="LPLANE"> T  </i>
   <i type="logical" name="LSCALAPACK"> T  </i>
   <i type="logical" name="LSCAAWARE"> F  </i>
   <i type="logical" name="LSCALU"> F  </i>
   <i type="logical" name="LASYNC"> F  </i>
   <i type="logical" name="LORBITALREAL"> F  </i>
  </separator>
  <separator name="miscellaneous" >
   <i type="int" name="IDIOT">     3</i>
   <i type="int" name="ISPECIAL">     0</i>
   <i type="logical" name="LMUSIC"> F  </i>
   <v name="POMASS">     58.69000000     32.06600000</v>
   <v name="DARWINR">      0.00000000      0.00000000</v>
   <v name="DARWINV">      1.00000000      1.00000000</v>
   <i type="logical" name="LCORR"> T  </i>
  </separator>
  <i type="logical" name="GGA_COMPAT"> T  </i>
  <i type="logical" name="LBERRY"> F  </i>
  <i type="int" name="ICORELEVEL">     0</i>
  <i type="logical" name="LDAU"> F  </i>
  <i type="int" name="I_CONSTRAINED_M">     0</i>
  <separator name="electronic exchange-correlation" >
   <i type="string" name="GGA">--</i>
   <i type="int" name="VOSKOWN">     0</i>
   <i type="logical" name="LHFCALC"> F  </i>
   <i type="string" name="PRECFOCK"></i>
   <i type="logical" name="LSYMGRAD"> F  </i>
   <i type="logical" name="LHFONE"> F  </i>
   <i type="logical" name="LRHFCALC"> F  </i>
   <i type="logical" name="LTHOMAS"> F  </i>
   <i type="logical" name="LMODELHF"> F  </i>
   <i name="ENCUT4O">     -1.00000000</i>
   <i type="int" name="EXXOEP">     0</i>
   <i type="int" name="FOURORBIT">     0</i>
   <i name="AEXX">      0.00000000</i>
   <i name="HFALPHA">      0.00000000</i>
   <i name="MCALPHA">      0.00000000</i>
   <i name="ALDAX">      1.00000000</i>
   <i name="AGGAX">      1.00000000</i>
   <i name="ALDAC">      1.00000000</i>
   <i name="AGGAC">      1.00000000</i>
   <i type="int" name="NKREDX">     1</i>
   <i type="int" name="NKREDY">     1</i>
   <i type="int" name="NKREDZ">     1</i>
   <i type="logical" name="SHIFTRED"> F  </i>
   <i type="logical" name="ODDONLY"> F  </i>
   <i type="logical" name="EVENONLY"> F  </i>
   <i type="int" name="LMAXFOCK">     0</i>
   <i type="int" name="NMAXFOCKAE">     0</i>
   <i type="logical" name="LFOCKAEDFT"> F  </i>
   <i name="HFSCREEN">      0.00000000</i>
   <i name="HFSCREENC">      0.00000000</i>
   <i type="int" name="NBANDSGWLOW">     0</i>
  </separator>
  <separator name="vdW DFT" >
   <i type="logical" name="LUSE_VDW"> F  </i>
   <i name="Zab_VDW">     -0.84910000</i>
   <i name="PARAM1">      0.12340000</i>
   <i name="PARAM2">      1.00000000</i>
   <i name="PARAM3">      0.00000000</i>
  </separator>
  <separator name="model GW" >
   <i type="int" name="MODEL_GW">     0</i>
   <i name="MODEL_EPS0">     21.79168807</i>
   <i name="MODEL_ALPHA">      1.00000000</i>
  </separator>
  <separator name="linear response parameters" >
   <i type="logical" name="LEPSILON"> F  </i>
   <i type="logical" name="LRPA"> F  </i>
   <i type="logical" name="LNABLA"> F  </i>
   <i type="logical" name="LVEL"> F  </i>
   <i type="int" name="KINTER">     0</i>
   <i name="CSHIFT">      0.10000000</i>
   <i name="OMEGAMAX">     -1.00000000</i>
   <i name="DEG_THRESHOLD">      0.00200000</i>
   <i name="RTIME">     -0.10000000</i>
   <i name="WPLASMAI">      0.00000000</i>
   <v name="DFIELD">      0.00000000      0.00000000      0.00000000</v>
   <v name="WPLASMA">      0.00000000      0.00000000      0.00000000      0.00000000      0.00000000      0.00000000      0.00000000      0.00000000      0.00000000</v>
  </separator>
  <separator name="orbital magnetization" >
   <i type="logical" name="NUCIND"> F  </i>
   <v name="MAGPOS">      0.00000000      0.00000000      0.00000000</v>
   <i type="logical" name="LNICSALL"> T  </i>
   <i type="logical" name="ORBITALMAG"> F  </i>
   <i type="logical" name="LMAGBLOCH"> F  </i>
   <i type="logical" name="LCHIMAG"> F  </i>
   <i type="logical" name="LGAUGE"> T  </i>
   <i type="int" name="MAGATOM">     0</i>
   <v name="MAGDIPOL">      0.00000000      0.00000000      0.00000000</v>
   <v name="AVECCONST">      0.00000000      0.00000000      0.00000000</v>
  </separator>
  <separator name="response functions" >
   <i type="logical" name="LADDER"> F  </i>
   <i type="logical" name="LRPAFORCE"> F  </i>
   <i type="logical" name="LFXC"> F  </i>
   <i type="logical" name="LHARTREE"> T  </i>
   <i type="int" name="IBSE">     0</i>
   <v type="int" name="KPOINT">    -1     0     0     0</v>
   <i type="logical" name="LTCTE"> F  </i>
   <i type="logical" name="LTETE"> F  </i>
   <i type="logical" name="LTRIPLET"> F  </i>
   <i type="logical" name="LFXCEPS"> F  </i>
   <i type="logical" name="LFXHEG"> F  </i>
   <i type="int" name="NATURALO">     2</i>
   <i type="logical" name="L2ORDER"> F  </i>
   <i type="logical" name="LMP2LT"> F  </i>
   <i type="logical" name="LUSEW"> F  </i>
   <i name="ENCUTGW">     -2.00000000</i>
   <i name="ENCUTGWSOFT">     -2.00000000</i>
   <i name="ENCUTLF">     -1.00000000</i>
   <i type="int" name="LMAXMP2">    -1</i>
   <i name="SCISSOR">      0.00000000</i>
   <i type="int" name="NOMEGA">     0</i>
   <i type="int" name="NOMEGAR">     0</i>
   <i type="int" name="NBANDSGW">    -1</i>
   <i type="int" name="NBANDSO">    -1</i>
   <i type="int" name="NBANDSV">    -1</i>
   <i type="int" name="NELM">   100</i>
   <i type="int" name="NELMHF">     1</i>
   <i type="int" name="DIM">     3</i>
   <i type="int" name="ANTIRES">     0</i>
   <i name="OMEGAMAX">    -30.00000000</i>
   <i name="OMEGAMIN">    -30.00000000</i>
   <i name="OMEGATL">   -200.00000000</i>
   <i type="int" name="OMEGAGRID">   140</i>
   <i name="CSHIFT">     -0.10000000</i>
   <i type="logical" name="SELFENERGY"> F  </i>
   <i type="logical" name="LSPECTRAL"> F  </i>
   <i type="logical" name="LSPECTRALGW"> F  </i>
   <i type="logical" name="LSINGLES"> F  </i>
   <i type="logical" name="LFERMIGW"> F  </i>
   <i type="logical" name="ODDONLYGW"> F  </i>
   <i type="logical" name="EVENONLYGW"> F  </i>
   <i type="int" name="NKREDLFX">     1</i>
   <i type="int" name="NKREDLFY">     1</i>
   <i type="int" name="NKREDLFZ">     1</i>
   <i type="int" name="MAXMEM">  2800</i>
   <i type="int" name="TELESCOPE">     0</i>
   <i type="int" name="TAUPAR">     1</i>
   <i type="int" name="OMEGAPAR">    -1</i>
   <i name="LAMBDA">      1.00000000</i>
  </separator>
  <separator name="External order field" >
   <i name="OFIELD_KAPPA">      0.00000000</i>
   <v name="OFIELD_K">      0.00000000      0.00000000      0.00000000</v>
   <i name="OFIELD_Q6_NEAR">      0.00000000</i>
   <i name="OFIELD_Q6_FAR">      0.00000000</i>
   <i name="OFIELD_A">      0.00000000</i>
  </separator>
 </parameters>
 <atominfo>
  <atoms>      72 </atoms>
  <types>       2 </types>
  <array name="atoms" >
   <dimension dim="1">ion</dimension>
   <field type="string">element</field>
   <field type="int">atomtype</field>
   <set>
    <rc><c>Ni</c><c>   1</c></rc>
    <rc><c>Ni</c><c>   1</c></rc>
    <rc><c>Ni</c><c>   1</c></rc>
    <rc><c>Ni</c><c>   1</c></rc>
    <rc><c>Ni</c><c>   1</c></rc>
    <rc><c>Ni</c><c>   1</c></rc>
    <rc><c>Ni</c><c>   1</c></rc>
    <rc><c>Ni</c><c>   1</c></rc>
    <rc><c>Ni</c><c>   1</c></rc>
    <rc><c>Ni</c><c>   1</c></rc>
    <rc><c>Ni</c><c>   1</c></rc>
    <rc><c>Ni</c><c>   1</c></rc>
    <rc><c>Ni</c><c>   1</c></rc>
    <rc><c>Ni</c><c>   1</c></rc>
    <rc><c>Ni</c><c>   1</c></rc>
    <rc><c>Ni</c><c>   1</c></rc>
    <rc><c>Ni</c><c>   1</c></rc>
    <rc><c>Ni</c><c>   1</c></rc>
    <rc><c>Ni</c><c>   1</c></rc>
    <rc><c>Ni</c><c>   1</c></rc>
    <rc><c>Ni</c><c>   1</c></rc>
    <rc><c>Ni</c><c>   1</c></rc>
    <rc><c>Ni</c><c>   1</c></rc>
    <rc><c>Ni</c><c>   1</c></rc>
    <rc><c>Ni</c><c>   1</c></rc>
    <rc><c>Ni</c><c>   1</c></rc>
    <rc><c>Ni</c><c>   1</c></rc>
    <rc><c>Ni</c><c>   1</c></rc>
    <rc><c>Ni</c><c>   1</c></rc>
    <rc><c>Ni</c><c>   1</c></rc>
    <rc><c>Ni</c><c>   1</c></rc>
    <rc><c>Ni</c><c>   1</c></rc>
    <rc><c>Ni</c><c>   1</c></rc>
    <rc><c>Ni</c><c>   1</c></rc>
    <rc><c>Ni</c><c>   1</c></rc>
    <rc><c>Ni</c><c>   1</c></rc>
    <rc><c>S </c><c>   2</c></rc>
    <rc><c>S </c><c>   2</c></rc>
    <rc><c>S </c><c>   2</c></rc>
    <rc><c>S </c><c>   2</c></rc>
    <rc><c>S </c><c>   2</c></rc>
    <rc><c>S </c><c>   2</c></rc>
    <rc><c>S </c><c>   2</c></rc>
    <rc><c>S </c><c>   2</c></rc>
    <rc><c>S </c><c>   2</c></rc>
    <rc><c>S </c><c>   2</c></rc>
    <rc><c>S </c><c>   2</c></rc>
    <rc><c>S </c><c>   2</c></rc>
    <rc><c>S </c><c>   2</c></rc>
    <rc><c>S </c><c>   2</c></rc>
    <rc><c>S </c><c>   2</c></rc>
    <rc><c>S </c><c>   2</c></rc>
    <rc><c>S </c><c>   2</c></rc>
    <rc><c>S </c><c>   2</c></rc>
    <rc><c>S </c><c>   2</c></rc>
    <rc><c>S </c><c>   2</c></rc>
    <rc><c>S </c><c>   2</c></rc>
    <rc><c>S </c><c>   2</c></rc>
    <rc><c>S </c><c>   2</c></rc>
    <rc><c>S </c><c>   2</c></rc>
    <rc><c>S </c><c>   2</c></rc>
    <rc><c>S </c><c>   2</c></rc>
    <rc><c>S </c><c>   2</c></rc>
    <rc><c>S </c><c>   2</c></rc>
    <rc><c>S </c><c>   2</c></rc>
    <rc><c>S </c><c>   2</c></rc>
    <rc><c>S </c><c>   2</c></rc>
    <rc><c>S </c><c>   2</c></rc>
    <rc><c>S </c><c>   2</c></rc>
    <rc><c>S </c><c>   2</c></rc>
    <rc><c>S </c><c>   2</c></rc>
    <rc><c>S </c><c>   2</c></rc>
   </set>
  </array>
  <array name="atomtypes" >
   <dimension dim="1">type</dimension>
   <field type="int">atomspertype</field>
   <field type="string">element</field>
   <field>mass</field>
   <field>valence</field>
   <field type="string">pseudopotential</field>
   <set>
    <rc><c>  36</c><c>Ni</c><c>     58.69000000</c><c>     16.00000000</c><c>  PAW_PBE Ni_pv 06Sep2000               </c></rc>
    <rc><c>  36</c><c>S </c><c>     32.06600000</c><c>      6.00000000</c><c>  PAW_PBE S 06Sep2000                   </c></rc>
   </set>
  </array>
 </atominfo>
 <structure name="initialpos" >
  <crystal>
   <varray name="basis" >
    <v>      16.88469405       0.00000000       0.00000000 </v>
    <v>       0.00000000       9.57841000       0.00000000 </v>
    <v>       0.00000000       0.00000000      16.16908712 </v>
   </varray>
   <i name="volume">   2615.00256803 </i>
   <varray name="rec_basis" >
    <v>       0.05922524       0.00000000       0.00000000 </v>
    <v>       0.00000000       0.10440146       0.00000000 </v>
    <v>       0.00000000       0.00000000       0.06184641 </v>
   </varray>
  </crystal>
  <varray name="positions" >
   <v>       0.78004631       0.14529695       0.12058499 </v>
   <v>       0.80027318       0.14524666       0.28674360 </v>
   <v>       0.29733029       0.64529695       0.21596896 </v>
   <v>       0.38193599       0.20240160       0.12351133 </v>
   <v>       0.46975828       0.14529695       0.24776362 </v>
   <v>       0.95247430       0.64529695       0.15237965 </v>
   <v>       0.96239571       0.63154878       0.30127855 </v>
   <v>       0.12490229       0.14529695       0.18417431 </v>
   <v>       0.07110812       0.08986140       0.31433161 </v>
   <v>       0.57114474       0.64539159       0.15903878 </v>
   <v>       0.64218627       0.64529695       0.27955828 </v>
   <v>       0.90960901       0.00503774       0.11667921 </v>
   <v>       0.94082172       0.00638314       0.26983873 </v>
   <v>       0.44349038       0.43639045       0.05192614 </v>
   <v>       0.42486676       0.51319395       0.19076795 </v>
   <v>       0.44165301       0.49444967       0.33696022 </v>
   <v>       0.61701754       0.94034636       0.08597123 </v>
   <v>       0.59729475       0.01319395       0.22256260 </v>
   <v>       0.08001077       0.51319395       0.12717863 </v>
   <v>       0.25243876       0.01319395       0.15897329 </v>
   <v>       0.33770858       0.92947273       0.26394644 </v>
   <v>       0.77673380       0.43605803       0.11762514 </v>
   <v>       0.76972274       0.51319395       0.25435726 </v>
   <v>       0.92344640       0.35731653       0.13142150 </v>
   <v>       0.94211241       0.27086994       0.27457919 </v>
   <v>       0.35325673       0.64184218       0.07719964 </v>
   <v>       0.42486676       0.77739995       0.19076795 </v>
   <v>       0.47116933       0.83924097       0.32515131 </v>
   <v>       0.52845528       0.14569824       0.08787003 </v>
   <v>       0.59729475       0.27739995       0.22256260 </v>
   <v>       0.08001077       0.77739995       0.12717863 </v>
   <v>       0.11936077       0.78864923       0.27207195 </v>
   <v>       0.25243876       0.27739995       0.15897329 </v>
   <v>       0.26500744       0.28609018       0.30763095 </v>
   <v>       0.76309021       0.87812663       0.11825540 </v>
   <v>       0.76972274       0.77739995       0.25435726 </v>
   <v>       0.96500260       0.13371177       0.36847755 </v>
   <v>       0.99146121       0.14529695       0.18240970 </v>
   <v>       0.47417723       0.64529695       0.08702573 </v>
   <v>       0.50874518       0.64529695       0.27779368 </v>
   <v>       0.64660522       0.14529695       0.11882039 </v>
   <v>       0.67773999       0.14971717       0.28512430 </v>
   <v>       0.11039209       0.64661166       0.03479636 </v>
   <v>       0.16571543       0.64460561       0.19162506 </v>
   <v>       0.28076925       0.14360041       0.06233902 </v>
   <v>       0.33631719       0.14529695       0.24599902 </v>
   <v>       0.81903321       0.64529695       0.15061505 </v>
   <v>       0.84434641       0.64490768       0.32217061 </v>
   <v>       0.83593295       0.29566434       0.04717715 </v>
   <v>       0.82906105       0.31351195       0.21449973 </v>
   <v>       0.31301591       0.82341384       0.14091662 </v>
   <v>       0.36211753       0.73929505       0.31449364 </v>
   <v>       0.48420507       0.31351195       0.15091042 </v>
   <v>       0.51166922       0.32217353       0.31502736 </v>
   <v>       0.00148905       0.81351195       0.24629439 </v>
   <v>       0.96801701       0.82434224       0.07912949 </v>
   <v>       0.14084236       0.32583283       0.11461920 </v>
   <v>       0.14710204       0.25788903       0.29247227 </v>
   <v>       0.65663306       0.81351195       0.18270508 </v>
   <v>       0.69533950       0.79026734       0.35218552 </v>
   <v>       0.33161883       0.43051835       0.10543448 </v>
   <v>       0.33270700       0.46094648       0.28258996 </v>
   <v>       0.81724998       0.00148351       0.03360689 </v>
   <v>       0.82906105       0.97708195       0.21449973 </v>
   <v>       0.99195868       0.46563257       0.22481102 </v>
   <v>       0.97570181       0.50497302       0.05730144 </v>
   <v>       0.48420507       0.97708195       0.15091042 </v>
   <v>       0.53068503       0.02127303       0.33133083 </v>
   <v>       0.65663306       0.47708195       0.18270508 </v>
   <v>       0.69351721       0.49582194       0.35027166 </v>
   <v>       0.14014196       0.96676899       0.11097018 </v>
   <v>       0.17391704       0.97708195       0.27808905 </v>
  </varray>
 </structure>
 <calculation>
  <scstep>
   <time name="dav">    8.37    8.38</time>
   <time name="total">    8.72    8.72</time>
   <energy>
    <i name="alphaZ">   1422.52235994 </i>
    <i name="ewald"> 154624.08323649 </i>
    <i name="hartreedc">-274904.42280884 </i>
    <i name="XCdc">   3682.75732287 </i>
    <i name="pawpsdc"> 112729.53333415 </i>
    <i name="pawaedc">-117641.51188735 </i>
    <i name="eentropy">     -0.52131604 </i>
    <i name="bandstr">  -7008.36954268 </i>
    <i name="atom"> 136002.60505376 </i>
    <i name="e_fr_energy">   8906.67575230 </i>
    <i name="e_wo_entrp">   8907.19706834 </i>
    <i name="e_0_energy">   8906.93641032 </i>
   </energy>
  </scstep>
  <scstep>
   <time name="dav">    7.72    7.73</time>
   <time name="total">    7.72    7.73</time>
   <energy>
    <i name="e_fr_energy">    484.10540307 </i>
    <i name="e_wo_entrp">    484.85758741 </i>
    <i name="e_0_energy">    484.48149524 </i>
   </energy>
  </scstep>
  <scstep>
   <time name="dav">    7.89    7.89</time>
   <time name="total">    7.89    7.89</time>
   <energy>
    <i name="e_fr_energy">   -345.49628426 </i>
    <i name="e_wo_entrp">   -344.37346785 </i>
    <i name="e_0_energy">   -344.93487606 </i>
   </energy>
  </scstep>
  <scstep>
   <time name="dav">    8.03    8.03</time>
   <time name="total">    8.03    8.03</time>
   <energy>
    <i name="e_fr_energy">   -389.13777688 </i>
    <i name="e_wo_entrp">   -387.99392995 </i>
    <i name="e_0_energy">   -388.56585341 </i>
   </energy>
  </scstep>
  <scstep>
   <time name="dav">    8.41    8.41</time>
   <time name="total">    8.68    8.68</time>
   <energy>
    <i name="e_fr_energy">   -390.87196525 </i>
    <i name="e_wo_entrp">   -389.73330578 </i>
    <i name="e_0_energy">   -390.30263551 </i>
   </energy>
  </scstep>
  <scstep>
   <time name="dav">    8.62    8.62</time>
   <time name="total">    9.22    9.22</time>
   <energy>
    <i name="e_fr_energy">   -457.70714055 </i>
    <i name="e_wo_entrp">   -456.98349933 </i>
    <i name="e_0_energy">   -457.34531994 </i>
   </energy>
  </scstep>
  <scstep>
   <time name="dav">    7.86    7.86</time>
   <time name="total">    8.64    8.64</time>
   <energy>
    <i name="e_fr_energy">   -356.55747382 </i>
    <i name="e_wo_entrp">   -355.64448782 </i>
    <i name="e_0_energy">   -356.10098082 </i>
   </energy>
  </scstep>
  <scstep>
   <time name="dav">    9.22    9.22</time>
   <time name="total">    9.87    9.87</time>
   <energy>
    <i name="e_fr_energy">   -381.19739423 </i>
    <i name="e_wo_entrp">   -380.00847563 </i>
    <i name="e_0_energy">   -380.60293493 </i>
   </energy>
  </scstep>
  <scstep>
   <time name="dav">    8.94    8.95</time>
   <time name="total">    9.54    9.55</time>
   <energy>
    <i name="e_fr_energy">   -357.04036804 </i>
    <i name="e_wo_entrp">   -356.07425325 </i>
    <i name="e_0_energy">   -356.55731064 </i>
   </energy>
  </scstep>
  <scstep>
   <time name="dav">    9.29    9.29</time>
   <time name="total">    9.89    9.90</time>
   <energy>
    <i name="e_fr_energy">   -381.93389494 </i>
    <i name="e_wo_entrp">   -380.97657785 </i>
    <i name="e_0_energy">   -381.45523639 </i>
   </energy>
  </scstep>
  <scstep>
   <time name="dav">    9.31    9.31</time>
   <time name="total">    9.91    9.92</time>
   <energy>
    <i name="e_fr_energy">   -353.03094633 </i>
    <i name="e_wo_entrp">   -351.97625450 </i>
    <i name="e_0_energy">   -352.50360041 </i>
   </energy>
  </scstep>
  <scstep>
   <time name="dav">    8.89    8.89</time>
   <time name="total">    9.49    9.49</time>
   <energy>
    <i name="e_fr_energy">   -345.75561392 </i>
    <i name="e_wo_entrp">   -344.87137160 </i>
    <i name="e_0_energy">   -345.31349276 </i>
   </energy>
  </scstep>
  <scstep>
   <time name="dav">    9.05    9.06</time>
   <time name="total">    9.78    9.78</time>
   <energy>
    <i name="e_fr_energy">   -344.56731579 </i>
    <i name="e_wo_entrp">   -343.48969067 </i>
    <i name="e_0_energy">   -344.02850323 </i>
   </energy>
  </scstep>
  <scstep>
   <time name="dav">    9.34    9.34</time>
   <time name="total">    9.94    9.94</time>
   <energy>
    <i name="e_fr_energy">   -342.09748875 </i>
    <i name="e_wo_entrp">   -341.02410132 </i>
    <i name="e_0_energy">   -341.56079504 </i>
   </energy>
  </scstep>
  <scstep>
   <time name="dav">    9.24    9.24</time>
   <time name="total">    9.85    9.85</time>
   <energy>
    <i name="e_fr_energy">   -340.92591306 </i>
    <i name="e_wo_entrp">   -339.86050717 </i>
    <i name="e_0_energy">   -340.39321011 </i>
   </energy>
  </scstep>
  <scstep>
   <time name="dav">    9.11    9.11</time>
   <time name="total">    9.72    9.72</time>
   <energy>
    <i name="e_fr_energy">   -340.76344564 </i>
    <i name="e_wo_entrp">   -339.68372348 </i>
    <i name="e_0_energy">   -340.22358456 </i>
   </energy>
  </scstep>
  <scstep>
   <time name="dav">    8.98    8.98</time>
   <time name="total">    9.59    9.59</time>
   <energy>
    <i name="e_fr_energy">   -340.41497003 </i>
    <i name="e_wo_entrp">   -339.32342430 </i>
    <i name="e_0_energy">   -339.86919716 </i>
   </energy>
  </scstep>
  <scstep>
   <time name="dav">    9.17    9.17</time>
   <time name="total">    9.78    9.78</time>
   <energy>
    <i name="e_fr_energy">   -340.25518560 </i>
    <i name="e_wo_entrp">   -339.15211767 </i>
    <i name="e_0_energy">   -339.70365164 </i>
   </energy>
  </scstep>
  <scstep>
   <time name="dav">    9.22    9.22</time>
   <time name="total">    9.84    9.84</time>
   <energy>
    <i name="e_fr_energy">   -340.03288889 </i>
    <i name="e_wo_entrp">   -338.91639812 </i>
    <i name="e_0_energy">   -339.47464350 </i>
   </energy>
  </scstep>
  <scstep>
   <time name="dav">    9.30    9.31</time>
   <time name="total">    9.92    9.93</time>
   <energy>
    <i name="e_fr_energy">   -339.77352499 </i>
    <i name="e_wo_entrp">   -338.65225614 </i>
    <i name="e_0_energy">   -339.21289057 </i>
   </energy>
  </scstep>
  <scstep>
   <time name="dav">    9.08    9.09</time>
   <time name="total">    9.71    9.71</time>
   <energy>
    <i name="e_fr_energy">   -339.75387306 </i>
    <i name="e_wo_entrp">   -338.63640877 </i>
    <i name="e_0_energy">   -339.19514092 </i>
   </energy>
  </scstep>
  <scstep>
   <time name="dav">    8.60    8.60</time>
   <time name="total">    9.22    9.22</time>
   <energy>
    <i name="e_fr_energy">   -339.71608801 </i>
    <i name="e_wo_entrp">   -338.59036850 </i>
    <i name="e_0_energy">   -339.15322826 </i>
   </energy>
  </scstep>
  <scstep>
   <time name="dav">    8.15    8.15</time>
   <time name="total">    8.76    8.77</time>
   <energy>
    <i name="e_fr_energy">   -339.70741345 </i>
    <i name="e_wo_entrp">   -338.58360531 </i>
    <i name="e_0_energy">   -339.14550938 </i>
   </energy>
  </scstep>
  <scstep>
   <time name="dav">    9.11    9.11</time>
   <time name="total">    9.73    9.74</time>
   <energy>
    <i name="e_fr_energy">   -339.70526567 </i>
    <i name="e_wo_entrp">   -338.58789869 </i>
    <i name="e_0_energy">   -339.14658218 </i>
   </energy>
  </scstep>
  <scstep>
   <time name="dav">    8.66    8.66</time>
   <time name="total">    9.28    9.28</time>
   <energy>
    <i name="e_fr_energy">   -339.69768338 </i>
    <i name="e_wo_entrp">   -338.57821799 </i>
    <i name="e_0_energy">   -339.13795069 </i>
   </energy>
  </scstep>
  <scstep>
   <time name="dav">    9.24    9.24</time>
   <time name="total">    9.86    9.87</time>
   <energy>
    <i name="e_fr_energy">   -339.69392685 </i>
    <i name="e_wo_entrp">   -338.57660300 </i>
    <i name="e_0_energy">   -339.13526493 </i>
   </energy>
  </scstep>
  <scstep>
   <time name="dav">    9.09    9.09</time>
   <time name="total">    9.70    9.71</time>
   <energy>
    <i name="e_fr_energy">   -339.68996193 </i>
    <i name="e_wo_entrp">   -338.57561283 </i>
    <i name="e_0_energy">   -339.13278738 </i>
   </energy>
  </scstep>
  <scstep>
   <time name="dav">    9.05    9.06</time>
   <time name="total">    9.67    9.68</time>
   <energy>
    <i name="e_fr_energy">   -339.69030619 </i>
    <i name="e_wo_entrp">   -338.57568868 </i>
    <i name="e_0_energy">   -339.13299744 </i>
   </energy>
  </scstep>
  <scstep>
   <time name="dav">    8.49    8.49</time>
   <time name="total">    9.11    9.11</time>
   <energy>
    <i name="e_fr_energy">   -339.68933906 </i>
    <i name="e_wo_entrp">   -338.57560170 </i>
    <i name="e_0_energy">   -339.13247038 </i>
   </energy>
  </scstep>
  <scstep>
   <time name="dav">    8.14    8.14</time>
   <time name="total">    8.78    8.78</time>
   <energy>
    <i name="e_fr_energy">   -339.68993772 </i>
    <i name="e_wo_entrp">   -338.57516781 </i>
    <i name="e_0_energy">   -339.13255277 </i>
   </energy>
  </scstep>
  <scstep>
   <time name="dav">    7.16    7.16</time>
   <time name="total">    7.49    7.49</time>
   <energy>
    <i name="alphaZ">   1422.52235994 </i>
    <i name="ewald"> 154624.08323649 </i>
    <i name="hartreedc">-274280.42883637 </i>
    <i name="XCdc">   3654.05280794 </i>
    <i name="pawpsdc"> 140846.79365915 </i>
    <i name="pawaedc">-145838.34734043 </i>
    <i name="eentropy">     -1.11413972 </i>
    <i name="bandstr"> -16769.85675668 </i>
    <i name="atom"> 136002.60505376 </i>
    <i name="e_fr_energy">   -339.68995591 </i>
    <i name="e_wo_entrp">   -338.57581620 </i>
    <i name="e_0_energy">   -339.13288606 </i>
   </energy>
  </scstep>
  <structure>
   <crystal>
    <varray name="basis" >
     <v>      16.88469405       0.00000000       0.00000000 </v>
     <v>       0.00000000       9.57841000       0.00000000 </v>
     <v>       0.00000000       0.00000000      16.16908712 </v>
    </varray>
    <i name="volume">   2615.00256803 </i>
    <varray name="rec_basis" >
     <v>       0.05922524       0.00000000       0.00000000 </v>
     <v>       0.00000000       0.10440146       0.00000000 </v>
     <v>       0.00000000       0.00000000       0.06184641 </v>
    </varray>
   </crystal>
   <varray name="positions" >
    <v>       0.78004631       0.14529695       0.12058499 </v>
    <v>       0.80027318       0.14524666       0.28674360 </v>
    <v>       0.29733029       0.64529695       0.21596896 </v>
    <v>       0.38193599       0.20240160       0.12351133 </v>
    <v>       0.46975828       0.14529695       0.24776362 </v>
    <v>       0.95247430       0.64529695       0.15237965 </v>
    <v>       0.96239571       0.63154878       0.30127855 </v>
    <v>       0.12490229       0.14529695       0.18417431 </v>
    <v>       0.07110812       0.08986140       0.31433161 </v>
    <v>       0.57114474       0.64539159       0.15903878 </v>
    <v>       0.64218627       0.64529695       0.27955828 </v>
    <v>       0.90960901       0.00503774       0.11667921 </v>
    <v>       0.94082172       0.00638314       0.26983873 </v>
    <v>       0.44349038       0.43639045       0.05192614 </v>
    <v>       0.42486676       0.51319395       0.19076795 </v>
    <v>       0.44165301       0.49444967       0.33696022 </v>
    <v>       0.61701754       0.94034636       0.08597123 </v>
    <v>       0.59729475       0.01319395       0.22256260 </v>
    <v>       0.08001077       0.51319395       0.12717863 </v>
    <v>       0.25243876       0.01319395       0.15897329 </v>
    <v>       0.33770858       0.92947273       0.26394644 </v>
    <v>       0.77673380       0.43605803       0.11762514 </v>
    <v>       0.76972274       0.51319395       0.25435726 </v>
    <v>       0.92344640       0.35731653       0.13142150 </v>
    <v>       0.94211241       0.27086994       0.27457919 </v>
    <v>       0.35325673       0.64184218       0.07719964 </v>
    <v>       0.42486676       0.77739995       0.19076795 </v>
    <v>       0.47116933       0.83924097       0.32515131 </v>
    <v>       0.52845528       0.14569824       0.08787003 </v>
    <v>       0.59729475       0.27739995       0.22256260 </v>
    <v>       0.08001077       0.77739995       0.12717863 </v>
    <v>       0.11936077       0.78864923       0.27207195 </v>
    <v>       0.25243876       0.27739995       0.15897329 </v>
    <v>       0.26500744       0.28609018       0.30763095 </v>
    <v>       0.76309021       0.87812663       0.11825540 </v>
    <v>       0.76972274       0.77739995       0.25435726 </v>
    <v>       0.96500260       0.13371177       0.36847755 </v>
    <v>       0.99146121       0.14529695       0.18240970 </v>
    <v>       0.47417723       0.64529695       0.08702573 </v>
    <v>       0.50874518       0.64529695       0.27779368 </v>
    <v>       0.64660522       0.14529695       0.11882039 </v>
    <v>       0.67773999       0.14971717       0.28512430 </v>
    <v>       0.11039209       0.64661166       0.03479636 </v>
    <v>       0.16571543       0.64460561       0.19162506 </v>
    <v>       0.28076925       0.14360041       0.06233902 </v>
    <v>       0.33631719       0.14529695       0.24599902 </v>
    <v>       0.81903321       0.64529695       0.15061505 </v>
    <v>       0.84434641       0.64490768       0.32217061 </v>
    <v>       0.83593295       0.29566434       0.04717715 </v>
    <v>       0.82906105       0.31351195       0.21449973 </v>
    <v>       0.31301591       0.82341384       0.14091662 </v>
    <v>       0.36211753       0.73929505       0.31449364 </v>
    <v>       0.48420507       0.31351195       0.15091042 </v>
    <v>       0.51166922       0.32217353       0.31502736 </v>
    <v>       0.00148905       0.81351195       0.24629439 </v>
    <v>       0.96801701       0.82434224       0.07912949 </v>
    <v>       0.14084236       0.32583283       0.11461920 </v>
    <v>       0.14710204       0.25788903       0.29247227 </v>
    <v>       0.65663306       0.81351195       0.18270508 </v>
    <v>       0.69533950       0.79026734       0.35218552 </v>
    <v>       0.33161883       0.43051835       0.10543448 </v>
    <v>       0.33270700       0.46094648       0.28258996 </v>
    <v>       0.81724998       0.00148351       0.03360689 </v>
    <v>       0.82906105       0.97708195       0.21449973 </v>
    <v>       0.99195868       0.46563257       0.22481102 </v>
    <v>       0.97570181       0.50497302       0.05730144 </v>
    <v>       0.48420507       0.97708195       0.15091042 </v>
    <v>       0.53068503       0.02127303       0.33133083 </v>
    <v>       0.65663306       0.47708195       0.18270508 </v>
    <v>       0.69351721       0.49582194       0.35027166 </v>
    <v>       0.14014196       0.96676899       0.11097018 </v>
    <v>       0.17391704       0.97708195       0.27808905 </v>
   </varray>
  </structure>
  <varray name="forces" >
   <v>      -0.14155693       0.43116037       1.06935640 </v>
   <v>       0.13159605      -0.11175230       0.77293202 </v>
   <v>      -1.69149119      -0.11138096       0.20120363 </v>
   <v>       1.21859426      -0.09444236      -0.27819809 </v>
   <v>      -1.19153212      -0.15934373      -0.92247119 </v>
   <v>      -1.00749645       0.68947785       0.61632869 </v>
   <v>       0.31587746       0.20180991       0.73799818 </v>
   <v>      -0.60924769      -0.46900399       0.15239143 </v>
   <v>       0.58693668      -0.54540255       0.34182122 </v>
   <v>       0.66669831       0.01056428      -0.41524049 </v>
   <v>      -0.76906135      -0.29605073      -0.89872594 </v>
   <v>       0.70502572       0.54850008       0.05061479 </v>
   <v>      -0.56120011      -0.74524840      -0.34515795 </v>
   <v>       0.34808830      -0.47284676      -1.10533882 </v>
   <v>       0.14558689      -0.07003945       0.26804272 </v>
   <v>       0.22874655      -0.23838900       1.07331663 </v>
   <v>      -0.24943845      -0.53093383      -0.87059632 </v>
   <v>       0.04863784      -0.02459904      -0.24452966 </v>
   <v>       0.34672983      -0.68459711       1.33058163 </v>
   <v>      -0.53931338      -0.62330455       1.21104982 </v>
   <v>      -0.32809033       0.52400310       0.49641161 </v>
   <v>      -1.30422119       0.65674285       0.04169245 </v>
   <v>       0.41307854       0.11007969      -1.37604513 </v>
   <v>       0.40706023      -1.16189071       0.79500094 </v>
   <v>      -0.52728227       1.08169417      -0.10600704 </v>
   <v>      -1.02727535       0.00297946      -1.03390132 </v>
   <v>       1.39871043      -0.04152580      -0.70947220 </v>
   <v>      -0.24516956      -0.10875941       0.65175827 </v>
   <v>      -0.35240672       0.23855825      -1.63221718 </v>
   <v>       0.29424436       0.94128288      -0.95777821 </v>
   <v>       0.13026055       0.84911629       1.61928823 </v>
   <v>      -0.12645379      -0.53338349       1.39080159 </v>
   <v>      -0.14071736       0.51485823       0.74461033 </v>
   <v>       0.11799589       0.57391275       0.37344496 </v>
   <v>      -0.52510180      -1.23660566       0.11003620 </v>
   <v>       1.10523859      -0.08054889      -1.61816452 </v>
   <v>      -0.72316088       0.40308213       4.21115288 </v>
   <v>       1.34925966      -0.11058244      -2.24061015 </v>
   <v>       0.77499982       0.41587909      -2.90624878 </v>
   <v>       1.79666846       0.41685028       0.72659485 </v>
   <v>       1.50600340       0.70063275      -1.63266950 </v>
   <v>       0.50336671      -0.28402083       2.82309651 </v>
   <v>       1.21385763      -0.20404364      -3.91864382 </v>
   <v>       1.46764094      -0.89622700       1.27229881 </v>
   <v>      -0.05571508      -0.54701091      -3.68029298 </v>
   <v>       0.57794216      -0.24061870       0.99218125 </v>
   <v>       0.06559084       0.62118903      -1.42624375 </v>
   <v>       0.75777972      -0.08136838       2.48911782 </v>
   <v>       0.37325156       0.20131929      -3.73661438 </v>
   <v>      -1.20447099       1.03269381       1.38013140 </v>
   <v>      -0.71974956       0.47206803      -1.65490355 </v>
   <v>      -1.36873467      -0.04173864       3.04565172 </v>
   <v>       1.21886531       1.83964067      -0.28048121 </v>
   <v>       0.28138883      -0.05268493       2.54422766 </v>
   <v>      -0.45362764      -0.04834946       1.36070945 </v>
   <v>      -0.39037765       0.52555133      -2.81742388 </v>
   <v>      -0.33550290       0.14147220      -2.17845600 </v>
   <v>      -0.51442115       1.85044915       1.99677367 </v>
   <v>      -0.83885366       0.36494567      -0.38616787 </v>
   <v>      -0.40738213       1.45551397       3.79254708 </v>
   <v>      -1.54324906       0.38221160      -1.24858876 </v>
   <v>      -1.21420917      -0.39411307       1.25458852 </v>
   <v>      -0.14501555      -0.51147328      -3.82438622 </v>
   <v>      -1.00809520      -1.43523817       1.41198366 </v>
   <v>       1.24787082      -0.39412345       2.01452391 </v>
   <v>      -0.13845843      -0.35975786      -3.78253584 </v>
   <v>      -0.22786232      -1.57252850      -0.56358588 </v>
   <v>       0.70784810      -0.33117367       2.99141942 </v>
   <v>      -0.03986228      -0.89832015      -1.13775916 </v>
   <v>      -0.50071922      -1.45036920       3.66617342 </v>
   <v>      -0.46425226       0.20272923      -2.93397316 </v>
   <v>       1.17933541      -0.20717741       0.84157521 </v>
  </varray>
  <varray name="stress" >
   <v>      72.37961410       2.79442328      -1.67601723 </v>
   <v>       2.79442304      77.85799956       1.42575103 </v>
   <v>      -1.67601733       1.42575103      88.11868154 </v>
  </varray>
  <energy>
   <i name="e_fr_energy">   -339.68995591 </i>
   <i name="e_wo_entrp">   -339.13288606 </i>
   <i name="e_0_energy">     -1.11413972 </i>
  </energy>
  <time name="totalsc">  294.89  294.97</time>
  <eigenvalues>
   <array>
    <dimension dim="1">band</dimension>
    <dimension dim="2">kpoint</dimension>
    <dimension dim="3">spin</dimension>
    <field>eigene</field>
    <field>occ</field>
    <set>
     <set comment="spin 1">
      <set comment="kpoint 1">
       <r>  -65.2750    1.0000 </r>
       <r>  -65.1370    1.0000 </r>
       <r>  -65.1187    1.0000 </r>
       <r>  -65.0652    1.0000 </r>
       <r>  -65.0613    1.0000 </r>
       <r>  -65.0541    1.0000 </r>
       <r>  -64.9602    1.0000 </r>
       <r>  -64.9330    1.0000 </r>
       <r>  -64.9280    1.0000 </r>
       <r>  -64.9256    1.0000 </r>
       <r>  -64.8820    1.0000 </r>
       <r>  -64.8802    1.0000 </r>
       <r>  -64.8768    1.0000 </r>
       <r>  -64.8762    1.0000 </r>
       <r>  -64.8509    1.0000 </r>
       <r>  -64.8362    1.0000 </r>
       <r>  -64.8285    1.0000 </r>
       <r>  -64.8279    1.0000 </r>
       <r>  -64.8168    1.0000 </r>
       <r>  -64.8142    1.0000 </r>
       <r>  -64.8083    1.0000 </r>
       <r>  -64.7934    1.0000 </r>
       <r>  -64.7875    1.0000 </r>
       <r>  -64.7589    1.0000 </r>
       <r>  -64.7507    1.0000 </r>
       <r>  -64.7251    1.0000 </r>
       <r>  -64.7242    1.0000 </r>
       <r>  -64.7234    1.0000 </r>
       <r>  -64.7074    1.0000 </r>
       <r>  -64.6987    1.0000 </r>
       <r>  -64.6944    1.0000 </r>
       <r>  -64.6675    1.0000 </r>
       <r>  -64.6569    1.0000 </r>
       <r>  -64.6466    1.0000 </r>
       <r>  -64.6406    1.0000 </r>
       <r>  -64.6392    1.0000 </r>
       <r>  -64.6246    1.0000 </r>
       <r>  -64.6176    1.0000 </r>
       <r>  -64.5756    1.0000 </r>
       <r>  -64.5740    1.0000 </r>
       <r>  -64.5371    1.0000 </r>
       <r>  -64.5297    1.0000 </r>
       <r>  -64.5251    1.0000 </r>
       <r>  -64.4944    1.0000 </r>
       <r>  -64.4887    1.0000 </r>
       <r>  -64.4821    1.0000 </r>
       <r>  -64.4818    1.0000 </r>
       <r>  -64.4803    1.0000 </r>
       <r>  -64.4787    1.0000 </r>
       <r>  -64.4707    1.0000 </r>
       <r>  -64.4665    1.0000 </r>
       <r>  -64.4634    1.0000 </r>
       <r>  -64.4582    1.0000 </r>
       <r>  -64.4563    1.0000 </r>
       <r>  -64.4367    1.0000 </r>
       <r>  -64.4296    1.0000 </r>
       <r>  -64.4208    1.0000 </r>
       <r>  -64.4184    1.0000 </r>
       <r>  -64.4085    1.0000 </r>
       <r>  -64.4071    1.0000 </r>
       <r>  -64.3887    1.0000 </r>
       <r>  -64.3803    1.0000 </r>
       <r>  -64.3503    1.0000 </r>
       <r>  -64.3417    1.0000 </r>
       <r>  -64.3383    1.0000 </r>
       <r>  -64.3294    1.0000 </r>
       <r>  -64.3186    1.0000 </r>
       <r>  -64.3134    1.0000 </r>
       <r>  -64.3053    1.0000 </r>
       <r>  -64.2679    1.0000 </r>
       <r>  -64.2529    1.0000 </r>
       <r>  -64.2456    1.0000 </r>
       <r>  -64.2352    1.0000 </r>
       <r>  -64.2295    1.0000 </r>
       <r>  -64.2197    1.0000 </r>
       <r>  -64.2074    1.0000 </r>
       <r>  -64.2050    1.0000 </r>
       <r>  -64.1991    1.0000 </r>
       <r>  -64.1671    1.0000 </r>
       <r>  -64.1587    1.0000 </r>
       <r>  -64.1543    1.0000 </r>
       <r>  -64.1516    1.0000 </r>
       <r>  -64.1438    1.0000 </r>
       <r>  -64.1397    1.0000 </r>
       <r>  -64.1165    1.0000 </r>
       <r>  -64.1068    1.0000 </r>
       <r>  -64.0891    1.0000 </r>
       <r>  -64.0740    1.0000 </r>
       <r>  -64.0528    1.0000 </r>
       <r>  -64.0401    1.0000 </r>
       <r>  -64.0183    1.0000 </r>
       <r>  -64.0152    1.0000 </r>
       <r>  -63.9736    1.0000 </r>
       <r>  -63.9643    1.0000 </r>
       <r>  -63.8999    1.0000 </r>
       <r>  -63.8466    1.0000 </r>
       <r>  -63.8260    1.0000 </r>
       <r>  -63.8031    1.0000 </r>
       <r>  -63.7961    1.0000 </r>
       <r>  -63.7714    1.0000 </r>
       <r>  -63.7612    1.0000 </r>
       <r>  -63.7423    1.0000 </r>
       <r>  -63.7153    1.0000 </r>
       <r>  -63.7092    1.0000 </r>
       <r>  -63.5602    1.0000 </r>
       <r>  -63.5319    1.0000 </r>
       <r>  -63.5213    1.0000 </r>
       <r>  -63.4435    1.0000 </r>
       <r>  -16.6740    1.0000 </r>
       <r>  -16.5024    1.0000 </r>
       <r>  -16.0197    1.0000 </r>
       <r>  -15.9778    1.0000 </r>
       <r>  -15.7737    1.0000 </r>
       <r>  -15.6431    1.0000 </r>
       <r>  -15.5241    1.0000 </r>
       <r>  -15.4080    1.0000 </r>
       <r>  -15.2756    1.0000 </r>
       <r>  -15.2101    1.0000 </r>
       <r>  -15.0872    1.0000 </r>
       <r>  -14.9857    1.0000 </r>
       <r>  -14.8998    1.0000 </r>
       <r>  -14.8540    1.0000 </r>
       <r>  -14.7889    1.0000 </r>
       <r>  -14.6179    1.0000 </r>
       <r>  -14.5497    1.0000 </r>
       <r>  -14.5137    1.0000 </r>
       <r>  -14.4350    1.0000 </r>
       <r>  -14.3331    1.0000 </r>
       <r>  -14.2626    1.0000 </r>
       <r>  -14.1357    1.0000 </r>
       <r>  -14.0664    1.0000 </r>
       <r>  -14.0579    1.0000 </r>
       <r>  -14.0292    1.0000 </r>
       <r>  -13.9257    1.0000 </r>
       <r>  -13.8622    1.0000 </r>
       <r>  -13.7097    1.0000 </r>
       <r>  -13.5458    1.0000 </r>
       <r>  -13.4473    1.0000 </r>
       <r>  -13.4119    1.0000 </r>
       <r>  -13.3807    1.0000 </r>
       <r>  -13.2838    1.0000 </r>
       <r>  -13.1526    1.0000 </r>
       <r>  -12.9128    1.0000 </r>
       <r>  -12.8634    1.0000 </r>
       <r>   -8.4874    1.0000 </r>
       <r>   -8.3553    1.0000 </r>
       <r>   -8.1748    1.0000 </r>
       <r>   -8.0788    1.0000 </r>
       <r>   -8.0191    1.0000 </r>
       <r>   -7.9580    1.0000 </r>
       <r>   -7.9071    1.0000 </r>
       <r>   -7.8323    1.0000 </r>
       <r>   -7.7100    1.0000 </r>
       <r>   -7.6795    1.0000 </r>
       <r>   -7.5965    1.0000 </r>
       <r>   -7.5682    1.0000 </r>
       <r>   -7.4076    1.0000 </r>
       <r>   -7.3767    1.0000 </r>
       <r>   -7.3730    1.0000 </r>
       <r>   -7.3245    1.0000 </r>
       <r>   -7.2695    1.0000 </r>
       <r>   -7.1983    1.0000 </r>
       <r>   -7.1529    1.0000 </r>
       <r>   -7.0695    1.0000 </r>
       <r>   -7.0332    1.0000 </r>
       <r>   -7.0007    1.0000 </r>
       <r>   -6.9079    1.0000 </r>
       <r>   -6.8385    1.0000 </r>
       <r>   -6.8030    1.0000 </r>
       <r>   -6.7417    1.0000 </r>
       <r>   -6.7259    1.0000 </r>
       <r>   -6.6838    1.0000 </r>
       <r>   -6.6266    1.0000 </r>
       <r>   -6.5748    1.0000 </r>
       <r>   -6.5190    1.0000 </r>
       <r>   -6.4778    1.0000 </r>
       <r>   -6.4462    1.0000 </r>
       <r>   -6.4264    1.0000 </r>
       <r>   -6.3804    1.0000 </r>
       <r>   -6.3434    1.0000 </r>
       <r>   -6.2608    1.0000 </r>
       <r>   -6.2070    1.0000 </r>
       <r>   -6.1683    1.0000 </r>
       <r>   -6.1528    1.0000 </r>
       <r>   -6.0947    1.0000 </r>
       <r>   -6.0629    1.0000 </r>
       <r>   -6.0388    1.0000 </r>
       <r>   -6.0087    1.0000 </r>
       <r>   -5.9719    1.0000 </r>
       <r>   -5.9605    1.0000 </r>
       <r>   -5.9068    1.0000 </r>
       <r>   -5.8454    1.0000 </r>
       <r>   -5.8036    1.0000 </r>
       <r>   -5.7636    1.0000 </r>
       <r>   -5.7425    1.0000 </r>
       <r>   -5.6529    1.0000 </r>
       <r>   -5.6285    1.0000 </r>
       <r>   -5.6246    1.0000 </r>
       <r>   -5.5749    1.0000 </r>
       <r>   -5.5440    1.0000 </r>
       <r>   -5.5219    1.0000 </r>
       <r>   -5.4882    1.0000 </r>
       <r>   -5.4361    1.0000 </r>
       <r>   -5.4062    1.0000 </r>
       <r>   -5.3750    1.0000 </r>
       <r>   -5.3205    1.0000 </r>
       <r>   -5.3033    1.0000 </r>
       <r>   -5.2707    1.0000 </r>
       <r>   -5.2381    1.0000 </r>
       <r>   -5.2088    1.0000 </r>
       <r>   -5.1980    1.0000 </r>
       <r>   -5.1871    1.0000 </r>
       <r>   -5.1734    1.0000 </r>
       <r>   -5.0908    1.0000 </r>
       <r>   -5.0724    1.0000 </r>
       <r>   -5.0399    1.0000 </r>
       <r>   -5.0254    1.0000 </r>
       <r>   -4.9921    1.0000 </r>
       <r>   -4.9418    1.0000 </r>
       <r>   -4.9068    1.0000 </r>
       <r>   -4.8878    1.0000 </r>
       <r>   -4.8360    1.0000 </r>
       <r>   -4.7860    1.0000 </r>
       <r>   -4.7286    1.0000 </r>
       <r>   -4.7059    1.0000 </r>
       <r>   -4.6907    1.0000 </r>
       <r>   -4.6625    1.0000 </r>
       <r>   -4.6191    1.0000 </r>
       <r>   -4.5534    1.0000 </r>
       <r>   -4.5021    1.0000 </r>
       <r>   -4.4602    1.0000 </r>
       <r>   -4.4460    1.0000 </r>
       <r>   -4.3456    1.0000 </r>
       <r>   -4.3419    1.0000 </r>
       <r>   -4.2979    1.0000 </r>
       <r>   -4.2605    1.0000 </r>
       <r>   -4.2010    1.0000 </r>
       <r>   -4.1419    1.0000 </r>
       <r>   -4.0840    1.0000 </r>
       <r>   -3.9952    1.0000 </r>
       <r>   -3.9845    1.0000 </r>
       <r>   -3.9096    1.0000 </r>
       <r>   -3.8971    1.0000 </r>
       <r>   -3.8607    1.0000 </r>
       <r>   -3.8338    1.0000 </r>
       <r>   -3.8133    1.0000 </r>
       <r>   -3.7769    1.0000 </r>
       <r>   -3.7385    1.0000 </r>
       <r>   -3.6928    1.0000 </r>
       <r>   -3.6588    1.0000 </r>
       <r>   -3.6263    1.0000 </r>
       <r>   -3.5874    1.0000 </r>
       <r>   -3.5781    1.0000 </r>
       <r>   -3.5492    1.0000 </r>
       <r>   -3.5085    1.0000 </r>
       <r>   -3.4381    1.0000 </r>
       <r>   -3.4165    1.0000 </r>
       <r>   -3.3778    1.0000 </r>
       <r>   -3.3411    1.0000 </r>
       <r>   -3.3261    1.0000 </r>
       <r>   -3.2998    1.0000 </r>
       <r>   -3.2749    1.0000 </r>
       <r>   -3.2516    1.0000 </r>
       <r>   -3.2330    1.0000 </r>
       <r>   -3.2044    1.0000 </r>
       <r>   -3.1973    1.0000 </r>
       <r>   -3.1412    1.0000 </r>
       <r>   -3.1317    1.0000 </r>
       <r>   -3.0947    1.0000 </r>
       <r>   -3.0847    1.0000 </r>
       <r>   -3.0506    1.0000 </r>
       <r>   -3.0454    1.0000 </r>
       <r>   -3.0130    1.0000 </r>
       <r>   -2.9723    1.0000 </r>
       <r>   -2.9646    1.0000 </r>
       <r>   -2.9518    1.0000 </r>
       <r>   -2.9361    1.0000 </r>
       <r>   -2.8826    1.0000 </r>
       <r>   -2.8551    1.0000 </r>
       <r>   -2.8512    1.0000 </r>
       <r>   -2.8452    1.0000 </r>
       <r>   -2.8152    1.0000 </r>
       <r>   -2.8027    1.0000 </r>
       <r>   -2.7739    1.0000 </r>
       <r>   -2.7587    1.0000 </r>
       <r>   -2.7086    1.0000 </r>
       <r>   -2.6795    1.0000 </r>
       <r>   -2.6717    1.0000 </r>
       <r>   -2.6334    1.0000 </r>
       <r>   -2.6229    1.0000 </r>
       <r>   -2.6157    1.0000 </r>
       <r>   -2.5966    1.0000 </r>
       <r>   -2.5837    1.0000 </r>
       <r>   -2.5760    1.0000 </r>
       <r>   -2.5540    1.0000 </r>
       <r>   -2.5317    1.0000 </r>
       <r>   -2.5214    1.0000 </r>
       <r>   -2.5033    1.0000 </r>
       <r>   -2.4734    1.0000 </r>
       <r>   -2.4620    1.0000 </r>
       <r>   -2.4533    1.0000 </r>
       <r>   -2.4442    1.0000 </r>
       <r>   -2.4307    1.0000 </r>
       <r>   -2.4159    1.0000 </r>
       <r>   -2.3975    1.0000 </r>
       <r>   -2.3726    1.0000 </r>
       <r>   -2.3567    1.0000 </r>
       <r>   -2.3525    1.0000 </r>
       <r>   -2.3272    1.0000 </r>
       <r>   -2.3085    1.0000 </r>
       <r>   -2.2787    1.0000 </r>
       <r>   -2.2739    1.0000 </r>
       <r>   -2.2638    1.0000 </r>
       <r>   -2.2407    1.0000 </r>
       <r>   -2.2230    1.0000 </r>
       <r>   -2.2020    1.0000 </r>
       <r>   -2.1944    1.0000 </r>
       <r>   -2.1752    1.0000 </r>
       <r>   -2.1532    1.0000 </r>
       <r>   -2.1434    1.0000 </r>
       <r>   -2.1356    1.0000 </r>
       <r>   -2.1059    1.0000 </r>
       <r>   -2.0843    1.0000 </r>
       <r>   -2.0648    1.0000 </r>
       <r>   -2.0461    1.0000 </r>
       <r>   -2.0276    1.0000 </r>
       <r>   -2.0130    1.0000 </r>
       <r>   -1.9867    1.0000 </r>
       <r>   -1.9669    1.0000 </r>
       <r>   -1.9635    1.0000 </r>
       <r>   -1.9500    1.0000 </r>
       <r>   -1.9446    1.0000 </r>
       <r>   -1.9320    1.0000 </r>
       <r>   -1.9129    1.0000 </r>
       <r>   -1.8887    1.0000 </r>
       <r>   -1.8765    1.0000 </r>
       <r>   -1.8482    1.0000 </r>
       <r>   -1.8205    1.0000 </r>
       <r>   -1.8100    1.0000 </r>
       <r>   -1.7848    1.0000 </r>
       <r>   -1.7652    1.0000 </r>
       <r>   -1.7419    1.0000 </r>
       <r>   -1.7252    1.0000 </r>
       <r>   -1.7114    1.0000 </r>
       <r>   -1.7055    1.0000 </r>
       <r>   -1.6653    1.0000 </r>
       <r>   -1.6555    1.0000 </r>
       <r>   -1.6433    1.0000 </r>
       <r>   -1.6012    1.0000 </r>
       <r>   -1.5823    1.0000 </r>
       <r>   -1.5596    1.0000 </r>
       <r>   -1.5453    1.0000 </r>
       <r>   -1.5017    1.0000 </r>
       <r>   -1.4934    1.0000 </r>
       <r>   -1.4750    1.0000 </r>
       <r>   -1.4485    1.0000 </r>
       <r>   -1.4172    1.0000 </r>
       <r>   -1.4036    1.0000 </r>
       <r>   -1.3823    1.0000 </r>
       <r>   -1.3656    1.0000 </r>
       <r>   -1.3523    1.0000 </r>
       <r>   -1.3204    1.0000 </r>
       <r>   -1.3000    1.0000 </r>
       <r>   -1.2599    1.0000 </r>
       <r>   -1.2479    1.0000 </r>
       <r>   -1.2394    1.0000 </r>
       <r>   -1.2113    1.0000 </r>
       <r>   -1.2039    1.0000 </r>
       <r>   -1.1606    1.0000 </r>
       <r>   -1.1364    1.0000 </r>
       <r>   -1.1317    1.0000 </r>
       <r>   -1.0867    1.0000 </r>
       <r>   -1.0349    1.0000 </r>
       <r>   -1.0138    1.0000 </r>
       <r>   -0.9871    1.0000 </r>
       <r>   -0.9410    1.0000 </r>
       <r>   -0.9178    1.0000 </r>
       <r>   -0.8939    1.0000 </r>
       <r>   -0.8756    1.0000 </r>
       <r>   -0.8118    1.0000 </r>
       <r>   -0.7999    1.0000 </r>
       <r>   -0.7381    0.9999 </r>
       <r>   -0.7266    0.9999 </r>
       <r>   -0.6597    0.9995 </r>
       <r>   -0.6435    0.9993 </r>
       <r>   -0.6091    0.9983 </r>
       <r>   -0.5827    0.9970 </r>
       <r>   -0.5242    0.9901 </r>
       <r>   -0.4596    0.9696 </r>
       <r>   -0.4384    0.9577 </r>
       <r>   -0.3861    0.9123 </r>
       <r>   -0.3353    0.8403 </r>
       <r>   -0.3212    0.8150 </r>
       <r>   -0.2790    0.7251 </r>
       <r>   -0.2686    0.7000 </r>
       <r>   -0.2111    0.5469 </r>
       <r>   -0.1803    0.4600 </r>
       <r>   -0.1174    0.2929 </r>
       <r>   -0.1133    0.2829 </r>
       <r>   -0.0531    0.1587 </r>
       <r>   -0.0304    0.1230 </r>
       <r>   -0.0177    0.1057 </r>
       <r>    0.0214    0.0635 </r>
       <r>    0.0787    0.0267 </r>
       <r>    0.0999    0.0187 </r>
       <r>    0.1337    0.0102 </r>
       <r>    0.1767    0.0043 </r>
       <r>    0.2252    0.0015 </r>
       <r>    0.2565    0.0007 </r>
       <r>    0.3093    0.0002 </r>
       <r>    0.3498    0.0001 </r>
       <r>    0.4227    0.0000 </r>
       <r>    0.4685    0.0000 </r>
       <r>    0.5706    0.0000 </r>
       <r>    0.6090    0.0000 </r>
       <r>    0.6542    0.0000 </r>
       <r>    0.7299    0.0000 </r>
       <r>    0.7838    0.0000 </r>
       <r>    0.8119    0.0000 </r>
       <r>    0.8303    0.0000 </r>
       <r>    0.8897    0.0000 </r>
       <r>    0.9369    0.0000 </r>
       <r>    0.9911    0.0000 </r>
       <r>    1.0509    0.0000 </r>
       <r>    1.1001    0.0000 </r>
       <r>    1.1283    0.0000 </r>
       <r>    1.1396    0.0000 </r>
       <r>    1.3034    0.0000 </r>
       <r>    1.3138    0.0000 </r>
       <r>    1.3721    0.0000 </r>
       <r>    1.4508    0.0000 </r>
       <r>    1.5303    0.0000 </r>
       <r>    2.0867    0.0000 </r>
       <r>    2.6001    0.0000 </r>
       <r>    2.8127    0.0000 </r>
       <r>    2.9053    0.0000 </r>
       <r>    2.9639    0.0000 </r>
       <r>    3.2387    0.0000 </r>
       <r>    3.3330    0.0000 </r>
       <r>    3.4598    0.0000 </r>
       <r>    3.6318    0.0000 </r>
       <r>    3.7842    0.0000 </r>
       <r>    3.9196    0.0000 </r>
       <r>    3.9508    0.0000 </r>
       <r>    4.0752    0.0000 </r>
       <r>    4.1054    0.0000 </r>
       <r>    4.1744    0.0000 </r>
       <r>    4.2521    0.0000 </r>
       <r>    4.2906    0.0000 </r>
       <r>    4.3337    0.0000 </r>
       <r>    4.4119    0.0000 </r>
       <r>    4.5146    0.0000 </r>
       <r>    4.6197    0.0000 </r>
       <r>    4.6390    0.0000 </r>
       <r>    4.6783    0.0000 </r>
       <r>    4.7189    0.0000 </r>
       <r>    4.8098    0.0000 </r>
       <r>    4.8767    0.0000 </r>
       <r>    4.9205    0.0000 </r>
       <r>    4.9480    0.0000 </r>
       <r>    4.9880    0.0000 </r>
       <r>    5.0185    0.0000 </r>
       <r>    5.0947    0.0000 </r>
       <r>    5.1470    0.0000 </r>
       <r>    5.1814    0.0000 </r>
       <r>    5.2445    0.0000 </r>
       <r>    5.3146    0.0000 </r>
       <r>    5.3512    0.0000 </r>
       <r>    5.4278    0.0000 </r>
       <r>    5.4522    0.0000 </r>
       <r>    5.4773    0.0000 </r>
       <r>    5.5584    0.0000 </r>
       <r>    5.6410    0.0000 </r>
       <r>    5.6503    0.0000 </r>
       <r>    5.7006    0.0000 </r>
       <r>    5.7621    0.0000 </r>
      </set>
     </set>
    </set>
   </array>
  </eigenvalues>
  <separator name="orbital magnetization" >
   <v name="MAGDIPOLOUT">      0.00000000      0.00000000      0.00000000</v>
  </separator>
  <dos>
   <i name="efermi">     -0.19446621 </i>
   <total>
    <array>
     <dimension dim="1">gridpoints</dimension>
     <dimension dim="2">spin</dimension>
     <field>energy</field>
     <field>total</field>
     <field>integrated</field>
     <set>
      <set comment="spin 1">
       <r>   -68.8268     0.0000     0.0000 </r>
       <r>   -68.5664     0.0000     0.0000 </r>
       <r>   -68.3059     0.0000     0.0000 </r>
       <r>   -68.0454     0.0000     0.0000 </r>
       <r>   -67.7850     0.0000     0.0000 </r>
       <r>   -67.5245     0.0000     0.0000 </r>
       <r>   -67.2640     0.0000     0.0000 </r>
       <r>   -67.0036     0.0000     0.0000 </r>
       <r>   -66.7431     0.0000     0.0000 </r>
       <r>   -66.4826     0.0000     0.0000 </r>
       <r>   -66.2222     0.0000     0.0000 </r>
       <r>   -65.9617     0.0000     0.0000 </r>
       <r>   -65.7012     0.0104     0.0027 </r>
       <r>   -65.4407     1.2147     0.3191 </r>
       <r>   -65.1803    16.8155     4.6990 </r>
       <r>   -64.9198    75.1291    24.2678 </r>
       <r>   -64.6593   156.7591    65.0988 </r>
       <r>   -64.3989   190.9583   114.8375 </r>
       <r>   -64.1384   178.6407   161.3679 </r>
       <r>   -63.8779   111.6146   190.4401 </r>
       <r>   -63.6175    64.5172   207.2448 </r>
       <r>   -63.3570    29.0198   214.8036 </r>
       <r>   -63.0965     4.5166   215.9800 </r>
       <r>   -62.8361     0.0766   216.0000 </r>
       <r>   -62.5756     0.0001   216.0000 </r>
       <r>   -62.3151     0.0000   216.0000 </r>
       <r>   -62.0546     0.0000   216.0000 </r>
       <r>   -61.7942     0.0000   216.0000 </r>
       <r>   -61.5337     0.0000   216.0000 </r>
       <r>   -61.2732     0.0000   216.0000 </r>
       <r>   -61.0128     0.0000   216.0000 </r>
       <r>   -60.7523     0.0000   216.0000 </r>
       <r>   -60.4918     0.0000   216.0000 </r>
       <r>   -60.2314     0.0000   216.0000 </r>
       <r>   -59.9709     0.0000   216.0000 </r>
       <r>   -59.7104     0.0000   216.0000 </r>
       <r>   -59.4500     0.0000   216.0000 </r>
       <r>   -59.1895     0.0000   216.0000 </r>
       <r>   -58.9290     0.0000   216.0000 </r>
       <r>   -58.6685     0.0000   216.0000 </r>
       <r>   -58.4081     0.0000   216.0000 </r>
       <r>   -58.1476     0.0000   216.0000 </r>
       <r>   -57.8871     0.0000   216.0000 </r>
       <r>   -57.6267     0.0000   216.0000 </r>
       <r>   -57.3662     0.0000   216.0000 </r>
       <r>   -57.1057     0.0000   216.0000 </r>
       <r>   -56.8453     0.0000   216.0000 </r>
       <r>   -56.5848     0.0000   216.0000 </r>
       <r>   -56.3243     0.0000   216.0000 </r>
       <r>   -56.0639     0.0000   216.0000 </r>
       <r>   -55.8034     0.0000   216.0000 </r>
       <r>   -55.5429     0.0000   216.0000 </r>
       <r>   -55.2824     0.0000   216.0000 </r>
       <r>   -55.0220     0.0000   216.0000 </r>
       <r>   -54.7615     0.0000   216.0000 </r>
       <r>   -54.5010     0.0000   216.0000 </r>
       <r>   -54.2406     0.0000   216.0000 </r>
       <r>   -53.9801     0.0000   216.0000 </r>
       <r>   -53.7196     0.0000   216.0000 </r>
       <r>   -53.4592     0.0000   216.0000 </r>
       <r>   -53.1987     0.0000   216.0000 </r>
       <r>   -52.9382     0.0000   216.0000 </r>
       <r>   -52.6778     0.0000   216.0000 </r>
       <r>   -52.4173     0.0000   216.0000 </r>
       <r>   -52.1568     0.0000   216.0000 </r>
       <r>   -51.8963     0.0000   216.0000 </r>
       <r>   -51.6359     0.0000   216.0000 </r>
       <r>   -51.3754     0.0000   216.0000 </r>
       <r>   -51.1149     0.0000   216.0000 </r>
       <r>   -50.8545     0.0000   216.0000 </r>
       <r>   -50.5940     0.0000   216.0000 </r>
       <r>   -50.3335     0.0000   216.0000 </r>
       <r>   -50.0731     0.0000   216.0000 </r>
       <r>   -49.8126     0.0000   216.0000 </r>
       <r>   -49.5521     0.0000   216.0000 </r>
       <r>   -49.2917     0.0000   216.0000 </r>
       <r>   -49.0312     0.0000   216.0000 </r>
       <r>   -48.7707     0.0000   216.0000 </r>
       <r>   -48.5102     0.0000   216.0000 </r>
       <r>   -48.2498     0.0000   216.0000 </r>
       <r>   -47.9893     0.0000   216.0000 </r>
       <r>   -47.7288     0.0000   216.0000 </r>
       <r>   -47.4684     0.0000   216.0000 </r>
       <r>   -47.2079     0.0000   216.0000 </r>
       <r>   -46.9474     0.0000   216.0000 </r>
       <r>   -46.6870     0.0000   216.0000 </r>
       <r>   -46.4265     0.0000   216.0000 </r>
       <r>   -46.1660     0.0000   216.0000 </r>
       <r>   -45.9056     0.0000   216.0000 </r>
       <r>   -45.6451     0.0000   216.0000 </r>
       <r>   -45.3846     0.0000   216.0000 </r>
       <r>   -45.1241     0.0000   216.0000 </r>
       <r>   -44.8637     0.0000   216.0000 </r>
       <r>   -44.6032     0.0000   216.0000 </r>
       <r>   -44.3427     0.0000   216.0000 </r>
       <r>   -44.0823     0.0000   216.0000 </r>
       <r>   -43.8218     0.0000   216.0000 </r>
       <r>   -43.5613     0.0000   216.0000 </r>
       <r>   -43.3009     0.0000   216.0000 </r>
       <r>   -43.0404     0.0000   216.0000 </r>
       <r>   -42.7799     0.0000   216.0000 </r>
       <r>   -42.5195     0.0000   216.0000 </r>
       <r>   -42.2590     0.0000   216.0000 </r>
       <r>   -41.9985     0.0000   216.0000 </r>
       <r>   -41.7380     0.0000   216.0000 </r>
       <r>   -41.4776     0.0000   216.0000 </r>
       <r>   -41.2171     0.0000   216.0000 </r>
       <r>   -40.9566     0.0000   216.0000 </r>
       <r>   -40.6962     0.0000   216.0000 </r>
       <r>   -40.4357     0.0000   216.0000 </r>
       <r>   -40.1752     0.0000   216.0000 </r>
       <r>   -39.9148     0.0000   216.0000 </r>
       <r>   -39.6543     0.0000   216.0000 </r>
       <r>   -39.3938     0.0000   216.0000 </r>
       <r>   -39.1334     0.0000   216.0000 </r>
       <r>   -38.8729     0.0000   216.0000 </r>
       <r>   -38.6124     0.0000   216.0000 </r>
       <r>   -38.3519     0.0000   216.0000 </r>
       <r>   -38.0915     0.0000   216.0000 </r>
       <r>   -37.8310     0.0000   216.0000 </r>
       <r>   -37.5705     0.0000   216.0000 </r>
       <r>   -37.3101     0.0000   216.0000 </r>
       <r>   -37.0496     0.0000   216.0000 </r>
       <r>   -36.7891     0.0000   216.0000 </r>
       <r>   -36.5287     0.0000   216.0000 </r>
       <r>   -36.2682     0.0000   216.0000 </r>
       <r>   -36.0077     0.0000   216.0000 </r>
       <r>   -35.7473     0.0000   216.0000 </r>
       <r>   -35.4868     0.0000   216.0000 </r>
       <r>   -35.2263     0.0000   216.0000 </r>
       <r>   -34.9658     0.0000   216.0000 </r>
       <r>   -34.7054     0.0000   216.0000 </r>
       <r>   -34.4449     0.0000   216.0000 </r>
       <r>   -34.1844     0.0000   216.0000 </r>
       <r>   -33.9240     0.0000   216.0000 </r>
       <r>   -33.6635     0.0000   216.0000 </r>
       <r>   -33.4030     0.0000   216.0000 </r>
       <r>   -33.1426     0.0000   216.0000 </r>
       <r>   -32.8821     0.0000   216.0000 </r>
       <r>   -32.6216     0.0000   216.0000 </r>
       <r>   -32.3612     0.0000   216.0000 </r>
       <r>   -32.1007     0.0000   216.0000 </r>
       <r>   -31.8402     0.0000   216.0000 </r>
       <r>   -31.5797     0.0000   216.0000 </r>
       <r>   -31.3193     0.0000   216.0000 </r>
       <r>   -31.0588     0.0000   216.0000 </r>
       <r>   -30.7983     0.0000   216.0000 </r>
       <r>   -30.5379     0.0000   216.0000 </r>
       <r>   -30.2774     0.0000   216.0000 </r>
       <r>   -30.0169     0.0000   216.0000 </r>
       <r>   -29.7565     0.0000   216.0000 </r>
       <r>   -29.4960     0.0000   216.0000 </r>
       <r>   -29.2355     0.0000   216.0000 </r>
       <r>   -28.9751     0.0000   216.0000 </r>
       <r>   -28.7146     0.0000   216.0000 </r>
       <r>   -28.4541     0.0000   216.0000 </r>
       <r>   -28.1936     0.0000   216.0000 </r>
       <r>   -27.9332     0.0000   216.0000 </r>
       <r>   -27.6727     0.0000   216.0000 </r>
       <r>   -27.4122     0.0000   216.0000 </r>
       <r>   -27.1518     0.0000   216.0000 </r>
       <r>   -26.8913     0.0000   216.0000 </r>
       <r>   -26.6308     0.0000   216.0000 </r>
       <r>   -26.3704     0.0000   216.0000 </r>
       <r>   -26.1099     0.0000   216.0000 </r>
       <r>   -25.8494     0.0000   216.0000 </r>
       <r>   -25.5890     0.0000   216.0000 </r>
       <r>   -25.3285     0.0000   216.0000 </r>
       <r>   -25.0680     0.0000   216.0000 </r>
       <r>   -24.8075     0.0000   216.0000 </r>
       <r>   -24.5471     0.0000   216.0000 </r>
       <r>   -24.2866     0.0000   216.0000 </r>
       <r>   -24.0261     0.0000   216.0000 </r>
       <r>   -23.7657     0.0000   216.0000 </r>
       <r>   -23.5052     0.0000   216.0000 </r>
       <r>   -23.2447     0.0000   216.0000 </r>
       <r>   -22.9843     0.0000   216.0000 </r>
       <r>   -22.7238     0.0000   216.0000 </r>
       <r>   -22.4633     0.0000   216.0000 </r>
       <r>   -22.2029     0.0000   216.0000 </r>
       <r>   -21.9424     0.0000   216.0000 </r>
       <r>   -21.6819     0.0000   216.0000 </r>
       <r>   -21.4214     0.0000   216.0000 </r>
       <r>   -21.1610     0.0000   216.0000 </r>
       <r>   -20.9005     0.0000   216.0000 </r>
       <r>   -20.6400     0.0000   216.0000 </r>
       <r>   -20.3796     0.0000   216.0000 </r>
       <r>   -20.1191     0.0000   216.0000 </r>
       <r>   -19.8586     0.0000   216.0000 </r>
       <r>   -19.5982     0.0000   216.0000 </r>
       <r>   -19.3377     0.0000   216.0000 </r>
       <r>   -19.0772     0.0000   216.0000 </r>
       <r>   -18.8168     0.0000   216.0000 </r>
       <r>   -18.5563     0.0000   216.0000 </r>
       <r>   -18.2958     0.0000   216.0000 </r>
       <r>   -18.0353     0.0000   216.0000 </r>
       <r>   -17.7749     0.0000   216.0000 </r>
       <r>   -17.5144     0.0000   216.0000 </r>
       <r>   -17.2539     0.0002   216.0000 </r>
       <r>   -16.9935     0.0934   216.0244 </r>
       <r>   -16.7330     2.8981   216.7793 </r>
       <r>   -16.4725     8.5825   219.0147 </r>
       <r>   -16.2121     4.6738   220.2321 </r>
       <r>   -15.9516     9.6929   222.7568 </r>
       <r>   -15.6911    13.9841   226.3992 </r>
       <r>   -15.4307    16.2208   230.6242 </r>
       <r>   -15.1702    18.7123   235.4982 </r>
       <r>   -14.9097    22.0496   241.2415 </r>
       <r>   -14.6492    23.0236   247.2384 </r>
       <r>   -14.3888    24.8330   253.7066 </r>
       <r>   -14.1283    26.0468   260.4910 </r>
       <r>   -13.8678    28.5193   267.9194 </r>
       <r>   -13.6074    18.1601   272.6496 </r>
       <r>   -13.3469    23.3160   278.7227 </r>
       <r>   -13.0864    18.1905   283.4607 </r>
       <r>   -12.8260    12.2353   286.6477 </r>
       <r>   -12.5655     5.0030   287.9508 </r>
       <r>   -12.3050     0.1886   287.9999 </r>
       <r>   -12.0446     0.0004   288.0000 </r>
       <r>   -11.7841     0.0000   288.0000 </r>
       <r>   -11.5236     0.0000   288.0000 </r>
       <r>   -11.2631     0.0000   288.0000 </r>
       <r>   -11.0027     0.0000   288.0000 </r>
       <r>   -10.7422     0.0000   288.0000 </r>
       <r>   -10.4817     0.0000   288.0000 </r>
       <r>   -10.2213     0.0000   288.0000 </r>
       <r>    -9.9608     0.0000   288.0000 </r>
       <r>    -9.7003     0.0000   288.0000 </r>
       <r>    -9.4399     0.0000   288.0000 </r>
       <r>    -9.1794     0.0000   288.0000 </r>
       <r>    -8.9189     0.0090   288.0023 </r>
       <r>    -8.6585     0.9864   288.2593 </r>
       <r>    -8.3980     8.1571   290.3839 </r>
       <r>    -8.1375    15.7800   294.4942 </r>
       <r>    -7.8770    26.2313   301.3266 </r>
       <r>    -7.6166    28.0687   308.6376 </r>
       <r>    -7.3561    32.4675   317.0944 </r>
       <r>    -7.0956    36.9903   326.7292 </r>
       <r>    -6.8352    36.2870   336.1809 </r>
       <r>    -6.5747    42.6608   347.2927 </r>
       <r>    -6.3142    45.9581   359.2634 </r>
       <r>    -6.0538    49.7062   372.2103 </r>
       <r>    -5.7933    52.2373   385.8165 </r>
       <r>    -5.5328    53.5950   399.7764 </r>
       <r>    -5.2724    61.3705   415.7615 </r>
       <r>    -5.0119    64.9996   432.6919 </r>
       <r>    -4.7514    55.3657   447.1129 </r>
       <r>    -4.4909    49.0224   459.8818 </r>
       <r>    -4.2305    43.7372   471.2740 </r>
       <r>    -3.9700    41.5629   482.0998 </r>
       <r>    -3.7095    54.9899   496.4230 </r>
       <r>    -3.4491    59.3664   511.8861 </r>
       <r>    -3.1886    71.4154   530.4876 </r>
       <r>    -2.9281    84.6621   552.5395 </r>
       <r>    -2.6677    93.8033   576.9724 </r>
       <r>    -2.4072   114.8160   606.8784 </r>
       <r>    -2.1467   119.2012   637.9267 </r>
       <r>    -1.8863   115.1109   667.9095 </r>
       <r>    -1.6258   102.8206   694.6911 </r>
       <r>    -1.3653    92.0146   718.6581 </r>
       <r>    -1.1048    83.4240   740.3875 </r>
       <r>    -0.8444    65.2049   757.3713 </r>
       <r>    -0.5839    54.9043   771.6722 </r>
       <r>    -0.3234    50.9761   784.9499 </r>
       <r>    -0.0630    55.4967   799.4051 </r>
       <r>     0.1975    53.7050   813.3936 </r>
       <r>     0.4580    40.8400   824.0312 </r>
       <r>     0.7184    36.1178   833.4387 </r>
       <r>     0.9789    42.1588   844.4198 </r>
       <r>     1.2394    37.6218   854.2191 </r>
       <r>     1.4998    27.3966   861.3551 </r>
       <r>     1.7603     9.6921   863.8796 </r>
       <r>     2.0208     2.9207   864.6404 </r>
       <r>     2.2813     4.6644   865.8553 </r>
       <r>     2.5417     3.4216   866.7465 </r>
       <r>     2.8022    10.6044   869.5086 </r>
       <r>     3.0627    15.1125   873.4450 </r>
       <r>     3.3231    12.6627   876.7432 </r>
       <r>     3.5836    14.2107   880.4447 </r>
       <r>     3.8441    15.2782   884.4242 </r>
       <r>     4.1045    24.9115   890.9129 </r>
       <r>     4.3650    31.2699   899.0577 </r>
       <r>     4.6255    30.0599   906.8874 </r>
       <r>     4.8859    36.8101   916.4753 </r>
       <r>     5.1464    40.7167   927.0807 </r>
       <r>     5.4069    38.4390   937.0929 </r>
       <r>     5.6674    36.8096   946.6807 </r>
       <r>     5.9278    18.6818   951.5467 </r>
       <r>     6.1883     1.7273   951.9966 </r>
       <r>     6.4488     0.0131   952.0000 </r>
       <r>     6.7092     0.0000   952.0000 </r>
       <r>     6.9697     0.0000   952.0000 </r>
       <r>     7.2302     0.0000   952.0000 </r>
       <r>     7.4906     0.0000   952.0000 </r>
       <r>     7.7511     0.0000   952.0000 </r>
       <r>     8.0116     0.0000   952.0000 </r>
       <r>     8.2720     0.0000   952.0000 </r>
       <r>     8.5325     0.0000   952.0000 </r>
       <r>     8.7930     0.0000   952.0000 </r>
       <r>     9.0534     0.0000   952.0000 </r>
       <r>     9.3139     0.0000   952.0000 </r>
      </set>
     </set>
    </array>
   </total>
  </dos>
 </calculation>
 <structure name="finalpos" >
  <crystal>
   <varray name="basis" >
    <v>      16.88469405       0.00000000       0.00000000 </v>
    <v>       0.00000000       9.57841000       0.00000000 </v>
    <v>       0.00000000       0.00000000      16.16908712 </v>
   </varray>
   <i name="volume">   2615.00256803 </i>
   <varray name="rec_basis" >
    <v>       0.05922524       0.00000000       0.00000000 </v>
    <v>       0.00000000       0.10440146       0.00000000 </v>
    <v>       0.00000000       0.00000000       0.06184641 </v>
   </varray>
  </crystal>
  <varray name="positions" >
   <v>       0.78004631       0.14529695       0.12058499 </v>
   <v>       0.80027318       0.14524666       0.28674360 </v>
   <v>       0.29733029       0.64529695       0.21596896 </v>
   <v>       0.38193599       0.20240160       0.12351133 </v>
   <v>       0.46975828       0.14529695       0.24776362 </v>
   <v>       0.95247430       0.64529695       0.15237965 </v>
   <v>       0.96239571       0.63154878       0.30127855 </v>
   <v>       0.12490229       0.14529695       0.18417431 </v>
   <v>       0.07110812       0.08986140       0.31433161 </v>
   <v>       0.57114474       0.64539159       0.15903878 </v>
   <v>       0.64218627       0.64529695       0.27955828 </v>
   <v>       0.90960901       0.00503774       0.11667921 </v>
   <v>       0.94082172       0.00638314       0.26983873 </v>
   <v>       0.44349038       0.43639045       0.05192614 </v>
   <v>       0.42486676       0.51319395       0.19076795 </v>
   <v>       0.44165301       0.49444967       0.33696022 </v>
   <v>       0.61701754       0.94034636       0.08597123 </v>
   <v>       0.59729475       0.01319395       0.22256260 </v>
   <v>       0.08001077       0.51319395       0.12717863 </v>
   <v>       0.25243876       0.01319395       0.15897329 </v>
   <v>       0.33770858       0.92947273       0.26394644 </v>
   <v>       0.77673380       0.43605803       0.11762514 </v>
   <v>       0.76972274       0.51319395       0.25435726 </v>
   <v>       0.92344640       0.35731653       0.13142150 </v>
   <v>       0.94211241       0.27086994       0.27457919 </v>
   <v>       0.35325673       0.64184218       0.07719964 </v>
   <v>       0.42486676       0.77739995       0.19076795 </v>
   <v>       0.47116933       0.83924097       0.32515131 </v>
   <v>       0.52845528       0.14569824       0.08787003 </v>
   <v>       0.59729475       0.27739995       0.22256260 </v>
   <v>       0.08001077       0.77739995       0.12717863 </v>
   <v>       0.11936077       0.78864923       0.27207195 </v>
   <v>       0.25243876       0.27739995       0.15897329 </v>
   <v>       0.26500744       0.28609018       0.30763095 </v>
   <v>       0.76309021       0.87812663       0.11825540 </v>
   <v>       0.76972274       0.77739995       0.25435726 </v>
   <v>       0.96500260       0.13371177       0.36847755 </v>
   <v>       0.99146121       0.14529695       0.18240970 </v>
   <v>       0.47417723       0.64529695       0.08702573 </v>
   <v>       0.50874518       0.64529695       0.27779368 </v>
   <v>       0.64660522       0.14529695       0.11882039 </v>
   <v>       0.67773999       0.14971717       0.28512430 </v>
   <v>       0.11039209       0.64661166       0.03479636 </v>
   <v>       0.16571543       0.64460561       0.19162506 </v>
   <v>       0.28076925       0.14360041       0.06233902 </v>
   <v>       0.33631719       0.14529695       0.24599902 </v>
   <v>       0.81903321       0.64529695       0.15061505 </v>
   <v>       0.84434641       0.64490768       0.32217061 </v>
   <v>       0.83593295       0.29566434       0.04717715 </v>
   <v>       0.82906105       0.31351195       0.21449973 </v>
   <v>       0.31301591       0.82341384       0.14091662 </v>
   <v>       0.36211753       0.73929505       0.31449364 </v>
   <v>       0.48420507       0.31351195       0.15091042 </v>
   <v>       0.51166922       0.32217353       0.31502736 </v>
   <v>       0.00148905       0.81351195       0.24629439 </v>
   <v>       0.96801701       0.82434224       0.07912949 </v>
   <v>       0.14084236       0.32583283       0.11461920 </v>
   <v>       0.14710204       0.25788903       0.29247227 </v>
   <v>       0.65663306       0.81351195       0.18270508 </v>
   <v>       0.69533950       0.79026734       0.35218552 </v>
   <v>       0.33161883       0.43051835       0.10543448 </v>
   <v>       0.33270700       0.46094648       0.28258996 </v>
   <v>       0.81724998       0.00148351       0.03360689 </v>
   <v>       0.82906105       0.97708195       0.21449973 </v>
   <v>       0.99195868       0.46563257       0.22481102 </v>
   <v>       0.97570181       0.50497302       0.05730144 </v>
   <v>       0.48420507       0.97708195       0.15091042 </v>
   <v>       0.53068503       0.02127303       0.33133083 </v>
   <v>       0.65663306       0.47708195       0.18270508 </v>
   <v>       0.69351721       0.49582194       0.35027166 </v>
   <v>       0.14014196       0.96676899       0.11097018 </v>
   <v>       0.17391704       0.97708195       0.27808905 </v>
  </varray>
 </structure>
</modeling>
