  96  96   0   0
  0.2565633E+02  0.1125646E-08  0.1125646E-08  0.2174423E-08  0.5000000E-15
  1.000000000000000E-004
  CAR 
 "Millerite NiS"                         
     11.52009209    -66.19258375  301      1.51713003      1.00000000
    -66.193  0.0000E+00  0.0000E+00
    -65.934  0.0000E+00  0.0000E+00
    -65.674  0.0000E+00  0.0000E+00
    -65.415  0.0000E+00  0.0000E+00
    -65.156  0.0000E+00  0.0000E+00
    -64.897  0.0000E+00  0.0000E+00
    -64.638  0.0000E+00  0.0000E+00
    -64.379  0.0000E+00  0.0000E+00
    -64.120  0.0000E+00  0.0000E+00
    -63.861  0.0000E+00  0.0000E+00
    -63.602  0.2524E-09  0.6538E-10
    -63.343  0.1478E-04  0.3828E-05
    -63.084  0.4275E-01  0.1108E-01
    -62.825  0.8809E+01  0.2293E+01
    -62.566  0.1654E+03  0.4515E+02
    -62.307  0.4035E+03  0.1497E+03
    -62.048  0.3081E+03  0.2295E+03
    -61.789  0.1420E+03  0.2663E+03
    -61.530  0.6264E+02  0.2825E+03
    -61.271  0.1843E+02  0.2873E+03
    -61.012  0.2777E+01  0.2880E+03
    -60.753  0.3974E-01  0.2880E+03
    -60.494  0.2781E-04  0.2880E+03
    -60.235  0.7816E-09  0.2880E+03
    -59.976  0.0000E+00  0.2880E+03
    -59.717  0.0000E+00  0.2880E+03
    -59.457  0.0000E+00  0.2880E+03
    -59.198  0.0000E+00  0.2880E+03
    -58.939  0.0000E+00  0.2880E+03
    -58.680  0.0000E+00  0.2880E+03
    -58.421  0.0000E+00  0.2880E+03
    -58.162  0.0000E+00  0.2880E+03
    -57.903  0.0000E+00  0.2880E+03
    -57.644  0.0000E+00  0.2880E+03
    -57.385  0.0000E+00  0.2880E+03
    -57.126  0.0000E+00  0.2880E+03
    -56.867  0.0000E+00  0.2880E+03
    -56.608  0.0000E+00  0.2880E+03
    -56.349  0.0000E+00  0.2880E+03
    -56.090  0.0000E+00  0.2880E+03
    -55.831  0.0000E+00  0.2880E+03
    -55.572  0.0000E+00  0.2880E+03
    -55.313  0.0000E+00  0.2880E+03
    -55.054  0.0000E+00  0.2880E+03
    -54.795  0.0000E+00  0.2880E+03
    -54.536  0.0000E+00  0.2880E+03
    -54.277  0.0000E+00  0.2880E+03
    -54.018  0.0000E+00  0.2880E+03
    -53.759  0.0000E+00  0.2880E+03
    -53.500  0.0000E+00  0.2880E+03
    -53.240  0.0000E+00  0.2880E+03
    -52.981  0.0000E+00  0.2880E+03
    -52.722  0.0000E+00  0.2880E+03
    -52.463  0.0000E+00  0.2880E+03
    -52.204  0.0000E+00  0.2880E+03
    -51.945  0.0000E+00  0.2880E+03
    -51.686  0.0000E+00  0.2880E+03
    -51.427  0.0000E+00  0.2880E+03
    -51.168  0.0000E+00  0.2880E+03
    -50.909  0.0000E+00  0.2880E+03
    -50.650  0.0000E+00  0.2880E+03
    -50.391  0.0000E+00  0.2880E+03
    -50.132  0.0000E+00  0.2880E+03
    -49.873  0.0000E+00  0.2880E+03
    -49.614  0.0000E+00  0.2880E+03
    -49.355  0.0000E+00  0.2880E+03
    -49.096  0.0000E+00  0.2880E+03
    -48.837  0.0000E+00  0.2880E+03
    -48.578  0.0000E+00  0.2880E+03
    -48.319  0.0000E+00  0.2880E+03
    -48.060  0.0000E+00  0.2880E+03
    -47.801  0.0000E+00  0.2880E+03
    -47.542  0.0000E+00  0.2880E+03
    -47.282  0.0000E+00  0.2880E+03
    -47.023  0.0000E+00  0.2880E+03
    -46.764  0.0000E+00  0.2880E+03
    -46.505  0.0000E+00  0.2880E+03
    -46.246  0.0000E+00  0.2880E+03
    -45.987  0.0000E+00  0.2880E+03
    -45.728  0.0000E+00  0.2880E+03
    -45.469  0.0000E+00  0.2880E+03
    -45.210  0.0000E+00  0.2880E+03
    -44.951  0.0000E+00  0.2880E+03
    -44.692  0.0000E+00  0.2880E+03
    -44.433  0.0000E+00  0.2880E+03
    -44.174  0.0000E+00  0.2880E+03
    -43.915  0.0000E+00  0.2880E+03
    -43.656  0.0000E+00  0.2880E+03
    -43.397  0.0000E+00  0.2880E+03
    -43.138  0.0000E+00  0.2880E+03
    -42.879  0.0000E+00  0.2880E+03
    -42.620  0.0000E+00  0.2880E+03
    -42.361  0.0000E+00  0.2880E+03
    -42.102  0.0000E+00  0.2880E+03
    -41.843  0.0000E+00  0.2880E+03
    -41.584  0.0000E+00  0.2880E+03
    -41.325  0.0000E+00  0.2880E+03
    -41.065  0.0000E+00  0.2880E+03
    -40.806  0.0000E+00  0.2880E+03
    -40.547  0.0000E+00  0.2880E+03
    -40.288  0.0000E+00  0.2880E+03
    -40.029  0.0000E+00  0.2880E+03
    -39.770  0.0000E+00  0.2880E+03
    -39.511  0.0000E+00  0.2880E+03
    -39.252  0.0000E+00  0.2880E+03
    -38.993  0.0000E+00  0.2880E+03
    -38.734  0.0000E+00  0.2880E+03
    -38.475  0.0000E+00  0.2880E+03
    -38.216  0.0000E+00  0.2880E+03
    -37.957  0.0000E+00  0.2880E+03
    -37.698  0.0000E+00  0.2880E+03
    -37.439  0.0000E+00  0.2880E+03
    -37.180  0.0000E+00  0.2880E+03
    -36.921  0.0000E+00  0.2880E+03
    -36.662  0.0000E+00  0.2880E+03
    -36.403  0.0000E+00  0.2880E+03
    -36.144  0.0000E+00  0.2880E+03
    -35.885  0.0000E+00  0.2880E+03
    -35.626  0.0000E+00  0.2880E+03
    -35.367  0.0000E+00  0.2880E+03
    -35.108  0.0000E+00  0.2880E+03
    -34.848  0.0000E+00  0.2880E+03
    -34.589  0.0000E+00  0.2880E+03
    -34.330  0.0000E+00  0.2880E+03
    -34.071  0.0000E+00  0.2880E+03
    -33.812  0.0000E+00  0.2880E+03
    -33.553  0.0000E+00  0.2880E+03
    -33.294  0.0000E+00  0.2880E+03
    -33.035  0.0000E+00  0.2880E+03
    -32.776  0.0000E+00  0.2880E+03
    -32.517  0.0000E+00  0.2880E+03
    -32.258  0.0000E+00  0.2880E+03
    -31.999  0.0000E+00  0.2880E+03
    -31.740  0.0000E+00  0.2880E+03
    -31.481  0.0000E+00  0.2880E+03
    -31.222  0.0000E+00  0.2880E+03
    -30.963  0.0000E+00  0.2880E+03
    -30.704  0.0000E+00  0.2880E+03
    -30.445  0.0000E+00  0.2880E+03
    -30.186  0.0000E+00  0.2880E+03
    -29.927  0.0000E+00  0.2880E+03
    -29.668  0.0000E+00  0.2880E+03
    -29.409  0.0000E+00  0.2880E+03
    -29.150  0.0000E+00  0.2880E+03
    -28.890  0.0000E+00  0.2880E+03
    -28.631  0.0000E+00  0.2880E+03
    -28.372  0.0000E+00  0.2880E+03
    -28.113  0.0000E+00  0.2880E+03
    -27.854  0.0000E+00  0.2880E+03
    -27.595  0.0000E+00  0.2880E+03
    -27.336  0.0000E+00  0.2880E+03
    -27.077  0.0000E+00  0.2880E+03
    -26.818  0.0000E+00  0.2880E+03
    -26.559  0.0000E+00  0.2880E+03
    -26.300  0.0000E+00  0.2880E+03
    -26.041  0.0000E+00  0.2880E+03
    -25.782  0.0000E+00  0.2880E+03
    -25.523  0.0000E+00  0.2880E+03
    -25.264  0.0000E+00  0.2880E+03
    -25.005  0.0000E+00  0.2880E+03
    -24.746  0.0000E+00  0.2880E+03
    -24.487  0.0000E+00  0.2880E+03
    -24.228  0.0000E+00  0.2880E+03
    -23.969  0.0000E+00  0.2880E+03
    -23.710  0.0000E+00  0.2880E+03
    -23.451  0.0000E+00  0.2880E+03
    -23.192  0.0000E+00  0.2880E+03
    -22.933  0.0000E+00  0.2880E+03
    -22.673  0.0000E+00  0.2880E+03
    -22.414  0.0000E+00  0.2880E+03
    -22.155  0.0000E+00  0.2880E+03
    -21.896  0.0000E+00  0.2880E+03
    -21.637  0.0000E+00  0.2880E+03
    -21.378  0.0000E+00  0.2880E+03
    -21.119  0.0000E+00  0.2880E+03
    -20.860  0.0000E+00  0.2880E+03
    -20.601  0.0000E+00  0.2880E+03
    -20.342  0.0000E+00  0.2880E+03
    -20.083  0.0000E+00  0.2880E+03
    -19.824  0.0000E+00  0.2880E+03
    -19.565  0.0000E+00  0.2880E+03
    -19.306  0.0000E+00  0.2880E+03
    -19.047  0.0000E+00  0.2880E+03
    -18.788  0.0000E+00  0.2880E+03
    -18.529  0.0000E+00  0.2880E+03
    -18.270  0.0000E+00  0.2880E+03
    -18.011  0.0000E+00  0.2880E+03
    -17.752  0.0000E+00  0.2880E+03
    -17.493  0.0000E+00  0.2880E+03
    -17.234  0.0000E+00  0.2880E+03
    -16.975  0.0000E+00  0.2880E+03
    -16.716  0.0000E+00  0.2880E+03
    -16.456  0.0000E+00  0.2880E+03
    -16.197  0.0000E+00  0.2880E+03
    -15.938  0.0000E+00  0.2880E+03
    -15.679  0.0000E+00  0.2880E+03
    -15.420  0.0000E+00  0.2880E+03
    -15.161  0.0000E+00  0.2880E+03
    -14.902  0.3248E-10  0.2880E+03
    -14.643  0.2218E-05  0.2880E+03
    -14.384  0.5925E-02  0.2880E+03
    -14.125  0.6947E+00  0.2882E+03
    -13.866  0.4630E+01  0.2894E+03
    -13.607  0.2925E+01  0.2901E+03
    -13.348  0.7480E+01  0.2921E+03
    -13.089  0.2104E+02  0.2975E+03
    -12.830  0.2546E+02  0.3041E+03
    -12.571  0.3467E+02  0.3131E+03
    -12.312  0.2915E+02  0.3207E+03
    -12.053  0.4675E+02  0.3328E+03
    -11.794  0.5838E+02  0.3479E+03
    -11.535  0.3627E+02  0.3573E+03
    -11.276  0.2034E+02  0.3625E+03
    -11.017  0.1655E+02  0.3668E+03
    -10.758  0.2156E+02  0.3724E+03
    -10.498  0.2685E+02  0.3794E+03
    -10.239  0.1202E+02  0.3825E+03
     -9.980  0.5368E+01  0.3839E+03
     -9.721  0.4514E+00  0.3840E+03
     -9.462  0.2475E-02  0.3840E+03
     -9.203  0.5993E-06  0.3840E+03
     -8.944  0.5645E-11  0.3840E+03
     -8.685  0.0000E+00  0.3840E+03
     -8.426  0.0000E+00  0.3840E+03
     -8.167  0.0000E+00  0.3840E+03
     -7.908  0.0000E+00  0.3840E+03
     -7.649  0.0000E+00  0.3840E+03
     -7.390  0.0000E+00  0.3840E+03
     -7.131  0.0000E+00  0.3840E+03
     -6.872  0.3429E-14  0.3840E+03
     -6.613  0.2941E-08  0.3840E+03
     -6.354  0.9145E-04  0.3840E+03
     -6.095  0.1167E+00  0.3840E+03
     -5.836  0.7168E+01  0.3859E+03
     -5.577  0.2923E+02  0.3935E+03
     -5.318  0.1796E+02  0.3981E+03
     -5.059  0.2731E+02  0.4052E+03
     -4.800  0.4721E+02  0.4174E+03
     -4.541  0.6053E+02  0.4331E+03
     -4.281  0.6626E+02  0.4503E+03
     -4.022  0.3606E+02  0.4596E+03
     -3.763  0.4536E+02  0.4714E+03
     -3.504  0.6823E+02  0.4890E+03
     -3.245  0.6957E+02  0.5070E+03
     -2.986  0.9032E+02  0.5304E+03
     -2.727  0.8767E+02  0.5532E+03
     -2.468  0.8802E+02  0.5760E+03
     -2.209  0.1066E+03  0.6036E+03
     -1.950  0.6580E+02  0.6206E+03
     -1.691  0.4722E+02  0.6328E+03
     -1.432  0.6907E+02  0.6507E+03
     -1.173  0.8623E+02  0.6731E+03
     -0.914  0.1021E+03  0.6995E+03
     -0.655  0.1324E+03  0.7338E+03
     -0.396  0.1653E+03  0.7766E+03
     -0.137  0.1971E+03  0.8277E+03
      0.122  0.2315E+03  0.8876E+03
      0.381  0.2066E+03  0.9412E+03
      0.640  0.1474E+03  0.9793E+03
      0.899  0.1141E+03  0.1009E+04
      1.158  0.8497E+02  0.1031E+04
      1.417  0.7060E+02  0.1049E+04
      1.676  0.6762E+02  0.1067E+04
      1.936  0.6751E+02  0.1084E+04
      2.195  0.7773E+02  0.1104E+04
      2.454  0.7685E+02  0.1124E+04
      2.713  0.7484E+02  0.1144E+04
      2.972  0.2998E+02  0.1151E+04
      3.231  0.3095E+01  0.1152E+04
      3.490  0.5914E+01  0.1154E+04
      3.749  0.7029E+01  0.1156E+04
      4.008  0.1663E+01  0.1156E+04
      4.267  0.1455E+01  0.1156E+04
      4.526  0.1385E+02  0.1160E+04
      4.785  0.1874E+02  0.1165E+04
      5.044  0.1801E+02  0.1169E+04
      5.303  0.1963E+02  0.1175E+04
      5.562  0.2143E+02  0.1180E+04
      5.821  0.2359E+02  0.1186E+04
      6.080  0.2214E+02  0.1192E+04
      6.339  0.3652E+02  0.1201E+04
      6.598  0.3422E+02  0.1210E+04
      6.857  0.3495E+02  0.1219E+04
      7.116  0.4447E+02  0.1231E+04
      7.375  0.4998E+02  0.1244E+04
      7.634  0.4468E+02  0.1255E+04
      7.894  0.6145E+02  0.1271E+04
      8.153  0.3118E+02  0.1279E+04
      8.412  0.2394E+01  0.1280E+04
      8.671  0.1641E-01  0.1280E+04
      8.930  0.6498E-05  0.1280E+04
      9.189  0.1154E-09  0.1280E+04
      9.448  0.0000E+00  0.1280E+04
      9.707  0.0000E+00  0.1280E+04
      9.966  0.0000E+00  0.1280E+04
     10.225  0.0000E+00  0.1280E+04
     10.484  0.0000E+00  0.1280E+04
     10.743  0.0000E+00  0.1280E+04
     11.002  0.0000E+00  0.1280E+04
     11.261  0.0000E+00  0.1280E+04
     11.520  0.0000E+00  0.1280E+04
