       N       E                     dE             d eps       ncg     rms          rms(c)
DAV:   1     0.890995171016E+04    0.89100E+04   -0.50599E+05  1176   0.154E+03
DAV:   2     0.489786441619E+03   -0.84202E+04   -0.81254E+04  1020   0.490E+02
DAV:   3    -0.346705122347E+03   -0.83649E+03   -0.80328E+03  1104   0.163E+02
DAV:   4    -0.390858270215E+03   -0.44153E+02   -0.43678E+02  1072   0.358E+01
DAV:   5    -0.392552223700E+03   -0.16940E+01   -0.16912E+01  1200   0.742E+00    0.997E+01
DAV:   6    -0.460242901329E+03   -0.67691E+02   -0.96571E+02  1192   0.130E+02    0.161E+02
DAV:   7    -0.359074150184E+03    0.10117E+03   -0.19150E+02  1080   0.710E+01    0.676E+01
DAV:   8    -0.362889579466E+03   -0.38154E+01   -0.22259E+02  1336   0.675E+01    0.859E+01
DAV:   9    -0.363328699152E+03   -0.43912E+00   -0.11948E+02  1248   0.549E+01    0.548E+01
DAV:  10    -0.371520776205E+03   -0.81921E+01   -0.58378E+01  1312   0.478E+01    0.842E+01
DAV:  11    -0.354390070858E+03    0.17131E+02   -0.51891E+01  1304   0.367E+01    0.372E+01
DAV:  12    -0.351581744836E+03    0.28083E+01   -0.22803E+01  1288   0.323E+01    0.370E+01
DAV:  13    -0.346606054600E+03    0.49757E+01   -0.16022E+01  1304   0.289E+01    0.284E+01
DAV:  14    -0.343939205646E+03    0.26668E+01   -0.93035E+00  1304   0.187E+01    0.198E+01
DAV:  15    -0.342971351355E+03    0.96785E+00   -0.34409E+00  1312   0.112E+01    0.140E+01
DAV:  16    -0.342258690360E+03    0.71266E+00   -0.10201E+00  1312   0.640E+00    0.113E+01
DAV:  17    -0.342085488262E+03    0.17320E+00   -0.58801E-01  1304   0.484E+00    0.110E+01
DAV:  18    -0.341781413448E+03    0.30407E+00   -0.32211E-01  1312   0.375E+00    0.921E+00
DAV:  19    -0.341506242649E+03    0.27517E+00   -0.31289E-01  1296   0.340E+00    0.729E+00
DAV:  20    -0.341237425155E+03    0.26882E+00   -0.39324E-01  1440   0.422E+00    0.458E+00
DAV:  21    -0.341209919458E+03    0.27506E-01   -0.38096E-01  1304   0.382E+00    0.412E+00
DAV:  22    -0.341164382336E+03    0.45537E-01   -0.14505E-01  1192   0.174E+00    0.300E+00
DAV:  23    -0.341161918348E+03    0.24640E-02   -0.45591E-02  1320   0.134E+00    0.305E+00
DAV:  24    -0.341141695528E+03    0.20223E-01   -0.53696E-02  1296   0.152E+00    0.244E+00
DAV:  25    -0.341124819126E+03    0.16876E-01   -0.61201E-02  1312   0.151E+00    0.181E+00
DAV:  26    -0.341109361432E+03    0.15458E-01   -0.37116E-02  1312   0.134E+00    0.868E-01
DAV:  27    -0.341111415549E+03   -0.20541E-02   -0.14028E-02  1272   0.686E-01    0.950E-01
DAV:  28    -0.341108273907E+03    0.31416E-02   -0.47428E-03  1248   0.482E-01    0.591E-01
DAV:  29    -0.341108242223E+03    0.31685E-04   -0.20689E-03  1160   0.250E-01    0.494E-01
DAV:  30    -0.341107779303E+03    0.46292E-03   -0.17666E-03  1224   0.295E-01    0.332E-01
DAV:  31    -0.341108351362E+03   -0.57206E-03   -0.15624E-03  1176   0.246E-01    0.284E-01
DAV:  32    -0.341108408527E+03   -0.57165E-04   -0.11814E-03  1104   0.254E-01    0.174E-01
DAV:  33    -0.341108808643E+03   -0.40012E-03   -0.51440E-04   880   0.150E-01    0.116E-01
DAV:  34    -0.341108949764E+03   -0.14112E-03   -0.21068E-04   624   0.110E-01    0.827E-02
DAV:  35    -0.341109181848E+03   -0.23208E-03   -0.13625E-04   584   0.715E-02    0.636E-02
DAV:  36    -0.341109476970E+03   -0.29512E-03   -0.78068E-05   584   0.633E-02    0.618E-02
DAV:  37    -0.341110143159E+03   -0.66619E-03   -0.10843E-04   648   0.598E-02    0.498E-02
DAV:  38    -0.341110868919E+03   -0.72576E-03   -0.14762E-04   640   0.706E-02    0.666E-02
DAV:  39    -0.341111302095E+03   -0.43318E-03   -0.10296E-04   640   0.634E-02    0.388E-02
DAV:  40    -0.341111479362E+03   -0.17727E-03   -0.56355E-05   592   0.336E-02    0.446E-02
DAV:  41    -0.341111630566E+03   -0.15120E-03   -0.40937E-05   584   0.297E-02    0.304E-02
DAV:  42    -0.341111886629E+03   -0.25606E-03   -0.25909E-05   576   0.238E-02    0.315E-02
DAV:  43    -0.341112005305E+03   -0.11868E-03   -0.26069E-05   584   0.284E-02    0.164E-02
DAV:  44    -0.341112130336E+03   -0.12503E-03   -0.17112E-05   592   0.159E-02    0.192E-02
DAV:  45    -0.341112170116E+03   -0.39780E-04   -0.11401E-05   592   0.153E-02
   1 F= -.34111217E+03 E0= -.34054906E+03  d E =-.112623E+01
