<?xml version="1.0" encoding="ISO-8859-1"?>
<modeling>
 <generator>
  <i name="program" type="string">vasp </i>
  <i name="version" type="string">6.1.0  </i>
  <i name="subversion" type="string">28Jan20 (build Mar 31 2020 17:42:31) gamma-only                       parallel </i>
  <i name="platform" type="string">LinuxIFC </i>
  <i name="date" type="string">2020 04 12 </i>
  <i name="time" type="string">09:44:20 </i>
 </generator>
 <incar>
  <i type="string" name="SYSTEM">"Millerite NiS"</i>
  <i type="int" name="NSIM">     4</i>
  <i type="int" name="NELM">   100</i>
  <i name="ENCUT">    450.00000000</i>
  <i type="string" name="LREAL">A</i>
  <i type="int" name="ISMEAR">     0</i>
  <i type="int" name="NWRITE">     2</i>
  <i type="logical" name="LWAVE"> F  </i>
  <i type="logical" name="LCHARG"> F  </i>
  <i type="int" name="NCORE">     6</i>
  <i type="int" name="NELM">   100</i>
 </incar>
 <structure name="primitive_cell" >
  <crystal>
   <varray name="basis" >
    <v>      16.88469405       0.00000000       0.00000000 </v>
    <v>       0.00000000       9.57841000       0.00000000 </v>
    <v>       0.00000000       0.00000000      16.16908712 </v>
   </varray>
   <i name="volume">   2615.00256803 </i>
   <varray name="rec_basis" >
    <v>       0.05922524       0.00000000       0.00000000 </v>
    <v>       0.00000000       0.10440146       0.00000000 </v>
    <v>       0.00000000       0.00000000       0.06184641 </v>
   </varray>
  </crystal>
  <varray name="positions" >
   <v>       0.78004631       0.14529695       0.12058499 </v>
   <v>       0.81461426       0.14529695       0.31135294 </v>
   <v>       0.26276233       0.64529695       0.02520102 </v>
   <v>       0.29733029       0.64529695       0.21596897 </v>
   <v>       0.43519032       0.14529695       0.05699568 </v>
   <v>       0.46975828       0.14529695       0.24776362 </v>
   <v>       0.95247430       0.64529695       0.15237965 </v>
   <v>       0.98704226       0.64529695       0.34314760 </v>
   <v>       0.12490229       0.14529695       0.18417431 </v>
   <v>       0.15947025       0.14529695       0.37494226 </v>
   <v>       0.60761831       0.64529695       0.08879033 </v>
   <v>       0.64218627       0.64529695       0.27955828 </v>
   <v>       0.90758278       0.01319395       0.09538397 </v>
   <v>       0.94215073       0.01319395       0.28615192 </v>
   <v>       0.39029880       0.51319395       0.00000000 </v>
   <v>       0.42486675       0.51319395       0.19076795 </v>
   <v>       0.56272679       0.01319395       0.03179466 </v>
   <v>       0.59729475       0.01319395       0.22256261 </v>
   <v>       0.08001077       0.51319395       0.12717863 </v>
   <v>       0.11457873       0.51319395       0.31794658 </v>
   <v>       0.25243876       0.01319395       0.15897329 </v>
   <v>       0.28700672       0.01319395       0.34974124 </v>
   <v>       0.73515478       0.51319395       0.06358932 </v>
   <v>       0.76972274       0.51319395       0.25435726 </v>
   <v>       0.90758278       0.27739995       0.09538397 </v>
   <v>       0.94215073       0.27739995       0.28615192 </v>
   <v>       0.39029880       0.77739995       0.00000000 </v>
   <v>       0.42486675       0.77739995       0.19076795 </v>
   <v>       0.56272679       0.27739995       0.03179466 </v>
   <v>       0.59729475       0.27739995       0.22256261 </v>
   <v>       0.08001077       0.77739995       0.12717863 </v>
   <v>       0.11457873       0.77739995       0.31794658 </v>
   <v>       0.25243876       0.27739995       0.15897329 </v>
   <v>       0.28700672       0.27739995       0.34974124 </v>
   <v>       0.73515478       0.77739995       0.06358932 </v>
   <v>       0.76972274       0.77739995       0.25435726 </v>
   <v>       0.02602916       0.14529695       0.37317765 </v>
   <v>       0.99146121       0.14529695       0.18240970 </v>
   <v>       0.47417723       0.64529695       0.08702573 </v>
   <v>       0.50874518       0.64529695       0.27779368 </v>
   <v>       0.64660522       0.14529695       0.11882039 </v>
   <v>       0.68117318       0.14529695       0.30958834 </v>
   <v>       0.12932124       0.64529695       0.02343641 </v>
   <v>       0.16388920       0.64529695       0.21420436 </v>
   <v>       0.30174923       0.14529695       0.05523107 </v>
   <v>       0.33631719       0.14529695       0.24599902 </v>
   <v>       0.81903321       0.64529695       0.15061505 </v>
   <v>       0.85360117       0.64529695       0.34138299 </v>
   <v>       0.79449310       0.31351195       0.02373179 </v>
   <v>       0.82906105       0.31351195       0.21449973 </v>
   <v>       0.31177708       0.81351195       0.11911576 </v>
   <v>       0.34634503       0.81351195       0.30988371 </v>
   <v>       0.48420507       0.31351195       0.15091042 </v>
   <v>       0.51877303       0.31351195       0.34167837 </v>
   <v>       0.00148905       0.81351195       0.24629439 </v>
   <v>       0.96692109       0.81351195       0.05552644 </v>
   <v>       0.13934908       0.31351195       0.08732110 </v>
   <v>       0.17391704       0.31351195       0.27808905 </v>
   <v>       0.65663306       0.81351195       0.18270508 </v>
   <v>       0.69120102       0.81351195       0.37347302 </v>
   <v>       0.31177708       0.47708195       0.11911576 </v>
   <v>       0.34634503       0.47708195       0.30988371 </v>
   <v>       0.79449310       0.97708195       0.02373179 </v>
   <v>       0.82906105       0.97708195       0.21449973 </v>
   <v>       0.00148905       0.47708195       0.24629439 </v>
   <v>       0.96692109       0.47708195       0.05552644 </v>
   <v>       0.48420507       0.97708195       0.15091042 </v>
   <v>       0.51877303       0.97708195       0.34167837 </v>
   <v>       0.65663306       0.47708195       0.18270508 </v>
   <v>       0.69120102       0.47708195       0.37347302 </v>
   <v>       0.13934908       0.97708195       0.08732110 </v>
   <v>       0.17391704       0.97708195       0.27808905 </v>
  </varray>
 </structure>
 <varray name="primitive_index" >
  <v type="int" >        1 </v>
  <v type="int" >        2 </v>
  <v type="int" >        3 </v>
  <v type="int" >        4 </v>
  <v type="int" >        5 </v>
  <v type="int" >        6 </v>
  <v type="int" >        7 </v>
  <v type="int" >        8 </v>
  <v type="int" >        9 </v>
  <v type="int" >       10 </v>
  <v type="int" >       11 </v>
  <v type="int" >       12 </v>
  <v type="int" >       13 </v>
  <v type="int" >       14 </v>
  <v type="int" >       15 </v>
  <v type="int" >       16 </v>
  <v type="int" >       17 </v>
  <v type="int" >       18 </v>
  <v type="int" >       19 </v>
  <v type="int" >       20 </v>
  <v type="int" >       21 </v>
  <v type="int" >       22 </v>
  <v type="int" >       23 </v>
  <v type="int" >       24 </v>
  <v type="int" >       25 </v>
  <v type="int" >       26 </v>
  <v type="int" >       27 </v>
  <v type="int" >       28 </v>
  <v type="int" >       29 </v>
  <v type="int" >       30 </v>
  <v type="int" >       31 </v>
  <v type="int" >       32 </v>
  <v type="int" >       33 </v>
  <v type="int" >       34 </v>
  <v type="int" >       35 </v>
  <v type="int" >       36 </v>
  <v type="int" >       37 </v>
  <v type="int" >       38 </v>
  <v type="int" >       39 </v>
  <v type="int" >       40 </v>
  <v type="int" >       41 </v>
  <v type="int" >       42 </v>
  <v type="int" >       43 </v>
  <v type="int" >       44 </v>
  <v type="int" >       45 </v>
  <v type="int" >       46 </v>
  <v type="int" >       47 </v>
  <v type="int" >       48 </v>
  <v type="int" >       49 </v>
  <v type="int" >       50 </v>
  <v type="int" >       51 </v>
  <v type="int" >       52 </v>
  <v type="int" >       53 </v>
  <v type="int" >       54 </v>
  <v type="int" >       55 </v>
  <v type="int" >       56 </v>
  <v type="int" >       57 </v>
  <v type="int" >       58 </v>
  <v type="int" >       59 </v>
  <v type="int" >       60 </v>
  <v type="int" >       61 </v>
  <v type="int" >       62 </v>
  <v type="int" >       63 </v>
  <v type="int" >       64 </v>
  <v type="int" >       65 </v>
  <v type="int" >       66 </v>
  <v type="int" >       67 </v>
  <v type="int" >       68 </v>
  <v type="int" >       69 </v>
  <v type="int" >       70 </v>
  <v type="int" >       71 </v>
  <v type="int" >       72 </v>
 </varray>
 <kpoints>
  <generation param="Gamma">
   <v type="int" name="divisions">       1        1        1 </v>
   <v name="usershift">      0.00000000       0.00000000       0.00000000 </v>
   <v name="genvec1">      1.00000000       0.00000000       0.00000000 </v>
   <v name="genvec2">      0.00000000       1.00000000       0.00000000 </v>
   <v name="genvec3">      0.00000000       0.00000000       1.00000000 </v>
   <v name="shift">      0.00000000       0.00000000       0.00000000 </v>
  </generation>
  <varray name="kpointlist" >
   <v>       0.00000000       0.00000000       0.00000000 </v>
  </varray>
  <varray name="weights" >
   <v>       1.00000000 </v>
  </varray>
 </kpoints>
 <parameters>
  <separator name="general" >
   <i type="string" name="SYSTEM">"Millerite NiS"</i>
   <i type="logical" name="LCOMPAT"> F  </i>
  </separator>
  <separator name="electronic" >
   <i type="string" name="PREC">normal</i>
   <i name="ENMAX">    450.00000000</i>
   <i name="ENAUG">    703.44300000</i>
   <i name="EDIFF">      0.00010000</i>
   <i type="int" name="IALGO">    38</i>
   <i type="int" name="IWAVPR">    10</i>
   <i type="int" name="NBANDS">   480</i>
   <i type="int" name="NBANDSLOW">    -1</i>
   <i type="int" name="NBANDSHIGH">    -1</i>
   <i name="NELECT">    792.00000000</i>
   <i type="int" name="TURBO">     0</i>
   <i type="int" name="IRESTART">     0</i>
   <i type="int" name="NREBOOT">     0</i>
   <i type="int" name="NMIN">     0</i>
   <i name="EREF">      0.00000000</i>
   <separator name="electronic smearing" >
    <i type="int" name="ISMEAR">     0</i>
    <i name="SIGMA">      0.20000000</i>
    <i name="KSPACING">      0.50000000</i>
    <i type="logical" name="KGAMMA"> T  </i>
    <i type="logical" name="KBLOWUP"> T  </i>
   </separator>
   <separator name="electronic projectors" >
    <i type="logical" name="LREAL"> T  </i>
    <v name="ROPT">     -0.00050000     -0.00050000</v>
    <i type="int" name="LMAXPAW">  -100</i>
    <i type="int" name="LMAXMIX">     2</i>
    <i type="logical" name="NLSPLINE"> F  </i>
   </separator>
   <separator name="electronic startup" >
    <i type="int" name="ISTART">     0</i>
    <i type="int" name="ICHARG">     2</i>
    <i type="int" name="INIWAV">     1</i>
   </separator>
   <separator name="electronic spin" >
    <i type="int" name="ISPIN">     1</i>
    <i type="logical" name="LNONCOLLINEAR"> F  </i>
    <v name="MAGMOM">      1.00000000      1.00000000      1.00000000      1.00000000      1.00000000      1.00000000      1.00000000      1.00000000      1.00000000      1.00000000      1.00000000      1.00000000      1.00000000      1.00000000      1.00000000      1.00000000      1.00000000      1.00000000      1.00000000      1.00000000
      1.00000000      1.00000000      1.00000000      1.00000000      1.00000000      1.00000000      1.00000000      1.00000000      1.00000000      1.00000000      1.00000000      1.00000000      1.00000000      1.00000000      1.00000000      1.00000000      1.00000000      1.00000000      1.00000000      1.00000000
      1.00000000      1.00000000      1.00000000      1.00000000      1.00000000      1.00000000      1.00000000      1.00000000      1.00000000      1.00000000      1.00000000      1.00000000      1.00000000      1.00000000      1.00000000      1.00000000      1.00000000      1.00000000      1.00000000      1.00000000
      1.00000000      1.00000000      1.00000000      1.00000000      1.00000000      1.00000000      1.00000000      1.00000000      1.00000000      1.00000000      1.00000000      1.00000000</v>
    <i name="NUPDOWN">     -1.00000000</i>
    <i type="logical" name="LSORBIT"> F  </i>
    <v name="SAXIS">      0.00000000      0.00000000      1.00000000</v>
    <i type="logical" name="LSPIRAL"> F  </i>
    <v name="QSPIRAL">      0.00000000      0.00000000      0.00000000</v>
    <i type="logical" name="LZEROZ"> F  </i>
   </separator>
   <separator name="electronic exchange-correlation" >
    <i type="logical" name="LASPH"> F  </i>
    <i type="logical" name="LMETAGGA"> F  </i>
   </separator>
   <separator name="electronic convergence" >
    <i type="int" name="NELM">   100</i>
    <i type="int" name="NELMDL">    -5</i>
    <i type="int" name="NELMIN">     2</i>
    <i name="ENINI">    450.00000000</i>
    <separator name="electronic convergence detail" >
     <i type="logical" name="LDIAG"> T  </i>
     <i type="logical" name="LSUBROT"> F  </i>
     <i name="WEIMIN">      0.00000000</i>
     <i name="EBREAK">      0.00000005</i>
     <i name="DEPER">      0.30000000</i>
     <i type="int" name="NRMM">     4</i>
     <i name="TIME">      0.40000000</i>
    </separator>
   </separator>
   <separator name="electronic mixer" >
    <i name="AMIX">      0.40000000</i>
    <i name="BMIX">      1.00000000</i>
    <i name="AMIN">      0.10000000</i>
    <i name="AMIX_MAG">      1.60000000</i>
    <i name="BMIX_MAG">      1.00000000</i>
    <separator name="electronic mixer details" >
     <i type="int" name="IMIX">     4</i>
     <i type="logical" name="MIXFIRST"> F  </i>
     <i type="int" name="MAXMIX">   -45</i>
     <i name="WC">    100.00000000</i>
     <i type="int" name="INIMIX">     1</i>
     <i type="int" name="MIXPRE">     1</i>
     <i type="int" name="MREMOVE">     5</i>
    </separator>
   </separator>
   <separator name="electronic dipolcorrection" >
    <i type="logical" name="LDIPOL"> F  </i>
    <i type="logical" name="LMONO"> F  </i>
    <i type="int" name="IDIPOL">     0</i>
    <i name="EPSILON">      1.00000000</i>
    <v name="DIPOL">   -100.00000000   -100.00000000   -100.00000000</v>
    <i name="EFIELD">      0.00000000</i>
   </separator>
  </separator>
  <separator name="grids" >
   <i type="int" name="NGX">    90</i>
   <i type="int" name="NGY">    50</i>
   <i type="int" name="NGZ">    84</i>
   <i type="int" name="NGXF">   180</i>
   <i type="int" name="NGYF">   100</i>
   <i type="int" name="NGZF">   168</i>
   <i type="logical" name="ADDGRID"> F  </i>
  </separator>
  <separator name="ionic" >
   <i type="int" name="NSW">     0</i>
   <i type="int" name="IBRION">    -1</i>
   <i type="int" name="MDALGO">     0</i>
   <i type="int" name="ISIF">     2</i>
   <i name="PSTRESS">      0.00000000</i>
   <i name="EDIFFG">      0.00100000</i>
   <i type="int" name="NFREE">     0</i>
   <i name="POTIM">      0.50000000</i>
   <i name="SMASS">     -3.00000000</i>
   <i name="SCALEE">      1.00000000</i>
  </separator>
  <separator name="ionic md" >
   <i name="TEBEG">      0.00010000</i>
   <i name="TEEND">      0.00010000</i>
   <i type="int" name="NBLOCK">     1</i>
   <i type="int" name="KBLOCK">     1</i>
   <i type="int" name="NPACO">   256</i>
   <i name="APACO">     16.00000000</i>
  </separator>
  <separator name="symmetry" >
   <i type="int" name="ISYM">     2</i>
   <i name="SYMPREC">      0.00001000</i>
  </separator>
  <separator name="dos" >
   <i type="int" name="LORBIT">     0</i>
   <v name="RWIGS">     -1.00000000     -1.00000000</v>
   <i type="int" name="NEDOS">   301</i>
   <i name="EMIN">     10.00000000</i>
   <i name="EMAX">    -10.00000000</i>
   <i name="EFERMI">      0.00000000</i>
  </separator>
  <separator name="writing" >
   <i type="int" name="NWRITE">     2</i>
   <i type="logical" name="LWAVE"> F  </i>
   <i type="logical" name="LDOWNSAMPLE"> F  </i>
   <i type="logical" name="LCHARG"> F  </i>
   <i type="logical" name="LPARD"> F  </i>
   <i type="logical" name="LVTOT"> F  </i>
   <i type="logical" name="LVHAR"> F  </i>
   <i type="logical" name="LELF"> F  </i>
   <i type="logical" name="LOPTICS"> F  </i>
   <v name="STM">      0.00000000      0.00000000      0.00000000      0.00000000      0.00000000      0.00000000      0.00000000</v>
  </separator>
  <separator name="performance" >
   <i type="int" name="NPAR">     8</i>
   <i type="int" name="NSIM">     4</i>
   <i type="int" name="NBLK">    -1</i>
   <i type="logical" name="LPLANE"> T  </i>
   <i type="logical" name="LSCALAPACK"> T  </i>
   <i type="logical" name="LSCAAWARE"> F  </i>
   <i type="logical" name="LSCALU"> F  </i>
   <i type="logical" name="LASYNC"> F  </i>
   <i type="logical" name="LORBITALREAL"> F  </i>
  </separator>
  <separator name="miscellaneous" >
   <i type="int" name="IDIOT">     3</i>
   <i type="int" name="PHON_NSTRUCT">    -1</i>
   <i type="logical" name="LMUSIC"> F  </i>
   <v name="POMASS">     58.69000000     32.06600000</v>
   <v name="DARWINR">      0.00000000      0.00000000</v>
   <v name="DARWINV">      1.00000000      1.00000000</v>
   <i type="logical" name="LCORR"> T  </i>
  </separator>
  <i type="logical" name="GGA_COMPAT"> T  </i>
  <i type="logical" name="LBERRY"> F  </i>
  <i type="int" name="ICORELEVEL">     0</i>
  <i type="logical" name="LDAU"> F  </i>
  <i type="int" name="I_CONSTRAINED_M">     0</i>
  <separator name="electronic exchange-correlation" >
   <i type="string" name="GGA">--</i>
   <i type="int" name="VOSKOWN">     0</i>
   <i type="logical" name="LHFCALC"> F  </i>
   <i type="string" name="PRECFOCK"></i>
   <i type="logical" name="LSYMGRAD"> F  </i>
   <i type="logical" name="LHFONE"> F  </i>
   <i type="logical" name="LRHFCALC"> F  </i>
   <i type="logical" name="LTHOMAS"> F  </i>
   <i type="logical" name="LMODELHF"> F  </i>
   <i type="logical" name="LFOCKACE"> F  </i>
   <i name="ENCUT4O">     -1.00000000</i>
   <i type="int" name="EXXOEP">     0</i>
   <i type="int" name="FOURORBIT">     0</i>
   <i name="AEXX">      0.00000000</i>
   <i name="HFALPHA">      0.00000000</i>
   <i name="MCALPHA">      0.00000000</i>
   <i name="ALDAX">      1.00000000</i>
   <i name="AGGAX">      1.00000000</i>
   <i name="ALDAC">      1.00000000</i>
   <i name="AGGAC">      1.00000000</i>
   <i type="int" name="NKREDX">     1</i>
   <i type="int" name="NKREDY">     1</i>
   <i type="int" name="NKREDZ">     1</i>
   <i type="logical" name="SHIFTRED"> F  </i>
   <i type="logical" name="ODDONLY"> F  </i>
   <i type="logical" name="EVENONLY"> F  </i>
   <i type="int" name="LMAXFOCK">     0</i>
   <i type="int" name="NMAXFOCKAE">     0</i>
   <i type="logical" name="LFOCKAEDFT"> F  </i>
   <i name="HFSCREEN">      0.00000000</i>
   <i name="HFSCREENC">      0.00000000</i>
   <i type="int" name="NBANDSGWLOW">     0</i>
  </separator>
  <separator name="vdW DFT" >
   <i type="logical" name="LUSE_VDW"> F  </i>
   <i name="Zab_VDW">     -0.84910000</i>
   <i name="PARAM1">      0.12340000</i>
   <i name="PARAM2">      1.00000000</i>
   <i name="PARAM3">      0.00000000</i>
  </separator>
  <separator name="model GW" >
   <i type="int" name="MODEL_GW">     0</i>
   <i name="MODEL_EPS0">     21.79168807</i>
   <i name="MODEL_ALPHA">      1.00000000</i>
  </separator>
  <separator name="linear response parameters" >
   <i type="logical" name="LEPSILON"> F  </i>
   <i type="logical" name="LRPA"> F  </i>
   <i type="logical" name="LNABLA"> F  </i>
   <i type="logical" name="LVEL"> F  </i>
   <i type="int" name="KINTER">     0</i>
   <i name="CSHIFT">      0.10000000</i>
   <i name="OMEGAMAX">     -1.00000000</i>
   <i name="DEG_THRESHOLD">      0.00200000</i>
   <i name="RTIME">     -0.10000000</i>
   <i name="WPLASMAI">      0.00000000</i>
   <v name="DFIELD">      0.00000000      0.00000000      0.00000000</v>
   <v name="WPLASMA">      0.00000000      0.00000000      0.00000000      0.00000000      0.00000000      0.00000000      0.00000000      0.00000000      0.00000000</v>
  </separator>
  <separator name="orbital magnetization" >
   <i type="logical" name="NUCIND"> F  </i>
   <v name="MAGPOS">      0.00000000      0.00000000      0.00000000</v>
   <i type="logical" name="LNICSALL"> T  </i>
   <i type="logical" name="ORBITALMAG"> F  </i>
   <i type="logical" name="LMAGBLOCH"> F  </i>
   <i type="logical" name="LCHIMAG"> F  </i>
   <i type="logical" name="LGAUGE"> T  </i>
   <i type="int" name="MAGATOM">     0</i>
   <v name="MAGDIPOL">      0.00000000      0.00000000      0.00000000</v>
   <v name="AVECCONST">      0.00000000      0.00000000      0.00000000</v>
  </separator>
  <separator name="response functions" >
   <i type="logical" name="LFINITE_TEMPERATURE"> F  </i>
   <i type="logical" name="LADDER"> F  </i>
   <i type="logical" name="LRPAFORCE"> F  </i>
   <i type="logical" name="LFXC"> F  </i>
   <i type="logical" name="LHARTREE"> T  </i>
   <i type="int" name="IBSE">     0</i>
   <v type="int" name="KPOINT">    -1     0     0     0</v>
   <i type="logical" name="LTCTC"> F  </i>
   <i type="logical" name="LTCTE"> F  </i>
   <i type="logical" name="LTETE"> F  </i>
   <i type="logical" name="LTRIPLET"> F  </i>
   <i type="logical" name="LFXCEPS"> F  </i>
   <i type="logical" name="LFXHEG"> F  </i>
   <i type="int" name="NATURALO">     2</i>
   <i type="logical" name="LHOLEGF"> F  </i>
   <i type="logical" name="L2ORDER"> F  </i>
   <i type="logical" name="LDMP1"> F  </i>
   <i type="logical" name="LMP2LT"> F  </i>
   <i type="logical" name="LSMP2LT"> F  </i>
   <i type="logical" name="LGWLF"> F  </i>
   <i name="ENCUTGW">     -2.00000000</i>
   <i name="ENCUTGWSOFT">     -2.00000000</i>
   <i name="ENCUTLF">     -1.00000000</i>
   <i type="logical" name="LESF_SPLINES"> F  </i>
   <i type="int" name="LMAXMP2">    -1</i>
   <i name="SCISSOR">      0.00000000</i>
   <i type="int" name="NOMEGA">     0</i>
   <i type="int" name="NOMEGAR">     0</i>
   <i type="int" name="NBANDSGW">    -1</i>
   <i type="int" name="NBANDSO">    -1</i>
   <i type="int" name="NBANDSV">    -1</i>
   <i type="int" name="NELM">   100</i>
   <i type="int" name="NELMHF">     1</i>
   <i type="int" name="DIM">     3</i>
   <i type="int" name="IESPILON">     4</i>
   <i type="int" name="ANTIRES">     0</i>
   <i name="OMEGAMAX">    -30.00000000</i>
   <i name="OMEGAMIN">    -30.00000000</i>
   <i name="OMEGATL">   -200.00000000</i>
   <i type="int" name="OMEGAGRID">     0</i>
   <i name="CSHIFT">     -0.10000000</i>
   <i type="logical" name="LSELFENERGY"> F  </i>
   <i type="logical" name="LSPECTRAL"> F  </i>
   <i type="logical" name="LSPECTRALGW"> F  </i>
   <i type="logical" name="LSINGLES"> F  </i>
   <i type="logical" name="LFERMIGW"> F  </i>
   <i type="logical" name="ODDONLYGW"> F  </i>
   <i type="logical" name="EVENONLYGW"> F  </i>
   <i type="int" name="NKREDLFX">     1</i>
   <i type="int" name="NKREDLFY">     1</i>
   <i type="int" name="NKREDLFZ">     1</i>
   <i type="int" name="MAXMEM">  2800</i>
   <i type="int" name="TELESCOPE">     0</i>
   <i type="int" name="NTAUPAR">    -1</i>
   <i type="int" name="NOMEGAPAR">    -1</i>
   <i name="LAMBDA">      1.00000000</i>
  </separator>
  <separator name="External order field" >
   <i name="OFIELD_KAPPA">      0.00000000</i>
   <v name="OFIELD_K">      0.00000000      0.00000000      0.00000000</v>
   <i name="OFIELD_Q6_NEAR">      0.00000000</i>
   <i name="OFIELD_Q6_FAR">      0.00000000</i>
   <i name="OFIELD_A">      0.00000000</i>
  </separator>
 </parameters>
 <atominfo>
  <atoms>      72 </atoms>
  <types>       2 </types>
  <array name="atoms" >
   <dimension dim="1">ion</dimension>
   <field type="string">element</field>
   <field type="int">atomtype</field>
   <set>
    <rc><c>Ni</c><c>   1</c></rc>
    <rc><c>Ni</c><c>   1</c></rc>
    <rc><c>Ni</c><c>   1</c></rc>
    <rc><c>Ni</c><c>   1</c></rc>
    <rc><c>Ni</c><c>   1</c></rc>
    <rc><c>Ni</c><c>   1</c></rc>
    <rc><c>Ni</c><c>   1</c></rc>
    <rc><c>Ni</c><c>   1</c></rc>
    <rc><c>Ni</c><c>   1</c></rc>
    <rc><c>Ni</c><c>   1</c></rc>
    <rc><c>Ni</c><c>   1</c></rc>
    <rc><c>Ni</c><c>   1</c></rc>
    <rc><c>Ni</c><c>   1</c></rc>
    <rc><c>Ni</c><c>   1</c></rc>
    <rc><c>Ni</c><c>   1</c></rc>
    <rc><c>Ni</c><c>   1</c></rc>
    <rc><c>Ni</c><c>   1</c></rc>
    <rc><c>Ni</c><c>   1</c></rc>
    <rc><c>Ni</c><c>   1</c></rc>
    <rc><c>Ni</c><c>   1</c></rc>
    <rc><c>Ni</c><c>   1</c></rc>
    <rc><c>Ni</c><c>   1</c></rc>
    <rc><c>Ni</c><c>   1</c></rc>
    <rc><c>Ni</c><c>   1</c></rc>
    <rc><c>Ni</c><c>   1</c></rc>
    <rc><c>Ni</c><c>   1</c></rc>
    <rc><c>Ni</c><c>   1</c></rc>
    <rc><c>Ni</c><c>   1</c></rc>
    <rc><c>Ni</c><c>   1</c></rc>
    <rc><c>Ni</c><c>   1</c></rc>
    <rc><c>Ni</c><c>   1</c></rc>
    <rc><c>Ni</c><c>   1</c></rc>
    <rc><c>Ni</c><c>   1</c></rc>
    <rc><c>Ni</c><c>   1</c></rc>
    <rc><c>Ni</c><c>   1</c></rc>
    <rc><c>Ni</c><c>   1</c></rc>
    <rc><c>S </c><c>   2</c></rc>
    <rc><c>S </c><c>   2</c></rc>
    <rc><c>S </c><c>   2</c></rc>
    <rc><c>S </c><c>   2</c></rc>
    <rc><c>S </c><c>   2</c></rc>
    <rc><c>S </c><c>   2</c></rc>
    <rc><c>S </c><c>   2</c></rc>
    <rc><c>S </c><c>   2</c></rc>
    <rc><c>S </c><c>   2</c></rc>
    <rc><c>S </c><c>   2</c></rc>
    <rc><c>S </c><c>   2</c></rc>
    <rc><c>S </c><c>   2</c></rc>
    <rc><c>S </c><c>   2</c></rc>
    <rc><c>S </c><c>   2</c></rc>
    <rc><c>S </c><c>   2</c></rc>
    <rc><c>S </c><c>   2</c></rc>
    <rc><c>S </c><c>   2</c></rc>
    <rc><c>S </c><c>   2</c></rc>
    <rc><c>S </c><c>   2</c></rc>
    <rc><c>S </c><c>   2</c></rc>
    <rc><c>S </c><c>   2</c></rc>
    <rc><c>S </c><c>   2</c></rc>
    <rc><c>S </c><c>   2</c></rc>
    <rc><c>S </c><c>   2</c></rc>
    <rc><c>S </c><c>   2</c></rc>
    <rc><c>S </c><c>   2</c></rc>
    <rc><c>S </c><c>   2</c></rc>
    <rc><c>S </c><c>   2</c></rc>
    <rc><c>S </c><c>   2</c></rc>
    <rc><c>S </c><c>   2</c></rc>
    <rc><c>S </c><c>   2</c></rc>
    <rc><c>S </c><c>   2</c></rc>
    <rc><c>S </c><c>   2</c></rc>
    <rc><c>S </c><c>   2</c></rc>
    <rc><c>S </c><c>   2</c></rc>
    <rc><c>S </c><c>   2</c></rc>
   </set>
  </array>
  <array name="atomtypes" >
   <dimension dim="1">type</dimension>
   <field type="int">atomspertype</field>
   <field type="string">element</field>
   <field>mass</field>
   <field>valence</field>
   <field type="string">pseudopotential</field>
   <set>
    <rc><c>  36</c><c>Ni</c><c>     58.69000000</c><c>     16.00000000</c><c>  PAW_PBE Ni_pv 06Sep2000               </c></rc>
    <rc><c>  36</c><c>S </c><c>     32.06600000</c><c>      6.00000000</c><c>  PAW_PBE S 06Sep2000                   </c></rc>
   </set>
  </array>
 </atominfo>
 <structure name="initialpos" >
  <crystal>
   <varray name="basis" >
    <v>      16.88469405       0.00000000       0.00000000 </v>
    <v>       0.00000000       9.57841000       0.00000000 </v>
    <v>       0.00000000       0.00000000      16.16908712 </v>
   </varray>
   <i name="volume">   2615.00256803 </i>
   <varray name="rec_basis" >
    <v>       0.05922524       0.00000000       0.00000000 </v>
    <v>       0.00000000       0.10440146       0.00000000 </v>
    <v>       0.00000000       0.00000000       0.06184641 </v>
   </varray>
  </crystal>
  <varray name="positions" >
   <v>       0.78004631       0.14529695       0.12058499 </v>
   <v>       0.81461426       0.14529695       0.31135294 </v>
   <v>       0.26276233       0.64529695       0.02520102 </v>
   <v>       0.29733029       0.64529695       0.21596897 </v>
   <v>       0.43519032       0.14529695       0.05699568 </v>
   <v>       0.46975828       0.14529695       0.24776362 </v>
   <v>       0.95247430       0.64529695       0.15237965 </v>
   <v>       0.98704226       0.64529695       0.34314760 </v>
   <v>       0.12490229       0.14529695       0.18417431 </v>
   <v>       0.15947025       0.14529695       0.37494226 </v>
   <v>       0.60761831       0.64529695       0.08879033 </v>
   <v>       0.64218627       0.64529695       0.27955828 </v>
   <v>       0.90758278       0.01319395       0.09538397 </v>
   <v>       0.94215073       0.01319395       0.28615192 </v>
   <v>       0.39029880       0.51319395       0.00000000 </v>
   <v>       0.42486675       0.51319395       0.19076795 </v>
   <v>       0.56272679       0.01319395       0.03179466 </v>
   <v>       0.59729475       0.01319395       0.22256261 </v>
   <v>       0.08001077       0.51319395       0.12717863 </v>
   <v>       0.11457873       0.51319395       0.31794658 </v>
   <v>       0.25243876       0.01319395       0.15897329 </v>
   <v>       0.28700672       0.01319395       0.34974124 </v>
   <v>       0.73515478       0.51319395       0.06358932 </v>
   <v>       0.76972274       0.51319395       0.25435726 </v>
   <v>       0.90758278       0.27739995       0.09538397 </v>
   <v>       0.94215073       0.27739995       0.28615192 </v>
   <v>       0.39029880       0.77739995       0.00000000 </v>
   <v>       0.42486675       0.77739995       0.19076795 </v>
   <v>       0.56272679       0.27739995       0.03179466 </v>
   <v>       0.59729475       0.27739995       0.22256261 </v>
   <v>       0.08001077       0.77739995       0.12717863 </v>
   <v>       0.11457873       0.77739995       0.31794658 </v>
   <v>       0.25243876       0.27739995       0.15897329 </v>
   <v>       0.28700672       0.27739995       0.34974124 </v>
   <v>       0.73515478       0.77739995       0.06358932 </v>
   <v>       0.76972274       0.77739995       0.25435726 </v>
   <v>       0.02602916       0.14529695       0.37317765 </v>
   <v>       0.99146121       0.14529695       0.18240970 </v>
   <v>       0.47417723       0.64529695       0.08702573 </v>
   <v>       0.50874518       0.64529695       0.27779368 </v>
   <v>       0.64660522       0.14529695       0.11882039 </v>
   <v>       0.68117318       0.14529695       0.30958834 </v>
   <v>       0.12932124       0.64529695       0.02343641 </v>
   <v>       0.16388920       0.64529695       0.21420436 </v>
   <v>       0.30174923       0.14529695       0.05523107 </v>
   <v>       0.33631719       0.14529695       0.24599902 </v>
   <v>       0.81903321       0.64529695       0.15061505 </v>
   <v>       0.85360117       0.64529695       0.34138299 </v>
   <v>       0.79449310       0.31351195       0.02373179 </v>
   <v>       0.82906105       0.31351195       0.21449973 </v>
   <v>       0.31177708       0.81351195       0.11911576 </v>
   <v>       0.34634503       0.81351195       0.30988371 </v>
   <v>       0.48420507       0.31351195       0.15091042 </v>
   <v>       0.51877303       0.31351195       0.34167837 </v>
   <v>       0.00148905       0.81351195       0.24629439 </v>
   <v>       0.96692109       0.81351195       0.05552644 </v>
   <v>       0.13934908       0.31351195       0.08732110 </v>
   <v>       0.17391704       0.31351195       0.27808905 </v>
   <v>       0.65663306       0.81351195       0.18270508 </v>
   <v>       0.69120102       0.81351195       0.37347302 </v>
   <v>       0.31177708       0.47708195       0.11911576 </v>
   <v>       0.34634503       0.47708195       0.30988371 </v>
   <v>       0.79449310       0.97708195       0.02373179 </v>
   <v>       0.82906105       0.97708195       0.21449973 </v>
   <v>       0.00148905       0.47708195       0.24629439 </v>
   <v>       0.96692109       0.47708195       0.05552644 </v>
   <v>       0.48420507       0.97708195       0.15091042 </v>
   <v>       0.51877303       0.97708195       0.34167837 </v>
   <v>       0.65663306       0.47708195       0.18270508 </v>
   <v>       0.69120102       0.47708195       0.37347302 </v>
   <v>       0.13934908       0.97708195       0.08732110 </v>
   <v>       0.17391704       0.97708195       0.27808905 </v>
  </varray>
 </structure>
 <calculation>
  <scstep>
   <time name="dav">    2.51    2.52</time>
   <time name="total">    2.57    2.58</time>
   <energy>
    <i name="alphaZ">   1422.52235994 </i>
    <i name="ewald"> 107223.97979510 </i>
    <i name="hartreedc">-228080.59398658 </i>
    <i name="XCdc">   3639.51851604 </i>
    <i name="pawpsdc"> 112729.53333415 </i>
    <i name="pawaedc">-117641.51188735 </i>
    <i name="eentropy">     -0.46801901 </i>
    <i name="bandstr">  -6680.43189113 </i>
    <i name="atom"> 136002.60505376 </i>
    <i name="e_fr_energy">   8615.15327492 </i>
    <i name="e_wo_entrp">   8615.62129393 </i>
    <i name="e_0_energy">   8615.38728443 </i>
   </energy>
  </scstep>
  <scstep>
   <time name="dav">    2.23    2.24</time>
   <time name="total">    2.23    2.24</time>
   <energy>
    <i name="e_fr_energy">    478.00548739 </i>
    <i name="e_wo_entrp">    478.89902937 </i>
    <i name="e_0_energy">    478.45225838 </i>
   </energy>
  </scstep>
  <scstep>
   <time name="dav">    2.39    2.39</time>
   <time name="total">    2.39    2.40</time>
   <energy>
    <i name="e_fr_energy">   -347.34112821 </i>
    <i name="e_wo_entrp">   -346.01002893 </i>
    <i name="e_0_energy">   -346.67557857 </i>
   </energy>
  </scstep>
  <scstep>
   <time name="dav">    2.34    2.35</time>
   <time name="total">    2.34    2.35</time>
   <energy>
    <i name="e_fr_energy">   -396.71381728 </i>
    <i name="e_wo_entrp">   -395.32348767 </i>
    <i name="e_0_energy">   -396.01865247 </i>
   </energy>
  </scstep>
  <scstep>
   <time name="dav">    2.54    2.54</time>
   <time name="total">    2.64    2.64</time>
   <energy>
    <i name="e_fr_energy">   -398.67911695 </i>
    <i name="e_wo_entrp">   -397.28591951 </i>
    <i name="e_0_energy">   -397.98251823 </i>
   </energy>
  </scstep>
  <scstep>
   <time name="dav">    2.43    2.43</time>
   <time name="total">    2.57    2.58</time>
   <energy>
    <i name="e_fr_energy">   -525.18166138 </i>
    <i name="e_wo_entrp">   -524.23426191 </i>
    <i name="e_0_energy">   -524.70796165 </i>
   </energy>
  </scstep>
  <scstep>
   <time name="dav">    2.53    2.54</time>
   <time name="total">    2.68    2.69</time>
   <energy>
    <i name="e_fr_energy">   -378.31566368 </i>
    <i name="e_wo_entrp">   -377.12468718 </i>
    <i name="e_0_energy">   -377.72017543 </i>
   </energy>
  </scstep>
  <scstep>
   <time name="dav">    2.85    2.85</time>
   <time name="total">    2.99    3.00</time>
   <energy>
    <i name="e_fr_energy">   -370.90369208 </i>
    <i name="e_wo_entrp">   -369.72491330 </i>
    <i name="e_0_energy">   -370.31430269 </i>
   </energy>
  </scstep>
  <scstep>
   <time name="dav">    2.75    2.75</time>
   <time name="total">    2.90    2.90</time>
   <energy>
    <i name="e_fr_energy">   -354.68167978 </i>
    <i name="e_wo_entrp">   -353.37971524 </i>
    <i name="e_0_energy">   -354.03069751 </i>
   </energy>
  </scstep>
  <scstep>
   <time name="dav">    2.85    2.86</time>
   <time name="total">    3.00    3.00</time>
   <energy>
    <i name="e_fr_energy">   -373.17599334 </i>
    <i name="e_wo_entrp">   -371.61383187 </i>
    <i name="e_0_energy">   -372.39491260 </i>
   </energy>
  </scstep>
  <scstep>
   <time name="dav">    2.79    2.80</time>
   <time name="total">    2.94    2.95</time>
   <energy>
    <i name="e_fr_energy">   -363.70202505 </i>
    <i name="e_wo_entrp">   -362.49336714 </i>
    <i name="e_0_energy">   -363.09769610 </i>
   </energy>
  </scstep>
  <scstep>
   <time name="dav">    2.89    2.90</time>
   <time name="total">    3.04    3.05</time>
   <energy>
    <i name="e_fr_energy">   -351.71409359 </i>
    <i name="e_wo_entrp">   -350.49349011 </i>
    <i name="e_0_energy">   -351.10379185 </i>
   </energy>
  </scstep>
  <scstep>
   <time name="dav">    2.70    2.71</time>
   <time name="total">    2.85    2.86</time>
   <energy>
    <i name="e_fr_energy">   -348.54117923 </i>
    <i name="e_wo_entrp">   -347.41815181 </i>
    <i name="e_0_energy">   -347.97966552 </i>
   </energy>
  </scstep>
  <scstep>
   <time name="dav">    2.79    2.80</time>
   <time name="total">    2.94    2.95</time>
   <energy>
    <i name="e_fr_energy">   -347.81658258 </i>
    <i name="e_wo_entrp">   -346.68395639 </i>
    <i name="e_0_energy">   -347.25026948 </i>
   </energy>
  </scstep>
  <scstep>
   <time name="dav">    2.67    2.68</time>
   <time name="total">    2.82    2.83</time>
   <energy>
    <i name="e_fr_energy">   -345.74957014 </i>
    <i name="e_wo_entrp">   -344.63785357 </i>
    <i name="e_0_energy">   -345.19371185 </i>
   </energy>
  </scstep>
  <scstep>
   <time name="dav">    2.76    2.77</time>
   <time name="total">    2.91    2.92</time>
   <energy>
    <i name="e_fr_energy">   -344.77586419 </i>
    <i name="e_wo_entrp">   -343.54129742 </i>
    <i name="e_0_energy">   -344.15858080 </i>
   </energy>
  </scstep>
  <scstep>
   <time name="dav">    2.61    2.62</time>
   <time name="total">    2.76    2.77</time>
   <energy>
    <i name="e_fr_energy">   -344.29520943 </i>
    <i name="e_wo_entrp">   -343.08534587 </i>
    <i name="e_0_energy">   -343.69027765 </i>
   </energy>
  </scstep>
  <scstep>
   <time name="dav">    2.76    2.77</time>
   <time name="total">    2.91    2.92</time>
   <energy>
    <i name="e_fr_energy">   -343.85217715 </i>
    <i name="e_wo_entrp">   -342.67698205 </i>
    <i name="e_0_energy">   -343.26457960 </i>
   </energy>
  </scstep>
  <scstep>
   <time name="dav">    2.69    2.70</time>
   <time name="total">    2.84    2.85</time>
   <energy>
    <i name="e_fr_energy">   -343.75267576 </i>
    <i name="e_wo_entrp">   -342.50962104 </i>
    <i name="e_0_energy">   -343.13114840 </i>
   </energy>
  </scstep>
  <scstep>
   <time name="dav">    2.68    2.69</time>
   <time name="total">    2.84    2.84</time>
   <energy>
    <i name="e_fr_energy">   -343.58946785 </i>
    <i name="e_wo_entrp">   -342.35842437 </i>
    <i name="e_0_energy">   -342.97394611 </i>
   </energy>
  </scstep>
  <scstep>
   <time name="dav">    2.68    2.68</time>
   <time name="total">    2.82    2.83</time>
   <energy>
    <i name="e_fr_energy">   -343.58089596 </i>
    <i name="e_wo_entrp">   -342.30570684 </i>
    <i name="e_0_energy">   -342.94330140 </i>
   </energy>
  </scstep>
  <scstep>
   <time name="dav">    2.62    2.63</time>
   <time name="total">    2.77    2.78</time>
   <energy>
    <i name="e_fr_energy">   -343.48732829 </i>
    <i name="e_wo_entrp">   -342.21403568 </i>
    <i name="e_0_energy">   -342.85068199 </i>
   </energy>
  </scstep>
  <scstep>
   <time name="dav">    2.54    2.55</time>
   <time name="total">    2.69    2.70</time>
   <energy>
    <i name="e_fr_energy">   -343.42546275 </i>
    <i name="e_wo_entrp">   -342.11856688 </i>
    <i name="e_0_energy">   -342.77201481 </i>
   </energy>
  </scstep>
  <scstep>
   <time name="dav">    2.59    2.59</time>
   <time name="total">    2.74    2.74</time>
   <energy>
    <i name="e_fr_energy">   -343.42402013 </i>
    <i name="e_wo_entrp">   -342.14045600 </i>
    <i name="e_0_energy">   -342.78223807 </i>
   </energy>
  </scstep>
  <scstep>
   <time name="dav">    2.66    2.67</time>
   <time name="total">    2.81    2.82</time>
   <energy>
    <i name="e_fr_energy">   -343.41297031 </i>
    <i name="e_wo_entrp">   -342.11728795 </i>
    <i name="e_0_energy">   -342.76512913 </i>
   </energy>
  </scstep>
  <scstep>
   <time name="dav">    2.64    2.64</time>
   <time name="total">    2.79    2.80</time>
   <energy>
    <i name="e_fr_energy">   -343.39337151 </i>
    <i name="e_wo_entrp">   -342.09418947 </i>
    <i name="e_0_energy">   -342.74378049 </i>
   </energy>
  </scstep>
  <scstep>
   <time name="dav">    2.74    2.75</time>
   <time name="total">    2.89    2.90</time>
   <energy>
    <i name="e_fr_energy">   -343.37965423 </i>
    <i name="e_wo_entrp">   -342.08161234 </i>
    <i name="e_0_energy">   -342.73063328 </i>
   </energy>
  </scstep>
  <scstep>
   <time name="dav">    2.68    2.68</time>
   <time name="total">    2.83    2.84</time>
   <energy>
    <i name="e_fr_energy">   -343.37439328 </i>
    <i name="e_wo_entrp">   -342.08322143 </i>
    <i name="e_0_energy">   -342.72880735 </i>
   </energy>
  </scstep>
  <scstep>
   <time name="dav">    2.73    2.74</time>
   <time name="total">    2.88    2.89</time>
   <energy>
    <i name="e_fr_energy">   -343.36978082 </i>
    <i name="e_wo_entrp">   -342.07500788 </i>
    <i name="e_0_energy">   -342.72239435 </i>
   </energy>
  </scstep>
  <scstep>
   <time name="dav">    2.64    2.64</time>
   <time name="total">    2.79    2.80</time>
   <energy>
    <i name="e_fr_energy">   -343.36612730 </i>
    <i name="e_wo_entrp">   -342.08139862 </i>
    <i name="e_0_energy">   -342.72376296 </i>
   </energy>
  </scstep>
  <scstep>
   <time name="dav">    2.76    2.77</time>
   <time name="total">    2.91    2.92</time>
   <energy>
    <i name="e_fr_energy">   -343.36427710 </i>
    <i name="e_wo_entrp">   -342.08148508 </i>
    <i name="e_0_energy">   -342.72288109 </i>
   </energy>
  </scstep>
  <scstep>
   <time name="dav">    2.65    2.65</time>
   <time name="total">    2.80    2.81</time>
   <energy>
    <i name="e_fr_energy">   -343.36379200 </i>
    <i name="e_wo_entrp">   -342.08293707 </i>
    <i name="e_0_energy">   -342.72336454 </i>
   </energy>
  </scstep>
  <scstep>
   <time name="dav">    2.42    2.42</time>
   <time name="total">    2.57    2.58</time>
   <energy>
    <i name="e_fr_energy">   -343.36388861 </i>
    <i name="e_wo_entrp">   -342.08470718 </i>
    <i name="e_0_energy">   -342.72429789 </i>
   </energy>
  </scstep>
  <scstep>
   <time name="dav">    2.31    2.32</time>
   <time name="total">    2.37    2.37</time>
   <energy>
    <i name="alphaZ">   1422.52235994 </i>
    <i name="ewald"> 107223.97979510 </i>
    <i name="hartreedc">-227350.58459418 </i>
    <i name="XCdc">   3610.61420424 </i>
    <i name="pawpsdc"> 128532.66757974 </i>
    <i name="pawaedc">-133500.87865089 </i>
    <i name="eentropy">     -1.27944640 </i>
    <i name="bandstr"> -16283.01021563 </i>
    <i name="atom"> 136002.60505376 </i>
    <i name="e_fr_energy">   -343.36391432 </i>
    <i name="e_wo_entrp">   -342.08446792 </i>
    <i name="e_0_energy">   -342.72419112 </i>
   </energy>
  </scstep>
  <structure>
   <crystal>
    <varray name="basis" >
     <v>      16.88469405       0.00000000       0.00000000 </v>
     <v>       0.00000000       9.57841000       0.00000000 </v>
     <v>       0.00000000       0.00000000      16.16908712 </v>
    </varray>
    <i name="volume">   2615.00256803 </i>
    <varray name="rec_basis" >
     <v>       0.05922524       0.00000000       0.00000000 </v>
     <v>       0.00000000       0.10440146       0.00000000 </v>
     <v>       0.00000000       0.00000000       0.06184641 </v>
    </varray>
   </crystal>
   <varray name="positions" >
    <v>       0.78004631       0.14529695       0.12058499 </v>
    <v>       0.81461426       0.14529695       0.31135294 </v>
    <v>       0.26276233       0.64529695       0.02520102 </v>
    <v>       0.29733029       0.64529695       0.21596897 </v>
    <v>       0.43519032       0.14529695       0.05699568 </v>
    <v>       0.46975828       0.14529695       0.24776362 </v>
    <v>       0.95247430       0.64529695       0.15237965 </v>
    <v>       0.98704226       0.64529695       0.34314760 </v>
    <v>       0.12490229       0.14529695       0.18417431 </v>
    <v>       0.15947025       0.14529695       0.37494226 </v>
    <v>       0.60761831       0.64529695       0.08879033 </v>
    <v>       0.64218627       0.64529695       0.27955828 </v>
    <v>       0.90758278       0.01319395       0.09538397 </v>
    <v>       0.94215073       0.01319395       0.28615192 </v>
    <v>       0.39029880       0.51319395       0.00000000 </v>
    <v>       0.42486675       0.51319395       0.19076795 </v>
    <v>       0.56272679       0.01319395       0.03179466 </v>
    <v>       0.59729475       0.01319395       0.22256261 </v>
    <v>       0.08001077       0.51319395       0.12717863 </v>
    <v>       0.11457873       0.51319395       0.31794658 </v>
    <v>       0.25243876       0.01319395       0.15897329 </v>
    <v>       0.28700672       0.01319395       0.34974124 </v>
    <v>       0.73515478       0.51319395       0.06358932 </v>
    <v>       0.76972274       0.51319395       0.25435726 </v>
    <v>       0.90758278       0.27739995       0.09538397 </v>
    <v>       0.94215073       0.27739995       0.28615192 </v>
    <v>       0.39029880       0.77739995       0.00000000 </v>
    <v>       0.42486675       0.77739995       0.19076795 </v>
    <v>       0.56272679       0.27739995       0.03179466 </v>
    <v>       0.59729475       0.27739995       0.22256261 </v>
    <v>       0.08001077       0.77739995       0.12717863 </v>
    <v>       0.11457873       0.77739995       0.31794658 </v>
    <v>       0.25243876       0.27739995       0.15897329 </v>
    <v>       0.28700672       0.27739995       0.34974124 </v>
    <v>       0.73515478       0.77739995       0.06358932 </v>
    <v>       0.76972274       0.77739995       0.25435726 </v>
    <v>       0.02602916       0.14529695       0.37317765 </v>
    <v>       0.99146121       0.14529695       0.18240970 </v>
    <v>       0.47417723       0.64529695       0.08702573 </v>
    <v>       0.50874518       0.64529695       0.27779368 </v>
    <v>       0.64660522       0.14529695       0.11882039 </v>
    <v>       0.68117318       0.14529695       0.30958834 </v>
    <v>       0.12932124       0.64529695       0.02343641 </v>
    <v>       0.16388920       0.64529695       0.21420436 </v>
    <v>       0.30174923       0.14529695       0.05523107 </v>
    <v>       0.33631719       0.14529695       0.24599902 </v>
    <v>       0.81903321       0.64529695       0.15061505 </v>
    <v>       0.85360117       0.64529695       0.34138299 </v>
    <v>       0.79449310       0.31351195       0.02373179 </v>
    <v>       0.82906105       0.31351195       0.21449973 </v>
    <v>       0.31177708       0.81351195       0.11911576 </v>
    <v>       0.34634503       0.81351195       0.30988371 </v>
    <v>       0.48420507       0.31351195       0.15091042 </v>
    <v>       0.51877303       0.31351195       0.34167837 </v>
    <v>       0.00148905       0.81351195       0.24629439 </v>
    <v>       0.96692109       0.81351195       0.05552644 </v>
    <v>       0.13934908       0.31351195       0.08732110 </v>
    <v>       0.17391704       0.31351195       0.27808905 </v>
    <v>       0.65663306       0.81351195       0.18270508 </v>
    <v>       0.69120102       0.81351195       0.37347302 </v>
    <v>       0.31177708       0.47708195       0.11911576 </v>
    <v>       0.34634503       0.47708195       0.30988371 </v>
    <v>       0.79449310       0.97708195       0.02373179 </v>
    <v>       0.82906105       0.97708195       0.21449973 </v>
    <v>       0.00148905       0.47708195       0.24629439 </v>
    <v>       0.96692109       0.47708195       0.05552644 </v>
    <v>       0.48420507       0.97708195       0.15091042 </v>
    <v>       0.51877303       0.97708195       0.34167837 </v>
    <v>       0.65663306       0.47708195       0.18270508 </v>
    <v>       0.69120102       0.47708195       0.37347302 </v>
    <v>       0.13934908       0.97708195       0.08732110 </v>
    <v>       0.17391704       0.97708195       0.27808905 </v>
   </varray>
  </structure>
  <varray name="forces" >
   <v>       0.43334523       0.00000000      -0.37797753 </v>
   <v>      -1.03619037       0.00000000      -1.53594134 </v>
   <v>      -0.30226363       0.00000000       1.07888015 </v>
   <v>      -0.28113085       0.00000000       0.23283999 </v>
   <v>      -0.33590094       0.00000000       0.91987919 </v>
   <v>       0.10374374       0.00000000       0.58288898 </v>
   <v>      -0.16127188       0.00000000      -0.02706763 </v>
   <v>      -0.83796528       0.00000000      -1.68516727 </v>
   <v>      -0.19343643       0.00000000      -0.24991338 </v>
   <v>      -0.59358394       0.00000000      -1.58163738 </v>
   <v>       0.14440027       0.00000000       0.84736150 </v>
   <v>      -0.17220217       0.00000000       0.45873107 </v>
   <v>      -0.23811091      -0.75869211       0.36113637 </v>
   <v>       0.57465941       0.35121407      -0.45355939 </v>
   <v>       0.04047024       0.68220894       1.71738265 </v>
   <v>       0.06772983       0.01069162       0.27447159 </v>
   <v>      -0.27869014       0.51882326       1.61537449 </v>
   <v>       0.02191501       0.18451730       0.37364983 </v>
   <v>       0.24126659      -0.45357974      -0.28571882 </v>
   <v>      -0.09666846      -0.14607663      -1.39157823 </v>
   <v>       0.05121503      -0.14196551      -0.20652261 </v>
   <v>      -0.15485744      -0.38613147      -1.64871088 </v>
   <v>       0.23570465      -0.39582490       0.93728339 </v>
   <v>       0.22793459      -0.09669493       0.39715836 </v>
   <v>      -0.23811091       0.75869211       0.36113637 </v>
   <v>       0.57465941      -0.35121407      -0.45355939 </v>
   <v>       0.04047024      -0.68220894       1.71738265 </v>
   <v>       0.06772983      -0.01069162       0.27447159 </v>
   <v>      -0.27869014      -0.51882326       1.61537449 </v>
   <v>       0.02191501      -0.18451730       0.37364983 </v>
   <v>       0.24126659       0.45357974      -0.28571882 </v>
   <v>      -0.09666846       0.14607663      -1.39157823 </v>
   <v>       0.05121503       0.14196551      -0.20652261 </v>
   <v>      -0.15485744       0.38613147      -1.64871088 </v>
   <v>       0.23570465       0.39582490       0.93728339 </v>
   <v>       0.22793459       0.09669493       0.39715836 </v>
   <v>      -1.13790456       0.00000000       0.02520292 </v>
   <v>      -0.20212484       0.00000000      -0.98141238 </v>
   <v>       0.17954842       0.00000000      -1.45702317 </v>
   <v>      -0.37568270       0.00000000       0.24478004 </v>
   <v>      -0.46475256       0.00000000      -0.90586714 </v>
   <v>       0.14319149       0.00000000       0.40179691 </v>
   <v>       1.23357523       0.00000000       0.17932006 </v>
   <v>       0.07876407       0.00000000       1.13050890 </v>
   <v>       1.31027440       0.00000000      -0.02428573 </v>
   <v>       0.05171752       0.00000000       0.99952058 </v>
   <v>      -0.50571190       0.00000000      -0.71000163 </v>
   <v>      -0.16881345       0.00000000       0.18253988 </v>
   <v>       0.06790954       0.60956098       0.38385858 </v>
   <v>       0.19347240      -0.44993956       1.23773097 </v>
   <v>      -0.04719298      -0.18721957      -0.90456780 </v>
   <v>       0.03234266      -0.16126828       0.02852505 </v>
   <v>       0.07595935      -0.25365875      -0.89318299 </v>
   <v>       0.21686714      -0.82372190      -1.34307669 </v>
   <v>       0.09004483      -0.20310633       0.94934629 </v>
   <v>      -0.05077385       0.60166883       0.46750568 </v>
   <v>      -0.09204718       0.07172876       0.50220997 </v>
   <v>       0.09016917       0.04042474       0.99062161 </v>
   <v>       0.06567170      -0.47552520      -0.61914174 </v>
   <v>       0.21019638      -0.94964974      -1.36417349 </v>
   <v>      -0.04719298       0.18721957      -0.90456780 </v>
   <v>       0.03234266       0.16126828       0.02852505 </v>
   <v>       0.06790954      -0.60956098       0.38385858 </v>
   <v>       0.19347240       0.44993956       1.23773097 </v>
   <v>       0.09004483       0.20310633       0.94934629 </v>
   <v>      -0.05077385      -0.60166883       0.46750568 </v>
   <v>       0.07595935       0.25365875      -0.89318299 </v>
   <v>       0.21686714       0.82372190      -1.34307669 </v>
   <v>       0.06567170       0.47552520      -0.61914174 </v>
   <v>       0.21019638       0.94964974      -1.36417349 </v>
   <v>      -0.09204718      -0.07172876       0.50220997 </v>
   <v>       0.09016917      -0.04042474       0.99062161 </v>
  </varray>
  <varray name="stress" >
   <v>     -26.30935443       0.00000000      -6.75492140 </v>
   <v>       0.00000000     -26.74679829       0.00000000 </v>
   <v>      -6.75492147       0.00000000     -37.07837795 </v>
  </varray>
  <energy>
   <i name="e_fr_energy">   -343.36391432 </i>
   <i name="e_wo_entrp">   -342.08446792 </i>
   <i name="e_0_energy">   -342.72419112 </i>
  </energy>
  <time name="totalsc">   95.92   96.23</time>
  <eigenvalues>
   <array>
    <dimension dim="1">band</dimension>
    <dimension dim="2">kpoint</dimension>
    <dimension dim="3">spin</dimension>
    <field>eigene</field>
    <field>occ</field>
    <set>
     <set comment="spin 1">
      <set comment="kpoint 1">
       <r>  -64.5421    1.0000 </r>
       <r>  -64.5243    1.0000 </r>
       <r>  -64.5238    1.0000 </r>
       <r>  -64.5230    1.0000 </r>
       <r>  -64.5179    1.0000 </r>
       <r>  -64.5174    1.0000 </r>
       <r>  -64.5086    1.0000 </r>
       <r>  -64.5070    1.0000 </r>
       <r>  -64.5031    1.0000 </r>
       <r>  -64.4900    1.0000 </r>
       <r>  -64.4877    1.0000 </r>
       <r>  -64.4849    1.0000 </r>
       <r>  -64.4633    1.0000 </r>
       <r>  -64.4605    1.0000 </r>
       <r>  -64.4595    1.0000 </r>
       <r>  -64.4573    1.0000 </r>
       <r>  -64.4525    1.0000 </r>
       <r>  -64.4512    1.0000 </r>
       <r>  -64.4442    1.0000 </r>
       <r>  -64.4298    1.0000 </r>
       <r>  -64.4269    1.0000 </r>
       <r>  -64.4202    1.0000 </r>
       <r>  -64.4199    1.0000 </r>
       <r>  -64.4130    1.0000 </r>
       <r>  -64.4111    1.0000 </r>
       <r>  -64.4062    1.0000 </r>
       <r>  -64.3927    1.0000 </r>
       <r>  -64.3872    1.0000 </r>
       <r>  -64.3818    1.0000 </r>
       <r>  -64.3814    1.0000 </r>
       <r>  -64.3753    1.0000 </r>
       <r>  -64.3715    1.0000 </r>
       <r>  -64.3618    1.0000 </r>
       <r>  -64.3610    1.0000 </r>
       <r>  -64.3527    1.0000 </r>
       <r>  -64.3415    1.0000 </r>
       <r>  -64.3138    1.0000 </r>
       <r>  -64.2945    1.0000 </r>
       <r>  -64.2878    1.0000 </r>
       <r>  -64.2738    1.0000 </r>
       <r>  -64.2664    1.0000 </r>
       <r>  -64.2459    1.0000 </r>
       <r>  -64.2380    1.0000 </r>
       <r>  -64.2373    1.0000 </r>
       <r>  -64.2221    1.0000 </r>
       <r>  -64.2215    1.0000 </r>
       <r>  -64.2163    1.0000 </r>
       <r>  -64.2050    1.0000 </r>
       <r>  -64.2040    1.0000 </r>
       <r>  -64.1749    1.0000 </r>
       <r>  -64.1661    1.0000 </r>
       <r>  -64.1628    1.0000 </r>
       <r>  -64.1537    1.0000 </r>
       <r>  -64.1402    1.0000 </r>
       <r>  -64.1272    1.0000 </r>
       <r>  -64.1103    1.0000 </r>
       <r>  -64.0381    1.0000 </r>
       <r>  -64.0120    1.0000 </r>
       <r>  -64.0087    1.0000 </r>
       <r>  -63.9967    1.0000 </r>
       <r>  -63.9867    1.0000 </r>
       <r>  -63.9844    1.0000 </r>
       <r>  -63.9435    1.0000 </r>
       <r>  -63.9231    1.0000 </r>
       <r>  -63.9195    1.0000 </r>
       <r>  -63.9001    1.0000 </r>
       <r>  -63.8767    1.0000 </r>
       <r>  -63.8536    1.0000 </r>
       <r>  -63.8534    1.0000 </r>
       <r>  -63.8369    1.0000 </r>
       <r>  -63.7978    1.0000 </r>
       <r>  -63.7793    1.0000 </r>
       <r>  -63.7627    1.0000 </r>
       <r>  -63.7609    1.0000 </r>
       <r>  -63.7449    1.0000 </r>
       <r>  -63.7385    1.0000 </r>
       <r>  -63.7375    1.0000 </r>
       <r>  -63.7312    1.0000 </r>
       <r>  -63.7297    1.0000 </r>
       <r>  -63.7198    1.0000 </r>
       <r>  -63.7124    1.0000 </r>
       <r>  -63.7027    1.0000 </r>
       <r>  -63.6981    1.0000 </r>
       <r>  -63.6425    1.0000 </r>
       <r>  -63.6372    1.0000 </r>
       <r>  -63.6307    1.0000 </r>
       <r>  -63.5642    1.0000 </r>
       <r>  -63.5520    1.0000 </r>
       <r>  -63.5309    1.0000 </r>
       <r>  -63.5020    1.0000 </r>
       <r>  -63.4467    1.0000 </r>
       <r>  -63.4334    1.0000 </r>
       <r>  -63.4172    1.0000 </r>
       <r>  -63.4120    1.0000 </r>
       <r>  -63.3594    1.0000 </r>
       <r>  -63.3205    1.0000 </r>
       <r>  -63.2977    1.0000 </r>
       <r>  -63.2842    1.0000 </r>
       <r>  -63.2791    1.0000 </r>
       <r>  -63.2682    1.0000 </r>
       <r>  -63.1966    1.0000 </r>
       <r>  -63.1702    1.0000 </r>
       <r>  -63.1572    1.0000 </r>
       <r>  -63.1463    1.0000 </r>
       <r>  -63.1205    1.0000 </r>
       <r>  -63.1159    1.0000 </r>
       <r>  -63.1097    1.0000 </r>
       <r>  -63.0874    1.0000 </r>
       <r>  -15.3621    1.0000 </r>
       <r>  -15.0905    1.0000 </r>
       <r>  -15.0651    1.0000 </r>
       <r>  -14.6782    1.0000 </r>
       <r>  -14.5930    1.0000 </r>
       <r>  -14.5496    1.0000 </r>
       <r>  -14.3986    1.0000 </r>
       <r>  -14.2223    1.0000 </r>
       <r>  -14.2097    1.0000 </r>
       <r>  -14.2064    1.0000 </r>
       <r>  -14.1555    1.0000 </r>
       <r>  -13.9670    1.0000 </r>
       <r>  -13.9466    1.0000 </r>
       <r>  -13.8902    1.0000 </r>
       <r>  -13.8854    1.0000 </r>
       <r>  -13.8470    1.0000 </r>
       <r>  -13.7383    1.0000 </r>
       <r>  -13.6901    1.0000 </r>
       <r>  -13.5629    1.0000 </r>
       <r>  -13.3157    1.0000 </r>
       <r>  -13.2211    1.0000 </r>
       <r>  -13.0915    1.0000 </r>
       <r>  -13.0370    1.0000 </r>
       <r>  -12.9587    1.0000 </r>
       <r>  -12.8599    1.0000 </r>
       <r>  -12.8111    1.0000 </r>
       <r>  -12.7741    1.0000 </r>
       <r>  -12.7035    1.0000 </r>
       <r>  -12.6101    1.0000 </r>
       <r>  -12.5405    1.0000 </r>
       <r>  -12.5341    1.0000 </r>
       <r>  -12.4946    1.0000 </r>
       <r>  -12.2586    1.0000 </r>
       <r>  -12.1905    1.0000 </r>
       <r>  -12.1159    1.0000 </r>
       <r>  -11.8409    1.0000 </r>
       <r>   -7.1232    1.0000 </r>
       <r>   -7.0648    1.0000 </r>
       <r>   -7.0295    1.0000 </r>
       <r>   -7.0047    1.0000 </r>
       <r>   -6.9464    1.0000 </r>
       <r>   -6.7399    1.0000 </r>
       <r>   -6.5730    1.0000 </r>
       <r>   -6.5625    1.0000 </r>
       <r>   -6.5029    1.0000 </r>
       <r>   -6.4592    1.0000 </r>
       <r>   -6.4446    1.0000 </r>
       <r>   -6.4418    1.0000 </r>
       <r>   -6.3588    1.0000 </r>
       <r>   -6.3397    1.0000 </r>
       <r>   -6.2058    1.0000 </r>
       <r>   -6.1887    1.0000 </r>
       <r>   -6.1219    1.0000 </r>
       <r>   -6.1094    1.0000 </r>
       <r>   -6.0768    1.0000 </r>
       <r>   -6.0361    1.0000 </r>
       <r>   -6.0084    1.0000 </r>
       <r>   -5.9661    1.0000 </r>
       <r>   -5.8304    1.0000 </r>
       <r>   -5.7911    1.0000 </r>
       <r>   -5.7845    1.0000 </r>
       <r>   -5.7260    1.0000 </r>
       <r>   -5.7167    1.0000 </r>
       <r>   -5.6966    1.0000 </r>
       <r>   -5.6545    1.0000 </r>
       <r>   -5.5892    1.0000 </r>
       <r>   -5.5866    1.0000 </r>
       <r>   -5.5576    1.0000 </r>
       <r>   -5.5392    1.0000 </r>
       <r>   -5.4114    1.0000 </r>
       <r>   -5.4034    1.0000 </r>
       <r>   -5.3788    1.0000 </r>
       <r>   -5.3762    1.0000 </r>
       <r>   -5.2588    1.0000 </r>
       <r>   -5.2346    1.0000 </r>
       <r>   -5.1928    1.0000 </r>
       <r>   -5.0956    1.0000 </r>
       <r>   -5.0067    1.0000 </r>
       <r>   -4.9672    1.0000 </r>
       <r>   -4.9569    1.0000 </r>
       <r>   -4.8844    1.0000 </r>
       <r>   -4.8615    1.0000 </r>
       <r>   -4.8004    1.0000 </r>
       <r>   -4.7526    1.0000 </r>
       <r>   -4.7257    1.0000 </r>
       <r>   -4.7208    1.0000 </r>
       <r>   -4.6695    1.0000 </r>
       <r>   -4.6625    1.0000 </r>
       <r>   -4.6169    1.0000 </r>
       <r>   -4.5896    1.0000 </r>
       <r>   -4.5770    1.0000 </r>
       <r>   -4.5142    1.0000 </r>
       <r>   -4.4910    1.0000 </r>
       <r>   -4.4099    1.0000 </r>
       <r>   -4.4003    1.0000 </r>
       <r>   -4.2785    1.0000 </r>
       <r>   -4.2620    1.0000 </r>
       <r>   -4.2040    1.0000 </r>
       <r>   -4.1912    1.0000 </r>
       <r>   -4.1750    1.0000 </r>
       <r>   -4.1481    1.0000 </r>
       <r>   -4.0888    1.0000 </r>
       <r>   -4.0769    1.0000 </r>
       <r>   -4.0650    1.0000 </r>
       <r>   -4.0388    1.0000 </r>
       <r>   -4.0261    1.0000 </r>
       <r>   -3.9918    1.0000 </r>
       <r>   -3.9575    1.0000 </r>
       <r>   -3.8842    1.0000 </r>
       <r>   -3.8564    1.0000 </r>
       <r>   -3.8455    1.0000 </r>
       <r>   -3.8173    1.0000 </r>
       <r>   -3.7735    1.0000 </r>
       <r>   -3.7657    1.0000 </r>
       <r>   -3.7394    1.0000 </r>
       <r>   -3.7206    1.0000 </r>
       <r>   -3.6718    1.0000 </r>
       <r>   -3.6595    1.0000 </r>
       <r>   -3.5494    1.0000 </r>
       <r>   -3.5308    1.0000 </r>
       <r>   -3.5070    1.0000 </r>
       <r>   -3.5053    1.0000 </r>
       <r>   -3.4519    1.0000 </r>
       <r>   -3.4272    1.0000 </r>
       <r>   -3.3973    1.0000 </r>
       <r>   -3.3915    1.0000 </r>
       <r>   -3.3248    1.0000 </r>
       <r>   -3.2813    1.0000 </r>
       <r>   -3.2506    1.0000 </r>
       <r>   -3.2385    1.0000 </r>
       <r>   -3.1851    1.0000 </r>
       <r>   -3.1710    1.0000 </r>
       <r>   -3.1634    1.0000 </r>
       <r>   -3.1133    1.0000 </r>
       <r>   -3.1056    1.0000 </r>
       <r>   -3.0393    1.0000 </r>
       <r>   -3.0353    1.0000 </r>
       <r>   -2.9736    1.0000 </r>
       <r>   -2.9724    1.0000 </r>
       <r>   -2.9628    1.0000 </r>
       <r>   -2.9369    1.0000 </r>
       <r>   -2.8813    1.0000 </r>
       <r>   -2.8448    1.0000 </r>
       <r>   -2.8262    1.0000 </r>
       <r>   -2.7893    1.0000 </r>
       <r>   -2.7053    1.0000 </r>
       <r>   -2.7029    1.0000 </r>
       <r>   -2.6686    1.0000 </r>
       <r>   -2.6516    1.0000 </r>
       <r>   -2.6362    1.0000 </r>
       <r>   -2.5856    1.0000 </r>
       <r>   -2.5850    1.0000 </r>
       <r>   -2.5576    1.0000 </r>
       <r>   -2.5448    1.0000 </r>
       <r>   -2.5248    1.0000 </r>
       <r>   -2.4951    1.0000 </r>
       <r>   -2.4894    1.0000 </r>
       <r>   -2.4722    1.0000 </r>
       <r>   -2.4475    1.0000 </r>
       <r>   -2.4375    1.0000 </r>
       <r>   -2.4246    1.0000 </r>
       <r>   -2.4130    1.0000 </r>
       <r>   -2.4008    1.0000 </r>
       <r>   -2.3648    1.0000 </r>
       <r>   -2.3532    1.0000 </r>
       <r>   -2.3459    1.0000 </r>
       <r>   -2.3381    1.0000 </r>
       <r>   -2.3221    1.0000 </r>
       <r>   -2.3135    1.0000 </r>
       <r>   -2.3026    1.0000 </r>
       <r>   -2.2740    1.0000 </r>
       <r>   -2.2666    1.0000 </r>
       <r>   -2.2485    1.0000 </r>
       <r>   -2.2210    1.0000 </r>
       <r>   -2.2149    1.0000 </r>
       <r>   -2.2034    1.0000 </r>
       <r>   -2.1953    1.0000 </r>
       <r>   -2.1707    1.0000 </r>
       <r>   -2.1686    1.0000 </r>
       <r>   -2.1427    1.0000 </r>
       <r>   -2.1189    1.0000 </r>
       <r>   -2.1131    1.0000 </r>
       <r>   -2.1060    1.0000 </r>
       <r>   -2.0718    1.0000 </r>
       <r>   -2.0550    1.0000 </r>
       <r>   -2.0507    1.0000 </r>
       <r>   -2.0352    1.0000 </r>
       <r>   -2.0193    1.0000 </r>
       <r>   -2.0186    1.0000 </r>
       <r>   -2.0154    1.0000 </r>
       <r>   -2.0128    1.0000 </r>
       <r>   -1.9863    1.0000 </r>
       <r>   -1.9814    1.0000 </r>
       <r>   -1.9695    1.0000 </r>
       <r>   -1.9635    1.0000 </r>
       <r>   -1.9595    1.0000 </r>
       <r>   -1.9589    1.0000 </r>
       <r>   -1.9343    1.0000 </r>
       <r>   -1.9331    1.0000 </r>
       <r>   -1.9037    1.0000 </r>
       <r>   -1.8965    1.0000 </r>
       <r>   -1.8875    1.0000 </r>
       <r>   -1.8715    1.0000 </r>
       <r>   -1.8713    1.0000 </r>
       <r>   -1.8640    1.0000 </r>
       <r>   -1.8257    1.0000 </r>
       <r>   -1.8071    1.0000 </r>
       <r>   -1.7883    1.0000 </r>
       <r>   -1.7705    1.0000 </r>
       <r>   -1.7644    1.0000 </r>
       <r>   -1.7565    1.0000 </r>
       <r>   -1.7491    1.0000 </r>
       <r>   -1.7219    1.0000 </r>
       <r>   -1.7114    1.0000 </r>
       <r>   -1.7073    1.0000 </r>
       <r>   -1.6862    1.0000 </r>
       <r>   -1.6831    1.0000 </r>
       <r>   -1.6811    1.0000 </r>
       <r>   -1.6642    1.0000 </r>
       <r>   -1.6635    1.0000 </r>
       <r>   -1.6468    1.0000 </r>
       <r>   -1.6219    1.0000 </r>
       <r>   -1.6087    1.0000 </r>
       <r>   -1.6061    1.0000 </r>
       <r>   -1.6032    1.0000 </r>
       <r>   -1.5782    1.0000 </r>
       <r>   -1.5654    1.0000 </r>
       <r>   -1.5487    1.0000 </r>
       <r>   -1.5455    1.0000 </r>
       <r>   -1.5239    1.0000 </r>
       <r>   -1.5236    1.0000 </r>
       <r>   -1.5115    1.0000 </r>
       <r>   -1.4901    1.0000 </r>
       <r>   -1.4613    1.0000 </r>
       <r>   -1.4553    1.0000 </r>
       <r>   -1.4366    1.0000 </r>
       <r>   -1.4293    1.0000 </r>
       <r>   -1.4095    1.0000 </r>
       <r>   -1.4030    1.0000 </r>
       <r>   -1.3806    1.0000 </r>
       <r>   -1.3450    1.0000 </r>
       <r>   -1.3238    1.0000 </r>
       <r>   -1.3148    1.0000 </r>
       <r>   -1.3113    1.0000 </r>
       <r>   -1.2820    1.0000 </r>
       <r>   -1.2640    1.0000 </r>
       <r>   -1.2473    1.0000 </r>
       <r>   -1.2346    1.0000 </r>
       <r>   -1.2335    1.0000 </r>
       <r>   -1.2052    1.0000 </r>
       <r>   -1.2029    1.0000 </r>
       <r>   -1.1834    1.0000 </r>
       <r>   -1.1430    1.0000 </r>
       <r>   -1.1064    1.0000 </r>
       <r>   -1.0934    1.0000 </r>
       <r>   -1.0761    1.0000 </r>
       <r>   -1.0649    1.0000 </r>
       <r>   -1.0610    1.0000 </r>
       <r>   -1.0510    1.0000 </r>
       <r>   -1.0324    1.0000 </r>
       <r>   -1.0152    1.0000 </r>
       <r>   -1.0088    1.0000 </r>
       <r>   -0.9978    1.0000 </r>
       <r>   -0.9889    1.0000 </r>
       <r>   -0.9739    1.0000 </r>
       <r>   -0.9645    1.0000 </r>
       <r>   -0.9074    0.9998 </r>
       <r>   -0.8831    0.9997 </r>
       <r>   -0.8506    0.9993 </r>
       <r>   -0.8449    0.9992 </r>
       <r>   -0.8283    0.9988 </r>
       <r>   -0.8001    0.9977 </r>
       <r>   -0.7932    0.9974 </r>
       <r>   -0.7836    0.9968 </r>
       <r>   -0.7539    0.9940 </r>
       <r>   -0.7426    0.9925 </r>
       <r>   -0.7070    0.9855 </r>
       <r>   -0.7014    0.9839 </r>
       <r>   -0.6785    0.9762 </r>
       <r>   -0.6372    0.9544 </r>
       <r>   -0.6017    0.9248 </r>
       <r>   -0.5822    0.9032 </r>
       <r>   -0.5663    0.8824 </r>
       <r>   -0.5508    0.8594 </r>
       <r>   -0.5175    0.8002 </r>
       <r>   -0.4817    0.7220 </r>
       <r>   -0.4693    0.6919 </r>
       <r>   -0.4101    0.5331 </r>
       <r>   -0.3930    0.4849 </r>
       <r>   -0.3827    0.4558 </r>
       <r>   -0.3122    0.2711 </r>
       <r>   -0.2760    0.1934 </r>
       <r>   -0.2718    0.1853 </r>
       <r>   -0.2180    0.1010 </r>
       <r>   -0.1439    0.0360 </r>
       <r>   -0.1323    0.0300 </r>
       <r>   -0.1083    0.0201 </r>
       <r>   -0.0907    0.0148 </r>
       <r>   -0.0642    0.0091 </r>
       <r>   -0.0171    0.0035 </r>
       <r>    0.0084    0.0020 </r>
       <r>    0.0460    0.0008 </r>
       <r>    0.1670    0.0000 </r>
       <r>    0.1719    0.0000 </r>
       <r>    0.2041    0.0000 </r>
       <r>    0.2404    0.0000 </r>
       <r>    0.2634    0.0000 </r>
       <r>    0.2823    0.0000 </r>
       <r>    0.3468    0.0000 </r>
       <r>    0.3476    0.0000 </r>
       <r>    0.4228    0.0000 </r>
       <r>    0.4318    0.0000 </r>
       <r>    0.5192    0.0000 </r>
       <r>    0.5336    0.0000 </r>
       <r>    0.5902    0.0000 </r>
       <r>    0.6288    0.0000 </r>
       <r>    0.6423    0.0000 </r>
       <r>    0.6502    0.0000 </r>
       <r>    0.6685    0.0000 </r>
       <r>    0.7384    0.0000 </r>
       <r>    0.7830    0.0000 </r>
       <r>    0.7918    0.0000 </r>
       <r>    0.8007    0.0000 </r>
       <r>    0.8147    0.0000 </r>
       <r>    0.8149    0.0000 </r>
       <r>    0.8913    0.0000 </r>
       <r>    0.9046    0.0000 </r>
       <r>    0.9417    0.0000 </r>
       <r>    1.0731    0.0000 </r>
       <r>    1.6261    0.0000 </r>
       <r>    2.0296    0.0000 </r>
       <r>    2.3878    0.0000 </r>
       <r>    2.5142    0.0000 </r>
       <r>    2.6865    0.0000 </r>
       <r>    3.0258    0.0000 </r>
       <r>    3.2850    0.0000 </r>
       <r>    3.4436    0.0000 </r>
       <r>    3.4624    0.0000 </r>
       <r>    3.6388    0.0000 </r>
       <r>    3.9137    0.0000 </r>
       <r>    3.9824    0.0000 </r>
       <r>    3.9995    0.0000 </r>
       <r>    4.0010    0.0000 </r>
       <r>    4.1024    0.0000 </r>
       <r>    4.1396    0.0000 </r>
       <r>    4.2096    0.0000 </r>
       <r>    4.2397    0.0000 </r>
       <r>    4.2981    0.0000 </r>
       <r>    4.4096    0.0000 </r>
       <r>    4.4975    0.0000 </r>
       <r>    4.5166    0.0000 </r>
       <r>    4.6040    0.0000 </r>
       <r>    4.6426    0.0000 </r>
       <r>    4.7742    0.0000 </r>
       <r>    4.8067    0.0000 </r>
       <r>    4.8130    0.0000 </r>
       <r>    4.9683    0.0000 </r>
       <r>    5.0182    0.0000 </r>
       <r>    5.0762    0.0000 </r>
       <r>    5.1304    0.0000 </r>
       <r>    5.1891    0.0000 </r>
       <r>    5.2600    0.0000 </r>
       <r>    5.2914    0.0000 </r>
       <r>    5.3628    0.0000 </r>
       <r>    5.3639    0.0000 </r>
       <r>    5.3952    0.0000 </r>
       <r>    5.4398    0.0000 </r>
       <r>    5.4477    0.0000 </r>
       <r>    5.4988    0.0000 </r>
       <r>    5.5174    0.0000 </r>
       <r>    5.5737    0.0000 </r>
       <r>    5.6124    0.0000 </r>
      </set>
     </set>
    </set>
   </array>
  </eigenvalues>
  <separator name="orbital magnetization" >
   <v name="MAGDIPOLOUT">      0.00000000      0.00000000      0.00000000</v>
  </separator>
  <dos>
   <i name="efermi">     -0.39838748 </i>
   <total>
    <array>
     <dimension dim="1">gridpoints</dimension>
     <dimension dim="2">spin</dimension>
     <field>energy</field>
     <field>total</field>
     <field>integrated</field>
     <set>
      <set comment="spin 1">
       <r>   -68.0499     0.0000     0.0000 </r>
       <r>   -67.7926     0.0000     0.0000 </r>
       <r>   -67.5354     0.0000     0.0000 </r>
       <r>   -67.2782     0.0000     0.0000 </r>
       <r>   -67.0209     0.0000     0.0000 </r>
       <r>   -66.7637     0.0000     0.0000 </r>
       <r>   -66.5065     0.0000     0.0000 </r>
       <r>   -66.2492     0.0000     0.0000 </r>
       <r>   -65.9920     0.0000     0.0000 </r>
       <r>   -65.7348     0.0000     0.0000 </r>
       <r>   -65.4775     0.0000     0.0000 </r>
       <r>   -65.2203     0.0000     0.0000 </r>
       <r>   -64.9631     0.0832     0.0214 </r>
       <r>   -64.7058    11.9387     3.0925 </r>
       <r>   -64.4486   133.5063    37.4347 </r>
       <r>   -64.1914   212.7588    92.1634 </r>
       <r>   -63.9341   136.8590   127.3681 </r>
       <r>   -63.6769   127.1686   160.0801 </r>
       <r>   -63.4197    95.7276   184.7044 </r>
       <r>   -63.1624    77.4310   204.6223 </r>
       <r>   -62.9052    40.6936   215.0900 </r>
       <r>   -62.6480     3.5148   215.9941 </r>
       <r>   -62.3907     0.0227   216.0000 </r>
       <r>   -62.1335     0.0000   216.0000 </r>
       <r>   -61.8763     0.0000   216.0000 </r>
       <r>   -61.6190     0.0000   216.0000 </r>
       <r>   -61.3618     0.0000   216.0000 </r>
       <r>   -61.1046     0.0000   216.0000 </r>
       <r>   -60.8473     0.0000   216.0000 </r>
       <r>   -60.5901     0.0000   216.0000 </r>
       <r>   -60.3329     0.0000   216.0000 </r>
       <r>   -60.0756     0.0000   216.0000 </r>
       <r>   -59.8184     0.0000   216.0000 </r>
       <r>   -59.5612     0.0000   216.0000 </r>
       <r>   -59.3039     0.0000   216.0000 </r>
       <r>   -59.0467     0.0000   216.0000 </r>
       <r>   -58.7895     0.0000   216.0000 </r>
       <r>   -58.5322     0.0000   216.0000 </r>
       <r>   -58.2750     0.0000   216.0000 </r>
       <r>   -58.0178     0.0000   216.0000 </r>
       <r>   -57.7605     0.0000   216.0000 </r>
       <r>   -57.5033     0.0000   216.0000 </r>
       <r>   -57.2461     0.0000   216.0000 </r>
       <r>   -56.9888     0.0000   216.0000 </r>
       <r>   -56.7316     0.0000   216.0000 </r>
       <r>   -56.4744     0.0000   216.0000 </r>
       <r>   -56.2171     0.0000   216.0000 </r>
       <r>   -55.9599     0.0000   216.0000 </r>
       <r>   -55.7027     0.0000   216.0000 </r>
       <r>   -55.4454     0.0000   216.0000 </r>
       <r>   -55.1882     0.0000   216.0000 </r>
       <r>   -54.9310     0.0000   216.0000 </r>
       <r>   -54.6737     0.0000   216.0000 </r>
       <r>   -54.4165     0.0000   216.0000 </r>
       <r>   -54.1593     0.0000   216.0000 </r>
       <r>   -53.9020     0.0000   216.0000 </r>
       <r>   -53.6448     0.0000   216.0000 </r>
       <r>   -53.3875     0.0000   216.0000 </r>
       <r>   -53.1303     0.0000   216.0000 </r>
       <r>   -52.8731     0.0000   216.0000 </r>
       <r>   -52.6158     0.0000   216.0000 </r>
       <r>   -52.3586     0.0000   216.0000 </r>
       <r>   -52.1014     0.0000   216.0000 </r>
       <r>   -51.8441     0.0000   216.0000 </r>
       <r>   -51.5869     0.0000   216.0000 </r>
       <r>   -51.3297     0.0000   216.0000 </r>
       <r>   -51.0724     0.0000   216.0000 </r>
       <r>   -50.8152     0.0000   216.0000 </r>
       <r>   -50.5580     0.0000   216.0000 </r>
       <r>   -50.3007     0.0000   216.0000 </r>
       <r>   -50.0435     0.0000   216.0000 </r>
       <r>   -49.7863     0.0000   216.0000 </r>
       <r>   -49.5290     0.0000   216.0000 </r>
       <r>   -49.2718     0.0000   216.0000 </r>
       <r>   -49.0146     0.0000   216.0000 </r>
       <r>   -48.7573     0.0000   216.0000 </r>
       <r>   -48.5001     0.0000   216.0000 </r>
       <r>   -48.2429     0.0000   216.0000 </r>
       <r>   -47.9856     0.0000   216.0000 </r>
       <r>   -47.7284     0.0000   216.0000 </r>
       <r>   -47.4712     0.0000   216.0000 </r>
       <r>   -47.2139     0.0000   216.0000 </r>
       <r>   -46.9567     0.0000   216.0000 </r>
       <r>   -46.6995     0.0000   216.0000 </r>
       <r>   -46.4422     0.0000   216.0000 </r>
       <r>   -46.1850     0.0000   216.0000 </r>
       <r>   -45.9278     0.0000   216.0000 </r>
       <r>   -45.6705     0.0000   216.0000 </r>
       <r>   -45.4133     0.0000   216.0000 </r>
       <r>   -45.1561     0.0000   216.0000 </r>
       <r>   -44.8988     0.0000   216.0000 </r>
       <r>   -44.6416     0.0000   216.0000 </r>
       <r>   -44.3844     0.0000   216.0000 </r>
       <r>   -44.1271     0.0000   216.0000 </r>
       <r>   -43.8699     0.0000   216.0000 </r>
       <r>   -43.6127     0.0000   216.0000 </r>
       <r>   -43.3554     0.0000   216.0000 </r>
       <r>   -43.0982     0.0000   216.0000 </r>
       <r>   -42.8410     0.0000   216.0000 </r>
       <r>   -42.5837     0.0000   216.0000 </r>
       <r>   -42.3265     0.0000   216.0000 </r>
       <r>   -42.0693     0.0000   216.0000 </r>
       <r>   -41.8120     0.0000   216.0000 </r>
       <r>   -41.5548     0.0000   216.0000 </r>
       <r>   -41.2976     0.0000   216.0000 </r>
       <r>   -41.0403     0.0000   216.0000 </r>
       <r>   -40.7831     0.0000   216.0000 </r>
       <r>   -40.5259     0.0000   216.0000 </r>
       <r>   -40.2686     0.0000   216.0000 </r>
       <r>   -40.0114     0.0000   216.0000 </r>
       <r>   -39.7542     0.0000   216.0000 </r>
       <r>   -39.4969     0.0000   216.0000 </r>
       <r>   -39.2397     0.0000   216.0000 </r>
       <r>   -38.9825     0.0000   216.0000 </r>
       <r>   -38.7252     0.0000   216.0000 </r>
       <r>   -38.4680     0.0000   216.0000 </r>
       <r>   -38.2108     0.0000   216.0000 </r>
       <r>   -37.9535     0.0000   216.0000 </r>
       <r>   -37.6963     0.0000   216.0000 </r>
       <r>   -37.4391     0.0000   216.0000 </r>
       <r>   -37.1818     0.0000   216.0000 </r>
       <r>   -36.9246     0.0000   216.0000 </r>
       <r>   -36.6674     0.0000   216.0000 </r>
       <r>   -36.4101     0.0000   216.0000 </r>
       <r>   -36.1529     0.0000   216.0000 </r>
       <r>   -35.8957     0.0000   216.0000 </r>
       <r>   -35.6384     0.0000   216.0000 </r>
       <r>   -35.3812     0.0000   216.0000 </r>
       <r>   -35.1240     0.0000   216.0000 </r>
       <r>   -34.8667     0.0000   216.0000 </r>
       <r>   -34.6095     0.0000   216.0000 </r>
       <r>   -34.3523     0.0000   216.0000 </r>
       <r>   -34.0950     0.0000   216.0000 </r>
       <r>   -33.8378     0.0000   216.0000 </r>
       <r>   -33.5806     0.0000   216.0000 </r>
       <r>   -33.3233     0.0000   216.0000 </r>
       <r>   -33.0661     0.0000   216.0000 </r>
       <r>   -32.8089     0.0000   216.0000 </r>
       <r>   -32.5516     0.0000   216.0000 </r>
       <r>   -32.2944     0.0000   216.0000 </r>
       <r>   -32.0372     0.0000   216.0000 </r>
       <r>   -31.7799     0.0000   216.0000 </r>
       <r>   -31.5227     0.0000   216.0000 </r>
       <r>   -31.2655     0.0000   216.0000 </r>
       <r>   -31.0082     0.0000   216.0000 </r>
       <r>   -30.7510     0.0000   216.0000 </r>
       <r>   -30.4938     0.0000   216.0000 </r>
       <r>   -30.2365     0.0000   216.0000 </r>
       <r>   -29.9793     0.0000   216.0000 </r>
       <r>   -29.7221     0.0000   216.0000 </r>
       <r>   -29.4648     0.0000   216.0000 </r>
       <r>   -29.2076     0.0000   216.0000 </r>
       <r>   -28.9504     0.0000   216.0000 </r>
       <r>   -28.6931     0.0000   216.0000 </r>
       <r>   -28.4359     0.0000   216.0000 </r>
       <r>   -28.1787     0.0000   216.0000 </r>
       <r>   -27.9214     0.0000   216.0000 </r>
       <r>   -27.6642     0.0000   216.0000 </r>
       <r>   -27.4070     0.0000   216.0000 </r>
       <r>   -27.1497     0.0000   216.0000 </r>
       <r>   -26.8925     0.0000   216.0000 </r>
       <r>   -26.6353     0.0000   216.0000 </r>
       <r>   -26.3780     0.0000   216.0000 </r>
       <r>   -26.1208     0.0000   216.0000 </r>
       <r>   -25.8636     0.0000   216.0000 </r>
       <r>   -25.6063     0.0000   216.0000 </r>
       <r>   -25.3491     0.0000   216.0000 </r>
       <r>   -25.0919     0.0000   216.0000 </r>
       <r>   -24.8346     0.0000   216.0000 </r>
       <r>   -24.5774     0.0000   216.0000 </r>
       <r>   -24.3202     0.0000   216.0000 </r>
       <r>   -24.0629     0.0000   216.0000 </r>
       <r>   -23.8057     0.0000   216.0000 </r>
       <r>   -23.5485     0.0000   216.0000 </r>
       <r>   -23.2912     0.0000   216.0000 </r>
       <r>   -23.0340     0.0000   216.0000 </r>
       <r>   -22.7768     0.0000   216.0000 </r>
       <r>   -22.5195     0.0000   216.0000 </r>
       <r>   -22.2623     0.0000   216.0000 </r>
       <r>   -22.0051     0.0000   216.0000 </r>
       <r>   -21.7478     0.0000   216.0000 </r>
       <r>   -21.4906     0.0000   216.0000 </r>
       <r>   -21.2334     0.0000   216.0000 </r>
       <r>   -20.9761     0.0000   216.0000 </r>
       <r>   -20.7189     0.0000   216.0000 </r>
       <r>   -20.4617     0.0000   216.0000 </r>
       <r>   -20.2044     0.0000   216.0000 </r>
       <r>   -19.9472     0.0000   216.0000 </r>
       <r>   -19.6900     0.0000   216.0000 </r>
       <r>   -19.4327     0.0000   216.0000 </r>
       <r>   -19.1755     0.0000   216.0000 </r>
       <r>   -18.9183     0.0000   216.0000 </r>
       <r>   -18.6610     0.0000   216.0000 </r>
       <r>   -18.4038     0.0000   216.0000 </r>
       <r>   -18.1466     0.0000   216.0000 </r>
       <r>   -17.8893     0.0000   216.0000 </r>
       <r>   -17.6321     0.0000   216.0000 </r>
       <r>   -17.3749     0.0000   216.0000 </r>
       <r>   -17.1176     0.0000   216.0000 </r>
       <r>   -16.8604     0.0000   216.0000 </r>
       <r>   -16.6032     0.0000   216.0000 </r>
       <r>   -16.3459     0.0000   216.0000 </r>
       <r>   -16.0887     0.0000   216.0000 </r>
       <r>   -15.8315     0.0035   216.0009 </r>
       <r>   -15.5742     0.5193   216.1345 </r>
       <r>   -15.3170     5.0523   217.4341 </r>
       <r>   -15.0598    10.6657   220.1777 </r>
       <r>   -14.8025     8.9905   222.4903 </r>
       <r>   -14.5453    14.8180   226.3020 </r>
       <r>   -14.2881    20.7806   231.6475 </r>
       <r>   -14.0308    28.9396   239.0917 </r>
       <r>   -13.7736    33.2572   247.6466 </r>
       <r>   -13.5164    21.1116   253.0772 </r>
       <r>   -13.2591    13.1367   256.4564 </r>
       <r>   -13.0019    21.2558   261.9241 </r>
       <r>   -12.7447    29.0694   269.4017 </r>
       <r>   -12.4874    30.1399   277.1547 </r>
       <r>   -12.2302    19.7417   282.2329 </r>
       <r>   -11.9730    14.1398   285.8702 </r>
       <r>   -11.7157     6.7951   287.6181 </r>
       <r>   -11.4585     1.4581   287.9931 </r>
       <r>   -11.2013     0.0267   288.0000 </r>
       <r>   -10.9440     0.0000   288.0000 </r>
       <r>   -10.6868     0.0000   288.0000 </r>
       <r>   -10.4296     0.0000   288.0000 </r>
       <r>   -10.1723     0.0000   288.0000 </r>
       <r>    -9.9151     0.0000   288.0000 </r>
       <r>    -9.6579     0.0000   288.0000 </r>
       <r>    -9.4006     0.0000   288.0000 </r>
       <r>    -9.1434     0.0000   288.0000 </r>
       <r>    -8.8862     0.0000   288.0000 </r>
       <r>    -8.6289     0.0000   288.0000 </r>
       <r>    -8.3717     0.0000   288.0000 </r>
       <r>    -8.1145     0.0000   288.0000 </r>
       <r>    -7.8572     0.0000   288.0000 </r>
       <r>    -7.6000     0.0038   288.0010 </r>
       <r>    -7.3428     0.8457   288.2185 </r>
       <r>    -7.0855    13.5080   291.6932 </r>
       <r>    -6.8283    23.7616   297.8055 </r>
       <r>    -6.5711    23.1620   303.7636 </r>
       <r>    -6.3138    41.2452   314.3732 </r>
       <r>    -6.0566    43.0185   325.4390 </r>
       <r>    -5.7994    44.3047   336.8356 </r>
       <r>    -5.5421    53.1803   350.5154 </r>
       <r>    -5.2849    46.0731   362.3669 </r>
       <r>    -5.0277    36.7041   371.8085 </r>
       <r>    -4.7704    46.7806   383.8420 </r>
       <r>    -4.5132    56.3257   398.3308 </r>
       <r>    -4.2560    48.0358   410.6872 </r>
       <r>    -3.9987    63.4060   426.9974 </r>
       <r>    -3.7415    65.4865   443.8427 </r>
       <r>    -3.4843    60.5291   459.4128 </r>
       <r>    -3.2270    63.1819   475.6653 </r>
       <r>    -2.9698    67.1280   492.9329 </r>
       <r>    -2.7126    66.2781   509.9818 </r>
       <r>    -2.4553    95.1182   534.4494 </r>
       <r>    -2.1981   131.0413   568.1576 </r>
       <r>    -1.9409   155.4129   608.1349 </r>
       <r>    -1.6836   160.6718   649.4651 </r>
       <r>    -1.4264   147.0902   687.3016 </r>
       <r>    -1.1692   121.9369   718.6678 </r>
       <r>    -0.9119   114.6905   748.1700 </r>
       <r>    -0.6547    96.4413   772.9780 </r>
       <r>    -0.3975    74.1745   792.0581 </r>
       <r>    -0.1402    59.2541   807.3002 </r>
       <r>     0.1170    53.7548   821.1278 </r>
       <r>     0.3742    53.1310   834.7949 </r>
       <r>     0.6315    56.3708   849.2953 </r>
       <r>     0.8887    62.6286   865.4055 </r>
       <r>     1.1459    29.5388   873.0038 </r>
       <r>     1.4032     4.2358   874.0934 </r>
       <r>     1.6604     4.3046   875.2007 </r>
       <r>     1.9176     4.6236   876.3900 </r>
       <r>     2.1749     5.6538   877.8444 </r>
       <r>     2.4321     7.8954   879.8753 </r>
       <r>     2.6893    11.3100   882.7846 </r>
       <r>     2.9466     6.7624   884.5242 </r>
       <r>     3.2038     7.7469   886.5169 </r>
       <r>     3.4610    13.8730   890.0855 </r>
       <r>     3.7183    13.7873   893.6321 </r>
       <r>     3.9755    20.1021   898.8030 </r>
       <r>     4.2327    35.3492   907.8960 </r>
       <r>     4.4900    30.3825   915.7114 </r>
       <r>     4.7472    29.8717   923.3954 </r>
       <r>     5.0044    29.5170   930.9882 </r>
       <r>     5.2617    36.8020   940.4549 </r>
       <r>     5.5189    48.8089   953.0101 </r>
       <r>     5.7761    24.9604   959.4308 </r>
       <r>     6.0334     2.1951   959.9954 </r>
       <r>     6.2906     0.0177   960.0000 </r>
       <r>     6.5478     0.0000   960.0000 </r>
       <r>     6.8051     0.0000   960.0000 </r>
       <r>     7.0623     0.0000   960.0000 </r>
       <r>     7.3195     0.0000   960.0000 </r>
       <r>     7.5768     0.0000   960.0000 </r>
       <r>     7.8340     0.0000   960.0000 </r>
       <r>     8.0912     0.0000   960.0000 </r>
       <r>     8.3485     0.0000   960.0000 </r>
       <r>     8.6057     0.0000   960.0000 </r>
       <r>     8.8629     0.0000   960.0000 </r>
       <r>     9.1202     0.0000   960.0000 </r>
      </set>
     </set>
    </array>
   </total>
  </dos>
 </calculation>
 <structure name="finalpos" >
  <crystal>
   <varray name="basis" >
    <v>      16.88469405       0.00000000       0.00000000 </v>
    <v>       0.00000000       9.57841000       0.00000000 </v>
    <v>       0.00000000       0.00000000      16.16908712 </v>
   </varray>
   <i name="volume">   2615.00256803 </i>
   <varray name="rec_basis" >
    <v>       0.05922524       0.00000000       0.00000000 </v>
    <v>       0.00000000       0.10440146       0.00000000 </v>
    <v>       0.00000000       0.00000000       0.06184641 </v>
   </varray>
  </crystal>
  <varray name="positions" >
   <v>       0.78004631       0.14529695       0.12058499 </v>
   <v>       0.81461426       0.14529695       0.31135294 </v>
   <v>       0.26276233       0.64529695       0.02520102 </v>
   <v>       0.29733029       0.64529695       0.21596897 </v>
   <v>       0.43519032       0.14529695       0.05699568 </v>
   <v>       0.46975828       0.14529695       0.24776362 </v>
   <v>       0.95247430       0.64529695       0.15237965 </v>
   <v>       0.98704226       0.64529695       0.34314760 </v>
   <v>       0.12490229       0.14529695       0.18417431 </v>
   <v>       0.15947025       0.14529695       0.37494226 </v>
   <v>       0.60761831       0.64529695       0.08879033 </v>
   <v>       0.64218627       0.64529695       0.27955828 </v>
   <v>       0.90758278       0.01319395       0.09538397 </v>
   <v>       0.94215073       0.01319395       0.28615192 </v>
   <v>       0.39029880       0.51319395       0.00000000 </v>
   <v>       0.42486675       0.51319395       0.19076795 </v>
   <v>       0.56272679       0.01319395       0.03179466 </v>
   <v>       0.59729475       0.01319395       0.22256261 </v>
   <v>       0.08001077       0.51319395       0.12717863 </v>
   <v>       0.11457873       0.51319395       0.31794658 </v>
   <v>       0.25243876       0.01319395       0.15897329 </v>
   <v>       0.28700672       0.01319395       0.34974124 </v>
   <v>       0.73515478       0.51319395       0.06358932 </v>
   <v>       0.76972274       0.51319395       0.25435726 </v>
   <v>       0.90758278       0.27739995       0.09538397 </v>
   <v>       0.94215073       0.27739995       0.28615192 </v>
   <v>       0.39029880       0.77739995       0.00000000 </v>
   <v>       0.42486675       0.77739995       0.19076795 </v>
   <v>       0.56272679       0.27739995       0.03179466 </v>
   <v>       0.59729475       0.27739995       0.22256261 </v>
   <v>       0.08001077       0.77739995       0.12717863 </v>
   <v>       0.11457873       0.77739995       0.31794658 </v>
   <v>       0.25243876       0.27739995       0.15897329 </v>
   <v>       0.28700672       0.27739995       0.34974124 </v>
   <v>       0.73515478       0.77739995       0.06358932 </v>
   <v>       0.76972274       0.77739995       0.25435726 </v>
   <v>       0.02602916       0.14529695       0.37317765 </v>
   <v>       0.99146121       0.14529695       0.18240970 </v>
   <v>       0.47417723       0.64529695       0.08702573 </v>
   <v>       0.50874518       0.64529695       0.27779368 </v>
   <v>       0.64660522       0.14529695       0.11882039 </v>
   <v>       0.68117318       0.14529695       0.30958834 </v>
   <v>       0.12932124       0.64529695       0.02343641 </v>
   <v>       0.16388920       0.64529695       0.21420436 </v>
   <v>       0.30174923       0.14529695       0.05523107 </v>
   <v>       0.33631719       0.14529695       0.24599902 </v>
   <v>       0.81903321       0.64529695       0.15061505 </v>
   <v>       0.85360117       0.64529695       0.34138299 </v>
   <v>       0.79449310       0.31351195       0.02373179 </v>
   <v>       0.82906105       0.31351195       0.21449973 </v>
   <v>       0.31177708       0.81351195       0.11911576 </v>
   <v>       0.34634503       0.81351195       0.30988371 </v>
   <v>       0.48420507       0.31351195       0.15091042 </v>
   <v>       0.51877303       0.31351195       0.34167837 </v>
   <v>       0.00148905       0.81351195       0.24629439 </v>
   <v>       0.96692109       0.81351195       0.05552644 </v>
   <v>       0.13934908       0.31351195       0.08732110 </v>
   <v>       0.17391704       0.31351195       0.27808905 </v>
   <v>       0.65663306       0.81351195       0.18270508 </v>
   <v>       0.69120102       0.81351195       0.37347302 </v>
   <v>       0.31177708       0.47708195       0.11911576 </v>
   <v>       0.34634503       0.47708195       0.30988371 </v>
   <v>       0.79449310       0.97708195       0.02373179 </v>
   <v>       0.82906105       0.97708195       0.21449973 </v>
   <v>       0.00148905       0.47708195       0.24629439 </v>
   <v>       0.96692109       0.47708195       0.05552644 </v>
   <v>       0.48420507       0.97708195       0.15091042 </v>
   <v>       0.51877303       0.97708195       0.34167837 </v>
   <v>       0.65663306       0.47708195       0.18270508 </v>
   <v>       0.69120102       0.47708195       0.37347302 </v>
   <v>       0.13934908       0.97708195       0.08732110 </v>
   <v>       0.17391704       0.97708195       0.27808905 </v>
  </varray>
 </structure>
</modeling>
