       N       E                     dE             d eps       ncg     rms          rms(c)
DAV:   1     0.861354308242E+04    0.86135E+04   -0.49956E+05  1184   0.152E+03
DAV:   2     0.478343912705E+03   -0.81352E+04   -0.78364E+04  1024   0.481E+02
DAV:   3    -0.347081013422E+03   -0.82542E+03   -0.78007E+03  1120   0.156E+02
DAV:   4    -0.395975797878E+03   -0.48895E+02   -0.48292E+02  1120   0.349E+01
DAV:   5    -0.397736382991E+03   -0.17606E+01   -0.17587E+01  1216   0.708E+00    0.825E+01
DAV:   6    -0.514886813742E+03   -0.11715E+03   -0.10674E+03  1152   0.128E+02    0.178E+02
DAV:   7    -0.375903977112E+03    0.13898E+03   -0.19744E+02  1112   0.609E+01    0.753E+01
DAV:   8    -0.374259989064E+03    0.16440E+01   -0.19384E+02  1352   0.773E+01    0.914E+01
DAV:   9    -0.358727557052E+03    0.15532E+02   -0.95488E+01  1320   0.426E+01    0.530E+01
DAV:  10    -0.362200051343E+03   -0.34725E+01   -0.44266E+01  1344   0.439E+01    0.881E+01
DAV:  11    -0.372318525841E+03   -0.10118E+02   -0.66291E+01  1336   0.347E+01    0.918E+01
DAV:  12    -0.354920803284E+03    0.17398E+02   -0.27301E+01  1336   0.245E+01    0.422E+01
DAV:  13    -0.349011036044E+03    0.59098E+01   -0.19516E+01  1296   0.243E+01    0.296E+01
DAV:  14    -0.350423859586E+03   -0.14128E+01   -0.12075E+01  1288   0.205E+01    0.510E+01
DAV:  15    -0.347062285639E+03    0.33616E+01   -0.12662E+01  1176   0.135E+01    0.251E+01
DAV:  16    -0.345353580534E+03    0.17087E+01   -0.32416E+00  1288   0.115E+01    0.188E+01
DAV:  17    -0.344690687811E+03    0.66289E+00   -0.20941E+00  1296   0.893E+00    0.162E+01
DAV:  18    -0.343999472342E+03    0.69122E+00   -0.14037E+00  1296   0.723E+00    0.122E+01
DAV:  19    -0.343728555466E+03    0.27092E+00   -0.87015E-01  1328   0.601E+00    0.105E+01
DAV:  20    -0.343456513267E+03    0.27204E+00   -0.65514E-01  1280   0.509E+00    0.747E+00
DAV:  21    -0.343391272514E+03    0.65241E-01   -0.32588E-01  1200   0.343E+00    0.660E+00
DAV:  22    -0.343318600485E+03    0.72672E-01   -0.22148E-01  1224   0.271E+00    0.490E+00
DAV:  23    -0.343300891254E+03    0.17709E-01   -0.14759E-01  1320   0.227E+00    0.447E+00
DAV:  24    -0.343282068350E+03    0.18823E-01   -0.17630E-01  1256   0.234E+00    0.431E+00
DAV:  25    -0.343294808153E+03   -0.12740E-01   -0.21046E-01  1312   0.253E+00    0.450E+00
DAV:  26    -0.343267636787E+03    0.27171E-01   -0.14679E-01  1288   0.220E+00    0.353E+00
DAV:  27    -0.343243812731E+03    0.23824E-01   -0.77704E-02  1296   0.170E+00    0.236E+00
DAV:  28    -0.343245412345E+03   -0.15996E-02   -0.49396E-02  1320   0.131E+00    0.232E+00
DAV:  29    -0.343232842779E+03    0.12570E-01   -0.29832E-02  1312   0.116E+00    0.128E+00
DAV:  30    -0.343231434780E+03    0.14080E-02   -0.15131E-02  1304   0.810E-01    0.123E+00
DAV:  31    -0.343230312559E+03    0.11222E-02   -0.11878E-02  1216   0.773E-01    0.985E-01
DAV:  32    -0.343228447246E+03    0.18653E-02   -0.60265E-03  1312   0.512E-01    0.717E-01
DAV:  33    -0.343228004954E+03    0.44229E-03   -0.41148E-03  1200   0.423E-01    0.567E-01
DAV:  34    -0.343227814918E+03    0.19004E-03   -0.21087E-03  1240   0.310E-01    0.410E-01
DAV:  35    -0.343227609145E+03    0.20577E-03   -0.12003E-03  1056   0.249E-01    0.215E-01
DAV:  36    -0.343228124128E+03   -0.51498E-03   -0.72841E-04   984   0.185E-01    0.226E-01
DAV:  37    -0.343228427059E+03   -0.30293E-03   -0.44424E-04   864   0.158E-01    0.118E-01
DAV:  38    -0.343228923192E+03   -0.49613E-03   -0.27026E-04   712   0.120E-01    0.174E-01
DAV:  39    -0.343229283575E+03   -0.36038E-03   -0.26120E-04   728   0.116E-01    0.108E-01
DAV:  40    -0.343229591777E+03   -0.30820E-03   -0.11168E-04   600   0.842E-02    0.965E-02
DAV:  41    -0.343230056149E+03   -0.46437E-03   -0.10677E-04   648   0.655E-02    0.531E-02
DAV:  42    -0.343230408192E+03   -0.35204E-03   -0.95709E-05   600   0.645E-02    0.789E-02
DAV:  43    -0.343230813005E+03   -0.40481E-03   -0.94863E-05   608   0.544E-02    0.491E-02
DAV:  44    -0.343231183146E+03   -0.37014E-03   -0.75770E-05   656   0.545E-02    0.728E-02
DAV:  45    -0.343231495137E+03   -0.31199E-03   -0.78951E-05   616   0.499E-02    0.342E-02
DAV:  46    -0.343231678348E+03   -0.18321E-03   -0.56405E-05   608   0.395E-02    0.475E-02
DAV:  47    -0.343231845025E+03   -0.16668E-03   -0.50217E-05   640   0.310E-02    0.193E-02
DAV:  48    -0.343231911980E+03   -0.66955E-04   -0.27486E-05   600   0.201E-02
   1 F= -.34323191E+03 E0= -.34258721E+03  d E =-.128940E+01
