 running on   48 total cores
 distrk:  each k-point on   48 cores,    1 groups
 distr:  one band on    6 cores,    8 groups
 using from now: INCAR     
 vasp.6.1.0 28Jan20 (build Mar 31 2020 17:42:31) gamma-only                     
  
 POSCAR found type information on POSCAR NiS 
 POSCAR found :  2 types and      74 ions
 scaLAPACK will be used
 LDA part: xc-table for Pade appr. of Perdew
 POSCAR, INCAR and KPOINTS ok, starting setup
 FFT: planning ...
 WAVECAR not read
 entering main loop
       N       E                     dE             d eps       ncg     rms          rms(c)
DAV:   1     0.995341015484E+04    0.99534E+04   -0.52382E+05  1200   0.164E+03
DAV:   2     0.607283446923E+03   -0.93461E+04   -0.90059E+04  1040   0.524E+02
DAV:   3    -0.352662684653E+03   -0.95995E+03   -0.90526E+03  1112   0.179E+02
DAV:   4    -0.415564481206E+03   -0.62902E+02   -0.62159E+02  1168   0.405E+01
DAV:   5    -0.417723983680E+03   -0.21595E+01   -0.21554E+01  1264   0.798E+00    0.840E+01
DAV:   6    -0.508532948905E+03   -0.90809E+02   -0.10380E+03  1176   0.120E+02    0.162E+02
DAV:   7    -0.386891078899E+03    0.12164E+03   -0.18457E+02  1160   0.646E+01    0.647E+01
DAV:   8    -0.523553987042E+03   -0.13666E+03   -0.17085E+02  1432   0.906E+01    0.182E+02
DAV:   9    -0.384894047868E+03    0.13866E+03   -0.15699E+02  1208   0.477E+01    0.681E+01
DAV:  10    -0.385133152561E+03   -0.23910E+00   -0.72357E+01  1376   0.407E+01    0.610E+01
DAV:  11    -0.381129604324E+03    0.40035E+01   -0.41917E+01  1336   0.347E+01    0.492E+01
DAV:  12    -0.371080732965E+03    0.10049E+02   -0.20333E+01  1280   0.307E+01    0.274E+01
DAV:  13    -0.373199199539E+03   -0.21185E+01   -0.19090E+01  1296   0.234E+01    0.443E+01
DAV:  14    -0.369273978016E+03    0.39252E+01   -0.22671E+01  1336   0.151E+01    0.219E+01
DAV:  15    -0.367323380297E+03    0.19506E+01   -0.25867E+00  1336   0.101E+01    0.180E+01
DAV:  16    -0.366949051281E+03    0.37433E+00   -0.19910E+00  1280   0.855E+00    0.162E+01
DAV:  17    -0.366172375635E+03    0.77668E+00   -0.11609E+00  1288   0.615E+00    0.116E+01
DAV:  18    -0.365987924182E+03    0.18445E+00   -0.78465E-01  1344   0.486E+00    0.993E+00
DAV:  19    -0.365761321705E+03    0.22660E+00   -0.44669E-01  1320   0.324E+00    0.805E+00
DAV:  20    -0.365609906732E+03    0.15141E+00   -0.33164E-01  1296   0.310E+00    0.628E+00
DAV:  21    -0.365638905210E+03   -0.28998E-01   -0.38296E-01  1312   0.372E+00    0.684E+00
DAV:  22    -0.365482366402E+03    0.15654E+00   -0.24269E-01  1256   0.284E+00    0.345E+00
DAV:  23    -0.365497059008E+03   -0.14693E-01   -0.13193E-01  1312   0.215E+00    0.408E+00
DAV:  24    -0.365466808409E+03    0.30251E-01   -0.72508E-02  1200   0.159E+00    0.325E+00
DAV:  25    -0.365462275152E+03    0.45333E-02   -0.56950E-02  1280   0.149E+00    0.289E+00
DAV:  26    -0.365456142966E+03    0.61322E-02   -0.78395E-02  1304   0.141E+00    0.259E+00
DAV:  27    -0.365437495937E+03    0.18647E-01   -0.42100E-02  1304   0.118E+00    0.116E+00
DAV:  28    -0.365441777473E+03   -0.42815E-02   -0.22427E-02  1328   0.940E-01    0.127E+00
DAV:  29    -0.365436354900E+03    0.54226E-02   -0.10943E-02  1320   0.734E-01    0.719E-01
DAV:  30    -0.365436553169E+03   -0.19827E-03   -0.41122E-03  1312   0.409E-01    0.634E-01
DAV:  31    -0.365435801185E+03    0.75198E-03   -0.27746E-03  1272   0.358E-01    0.343E-01
DAV:  32    -0.365436502645E+03   -0.70146E-03   -0.12585E-03  1176   0.231E-01    0.321E-01
DAV:  33    -0.365436465121E+03    0.37523E-04   -0.66489E-04  1016   0.204E-01
   1 F= -.36543647E+03 E0= -.36482945E+03  d E =-.121403E+01
