"Millerite NiS"                         
           1
    10.062820    5.044562    0.000000
     0.000000   11.256463    0.000000
     0.000000    0.000000   22.883649
   Ni   S 
    52    52
Direct configuration=     1
   0.26092070  0.47878036  0.29050611
   0.35488056  0.38482049  0.41880986
   0.07300096  0.16670011  0.03389862
   0.16696083  0.07274024  0.16220237
   0.05611868  0.05147940  0.51321499
   0.18027920  0.42731886  0.00000000
   0.27423907  0.33335899  0.12830375
   0.36819893  0.23939913  0.25660749
   0.46215880  0.14543926  0.38491124
   0.00030194  0.37150212  0.25660749
   0.09426181  0.27754226  0.38491124
   0.18822168  0.18358239  0.51321499
   0.40634206  0.46546199  0.12830375
   0.31238219  0.05942187  0.00000000
   0.76092070  0.47878036  0.29050611
   0.85488056  0.38482049  0.41880986
   0.94884043  0.29086063  0.54711361
   0.66696083  0.07274024  0.16220237
   0.55611868  0.05147940  0.51321499
   0.68027920  0.42731886  0.00000000
   0.77423907  0.33335899  0.12830375
   0.86819893  0.23939913  0.25660749
   0.96215880  0.14543926  0.38491124
   0.50030194  0.37150212  0.25660749
   0.59426181  0.27754226  0.38491124
   0.90634206  0.46546199  0.12830375
   0.26092070  0.97878036  0.29050611
   0.35488056  0.88482049  0.41880986
   0.44884043  0.79086063  0.54711361
   0.16696083  0.57274024  0.16220237
   0.05611868  0.55147940  0.51321499
   0.18027920  0.92731886  0.00000000
   0.27423907  0.83335899  0.12830375
   0.36819893  0.73939913  0.25660749
   0.46215880  0.64543926  0.38491124
   0.00030194  0.87150212  0.25660749
   0.09426181  0.77754226  0.38491124
   0.40634206  0.96546199  0.12830375
   0.31238219  0.55942187  0.00000000
   0.76092070  0.97878036  0.29050611
   0.85488056  0.88482049  0.41880986
   0.57300096  0.66670011  0.03389862
   0.66696083  0.57274024  0.16220237
   0.68027920  0.92731886  0.00000000
   0.77423907  0.83335899  0.12830375
   0.86819893  0.73939913  0.25660749
   0.96215880  0.64543926  0.38491124
   0.50030194  0.87150212  0.25660749
   0.59426181  0.77754226  0.38491124
   0.68822168  0.68358239  0.51321499
   0.90634206  0.96546199  0.12830375
   0.81238219  0.55942187  0.00000000
   0.07287763  0.16682343  0.30639927
   0.16683750  0.07286357  0.43470302
   0.38495789  0.35474317  0.04979178
   0.47891775  0.26078330  0.17809552
   0.26079737  0.47890369  0.56300676
   0.03023342  0.37768264  0.47786825
   0.43627354  0.47164251  0.34956450
   0.24835381  0.15956225  0.09295701
   0.34231368  0.06560239  0.22126075
   0.08013882  0.49134725  0.09295701
   0.17409868  0.39738738  0.22126075
   0.26805855  0.30342751  0.34956450
   0.36201842  0.20946764  0.47786825
   0.57287763  0.16682343  0.30639927
   0.66683750  0.07286357  0.43470302
   0.88495789  0.35474317  0.04979178
   0.97891775  0.26078330  0.17809552
   0.76079737  0.47890369  0.56300676
   0.53023342  0.37768264  0.47786825
   0.93627354  0.47164251  0.34956450
   0.74835381  0.15956225  0.09295701
   0.84231368  0.06560239  0.22126075
   0.58013882  0.49134725  0.09295701
   0.67409868  0.39738738  0.22126075
   0.76805855  0.30342751  0.34956450
   0.86201842  0.20946764  0.47786825
   0.07287763  0.66682343  0.30639927
   0.16683750  0.57286357  0.43470302
   0.38495789  0.85474317  0.04979178
   0.47891775  0.76078330  0.17809552
   0.26079737  0.97890369  0.56300676
   0.03023342  0.87768264  0.47786825
   0.43627354  0.97164251  0.34956450
   0.24835381  0.65956225  0.09295701
   0.34231368  0.56560239  0.22126075
   0.08013882  0.99134725  0.09295701
   0.17409868  0.89738738  0.22126075
   0.26805855  0.80342751  0.34956450
   0.36201842  0.70946764  0.47786825
   0.57287763  0.66682343  0.30639927
   0.66683750  0.57286357  0.43470302
   0.88495789  0.85474317  0.04979178
   0.97891775  0.76078330  0.17809552
   0.76079737  0.97890369  0.56300676
   0.53023342  0.87768264  0.47786825
   0.93627354  0.97164251  0.34956450
   0.74835381  0.65956225  0.09295701
   0.84231368  0.56560239  0.22126075
   0.58013882  0.99134725  0.09295701
   0.67409868  0.89738738  0.22126075
   0.76805855  0.80342751  0.34956450
   0.86201842  0.70946764  0.47786825
