LAMMPS data file via write_data, version 5 Jun 2019, timestep = 38

60 atoms
2 atom types

0.0000000000000000e+00 9.5784099999999999e+00 xlo xhi
0.0000000000000000e+00 1.1256463038200000e+01 ylo yhi
0.0000000000000000e+00 1.7711358899699999e+01 zlo zhi
0.0000000000000000e+00 0.0000000000000000e+00 0.0000000000000000e+00 xy xz yz

Masses

1 58.71
2 32.06

Atoms # atomic

1 1 9.4674882771201130e+00 4.9796272106310733e+00 1.2822345091138634e+00 -1 0 0
2 1 7.7362117420000021e-01 4.2700842881999996e+00 3.3183848654000001e+00 0 0 0
3 1 4.9085291772405831e-01 3.9068513493604340e+00 5.9640722692417603e+00 0 0 0
4 1 5.6744193850789060e+00 1.6902271260521511e+00 2.0568023711402321e+00 0 0 0
5 1 5.5628261741999996e+00 1.1641339181999999e+00 4.8606566479000000e+00 0 0 0
6 1 1.6903024338015424e+00 1.8266384191479168e+00 3.0828778496156430e+00 0 0 0
7 1 2.0389578704000000e+00 1.5330006475999998e+00 5.9954509715000031e+00 0 0 0
8 1 6.8281628704000017e+00 5.2226203962000000e+00 1.3686356240000006e+00 0 0 0
9 1 6.8281628704000017e+00 4.6389510064000001e+00 4.4531791890000001e+00 0 0 0
10 1 6.8082643099080871e+00 3.9660173711415911e+00 6.7447304466773055e+00 0 0 0
11 1 3.9933351636826742e+00 5.5873143968200329e+00 1.4201702260593854e+00 0 0 0
12 1 3.2578110865852614e+00 4.4871015966600902e+00 3.5403099955937005e+00 0 0 0
13 1 3.5294807154562458e+00 3.8383082727836464e+00 6.0158330493904115e+00 0 0 0
14 1 8.0934995666000003e+00 1.7478033079999999e+00 1.7761130829000000e+00 0 0 0
15 1 8.0934995666000003e+00 1.1641339181999999e+00 4.8606566479000000e+00 0 0 0
16 1 9.8882140387528142e-02 1.1237174548931673e+01 1.4014567903236792e+00 0 0 0
17 1 7.7189709291700159e-01 1.0306495120723712e+01 3.5829886858781874e+00 0 0 0
18 1 7.2209285186998762e-01 9.3798066634786270e+00 6.0890582105901423e+00 0 0 0
19 1 5.6603505315995992e+00 7.3443888846000576e+00 2.0309830288558808e+00 0 0 0
20 1 5.4817633726514163e+00 6.8159091456120162e+00 4.6159293522971341e+00 0 0 0
21 1 2.0616801562112239e+00 6.7920519577912355e+00 3.7244926524162922e+00 0 0 0
22 1 2.0389578704000000e+00 7.1612321666999996e+00 5.9954509715000031e+00 0 0 0
23 1 6.8281628704000017e+00 1.0850851915300000e+01 1.3686356240000006e+00 0 0 0
24 1 6.8281628704000017e+00 1.0267182525500001e+01 4.4531791890000001e+00 0 0 0
25 1 6.8277834461737097e+00 1.1215496479505941e+01 6.7403931841870328e+00 0 0 0
26 1 4.0048547472765206e+00 1.1186589855654447e+01 1.4103925835070643e+00 0 0 0
27 1 3.3271434268039282e+00 1.0237446264851773e+01 3.6084024023280965e+00 0 0 0
28 1 3.3550647488106611e+00 9.3807314732018856e+00 6.0965138117971138e+00 0 0 0
29 1 8.0566484409620447e+00 7.2884149325027794e+00 2.0357757677680448e+00 0 0 0
30 1 8.1604750540919397e+00 6.8288361656989620e+00 4.6189588727770285e+00 0 0 0
31 2 3.6501901085000008e+00 2.3322387788999999e+00 4.6268153475000000e+00 0 0 0
32 2 3.3810409171230735e+00 2.2995939901455480e+00 7.3075390241037859e+00 0 0 0
33 2 8.4393951084999994e+00 5.4381891489000003e+00 3.0845435650000002e+00 0 0 0
34 2 8.2968688360053822e+00 5.1141239480084071e+00 5.9218191471856771e+00 0 0 0
35 2 8.2129005081224253e+00 5.0557510285595320e-01 1.2780255060758094e-01 0 0 0
36 2 2.0389578704000000e+00 5.0743156401999991e+00 5.1456818272999998e+00 0 0 0
37 2 2.0389578704000000e+00 2.9753679700000001e-02 2.0611382800000002e+00 0 0 0
38 2 6.7731859455262002e+00 3.1656949402709258e+00 9.7450833994287311e-01 0 0 0
39 2 6.8281628704000017e+00 2.5520346598999999e+00 3.6034100625000001e+00 0 0 0
40 2 6.8296668885389273e+00 1.9610909280179070e+00 6.3875547276727627e+00 0 0 0
41 2 3.4217464598042607e-01 2.9148268088988538e+00 1.7715967549051281e+00 0 0 0
42 2 4.2772563219999998e-01 2.3322387788999999e+00 4.6268153475000000e+00 0 0 0
43 2 7.8504928069329127e-01 2.4377966330584075e+00 7.3087937194717529e+00 0 0 0
44 2 5.2169306322000004e+00 5.4381891489000003e+00 3.0845435650000002e+00 0 0 0
45 2 5.3007751047408211e+00 5.0651083712366800e+00 5.8885351536283403e+00 0 0 0
46 2 5.4579036956365359e+00 6.8170862138455857e-01 2.5873250496995942e-01 0 0 0
47 2 3.6501901085000008e+00 7.9604702979999997e+00 4.6268153475000000e+00 0 0 0
48 2 3.3403877012059455e+00 7.8521158195681053e+00 7.3943793538519964e+00 0 0 0
49 2 8.4393951084999994e+00 1.1066420667999999e+01 3.0845435650000002e+00 0 0 0
50 2 8.5031590080983985e+00 1.0514670099172283e+01 5.7927749164579190e+00 0 0 0
51 2 8.2763393119061810e+00 6.2364483906924280e+00 2.7174506645738167e-01 0 0 0
52 2 2.0389578704000000e+00 1.0702547159300000e+01 5.1456818272999998e+00 0 0 0
53 2 2.0389578704000000e+00 5.6579851987999987e+00 2.0611382800000002e+00 0 0 0
54 2 6.8964659375102766e+00 8.7654778969068730e+00 1.0489450634677620e+00 0 0 0
55 2 6.8281628704000017e+00 8.1802661790000002e+00 3.6034100625000001e+00 0 0 0
56 2 4.2772563219999998e-01 7.9604702979999997e+00 4.6268153475000000e+00 0 0 0
57 2 7.2760638797392041e-01 7.8494705427411926e+00 7.3862237095876582e+00 0 0 0
58 2 5.2169306322000004e+00 1.1066420667999999e+01 3.0845435650000002e+00 0 0 0
59 2 5.1522965952296031e+00 1.0513884694772413e+01 5.7918557321890853e+00 0 0 0
60 2 5.4564538929273638e+00 6.3058429432071286e+00 2.5131134155718754e-01 0 0 0

Velocities

1 0.0000000000000000e+00 0.0000000000000000e+00 0.0000000000000000e+00
2 0.0000000000000000e+00 0.0000000000000000e+00 0.0000000000000000e+00
3 0.0000000000000000e+00 0.0000000000000000e+00 0.0000000000000000e+00
4 0.0000000000000000e+00 0.0000000000000000e+00 0.0000000000000000e+00
5 0.0000000000000000e+00 0.0000000000000000e+00 0.0000000000000000e+00
6 0.0000000000000000e+00 0.0000000000000000e+00 0.0000000000000000e+00
7 0.0000000000000000e+00 0.0000000000000000e+00 0.0000000000000000e+00
8 0.0000000000000000e+00 0.0000000000000000e+00 0.0000000000000000e+00
9 0.0000000000000000e+00 0.0000000000000000e+00 0.0000000000000000e+00
10 0.0000000000000000e+00 0.0000000000000000e+00 0.0000000000000000e+00
11 0.0000000000000000e+00 0.0000000000000000e+00 0.0000000000000000e+00
12 0.0000000000000000e+00 0.0000000000000000e+00 0.0000000000000000e+00
13 0.0000000000000000e+00 0.0000000000000000e+00 0.0000000000000000e+00
14 0.0000000000000000e+00 0.0000000000000000e+00 0.0000000000000000e+00
15 0.0000000000000000e+00 0.0000000000000000e+00 0.0000000000000000e+00
16 0.0000000000000000e+00 0.0000000000000000e+00 0.0000000000000000e+00
17 0.0000000000000000e+00 0.0000000000000000e+00 0.0000000000000000e+00
18 0.0000000000000000e+00 0.0000000000000000e+00 0.0000000000000000e+00
19 0.0000000000000000e+00 0.0000000000000000e+00 0.0000000000000000e+00
20 0.0000000000000000e+00 0.0000000000000000e+00 0.0000000000000000e+00
21 0.0000000000000000e+00 0.0000000000000000e+00 0.0000000000000000e+00
22 0.0000000000000000e+00 0.0000000000000000e+00 0.0000000000000000e+00
23 0.0000000000000000e+00 0.0000000000000000e+00 0.0000000000000000e+00
24 0.0000000000000000e+00 0.0000000000000000e+00 0.0000000000000000e+00
25 0.0000000000000000e+00 0.0000000000000000e+00 0.0000000000000000e+00
26 0.0000000000000000e+00 0.0000000000000000e+00 0.0000000000000000e+00
27 0.0000000000000000e+00 0.0000000000000000e+00 0.0000000000000000e+00
28 0.0000000000000000e+00 0.0000000000000000e+00 0.0000000000000000e+00
29 0.0000000000000000e+00 0.0000000000000000e+00 0.0000000000000000e+00
30 0.0000000000000000e+00 0.0000000000000000e+00 0.0000000000000000e+00
31 0.0000000000000000e+00 0.0000000000000000e+00 0.0000000000000000e+00
32 0.0000000000000000e+00 0.0000000000000000e+00 0.0000000000000000e+00
33 0.0000000000000000e+00 0.0000000000000000e+00 0.0000000000000000e+00
34 0.0000000000000000e+00 0.0000000000000000e+00 0.0000000000000000e+00
35 0.0000000000000000e+00 0.0000000000000000e+00 0.0000000000000000e+00
36 0.0000000000000000e+00 0.0000000000000000e+00 0.0000000000000000e+00
37 0.0000000000000000e+00 0.0000000000000000e+00 0.0000000000000000e+00
38 0.0000000000000000e+00 0.0000000000000000e+00 0.0000000000000000e+00
39 0.0000000000000000e+00 0.0000000000000000e+00 0.0000000000000000e+00
40 0.0000000000000000e+00 0.0000000000000000e+00 0.0000000000000000e+00
41 0.0000000000000000e+00 0.0000000000000000e+00 0.0000000000000000e+00
42 0.0000000000000000e+00 0.0000000000000000e+00 0.0000000000000000e+00
43 0.0000000000000000e+00 0.0000000000000000e+00 0.0000000000000000e+00
44 0.0000000000000000e+00 0.0000000000000000e+00 0.0000000000000000e+00
45 0.0000000000000000e+00 0.0000000000000000e+00 0.0000000000000000e+00
46 0.0000000000000000e+00 0.0000000000000000e+00 0.0000000000000000e+00
47 0.0000000000000000e+00 0.0000000000000000e+00 0.0000000000000000e+00
48 0.0000000000000000e+00 0.0000000000000000e+00 0.0000000000000000e+00
49 0.0000000000000000e+00 0.0000000000000000e+00 0.0000000000000000e+00
50 0.0000000000000000e+00 0.0000000000000000e+00 0.0000000000000000e+00
51 0.0000000000000000e+00 0.0000000000000000e+00 0.0000000000000000e+00
52 0.0000000000000000e+00 0.0000000000000000e+00 0.0000000000000000e+00
53 0.0000000000000000e+00 0.0000000000000000e+00 0.0000000000000000e+00
54 0.0000000000000000e+00 0.0000000000000000e+00 0.0000000000000000e+00
55 0.0000000000000000e+00 0.0000000000000000e+00 0.0000000000000000e+00
56 0.0000000000000000e+00 0.0000000000000000e+00 0.0000000000000000e+00
57 0.0000000000000000e+00 0.0000000000000000e+00 0.0000000000000000e+00
58 0.0000000000000000e+00 0.0000000000000000e+00 0.0000000000000000e+00
59 0.0000000000000000e+00 0.0000000000000000e+00 0.0000000000000000e+00
60 0.0000000000000000e+00 0.0000000000000000e+00 0.0000000000000000e+00
