  52  52   0   0
  0.3564765E+02  0.1125646E-08  0.9578410E-09  0.1719249E-08  0.5000000E-15
  1.000000000000000E-004
  CAR 
 "Millerite NiS"                         
      9.28585289    -68.53248944  301     -0.22501475      1.00000000
    -68.532  0.0000E+00  0.0000E+00
    -68.273  0.0000E+00  0.0000E+00
    -68.014  0.0000E+00  0.0000E+00
    -67.754  0.0000E+00  0.0000E+00
    -67.495  0.0000E+00  0.0000E+00
    -67.236  0.0000E+00  0.0000E+00
    -66.976  0.0000E+00  0.0000E+00
    -66.717  0.0000E+00  0.0000E+00
    -66.457  0.0000E+00  0.0000E+00
    -66.198  0.0000E+00  0.0000E+00
    -65.939  0.1018E-09  0.2641E-10
    -65.679  0.5594E-05  0.1451E-05
    -65.420  0.1350E-01  0.3503E-02
    -65.160  0.1989E+01  0.5195E+00
    -64.901  0.3307E+02  0.9098E+01
    -64.642  0.1274E+03  0.4214E+02
    -64.382  0.1755E+03  0.8766E+02
    -64.123  0.1426E+03  0.1247E+03
    -63.863  0.6910E+02  0.1426E+03
    -63.604  0.3254E+02  0.1510E+03
    -63.345  0.1297E+02  0.1544E+03
    -63.085  0.5369E+01  0.1558E+03
    -62.826  0.8379E+00  0.1560E+03
    -62.566  0.8423E-02  0.1560E+03
    -62.307  0.3733E-05  0.1560E+03
    -62.048  0.6444E-10  0.1560E+03
    -61.788  0.0000E+00  0.1560E+03
    -61.529  0.0000E+00  0.1560E+03
    -61.269  0.0000E+00  0.1560E+03
    -61.010  0.0000E+00  0.1560E+03
    -60.751  0.0000E+00  0.1560E+03
    -60.491  0.0000E+00  0.1560E+03
    -60.232  0.0000E+00  0.1560E+03
    -59.972  0.0000E+00  0.1560E+03
    -59.713  0.0000E+00  0.1560E+03
    -59.454  0.0000E+00  0.1560E+03
    -59.194  0.0000E+00  0.1560E+03
    -58.935  0.0000E+00  0.1560E+03
    -58.675  0.0000E+00  0.1560E+03
    -58.416  0.0000E+00  0.1560E+03
    -58.157  0.0000E+00  0.1560E+03
    -57.897  0.0000E+00  0.1560E+03
    -57.638  0.0000E+00  0.1560E+03
    -57.379  0.0000E+00  0.1560E+03
    -57.119  0.0000E+00  0.1560E+03
    -56.860  0.0000E+00  0.1560E+03
    -56.600  0.0000E+00  0.1560E+03
    -56.341  0.0000E+00  0.1560E+03
    -56.082  0.0000E+00  0.1560E+03
    -55.822  0.0000E+00  0.1560E+03
    -55.563  0.0000E+00  0.1560E+03
    -55.303  0.0000E+00  0.1560E+03
    -55.044  0.0000E+00  0.1560E+03
    -54.785  0.0000E+00  0.1560E+03
    -54.525  0.0000E+00  0.1560E+03
    -54.266  0.0000E+00  0.1560E+03
    -54.006  0.0000E+00  0.1560E+03
    -53.747  0.0000E+00  0.1560E+03
    -53.488  0.0000E+00  0.1560E+03
    -53.228  0.0000E+00  0.1560E+03
    -52.969  0.0000E+00  0.1560E+03
    -52.709  0.0000E+00  0.1560E+03
    -52.450  0.0000E+00  0.1560E+03
    -52.191  0.0000E+00  0.1560E+03
    -51.931  0.0000E+00  0.1560E+03
    -51.672  0.0000E+00  0.1560E+03
    -51.412  0.0000E+00  0.1560E+03
    -51.153  0.0000E+00  0.1560E+03
    -50.894  0.0000E+00  0.1560E+03
    -50.634  0.0000E+00  0.1560E+03
    -50.375  0.0000E+00  0.1560E+03
    -50.115  0.0000E+00  0.1560E+03
    -49.856  0.0000E+00  0.1560E+03
    -49.597  0.0000E+00  0.1560E+03
    -49.337  0.0000E+00  0.1560E+03
    -49.078  0.0000E+00  0.1560E+03
    -48.819  0.0000E+00  0.1560E+03
    -48.559  0.0000E+00  0.1560E+03
    -48.300  0.0000E+00  0.1560E+03
    -48.040  0.0000E+00  0.1560E+03
    -47.781  0.0000E+00  0.1560E+03
    -47.522  0.0000E+00  0.1560E+03
    -47.262  0.0000E+00  0.1560E+03
    -47.003  0.0000E+00  0.1560E+03
    -46.743  0.0000E+00  0.1560E+03
    -46.484  0.0000E+00  0.1560E+03
    -46.225  0.0000E+00  0.1560E+03
    -45.965  0.0000E+00  0.1560E+03
    -45.706  0.0000E+00  0.1560E+03
    -45.446  0.0000E+00  0.1560E+03
    -45.187  0.0000E+00  0.1560E+03
    -44.928  0.0000E+00  0.1560E+03
    -44.668  0.0000E+00  0.1560E+03
    -44.409  0.0000E+00  0.1560E+03
    -44.149  0.0000E+00  0.1560E+03
    -43.890  0.0000E+00  0.1560E+03
    -43.631  0.0000E+00  0.1560E+03
    -43.371  0.0000E+00  0.1560E+03
    -43.112  0.0000E+00  0.1560E+03
    -42.852  0.0000E+00  0.1560E+03
    -42.593  0.0000E+00  0.1560E+03
    -42.334  0.0000E+00  0.1560E+03
    -42.074  0.0000E+00  0.1560E+03
    -41.815  0.0000E+00  0.1560E+03
    -41.555  0.0000E+00  0.1560E+03
    -41.296  0.0000E+00  0.1560E+03
    -41.037  0.0000E+00  0.1560E+03
    -40.777  0.0000E+00  0.1560E+03
    -40.518  0.0000E+00  0.1560E+03
    -40.258  0.0000E+00  0.1560E+03
    -39.999  0.0000E+00  0.1560E+03
    -39.740  0.0000E+00  0.1560E+03
    -39.480  0.0000E+00  0.1560E+03
    -39.221  0.0000E+00  0.1560E+03
    -38.962  0.0000E+00  0.1560E+03
    -38.702  0.0000E+00  0.1560E+03
    -38.443  0.0000E+00  0.1560E+03
    -38.183  0.0000E+00  0.1560E+03
    -37.924  0.0000E+00  0.1560E+03
    -37.665  0.0000E+00  0.1560E+03
    -37.405  0.0000E+00  0.1560E+03
    -37.146  0.0000E+00  0.1560E+03
    -36.886  0.0000E+00  0.1560E+03
    -36.627  0.0000E+00  0.1560E+03
    -36.368  0.0000E+00  0.1560E+03
    -36.108  0.0000E+00  0.1560E+03
    -35.849  0.0000E+00  0.1560E+03
    -35.589  0.0000E+00  0.1560E+03
    -35.330  0.0000E+00  0.1560E+03
    -35.071  0.0000E+00  0.1560E+03
    -34.811  0.0000E+00  0.1560E+03
    -34.552  0.0000E+00  0.1560E+03
    -34.292  0.0000E+00  0.1560E+03
    -34.033  0.0000E+00  0.1560E+03
    -33.774  0.0000E+00  0.1560E+03
    -33.514  0.0000E+00  0.1560E+03
    -33.255  0.0000E+00  0.1560E+03
    -32.995  0.0000E+00  0.1560E+03
    -32.736  0.0000E+00  0.1560E+03
    -32.477  0.0000E+00  0.1560E+03
    -32.217  0.0000E+00  0.1560E+03
    -31.958  0.0000E+00  0.1560E+03
    -31.698  0.0000E+00  0.1560E+03
    -31.439  0.0000E+00  0.1560E+03
    -31.180  0.0000E+00  0.1560E+03
    -30.920  0.0000E+00  0.1560E+03
    -30.661  0.0000E+00  0.1560E+03
    -30.402  0.0000E+00  0.1560E+03
    -30.142  0.0000E+00  0.1560E+03
    -29.883  0.0000E+00  0.1560E+03
    -29.623  0.0000E+00  0.1560E+03
    -29.364  0.0000E+00  0.1560E+03
    -29.105  0.0000E+00  0.1560E+03
    -28.845  0.0000E+00  0.1560E+03
    -28.586  0.0000E+00  0.1560E+03
    -28.326  0.0000E+00  0.1560E+03
    -28.067  0.0000E+00  0.1560E+03
    -27.808  0.0000E+00  0.1560E+03
    -27.548  0.0000E+00  0.1560E+03
    -27.289  0.0000E+00  0.1560E+03
    -27.029  0.0000E+00  0.1560E+03
    -26.770  0.0000E+00  0.1560E+03
    -26.511  0.0000E+00  0.1560E+03
    -26.251  0.0000E+00  0.1560E+03
    -25.992  0.0000E+00  0.1560E+03
    -25.732  0.0000E+00  0.1560E+03
    -25.473  0.0000E+00  0.1560E+03
    -25.214  0.0000E+00  0.1560E+03
    -24.954  0.0000E+00  0.1560E+03
    -24.695  0.0000E+00  0.1560E+03
    -24.435  0.0000E+00  0.1560E+03
    -24.176  0.0000E+00  0.1560E+03
    -23.917  0.0000E+00  0.1560E+03
    -23.657  0.0000E+00  0.1560E+03
    -23.398  0.0000E+00  0.1560E+03
    -23.138  0.0000E+00  0.1560E+03
    -22.879  0.0000E+00  0.1560E+03
    -22.620  0.0000E+00  0.1560E+03
    -22.360  0.0000E+00  0.1560E+03
    -22.101  0.0000E+00  0.1560E+03
    -21.841  0.0000E+00  0.1560E+03
    -21.582  0.0000E+00  0.1560E+03
    -21.323  0.0000E+00  0.1560E+03
    -21.063  0.0000E+00  0.1560E+03
    -20.804  0.0000E+00  0.1560E+03
    -20.545  0.0000E+00  0.1560E+03
    -20.285  0.0000E+00  0.1560E+03
    -20.026  0.0000E+00  0.1560E+03
    -19.766  0.0000E+00  0.1560E+03
    -19.507  0.0000E+00  0.1560E+03
    -19.248  0.0000E+00  0.1560E+03
    -18.988  0.0000E+00  0.1560E+03
    -18.729  0.0000E+00  0.1560E+03
    -18.469  0.0000E+00  0.1560E+03
    -18.210  0.0000E+00  0.1560E+03
    -17.951  0.0000E+00  0.1560E+03
    -17.691  0.1860E-09  0.1560E+03
    -17.432  0.8156E-05  0.1560E+03
    -17.172  0.1402E-01  0.1560E+03
    -16.913  0.1079E+01  0.1563E+03
    -16.654  0.5336E+01  0.1577E+03
    -16.394  0.5941E+01  0.1592E+03
    -16.135  0.5798E+01  0.1607E+03
    -15.875  0.9916E+01  0.1633E+03
    -15.616  0.7090E+01  0.1651E+03
    -15.357  0.1231E+02  0.1683E+03
    -15.097  0.9144E+01  0.1707E+03
    -14.838  0.1639E+02  0.1749E+03
    -14.578  0.2603E+02  0.1817E+03
    -14.319  0.2308E+02  0.1877E+03
    -14.060  0.1316E+02  0.1911E+03
    -13.800  0.1431E+02  0.1948E+03
    -13.541  0.1993E+02  0.2000E+03
    -13.281  0.1323E+02  0.2034E+03
    -13.022  0.7439E+01  0.2053E+03
    -12.763  0.6100E+01  0.2069E+03
    -12.503  0.3861E+01  0.2079E+03
    -12.244  0.2955E+00  0.2080E+03
    -11.984  0.1212E-02  0.2080E+03
    -11.725  0.2086E-06  0.2080E+03
    -11.466  0.1371E-11  0.2080E+03
    -11.206  0.0000E+00  0.2080E+03
    -10.947  0.0000E+00  0.2080E+03
    -10.688  0.0000E+00  0.2080E+03
    -10.428  0.0000E+00  0.2080E+03
    -10.169  0.0000E+00  0.2080E+03
     -9.909  0.0000E+00  0.2080E+03
     -9.650  0.2140E-14  0.2080E+03
     -9.391  0.1332E-08  0.2080E+03
     -9.131  0.3426E-04  0.2080E+03
     -8.872  0.3511E-01  0.2080E+03
     -8.612  0.1716E+01  0.2085E+03
     -8.353  0.7576E+01  0.2104E+03
     -8.094  0.1452E+02  0.2142E+03
     -7.834  0.2019E+02  0.2194E+03
     -7.575  0.2370E+02  0.2256E+03
     -7.315  0.2296E+02  0.2315E+03
     -7.056  0.2217E+02  0.2373E+03
     -6.797  0.2709E+02  0.2443E+03
     -6.537  0.2790E+02  0.2515E+03
     -6.278  0.3003E+02  0.2593E+03
     -6.018  0.3389E+02  0.2681E+03
     -5.759  0.3757E+02  0.2779E+03
     -5.500  0.4281E+02  0.2890E+03
     -5.240  0.4897E+02  0.3017E+03
     -4.981  0.4413E+02  0.3131E+03
     -4.721  0.4902E+02  0.3258E+03
     -4.462  0.3987E+02  0.3362E+03
     -4.203  0.3216E+02  0.3445E+03
     -3.943  0.2662E+02  0.3514E+03
     -3.684  0.3525E+02  0.3606E+03
     -3.424  0.4189E+02  0.3714E+03
     -3.165  0.4830E+02  0.3840E+03
     -2.906  0.6000E+02  0.3995E+03
     -2.646  0.6840E+02  0.4173E+03
     -2.387  0.7841E+02  0.4376E+03
     -2.128  0.8950E+02  0.4608E+03
     -1.868  0.9229E+02  0.4848E+03
     -1.609  0.7518E+02  0.5043E+03
     -1.349  0.6438E+02  0.5210E+03
     -1.090  0.5462E+02  0.5351E+03
     -0.831  0.4798E+02  0.5476E+03
     -0.571  0.4244E+02  0.5586E+03
     -0.312  0.3958E+02  0.5689E+03
     -0.052  0.3750E+02  0.5786E+03
      0.207  0.3924E+02  0.5888E+03
      0.466  0.3391E+02  0.5976E+03
      0.726  0.2566E+02  0.6042E+03
      0.985  0.2045E+02  0.6095E+03
      1.245  0.1852E+02  0.6143E+03
      1.504  0.1710E+02  0.6188E+03
      1.763  0.1376E+02  0.6223E+03
      2.023  0.8592E+01  0.6246E+03
      2.282  0.4981E+01  0.6259E+03
      2.542  0.5752E+00  0.6260E+03
      2.801  0.4888E+00  0.6261E+03
      3.060  0.5911E+01  0.6277E+03
      3.320  0.9043E+01  0.6300E+03
      3.579  0.9579E+01  0.6325E+03
      3.839  0.1192E+02  0.6356E+03
      4.098  0.1424E+02  0.6393E+03
      4.357  0.2182E+02  0.6449E+03
      4.617  0.2891E+02  0.6524E+03
      4.876  0.2803E+02  0.6597E+03
      5.136  0.2979E+02  0.6674E+03
      5.395  0.3183E+02  0.6757E+03
      5.654  0.3071E+02  0.6837E+03
      5.914  0.1530E+02  0.6876E+03
      6.173  0.1440E+01  0.6880E+03
      6.433  0.1224E-01  0.6880E+03
      6.692  0.5464E-05  0.6880E+03
      6.951  0.1013E-09  0.6880E+03
      7.211  0.0000E+00  0.6880E+03
      7.470  0.0000E+00  0.6880E+03
      7.729  0.0000E+00  0.6880E+03
      7.989  0.0000E+00  0.6880E+03
      8.248  0.0000E+00  0.6880E+03
      8.508  0.0000E+00  0.6880E+03
      8.767  0.0000E+00  0.6880E+03
      9.026  0.0000E+00  0.6880E+03
      9.286  0.0000E+00  0.6880E+03
