LAMMPS (5 Jun 2019)
OMP_NUM_THREADS environment is not set. Defaulting to 1 thread. (../comm.cpp:88)
  using 1 OpenMP thread(s) per MPI task
Reading data file ...
  triclinic box = (0 0 0) to (11.2565 9.57841 17.1925) with tilt (0 0 0)
  1 by 1 by 1 MPI processor grid
  reading atoms ...
  52 atoms
  read_data CPU = 0.000730485 secs
19 atoms in group bulk
WARNING: Using 'neigh_modify every 1 delay 0 check yes' setting during minimization (../min.cpp:168)
Neighbor list info ...
  update every 1 steps, delay 0 steps, check yes
  max neighbors/atom: 2000, page size: 100000
  master list distance cutoff = 8.5
  ghost atom cutoff = 8.5
  binsize = 4.25, bins = 3 3 5
  1 neighbor lists, perpetual/occasional/extra = 1 0 0
  (1) pair eam/alloy, perpetual
      attributes: half, newton on
      pair build: half/bin/newton/tri
      stencil: half/bin/3d/newton/tri
      bin: standard
Setting up cg style minimization ...
  Unit style    : metal
  Current step  : 0
Per MPI rank memory allocation (min/avg/max) = 4.099 | 4.099 | 4.099 Mbytes
Step Temp E_pair E_mol TotEng Press 
       0            0   -212.47967            0   -212.47967   -105183.66 
      75            0   -236.43771            0   -236.43771   -8365.9326 
Loop time of 0.0307034 on 1 procs for 75 steps with 52 atoms

98.9% CPU use with 1 MPI tasks x 1 OpenMP threads

Minimization stats:
  Stopping criterion = energy tolerance
  Energy initial, next-to-last, final = 
        -212.479672837     -236.435908303     -236.437714945
  Force two-norm initial, final = 12.6971 0.139604
  Force max component initial, final = 3.70491 0.0642853
  Final line search alpha, max atom move = 0.979375 0.0629595
  Iterations, force evaluations = 75 121

MPI task timing breakdown:
Section |  min time  |  avg time  |  max time  |%varavg| %total
---------------------------------------------------------------
Pair    | 0.02799    | 0.02799    | 0.02799    |   0.0 | 91.16
Neigh   | 0.0011743  | 0.0011743  | 0.0011743  |   0.0 |  3.82
Comm    | 0.00081614 | 0.00081614 | 0.00081614 |   0.0 |  2.66
Output  | 0          | 0          | 0          |   0.0 |  0.00
Modify  | 4.7989e-05 | 4.7989e-05 | 4.7989e-05 |   0.0 |  0.16
Other   |            | 0.0006752  |            |       |  2.20

Nlocal:    52 ave 52 max 52 min
Histogram: 1 0 0 0 0 0 0 0 0 0
Nghost:    694 ave 694 max 694 min
Histogram: 1 0 0 0 0 0 0 0 0 0
Neighs:    2578 ave 2578 max 2578 min
Histogram: 1 0 0 0 0 0 0 0 0 0

Total # of neighbors = 2578
Ave neighs/atom = 49.5769
Neighbor list builds = 4
Dangerous builds = 0
System init for write_data ...
Total wall time: 0:00:00
