<?xml version="1.0" encoding="ISO-8859-1"?>
<modeling>
 <generator>
  <i name="program" type="string">vasp </i>
  <i name="version" type="string">5.4.4.18Apr17-6-g9f103f2a35  </i>
  <i name="subversion" type="string">(build Aug 13 2019 17:33:20) gamma-only         parallel </i>
  <i name="platform" type="string">LinuxIFC </i>
  <i name="date" type="string">2020 05 10 </i>
  <i name="time" type="string">20:58:40 </i>
 </generator>
 <incar>
  <i type="string" name="SYSTEM">"Millerite NiS"</i>
  <i type="string" name="PREC">normal</i>
  <i type="int" name="NSIM">     4</i>
  <i type="int" name="NELM">   100</i>
  <i name="ENCUT">    450.00000000</i>
  <i type="string" name="LREAL">A</i>
  <i type="int" name="ISMEAR">     0</i>
  <i type="int" name="NWRITE">     2</i>
  <i type="logical" name="LWAVE"> F  </i>
  <i type="logical" name="LCHARG"> F  </i>
  <v type="int" name="KPOINT_BSE">    -1     0     0     0</v>
  <i type="int" name="NELM">   100</i>
 </incar>
 <structure name="primitive_cell" >
  <crystal>
   <varray name="basis" >
    <v>      11.25646304       0.00000000       0.00000000 </v>
    <v>       5.04456212      10.06282034       0.00000000 </v>
    <v>       0.00000000       0.00000000      21.74423184 </v>
   </varray>
   <i name="volume">   2463.00752351 </i>
   <varray name="rec_basis" >
    <v>       0.08883785      -0.04453504       0.00000000 </v>
    <v>       0.00000000       0.09937572       0.00000000 </v>
    <v>       0.00000000       0.00000000       0.04598921 </v>
   </varray>
  </crystal>
  <varray name="positions" >
   <v>       0.26092070       0.47878036       0.25332799 </v>
   <v>       0.07287764      -0.33317657       0.27005396 </v>
   <v>       0.17409868       0.39738738       0.18045411 </v>
   <v>       0.34231368      -0.43439761       0.18045411 </v>
   <v>       0.10450007      -0.40137271       0.17944853 </v>
   <v>       0.43627354       0.47164251       0.31548109 </v>
   <v>       0.26805855       0.30342751       0.31548109 </v>
   <v>       0.36819893       0.23939913       0.21765305 </v>
   <v>      -0.49969806       0.37150212       0.21765305 </v>
   <v>       0.30579124       0.43338081       0.12598998 </v>
   <v>       0.35488056       0.38482049       0.38835497 </v>
   <v>       0.16683750      -0.42713643       0.40508094 </v>
   <v>       0.47891775       0.26078330       0.13502698 </v>
   <v>      -0.42712237       0.16682343       0.27005396 </v>
   <v>       0.00030194       0.37150212       0.21765305 </v>
   <v>       0.09426181      -0.22245774       0.35268003 </v>
   <v>      -0.03784120      -0.35456074       0.35268003 </v>
   <v>       0.36819893      -0.26060087       0.21765305 </v>
   <v>       0.19120009      -0.26684775       0.12405620 </v>
   <v>       0.26805855      -0.19657249       0.31548109 </v>
   <v>      -0.06372646       0.47164251       0.31548109 </v>
   <v>      -0.49534599       0.46548990       0.11546197 </v>
   <v>       0.46215880       0.14543926       0.35268003 </v>
   <v>      -0.40573819       0.27754226       0.35268003 </v>
   <v>       0.09426181       0.27754226       0.35268003 </v>
   <v>       0.46215880      -0.35456074       0.35268003 </v>
   <v>       0.00030194      -0.12849788       0.21765305 </v>
   <v>      -0.13180107      -0.26060087       0.21765305 </v>
   <v>      -0.02108225      -0.23921670       0.13502698 </v>
   <v>       0.31871145      -0.42733607       0.06668125 </v>
   <v>       0.34231368       0.06560239       0.18045411 </v>
   <v>      -0.32590132       0.39738738       0.18045411 </v>
   <v>      -0.15768632      -0.43439761       0.18045411 </v>
   <v>       0.17409868      -0.10261262       0.18045411 </v>
   <v>       0.07287763       0.16682343       0.27005396 </v>
   <v>      -0.42712236      -0.33317657       0.27005396 </v>
   <v>       0.36201842       0.20946765       0.45050807 </v>
   <v>      -0.46976657       0.37768264       0.45050807 </v>
   <v>       0.18520021      -0.30924010       0.47245254 </v>
   <v>       0.04894340      -0.44549824       0.47245558 </v>
   <v>       0.13168850       0.11026861       0.17670038 </v>
   <v>      -0.06372646      -0.02835749       0.31548109 </v>
   <v>      -0.23194145      -0.19657249       0.31548109 </v>
   <v>      -0.09416668       0.45813904       0.09969877 </v>
   <v>      -0.23194145       0.30342751       0.31548109 </v>
   <v>       0.43627354      -0.02835749       0.31548109 </v>
   <v>       0.03023343       0.37768264       0.45050807 </v>
   <v>       0.36201842      -0.29053236       0.45050807 </v>
   <v>       0.47891775      -0.23921670       0.13502698 </v>
   <v>      -0.02108225       0.26078330       0.13502698 </v>
   <v>       0.37461112       0.36508800       0.49728236 </v>
   <v>      -0.33303917       0.07274024       0.11830101 </v>
   <v>      -0.14511944      -0.11517951       0.38835497 </v>
   <v>       0.26092070      -0.02121964       0.25332799 </v>
   <v>      -0.23907930       0.47878036       0.25332799 </v>
   <v>       0.10175504      -0.12023831       0.06082487 </v>
   <v>      -0.33316250       0.07286357       0.40508094 </v>
   <v>       0.03023342      -0.12231736       0.45050807 </v>
   <v>      -0.13798158      -0.29053236       0.45050807 </v>
   <v>       0.35488056      -0.11517951       0.38835497 </v>
   <v>      -0.14511944       0.38482049       0.38835497 </v>
   <v>      -0.23907930      -0.02121964       0.25332799 </v>
   <v>      -0.33303917      -0.42725976       0.11830101 </v>
   <v>       0.21073623      -0.47103114      -0.47344791 </v>
   <v>      -0.45107399      -0.44549409       0.47239443 </v>
   <v>       0.18519932       0.19076211       0.47244314 </v>
   <v>      -0.38850026       0.49169053       0.04580431 </v>
   <v>       0.16683750       0.07286357       0.40508094 </v>
   <v>      -0.33316250      -0.42713643       0.40508094 </v>
   <v>      -0.13180107       0.23939913       0.21765305 </v>
   <v>      -0.49969806      -0.12849788       0.21765305 </v>
   <v>      -0.15768632       0.06560239       0.18045411 </v>
   <v>      -0.32590132      -0.10261262       0.18045411 </v>
   <v>      -0.47887284      -0.07341637       0.11676459 </v>
   <v>      -0.22576093      -0.16664101       0.08262607 </v>
   <v>      -0.09365794      -0.03453801       0.08262607 </v>
   <v>      -0.22806055      -0.35026117       0.06602563 </v>
   <v>      -0.22576094       0.33335899       0.08262607 </v>
   <v>      -0.03784120       0.14543926       0.35268003 </v>
   <v>      -0.40573819      -0.22245774       0.35268003 </v>
   <v>      -0.31479949       0.19077903       0.47239017 </v>
   <v>      -0.45107533       0.05450373       0.47239203 </v>
   <v>      -0.23870035       0.15661025       0.06346218 </v>
   <v>      -0.39702323      -0.01014890       0.05011559 </v>
   <v>      -0.13036816      -0.12999180       0.01278713 </v>
   <v>      -0.12544279      -0.13485457       0.49727451 </v>
   <v>      -0.11688237       0.37661225       0.02104960 </v>
   <v>       0.37459303      -0.13489442       0.49727752 </v>
   <v>      -0.12544183       0.36514461       0.49727342 </v>
   <v>      -0.13798158       0.20946765       0.45050807 </v>
   <v>      -0.46976658      -0.12231736       0.45050807 </v>
   <v>      -0.31480159      -0.30922065       0.47239204 </v>
   <v>       0.04893297       0.05449730       0.47243829 </v>
   <v>      -0.28932405       0.02902909      -0.47347199 </v>
   <v>      -0.28932123      -0.47097241      -0.47347115 </v>
   <v>       0.21071200       0.02898042      -0.47345357 </v>
  </varray>
 </structure>
 <varray name="primitive_index" >
  <v type="int" >        1 </v>
  <v type="int" >       72 </v>
  <v type="int" >       56 </v>
  <v type="int" >       79 </v>
  <v type="int" >       28 </v>
  <v type="int" >       54 </v>
  <v type="int" >       57 </v>
  <v type="int" >        7 </v>
  <v type="int" >       21 </v>
  <v type="int" >        6 </v>
  <v type="int" >        2 </v>
  <v type="int" >       73 </v>
  <v type="int" >       51 </v>
  <v type="int" >       59 </v>
  <v type="int" >        9 </v>
  <v type="int" >       34 </v>
  <v type="int" >       44 </v>
  <v type="int" >       31 </v>
  <v type="int" >       30 </v>
  <v type="int" >       82 </v>
  <v type="int" >       65 </v>
  <v type="int" >       12 </v>
  <v type="int" >        8 </v>
  <v type="int" >       22 </v>
  <v type="int" >       10 </v>
  <v type="int" >       32 </v>
  <v type="int" >       33 </v>
  <v type="int" >       43 </v>
  <v type="int" >       87 </v>
  <v type="int" >       78 </v>
  <v type="int" >       55 </v>
  <v type="int" >       69 </v>
  <v type="int" >       92 </v>
  <v type="int" >       81 </v>
  <v type="int" >       49 </v>
  <v type="int" >       84 </v>
  <v type="int" >       58 </v>
  <v type="int" >       64 </v>
  <v type="int" >       35 </v>
  <v type="int" >       29 </v>
  <v type="int" >        4 </v>
  <v type="int" >       90 </v>
  <v type="int" >       95 </v>
  <v type="int" >       24 </v>
  <v type="int" >       70 </v>
  <v type="int" >       77 </v>
  <v type="int" >       53 </v>
  <v type="int" >       83 </v>
  <v type="int" >       74 </v>
  <v type="int" >       62 </v>
  <v type="int" >        3 </v>
  <v type="int" >       16 </v>
  <v type="int" >       38 </v>
  <v type="int" >       25 </v>
  <v type="int" >       13 </v>
  <v type="int" >       80 </v>
  <v type="int" >       60 </v>
  <v type="int" >       76 </v>
  <v type="int" >       96 </v>
  <v type="int" >       26 </v>
  <v type="int" >       14 </v>
  <v type="int" >       37 </v>
  <v type="int" >       40 </v>
  <v type="int" >       52 </v>
  <v type="int" >       41 </v>
  <v type="int" >       11 </v>
  <v type="int" >       68 </v>
  <v type="int" >       50 </v>
  <v type="int" >       85 </v>
  <v type="int" >       19 </v>
  <v type="int" >       45 </v>
  <v type="int" >       67 </v>
  <v type="int" >       94 </v>
  <v type="int" >       36 </v>
  <v type="int" >       42 </v>
  <v type="int" >       48 </v>
  <v type="int" >       91 </v>
  <v type="int" >       18 </v>
  <v type="int" >       20 </v>
  <v type="int" >       46 </v>
  <v type="int" >       23 </v>
  <v type="int" >       17 </v>
  <v type="int" >       66 </v>
  <v type="int" >       93 </v>
  <v type="int" >       86 </v>
  <v type="int" >       39 </v>
  <v type="int" >       61 </v>
  <v type="int" >       27 </v>
  <v type="int" >       15 </v>
  <v type="int" >       71 </v>
  <v type="int" >       89 </v>
  <v type="int" >       47 </v>
  <v type="int" >        5 </v>
  <v type="int" >       88 </v>
  <v type="int" >       63 </v>
  <v type="int" >       75 </v>
 </varray>
 <kpoints>
  <generation param="Gamma">
   <v type="int" name="divisions">       1        1        1 </v>
   <v name="usershift">      0.00000000       0.00000000       0.00000000 </v>
   <v name="genvec1">      1.00000000       0.00000000       0.00000000 </v>
   <v name="genvec2">      0.00000000       1.00000000       0.00000000 </v>
   <v name="genvec3">      0.00000000       0.00000000       1.00000000 </v>
   <v name="shift">      0.00000000       0.00000000       0.00000000 </v>
  </generation>
  <varray name="kpointlist" >
   <v>       0.00000000       0.00000000       0.00000000 </v>
  </varray>
  <varray name="weights" >
   <v>       1.00000000 </v>
  </varray>
 </kpoints>
 <parameters>
  <separator name="general" >
   <i type="string" name="SYSTEM">"Millerite NiS"</i>
   <i type="logical" name="LCOMPAT"> F  </i>
  </separator>
  <separator name="electronic" >
   <i type="string" name="PREC">normal</i>
   <i name="ENMAX">    450.00000000</i>
   <i name="ENAUG">    703.44300000</i>
   <i name="EDIFF">      0.00010000</i>
   <i type="int" name="IALGO">    38</i>
   <i type="int" name="IWAVPR">    10</i>
   <i type="int" name="NBANDS">   634</i>
   <i name="NELECT">   1056.00000000</i>
   <i type="int" name="TURBO">     0</i>
   <i type="int" name="IRESTART">     0</i>
   <i type="int" name="NREBOOT">     0</i>
   <i type="int" name="NMIN">     0</i>
   <i name="EREF">      0.00000000</i>
   <separator name="electronic smearing" >
    <i type="int" name="ISMEAR">     0</i>
    <i name="SIGMA">      0.20000000</i>
    <i name="KSPACING">      0.50000000</i>
    <i type="logical" name="KGAMMA"> T  </i>
   </separator>
   <separator name="electronic projectors" >
    <i type="logical" name="LREAL"> T  </i>
    <v name="ROPT">     -0.00050000     -0.00050000</v>
    <i type="int" name="LMAXPAW">  -100</i>
    <i type="int" name="LMAXMIX">     2</i>
    <i type="logical" name="NLSPLINE"> F  </i>
   </separator>
   <separator name="electronic startup" >
    <i type="int" name="ISTART">     0</i>
    <i type="int" name="ICHARG">     2</i>
    <i type="int" name="INIWAV">     1</i>
   </separator>
   <separator name="electronic spin" >
    <i type="int" name="ISPIN">     1</i>
    <i type="logical" name="LNONCOLLINEAR"> F  </i>
    <v name="MAGMOM">      1.00000000      1.00000000      1.00000000      1.00000000      1.00000000      1.00000000      1.00000000      1.00000000      1.00000000      1.00000000      1.00000000      1.00000000      1.00000000      1.00000000      1.00000000      1.00000000      1.00000000      1.00000000      1.00000000      1.00000000
      1.00000000      1.00000000      1.00000000      1.00000000      1.00000000      1.00000000      1.00000000      1.00000000      1.00000000      1.00000000      1.00000000      1.00000000      1.00000000      1.00000000      1.00000000      1.00000000      1.00000000      1.00000000      1.00000000      1.00000000
      1.00000000      1.00000000      1.00000000      1.00000000      1.00000000      1.00000000      1.00000000      1.00000000      1.00000000      1.00000000      1.00000000      1.00000000      1.00000000      1.00000000      1.00000000      1.00000000      1.00000000      1.00000000      1.00000000      1.00000000
      1.00000000      1.00000000      1.00000000      1.00000000      1.00000000      1.00000000      1.00000000      1.00000000      1.00000000      1.00000000      1.00000000      1.00000000      1.00000000      1.00000000      1.00000000      1.00000000      1.00000000      1.00000000      1.00000000      1.00000000
      1.00000000      1.00000000      1.00000000      1.00000000      1.00000000      1.00000000      1.00000000      1.00000000      1.00000000      1.00000000      1.00000000      1.00000000      1.00000000      1.00000000      1.00000000      1.00000000</v>
    <i name="NUPDOWN">     -1.00000000</i>
    <i type="logical" name="LSORBIT"> F  </i>
    <v name="SAXIS">      0.00000000      0.00000000      1.00000000</v>
    <i type="logical" name="LSPIRAL"> F  </i>
    <v name="QSPIRAL">      0.00000000      0.00000000      0.00000000</v>
    <i type="logical" name="LZEROZ"> F  </i>
   </separator>
   <separator name="electronic exchange-correlation" >
    <i type="logical" name="LASPH"> F  </i>
    <i type="logical" name="LMETAGGA"> F  </i>
   </separator>
   <separator name="electronic convergence" >
    <i type="int" name="NELM">   100</i>
    <i type="int" name="NELMDL">    -5</i>
    <i type="int" name="NELMIN">     2</i>
    <i name="ENINI">    450.00000000</i>
    <separator name="electronic convergence detail" >
     <i type="logical" name="LDIAG"> T  </i>
     <i type="logical" name="LSUBROT"> F  </i>
     <i name="WEIMIN">      0.00000000</i>
     <i name="EBREAK">      0.00000004</i>
     <i name="DEPER">      0.30000000</i>
     <i type="int" name="NRMM">     4</i>
     <i name="TIME">      0.40000000</i>
    </separator>
   </separator>
   <separator name="electronic mixer" >
    <i name="AMIX">      0.40000000</i>
    <i name="BMIX">      1.00000000</i>
    <i name="AMIN">      0.10000000</i>
    <i name="AMIX_MAG">      1.60000000</i>
    <i name="BMIX_MAG">      1.00000000</i>
    <separator name="electronic mixer details" >
     <i type="int" name="IMIX">     4</i>
     <i type="logical" name="MIXFIRST"> F  </i>
     <i type="int" name="MAXMIX">   -45</i>
     <i name="WC">    100.00000000</i>
     <i type="int" name="INIMIX">     1</i>
     <i type="int" name="MIXPRE">     1</i>
     <i type="int" name="MREMOVE">     5</i>
    </separator>
   </separator>
   <separator name="electronic dipolcorrection" >
    <i type="logical" name="LDIPOL"> F  </i>
    <i type="logical" name="LMONO"> F  </i>
    <i type="int" name="IDIPOL">     0</i>
    <i name="EPSILON">      1.00000000</i>
    <v name="DIPOL">   -100.00000000   -100.00000000   -100.00000000</v>
    <i name="EFIELD">      0.00000000</i>
   </separator>
  </separator>
  <separator name="grids" >
   <i type="int" name="NGX">    60</i>
   <i type="int" name="NGY">    60</i>
   <i type="int" name="NGZ">   120</i>
   <i type="int" name="NGXF">   120</i>
   <i type="int" name="NGYF">   120</i>
   <i type="int" name="NGZF">   240</i>
   <i type="logical" name="ADDGRID"> F  </i>
  </separator>
  <separator name="ionic" >
   <i type="int" name="NSW">     0</i>
   <i type="int" name="IBRION">    -1</i>
   <i type="int" name="MDALGO">     0</i>
   <i type="int" name="ISIF">     2</i>
   <i name="PSTRESS">      0.00000000</i>
   <i name="EDIFFG">      0.00100000</i>
   <i type="int" name="NFREE">     0</i>
   <i name="POTIM">      0.50000000</i>
   <i name="SMASS">     -3.00000000</i>
   <i name="SCALEE">      1.00000000</i>
  </separator>
  <separator name="ionic md" >
   <i name="TEBEG">      0.00010000</i>
   <i name="TEEND">      0.00010000</i>
   <i type="int" name="NBLOCK">     1</i>
   <i type="int" name="KBLOCK">     1</i>
   <i type="int" name="NPACO">   256</i>
   <i name="APACO">     16.00000000</i>
  </separator>
  <separator name="symmetry" >
   <i type="int" name="ISYM">     2</i>
   <i name="SYMPREC">      0.00001000</i>
  </separator>
  <separator name="dos" >
   <i type="int" name="LORBIT">     0</i>
   <v name="RWIGS">     -1.00000000     -1.00000000</v>
   <i type="int" name="NEDOS">   301</i>
   <i name="EMIN">     10.00000000</i>
   <i name="EMAX">    -10.00000000</i>
   <i name="EFERMI">      0.00000000</i>
  </separator>
  <separator name="writing" >
   <i type="int" name="NWRITE">     2</i>
   <i type="logical" name="LWAVE"> F  </i>
   <i type="logical" name="LDOWNSAMPLE"> F  </i>
   <i type="logical" name="LCHARG"> F  </i>
   <i type="logical" name="LPARD"> F  </i>
   <i type="logical" name="LVTOT"> F  </i>
   <i type="logical" name="LVHAR"> F  </i>
   <i type="logical" name="LELF"> F  </i>
   <i type="logical" name="LOPTICS"> F  </i>
   <v name="STM">      0.00000000      0.00000000      0.00000000      0.00000000      0.00000000      0.00000000      0.00000000</v>
  </separator>
  <separator name="performance" >
   <i type="int" name="NPAR">     2</i>
   <i type="int" name="NSIM">     4</i>
   <i type="int" name="NBLK">    -1</i>
   <i type="logical" name="LPLANE"> T  </i>
   <i type="logical" name="LSCALAPACK"> T  </i>
   <i type="logical" name="LSCAAWARE"> F  </i>
   <i type="logical" name="LSCALU"> F  </i>
   <i type="logical" name="LASYNC"> F  </i>
   <i type="logical" name="LORBITALREAL"> F  </i>
  </separator>
  <separator name="miscellaneous" >
   <i type="int" name="IDIOT">     3</i>
   <i type="int" name="ISPECIAL">     0</i>
   <i type="logical" name="LMUSIC"> F  </i>
   <v name="POMASS">     58.69000000     32.06600000</v>
   <v name="DARWINR">      0.00000000      0.00000000</v>
   <v name="DARWINV">      1.00000000      1.00000000</v>
   <i type="logical" name="LCORR"> T  </i>
  </separator>
  <i type="logical" name="GGA_COMPAT"> T  </i>
  <i type="logical" name="LBERRY"> F  </i>
  <i type="int" name="ICORELEVEL">     0</i>
  <i type="logical" name="LDAU"> F  </i>
  <i type="int" name="I_CONSTRAINED_M">     0</i>
  <separator name="electronic exchange-correlation" >
   <i type="string" name="GGA">--</i>
   <i type="int" name="VOSKOWN">     0</i>
   <i type="logical" name="LHFCALC"> F  </i>
   <i type="string" name="PRECFOCK"></i>
   <i type="logical" name="LSYMGRAD"> F  </i>
   <i type="logical" name="LHFONE"> F  </i>
   <i type="logical" name="LRHFCALC"> F  </i>
   <i type="logical" name="LTHOMAS"> F  </i>
   <i type="logical" name="LMODELHF"> F  </i>
   <i name="ENCUT4O">     -1.00000000</i>
   <i type="int" name="EXXOEP">     0</i>
   <i type="int" name="FOURORBIT">     0</i>
   <i name="AEXX">      0.00000000</i>
   <i name="HFALPHA">      0.00000000</i>
   <i name="MCALPHA">      0.00000000</i>
   <i name="ALDAX">      1.00000000</i>
   <i name="AGGAX">      1.00000000</i>
   <i name="ALDAC">      1.00000000</i>
   <i name="AGGAC">      1.00000000</i>
   <i type="int" name="NKREDX">     1</i>
   <i type="int" name="NKREDY">     1</i>
   <i type="int" name="NKREDZ">     1</i>
   <i type="logical" name="SHIFTRED"> F  </i>
   <i type="logical" name="ODDONLY"> F  </i>
   <i type="logical" name="EVENONLY"> F  </i>
   <i type="int" name="LMAXFOCK">     0</i>
   <i type="int" name="NMAXFOCKAE">     0</i>
   <i type="logical" name="LFOCKAEDFT"> F  </i>
   <i name="HFSCREEN">      0.00000000</i>
   <i name="HFSCREENC">      0.00000000</i>
   <i type="int" name="NBANDSGWLOW">     0</i>
  </separator>
  <separator name="vdW DFT" >
   <i type="logical" name="LUSE_VDW"> F  </i>
   <i name="Zab_VDW">     -0.84910000</i>
   <i name="PARAM1">      0.12340000</i>
   <i name="PARAM2">      1.00000000</i>
   <i name="PARAM3">      0.00000000</i>
  </separator>
  <separator name="model GW" >
   <i type="int" name="MODEL_GW">     0</i>
   <i name="MODEL_EPS0">     15.39379702</i>
   <i name="MODEL_ALPHA">      1.00000000</i>
  </separator>
  <separator name="linear response parameters" >
   <i type="logical" name="LEPSILON"> F  </i>
   <i type="logical" name="LRPA"> F  </i>
   <i type="logical" name="LNABLA"> F  </i>
   <i type="logical" name="LVEL"> F  </i>
   <i type="int" name="KINTER">     0</i>
   <i name="CSHIFT">      0.10000000</i>
   <i name="OMEGAMAX">     -1.00000000</i>
   <i name="DEG_THRESHOLD">      0.00200000</i>
   <i name="RTIME">     -0.10000000</i>
   <i name="WPLASMAI">      0.00000000</i>
   <v name="DFIELD">      0.00000000      0.00000000      0.00000000</v>
   <v name="WPLASMA">      0.00000000      0.00000000      0.00000000      0.00000000      0.00000000      0.00000000      0.00000000      0.00000000      0.00000000</v>
  </separator>
  <separator name="orbital magnetization" >
   <i type="logical" name="NUCIND"> F  </i>
   <v name="MAGPOS">      0.00000000      0.00000000      0.00000000</v>
   <i type="logical" name="LNICSALL"> T  </i>
   <i type="logical" name="ORBITALMAG"> F  </i>
   <i type="logical" name="LMAGBLOCH"> F  </i>
   <i type="logical" name="LCHIMAG"> F  </i>
   <i type="logical" name="LGAUGE"> T  </i>
   <i type="int" name="MAGATOM">     0</i>
   <v name="MAGDIPOL">      0.00000000      0.00000000      0.00000000</v>
   <v name="AVECCONST">      0.00000000      0.00000000      0.00000000</v>
  </separator>
  <separator name="response functions" >
   <i type="logical" name="LADDER"> F  </i>
   <i type="logical" name="LRPAFORCE"> F  </i>
   <i type="logical" name="LFXC"> F  </i>
   <i type="logical" name="LHARTREE"> T  </i>
   <i type="int" name="IBSE">     0</i>
   <v type="int" name="KPOINT">    -1     0     0     0</v>
   <i type="logical" name="LTCTE"> F  </i>
   <i type="logical" name="LTETE"> F  </i>
   <i type="logical" name="LTRIPLET"> F  </i>
   <i type="logical" name="LFXCEPS"> F  </i>
   <i type="logical" name="LFXHEG"> F  </i>
   <i type="int" name="NATURALO">     2</i>
   <i type="logical" name="L2ORDER"> F  </i>
   <i type="logical" name="LMP2LT"> F  </i>
   <i type="logical" name="LUSEW"> F  </i>
   <i name="ENCUTGW">     -2.00000000</i>
   <i name="ENCUTGWSOFT">     -2.00000000</i>
   <i name="ENCUTLF">     -1.00000000</i>
   <i type="int" name="LMAXMP2">    -1</i>
   <i name="SCISSOR">      0.00000000</i>
   <i type="int" name="NOMEGA">     0</i>
   <i type="int" name="NOMEGAR">     0</i>
   <i type="int" name="NBANDSGW">    -1</i>
   <i type="int" name="NBANDSO">    -1</i>
   <i type="int" name="NBANDSV">    -1</i>
   <i type="int" name="NELM">   100</i>
   <i type="int" name="NELMHF">     1</i>
   <i type="int" name="DIM">     3</i>
   <i type="int" name="ANTIRES">     0</i>
   <i name="OMEGAMAX">    -30.00000000</i>
   <i name="OMEGAMIN">    -30.00000000</i>
   <i name="OMEGATL">   -200.00000000</i>
   <i type="int" name="OMEGAGRID">   140</i>
   <i name="CSHIFT">     -0.10000000</i>
   <i type="logical" name="SELFENERGY"> F  </i>
   <i type="logical" name="LSPECTRAL"> F  </i>
   <i type="logical" name="LSPECTRALGW"> F  </i>
   <i type="logical" name="LSINGLES"> F  </i>
   <i type="logical" name="LFERMIGW"> F  </i>
   <i type="logical" name="ODDONLYGW"> F  </i>
   <i type="logical" name="EVENONLYGW"> F  </i>
   <i type="int" name="NKREDLFX">     1</i>
   <i type="int" name="NKREDLFY">     1</i>
   <i type="int" name="NKREDLFZ">     1</i>
   <i type="int" name="MAXMEM">  2800</i>
   <i type="int" name="TELESCOPE">     0</i>
   <i type="int" name="TAUPAR">     1</i>
   <i type="int" name="OMEGAPAR">    -1</i>
   <i name="LAMBDA">      1.00000000</i>
  </separator>
  <separator name="External order field" >
   <i name="OFIELD_KAPPA">      0.00000000</i>
   <v name="OFIELD_K">      0.00000000      0.00000000      0.00000000</v>
   <i name="OFIELD_Q6_NEAR">      0.00000000</i>
   <i name="OFIELD_Q6_FAR">      0.00000000</i>
   <i name="OFIELD_A">      0.00000000</i>
  </separator>
 </parameters>
 <atominfo>
  <atoms>      96 </atoms>
  <types>       2 </types>
  <array name="atoms" >
   <dimension dim="1">ion</dimension>
   <field type="string">element</field>
   <field type="int">atomtype</field>
   <set>
    <rc><c>Ni</c><c>   1</c></rc>
    <rc><c>Ni</c><c>   1</c></rc>
    <rc><c>Ni</c><c>   1</c></rc>
    <rc><c>Ni</c><c>   1</c></rc>
    <rc><c>Ni</c><c>   1</c></rc>
    <rc><c>Ni</c><c>   1</c></rc>
    <rc><c>Ni</c><c>   1</c></rc>
    <rc><c>Ni</c><c>   1</c></rc>
    <rc><c>Ni</c><c>   1</c></rc>
    <rc><c>Ni</c><c>   1</c></rc>
    <rc><c>Ni</c><c>   1</c></rc>
    <rc><c>Ni</c><c>   1</c></rc>
    <rc><c>Ni</c><c>   1</c></rc>
    <rc><c>Ni</c><c>   1</c></rc>
    <rc><c>Ni</c><c>   1</c></rc>
    <rc><c>Ni</c><c>   1</c></rc>
    <rc><c>Ni</c><c>   1</c></rc>
    <rc><c>Ni</c><c>   1</c></rc>
    <rc><c>Ni</c><c>   1</c></rc>
    <rc><c>Ni</c><c>   1</c></rc>
    <rc><c>Ni</c><c>   1</c></rc>
    <rc><c>Ni</c><c>   1</c></rc>
    <rc><c>Ni</c><c>   1</c></rc>
    <rc><c>Ni</c><c>   1</c></rc>
    <rc><c>Ni</c><c>   1</c></rc>
    <rc><c>Ni</c><c>   1</c></rc>
    <rc><c>Ni</c><c>   1</c></rc>
    <rc><c>Ni</c><c>   1</c></rc>
    <rc><c>Ni</c><c>   1</c></rc>
    <rc><c>Ni</c><c>   1</c></rc>
    <rc><c>Ni</c><c>   1</c></rc>
    <rc><c>Ni</c><c>   1</c></rc>
    <rc><c>Ni</c><c>   1</c></rc>
    <rc><c>Ni</c><c>   1</c></rc>
    <rc><c>Ni</c><c>   1</c></rc>
    <rc><c>Ni</c><c>   1</c></rc>
    <rc><c>Ni</c><c>   1</c></rc>
    <rc><c>Ni</c><c>   1</c></rc>
    <rc><c>Ni</c><c>   1</c></rc>
    <rc><c>Ni</c><c>   1</c></rc>
    <rc><c>Ni</c><c>   1</c></rc>
    <rc><c>Ni</c><c>   1</c></rc>
    <rc><c>Ni</c><c>   1</c></rc>
    <rc><c>Ni</c><c>   1</c></rc>
    <rc><c>Ni</c><c>   1</c></rc>
    <rc><c>Ni</c><c>   1</c></rc>
    <rc><c>Ni</c><c>   1</c></rc>
    <rc><c>Ni</c><c>   1</c></rc>
    <rc><c>S </c><c>   2</c></rc>
    <rc><c>S </c><c>   2</c></rc>
    <rc><c>S </c><c>   2</c></rc>
    <rc><c>S </c><c>   2</c></rc>
    <rc><c>S </c><c>   2</c></rc>
    <rc><c>S </c><c>   2</c></rc>
    <rc><c>S </c><c>   2</c></rc>
    <rc><c>S </c><c>   2</c></rc>
    <rc><c>S </c><c>   2</c></rc>
    <rc><c>S </c><c>   2</c></rc>
    <rc><c>S </c><c>   2</c></rc>
    <rc><c>S </c><c>   2</c></rc>
    <rc><c>S </c><c>   2</c></rc>
    <rc><c>S </c><c>   2</c></rc>
    <rc><c>S </c><c>   2</c></rc>
    <rc><c>S </c><c>   2</c></rc>
    <rc><c>S </c><c>   2</c></rc>
    <rc><c>S </c><c>   2</c></rc>
    <rc><c>S </c><c>   2</c></rc>
    <rc><c>S </c><c>   2</c></rc>
    <rc><c>S </c><c>   2</c></rc>
    <rc><c>S </c><c>   2</c></rc>
    <rc><c>S </c><c>   2</c></rc>
    <rc><c>S </c><c>   2</c></rc>
    <rc><c>S </c><c>   2</c></rc>
    <rc><c>S </c><c>   2</c></rc>
    <rc><c>S </c><c>   2</c></rc>
    <rc><c>S </c><c>   2</c></rc>
    <rc><c>S </c><c>   2</c></rc>
    <rc><c>S </c><c>   2</c></rc>
    <rc><c>S </c><c>   2</c></rc>
    <rc><c>S </c><c>   2</c></rc>
    <rc><c>S </c><c>   2</c></rc>
    <rc><c>S </c><c>   2</c></rc>
    <rc><c>S </c><c>   2</c></rc>
    <rc><c>S </c><c>   2</c></rc>
    <rc><c>S </c><c>   2</c></rc>
    <rc><c>S </c><c>   2</c></rc>
    <rc><c>S </c><c>   2</c></rc>
    <rc><c>S </c><c>   2</c></rc>
    <rc><c>S </c><c>   2</c></rc>
    <rc><c>S </c><c>   2</c></rc>
    <rc><c>S </c><c>   2</c></rc>
    <rc><c>S </c><c>   2</c></rc>
    <rc><c>S </c><c>   2</c></rc>
    <rc><c>S </c><c>   2</c></rc>
    <rc><c>S </c><c>   2</c></rc>
    <rc><c>S </c><c>   2</c></rc>
   </set>
  </array>
  <array name="atomtypes" >
   <dimension dim="1">type</dimension>
   <field type="int">atomspertype</field>
   <field type="string">element</field>
   <field>mass</field>
   <field>valence</field>
   <field type="string">pseudopotential</field>
   <set>
    <rc><c>  48</c><c>Ni</c><c>     58.69000000</c><c>     16.00000000</c><c>  PAW_PBE Ni_pv 06Sep2000               </c></rc>
    <rc><c>  48</c><c>S </c><c>     32.06600000</c><c>      6.00000000</c><c>  PAW_PBE S 06Sep2000                   </c></rc>
   </set>
  </array>
 </atominfo>
 <structure name="initialpos" >
  <crystal>
   <varray name="basis" >
    <v>      11.25646304       0.00000000       0.00000000 </v>
    <v>       5.04456212      10.06282034       0.00000000 </v>
    <v>       0.00000000       0.00000000      21.74423184 </v>
   </varray>
   <i name="volume">   2463.00752351 </i>
   <varray name="rec_basis" >
    <v>       0.08883785      -0.04453504       0.00000000 </v>
    <v>       0.00000000       0.09937572       0.00000000 </v>
    <v>       0.00000000       0.00000000       0.04598921 </v>
   </varray>
  </crystal>
  <varray name="positions" >
   <v>       0.26092070       0.47878036       0.25332799 </v>
   <v>       0.35488056       0.38482049       0.38835497 </v>
   <v>       0.37461112       0.36508800       0.49728236 </v>
   <v>       0.13168850       0.11026861       0.17670038 </v>
   <v>       0.04893297       0.05449730       0.47243829 </v>
   <v>       0.30579124       0.43338081       0.12598998 </v>
   <v>       0.36819893       0.23939913       0.21765305 </v>
   <v>       0.46215880       0.14543926       0.35268003 </v>
   <v>       0.00030194       0.37150212       0.21765305 </v>
   <v>       0.09426181       0.27754226       0.35268003 </v>
   <v>       0.18519932       0.19076211       0.47244314 </v>
   <v>       0.50465401       0.46548990       0.11546197 </v>
   <v>       0.76092070       0.47878036       0.25332799 </v>
   <v>       0.85488056       0.38482049       0.38835497 </v>
   <v>       0.87455817       0.36514461       0.49727342 </v>
   <v>       0.66696083       0.07274024       0.11830101 </v>
   <v>       0.54892467       0.05450373       0.47239203 </v>
   <v>       0.77423906       0.33335899       0.08262607 </v>
   <v>       0.86819893       0.23939913       0.21765305 </v>
   <v>       0.96215880       0.14543926       0.35268003 </v>
   <v>       0.50030194       0.37150212       0.21765305 </v>
   <v>       0.59426181       0.27754226       0.35268003 </v>
   <v>       0.68520051       0.19077903       0.47239017 </v>
   <v>       0.90583332       0.45813904       0.09969877 </v>
   <v>       0.26092070       0.97878036       0.25332799 </v>
   <v>       0.35488056       0.88482049       0.38835497 </v>
   <v>       0.37459303       0.86510558       0.49727752 </v>
   <v>       0.10450007       0.59862729       0.17944853 </v>
   <v>       0.04894340       0.55450176       0.47245558 </v>
   <v>       0.19120009       0.73315225       0.12405620 </v>
   <v>       0.36819893       0.73939913       0.21765305 </v>
   <v>       0.46215880       0.64543926       0.35268003 </v>
   <v>       0.00030194       0.87150212       0.21765305 </v>
   <v>       0.09426181       0.77754226       0.35268003 </v>
   <v>       0.18520021       0.69075990       0.47245254 </v>
   <v>       0.52112716       0.92658363       0.11676459 </v>
   <v>       0.76092070       0.97878036       0.25332799 </v>
   <v>       0.85488056       0.88482049       0.38835497 </v>
   <v>       0.87455721       0.86514543       0.49727451 </v>
   <v>       0.66696083       0.57274024       0.11830101 </v>
   <v>       0.54892601       0.55450591       0.47239443 </v>
   <v>       0.77423907       0.83335899       0.08262607 </v>
   <v>       0.86819893       0.73939913       0.21765305 </v>
   <v>       0.96215880       0.64543926       0.35268003 </v>
   <v>       0.50030194       0.87150212       0.21765305 </v>
   <v>       0.59426181       0.77754226       0.35268003 </v>
   <v>       0.68519841       0.69077935       0.47239204 </v>
   <v>       0.90634206       0.96546199       0.08262607 </v>
   <v>       0.07287763       0.16682343       0.27005396 </v>
   <v>       0.16683750       0.07286357       0.40508094 </v>
   <v>       0.47891775       0.26078330       0.13502698 </v>
   <v>       0.21073623       0.52896886       0.52655209 </v>
   <v>       0.03023343       0.37768264       0.45050807 </v>
   <v>       0.43627354       0.47164251       0.31548109 </v>
   <v>       0.34231368       0.06560239       0.18045411 </v>
   <v>       0.17409868       0.39738738       0.18045411 </v>
   <v>       0.26805855       0.30342751       0.31548109 </v>
   <v>       0.36201842       0.20946765       0.45050807 </v>
   <v>       0.57287763       0.16682343       0.27005396 </v>
   <v>       0.66683750       0.07286357       0.40508094 </v>
   <v>       0.88311763       0.37661225       0.02104960 </v>
   <v>       0.97891775       0.26078330       0.13502698 </v>
   <v>       0.71067877       0.52902759       0.52652885 </v>
   <v>       0.53023343       0.37768264       0.45050807 </v>
   <v>       0.93627354       0.47164251       0.31548109 </v>
   <v>       0.76129965       0.15661025       0.06346218 </v>
   <v>       0.84231368       0.06560239       0.18045411 </v>
   <v>       0.61149974       0.49169053       0.04580431 </v>
   <v>       0.67409868       0.39738738       0.18045411 </v>
   <v>       0.76805855       0.30342751       0.31548109 </v>
   <v>       0.86201842       0.20946765       0.45050807 </v>
   <v>       0.07287764       0.66682343       0.27005396 </v>
   <v>       0.16683750       0.57286357       0.40508094 </v>
   <v>       0.47891775       0.76078330       0.13502698 </v>
   <v>       0.21071200       0.02898042       0.52654643 </v>
   <v>       0.03023342       0.87768264       0.45050807 </v>
   <v>       0.43627354       0.97164251       0.31548109 </v>
   <v>       0.31871145       0.57266393       0.06668125 </v>
   <v>       0.34231368       0.56560239       0.18045411 </v>
   <v>       0.10175504       0.87976169       0.06082487 </v>
   <v>       0.17409868       0.89738738       0.18045411 </v>
   <v>       0.26805855       0.80342751       0.31548109 </v>
   <v>       0.36201842       0.70946764       0.45050807 </v>
   <v>       0.57287764       0.66682343       0.27005396 </v>
   <v>       0.66683750       0.57286357       0.40508094 </v>
   <v>       0.86963184       0.87000820       0.01278713 </v>
   <v>       0.97891775       0.76078330       0.13502698 </v>
   <v>       0.71067595       0.02902909       0.52652801 </v>
   <v>       0.53023342       0.87768264       0.45050807 </v>
   <v>       0.93627354       0.97164251       0.31548109 </v>
   <v>       0.77193945       0.64973883       0.06602563 </v>
   <v>       0.84231368       0.56560239       0.18045411 </v>
   <v>       0.60297677       0.98985110       0.05011559 </v>
   <v>       0.67409868       0.89738738       0.18045411 </v>
   <v>       0.76805855       0.80342751       0.31548109 </v>
   <v>       0.86201842       0.70946764       0.45050807 </v>
  </varray>
 </structure>
 <calculation>
  <scstep>
   <time name="dav">   13.52   13.53</time>
   <time name="total">   14.03   14.03</time>
   <energy>
    <i name="alphaZ">   2684.99175279 </i>
    <i name="ewald"> 307644.33481005 </i>
    <i name="hartreedc">-471227.26916699 </i>
    <i name="XCdc">   4905.18682662 </i>
    <i name="pawpsdc"> 150306.04444553 </i>
    <i name="pawaedc">-156855.34918313 </i>
    <i name="eentropy">     -0.48203983 </i>
    <i name="bandstr">  -5207.97692578 </i>
    <i name="atom"> 181336.80673834 </i>
    <i name="e_fr_energy">  13586.28725761 </i>
    <i name="e_wo_entrp">  13586.76929744 </i>
    <i name="e_0_energy">  13586.52827752 </i>
   </energy>
  </scstep>
  <scstep>
   <time name="dav">   12.11   12.11</time>
   <time name="total">   12.11   12.11</time>
   <energy>
    <i name="e_fr_energy">    882.14805910 </i>
    <i name="e_wo_entrp">    883.10590080 </i>
    <i name="e_0_energy">    882.62697995 </i>
   </energy>
  </scstep>
  <scstep>
   <time name="dav">   12.82   12.82</time>
   <time name="total">   12.82   12.82</time>
   <energy>
    <i name="e_fr_energy">   -450.72190145 </i>
    <i name="e_wo_entrp">   -449.52069066 </i>
    <i name="e_0_energy">   -450.12129606 </i>
   </energy>
  </scstep>
  <scstep>
   <time name="dav">   12.94   12.94</time>
   <time name="total">   12.94   12.94</time>
   <energy>
    <i name="e_fr_energy">   -536.50540355 </i>
    <i name="e_wo_entrp">   -535.26726793 </i>
    <i name="e_0_energy">   -535.88633574 </i>
   </energy>
  </scstep>
  <scstep>
   <time name="dav">   14.43   14.43</time>
   <time name="total">   14.84   14.84</time>
   <energy>
    <i name="e_fr_energy">   -539.93584703 </i>
    <i name="e_wo_entrp">   -538.65620927 </i>
    <i name="e_0_energy">   -539.29602815 </i>
   </energy>
  </scstep>
  <scstep>
   <time name="dav">   13.80   13.80</time>
   <time name="total">   14.58   14.59</time>
   <energy>
    <i name="e_fr_energy">   -642.92149085 </i>
    <i name="e_wo_entrp">   -641.69969954 </i>
    <i name="e_0_energy">   -642.31059519 </i>
   </energy>
  </scstep>
  <scstep>
   <time name="dav">   12.93   12.93</time>
   <time name="total">   13.72   13.72</time>
   <energy>
    <i name="e_fr_energy">   -502.25764726 </i>
    <i name="e_wo_entrp">   -501.04539748 </i>
    <i name="e_0_energy">   -501.65152237 </i>
   </energy>
  </scstep>
  <scstep>
   <time name="dav">   15.01   15.02</time>
   <time name="total">   15.80   15.80</time>
   <energy>
    <i name="e_fr_energy">   -652.57972284 </i>
    <i name="e_wo_entrp">   -651.51112700 </i>
    <i name="e_0_energy">   -652.04542492 </i>
   </energy>
  </scstep>
  <scstep>
   <time name="dav">   14.68   14.68</time>
   <time name="total">   15.58   15.58</time>
   <energy>
    <i name="e_fr_energy">   -546.00179395 </i>
    <i name="e_wo_entrp">   -544.80977658 </i>
    <i name="e_0_energy">   -545.40578527 </i>
   </energy>
  </scstep>
  <scstep>
   <time name="dav">   14.85   14.85</time>
   <time name="total">   15.90   15.90</time>
   <energy>
    <i name="e_fr_energy">   -518.62193525 </i>
    <i name="e_wo_entrp">   -517.50244527 </i>
    <i name="e_0_energy">   -518.06219026 </i>
   </energy>
  </scstep>
  <scstep>
   <time name="dav">   14.71   14.72</time>
   <time name="total">   15.50   15.51</time>
   <energy>
    <i name="e_fr_energy">   -531.34649029 </i>
    <i name="e_wo_entrp">   -529.64131289 </i>
    <i name="e_0_energy">   -530.49390159 </i>
   </energy>
  </scstep>
  <scstep>
   <time name="dav">   15.14   15.15</time>
   <time name="total">   16.00   16.01</time>
   <energy>
    <i name="e_fr_energy">   -505.00236514 </i>
    <i name="e_wo_entrp">   -503.70019247 </i>
    <i name="e_0_energy">   -504.35127880 </i>
   </energy>
  </scstep>
  <scstep>
   <time name="dav">   14.80   14.80</time>
   <time name="total">   15.60   15.60</time>
   <energy>
    <i name="e_fr_energy">   -494.74319639 </i>
    <i name="e_wo_entrp">   -493.59459106 </i>
    <i name="e_0_energy">   -494.16889373 </i>
   </energy>
  </scstep>
  <scstep>
   <time name="dav">   14.54   14.54</time>
   <time name="total">   15.32   15.33</time>
   <energy>
    <i name="e_fr_energy">   -486.57072355 </i>
    <i name="e_wo_entrp">   -485.25520295 </i>
    <i name="e_0_energy">   -485.91296325 </i>
   </energy>
  </scstep>
  <scstep>
   <time name="dav">   15.01   15.01</time>
   <time name="total">   15.81   15.81</time>
   <energy>
    <i name="e_fr_energy">   -481.08147300 </i>
    <i name="e_wo_entrp">   -479.82608539 </i>
    <i name="e_0_energy">   -480.45377920 </i>
   </energy>
  </scstep>
  <scstep>
   <time name="dav">   14.71   14.71</time>
   <time name="total">   15.50   15.51</time>
   <energy>
    <i name="e_fr_energy">   -477.93870895 </i>
    <i name="e_wo_entrp">   -476.75900347 </i>
    <i name="e_0_energy">   -477.34885621 </i>
   </energy>
  </scstep>
  <scstep>
   <time name="dav">   14.76   14.76</time>
   <time name="total">   15.70   15.70</time>
   <energy>
    <i name="e_fr_energy">   -476.89619844 </i>
    <i name="e_wo_entrp">   -475.73857576 </i>
    <i name="e_0_energy">   -476.31738710 </i>
   </energy>
  </scstep>
  <scstep>
   <time name="dav">   14.42   14.42</time>
   <time name="total">   15.21   15.22</time>
   <energy>
    <i name="e_fr_energy">   -475.86935986 </i>
    <i name="e_wo_entrp">   -474.71218125 </i>
    <i name="e_0_energy">   -475.29077056 </i>
   </energy>
  </scstep>
  <scstep>
   <time name="dav">   14.70   14.70</time>
   <time name="total">   15.62   15.62</time>
   <energy>
    <i name="e_fr_energy">   -475.47994445 </i>
    <i name="e_wo_entrp">   -474.31962024 </i>
    <i name="e_0_energy">   -474.89978235 </i>
   </energy>
  </scstep>
  <scstep>
   <time name="dav">   14.98   14.98</time>
   <time name="total">   15.79   15.79</time>
   <energy>
    <i name="e_fr_energy">   -474.96859275 </i>
    <i name="e_wo_entrp">   -473.82686116 </i>
    <i name="e_0_energy">   -474.39772696 </i>
   </energy>
  </scstep>
  <scstep>
   <time name="dav">   15.24   15.24</time>
   <time name="total">   16.05   16.06</time>
   <energy>
    <i name="e_fr_energy">   -474.28253226 </i>
    <i name="e_wo_entrp">   -473.12505636 </i>
    <i name="e_0_energy">   -473.70379431 </i>
   </energy>
  </scstep>
  <scstep>
   <time name="dav">   15.29   15.29</time>
   <time name="total">   16.10   16.11</time>
   <energy>
    <i name="e_fr_energy">   -473.95289361 </i>
    <i name="e_wo_entrp">   -472.75191082 </i>
    <i name="e_0_energy">   -473.35240221 </i>
   </energy>
  </scstep>
  <scstep>
   <time name="dav">   14.83   14.83</time>
   <time name="total">   15.64   15.64</time>
   <energy>
    <i name="e_fr_energy">   -473.64799141 </i>
    <i name="e_wo_entrp">   -472.47481574 </i>
    <i name="e_0_energy">   -473.06140358 </i>
   </energy>
  </scstep>
  <scstep>
   <time name="dav">   13.39   13.39</time>
   <time name="total">   14.45   14.45</time>
   <energy>
    <i name="e_fr_energy">   -473.64990882 </i>
    <i name="e_wo_entrp">   -472.47506216 </i>
    <i name="e_0_energy">   -473.06248549 </i>
   </energy>
  </scstep>
  <scstep>
   <time name="dav">   13.17   13.17</time>
   <time name="total">   13.98   13.98</time>
   <energy>
    <i name="e_fr_energy">   -473.63727154 </i>
    <i name="e_wo_entrp">   -472.47210211 </i>
    <i name="e_0_energy">   -473.05468683 </i>
   </energy>
  </scstep>
  <scstep>
   <time name="dav">   15.02   15.02</time>
   <time name="total">   15.84   15.84</time>
   <energy>
    <i name="e_fr_energy">   -473.64277994 </i>
    <i name="e_wo_entrp">   -472.47823750 </i>
    <i name="e_0_energy">   -473.06050872 </i>
   </energy>
  </scstep>
  <scstep>
   <time name="dav">   14.27   14.27</time>
   <time name="total">   15.08   15.08</time>
   <energy>
    <i name="e_fr_energy">   -473.61417698 </i>
    <i name="e_wo_entrp">   -472.44185240 </i>
    <i name="e_0_energy">   -473.02801469 </i>
   </energy>
  </scstep>
  <scstep>
   <time name="dav">   14.97   14.97</time>
   <time name="total">   15.79   15.79</time>
   <energy>
    <i name="e_fr_energy">   -473.62257853 </i>
    <i name="e_wo_entrp">   -472.44839405 </i>
    <i name="e_0_energy">   -473.03548629 </i>
   </energy>
  </scstep>
  <scstep>
   <time name="dav">   14.33   14.33</time>
   <time name="total">   15.39   15.39</time>
   <energy>
    <i name="e_fr_energy">   -473.60875318 </i>
    <i name="e_wo_entrp">   -472.43358891 </i>
    <i name="e_0_energy">   -473.02117104 </i>
   </energy>
  </scstep>
  <scstep>
   <time name="dav">   14.56   14.57</time>
   <time name="total">   15.38   15.39</time>
   <energy>
    <i name="e_fr_energy">   -473.60813441 </i>
    <i name="e_wo_entrp">   -472.43179656 </i>
    <i name="e_0_energy">   -473.01996548 </i>
   </energy>
  </scstep>
  <scstep>
   <time name="dav">   14.52   14.53</time>
   <time name="total">   15.37   15.37</time>
   <energy>
    <i name="e_fr_energy">   -473.60661606 </i>
    <i name="e_wo_entrp">   -472.43178887 </i>
    <i name="e_0_energy">   -473.01920246 </i>
   </energy>
  </scstep>
  <scstep>
   <time name="dav">   13.92   13.92</time>
   <time name="total">   14.74   14.75</time>
   <energy>
    <i name="e_fr_energy">   -473.60661475 </i>
    <i name="e_wo_entrp">   -472.43204141 </i>
    <i name="e_0_energy">   -473.01932808 </i>
   </energy>
  </scstep>
  <scstep>
   <time name="dav">   14.28   14.28</time>
   <time name="total">   15.11   15.12</time>
   <energy>
    <i name="e_fr_energy">   -473.60634882 </i>
    <i name="e_wo_entrp">   -472.43339002 </i>
    <i name="e_0_energy">   -473.01986942 </i>
   </energy>
  </scstep>
  <scstep>
   <time name="dav">   13.08   13.08</time>
   <time name="total">   13.91   13.91</time>
   <energy>
    <i name="e_fr_energy">   -473.60634346 </i>
    <i name="e_wo_entrp">   -472.43373627 </i>
    <i name="e_0_energy">   -473.02003987 </i>
   </energy>
  </scstep>
  <scstep>
   <time name="dav">   11.24   11.24</time>
   <time name="total">   12.08   12.08</time>
   <energy>
    <i name="e_fr_energy">   -473.60653861 </i>
    <i name="e_wo_entrp">   -472.43392522 </i>
    <i name="e_0_energy">   -473.02023192 </i>
   </energy>
  </scstep>
  <scstep>
   <time name="dav">    9.29    9.29</time>
   <time name="total">    9.81    9.82</time>
   <energy>
    <i name="alphaZ">   2684.99175279 </i>
    <i name="ewald"> 307644.33481005 </i>
    <i name="hartreedc">-470095.88177422 </i>
    <i name="XCdc">   4863.77782110 </i>
    <i name="pawpsdc"> 184110.84600351 </i>
    <i name="pawaedc">-190762.87686690 </i>
    <i name="eentropy">     -1.17238072 </i>
    <i name="bandstr"> -20254.43261876 </i>
    <i name="atom"> 181336.80673834 </i>
    <i name="e_fr_energy">   -473.60651481 </i>
    <i name="e_wo_entrp">   -472.43413409 </i>
    <i name="e_0_energy">   -473.02032445 </i>
   </energy>
  </scstep>
  <structure>
   <crystal>
    <varray name="basis" >
     <v>      11.25646304       0.00000000       0.00000000 </v>
     <v>       5.04456212      10.06282034       0.00000000 </v>
     <v>       0.00000000       0.00000000      21.74423184 </v>
    </varray>
    <i name="volume">   2463.00752351 </i>
    <varray name="rec_basis" >
     <v>       0.08883785      -0.04453504       0.00000000 </v>
     <v>       0.00000000       0.09937572       0.00000000 </v>
     <v>       0.00000000       0.00000000       0.04598921 </v>
    </varray>
   </crystal>
   <varray name="positions" >
    <v>       0.26092070       0.47878036       0.25332799 </v>
    <v>       0.35488056       0.38482049       0.38835497 </v>
    <v>       0.37461112       0.36508800       0.49728236 </v>
    <v>       0.13168850       0.11026861       0.17670038 </v>
    <v>       0.04893297       0.05449730       0.47243829 </v>
    <v>       0.30579124       0.43338081       0.12598998 </v>
    <v>       0.36819893       0.23939913       0.21765305 </v>
    <v>       0.46215880       0.14543926       0.35268003 </v>
    <v>       0.00030194       0.37150212       0.21765305 </v>
    <v>       0.09426181       0.27754226       0.35268003 </v>
    <v>       0.18519932       0.19076211       0.47244314 </v>
    <v>       0.50465401       0.46548990       0.11546197 </v>
    <v>       0.76092070       0.47878036       0.25332799 </v>
    <v>       0.85488056       0.38482049       0.38835497 </v>
    <v>       0.87455817       0.36514461       0.49727342 </v>
    <v>       0.66696083       0.07274024       0.11830101 </v>
    <v>       0.54892467       0.05450373       0.47239203 </v>
    <v>       0.77423906       0.33335899       0.08262607 </v>
    <v>       0.86819893       0.23939913       0.21765305 </v>
    <v>       0.96215880       0.14543926       0.35268003 </v>
    <v>       0.50030194       0.37150212       0.21765305 </v>
    <v>       0.59426181       0.27754226       0.35268003 </v>
    <v>       0.68520051       0.19077903       0.47239017 </v>
    <v>       0.90583332       0.45813904       0.09969877 </v>
    <v>       0.26092070       0.97878036       0.25332799 </v>
    <v>       0.35488056       0.88482049       0.38835497 </v>
    <v>       0.37459303       0.86510558       0.49727752 </v>
    <v>       0.10450007       0.59862729       0.17944853 </v>
    <v>       0.04894340       0.55450176       0.47245558 </v>
    <v>       0.19120009       0.73315225       0.12405620 </v>
    <v>       0.36819893       0.73939913       0.21765305 </v>
    <v>       0.46215880       0.64543926       0.35268003 </v>
    <v>       0.00030194       0.87150212       0.21765305 </v>
    <v>       0.09426181       0.77754226       0.35268003 </v>
    <v>       0.18520021       0.69075990       0.47245254 </v>
    <v>       0.52112716       0.92658363       0.11676459 </v>
    <v>       0.76092070       0.97878036       0.25332799 </v>
    <v>       0.85488056       0.88482049       0.38835497 </v>
    <v>       0.87455721       0.86514543       0.49727451 </v>
    <v>       0.66696083       0.57274024       0.11830101 </v>
    <v>       0.54892601       0.55450591       0.47239443 </v>
    <v>       0.77423907       0.83335899       0.08262607 </v>
    <v>       0.86819893       0.73939913       0.21765305 </v>
    <v>       0.96215880       0.64543926       0.35268003 </v>
    <v>       0.50030194       0.87150212       0.21765305 </v>
    <v>       0.59426181       0.77754226       0.35268003 </v>
    <v>       0.68519841       0.69077935       0.47239204 </v>
    <v>       0.90634206       0.96546199       0.08262607 </v>
    <v>       0.07287763       0.16682343       0.27005396 </v>
    <v>       0.16683750       0.07286357       0.40508094 </v>
    <v>       0.47891775       0.26078330       0.13502698 </v>
    <v>       0.21073623       0.52896886       0.52655209 </v>
    <v>       0.03023343       0.37768264       0.45050807 </v>
    <v>       0.43627354       0.47164251       0.31548109 </v>
    <v>       0.34231368       0.06560239       0.18045411 </v>
    <v>       0.17409868       0.39738738       0.18045411 </v>
    <v>       0.26805855       0.30342751       0.31548109 </v>
    <v>       0.36201842       0.20946765       0.45050807 </v>
    <v>       0.57287763       0.16682343       0.27005396 </v>
    <v>       0.66683750       0.07286357       0.40508094 </v>
    <v>       0.88311763       0.37661225       0.02104960 </v>
    <v>       0.97891775       0.26078330       0.13502698 </v>
    <v>       0.71067877       0.52902759       0.52652885 </v>
    <v>       0.53023343       0.37768264       0.45050807 </v>
    <v>       0.93627354       0.47164251       0.31548109 </v>
    <v>       0.76129965       0.15661025       0.06346218 </v>
    <v>       0.84231368       0.06560239       0.18045411 </v>
    <v>       0.61149974       0.49169053       0.04580431 </v>
    <v>       0.67409868       0.39738738       0.18045411 </v>
    <v>       0.76805855       0.30342751       0.31548109 </v>
    <v>       0.86201842       0.20946765       0.45050807 </v>
    <v>       0.07287764       0.66682343       0.27005396 </v>
    <v>       0.16683750       0.57286357       0.40508094 </v>
    <v>       0.47891775       0.76078330       0.13502698 </v>
    <v>       0.21071200       0.02898042       0.52654643 </v>
    <v>       0.03023342       0.87768264       0.45050807 </v>
    <v>       0.43627354       0.97164251       0.31548109 </v>
    <v>       0.31871145       0.57266393       0.06668125 </v>
    <v>       0.34231368       0.56560239       0.18045411 </v>
    <v>       0.10175504       0.87976169       0.06082487 </v>
    <v>       0.17409868       0.89738738       0.18045411 </v>
    <v>       0.26805855       0.80342751       0.31548109 </v>
    <v>       0.36201842       0.70946764       0.45050807 </v>
    <v>       0.57287764       0.66682343       0.27005396 </v>
    <v>       0.66683750       0.57286357       0.40508094 </v>
    <v>       0.86963184       0.87000820       0.01278713 </v>
    <v>       0.97891775       0.76078330       0.13502698 </v>
    <v>       0.71067595       0.02902909       0.52652801 </v>
    <v>       0.53023342       0.87768264       0.45050807 </v>
    <v>       0.93627354       0.97164251       0.31548109 </v>
    <v>       0.77193945       0.64973883       0.06602563 </v>
    <v>       0.84231368       0.56560239       0.18045411 </v>
    <v>       0.60297677       0.98985110       0.05011559 </v>
    <v>       0.67409868       0.89738738       0.18045411 </v>
    <v>       0.76805855       0.80342751       0.31548109 </v>
    <v>       0.86201842       0.70946764       0.45050807 </v>
   </varray>
  </structure>
  <varray name="forces" >
   <v>       0.67230303      -0.54756541       1.25767460 </v>
   <v>      -0.12208328       0.10258177      -0.89926506 </v>
   <v>       0.39317640      -0.69372916       0.80656843 </v>
   <v>       0.23599212      -0.56117262      -0.80763693 </v>
   <v>      -0.53025354      -0.02846377       0.49234092 </v>
   <v>      -1.51042144      -0.46843861      -1.10938953 </v>
   <v>       0.04589363      -0.35863687       0.04997487 </v>
   <v>       0.09031301      -0.02676473      -0.07030769 </v>
   <v>       0.11130731      -0.05369211       0.22301719 </v>
   <v>       0.13973979      -0.01352236      -0.13421211 </v>
   <v>       0.21275110       0.46471328       0.53830505 </v>
   <v>      -0.16055570      -0.30794225      -0.05173665 </v>
   <v>      -0.07211993       0.03015773       0.00010557 </v>
   <v>      -0.04554655       0.05815069      -0.93047830 </v>
   <v>       0.44029220      -0.70367836       0.77838142 </v>
   <v>       0.28271619       0.72468955       2.09965520 </v>
   <v>      -0.56590378       0.00607839       0.45109652 </v>
   <v>      -0.64773943      -1.54778437       2.05001275 </v>
   <v>      -0.10472264      -0.18629285       0.17286176 </v>
   <v>      -0.07101811      -0.19661844      -0.05127800 </v>
   <v>       0.25959756      -0.63908701       0.60148992 </v>
   <v>      -0.03517278      -0.13145535      -0.06611549 </v>
   <v>       0.23471879       0.51445172       0.49234221 </v>
   <v>       1.65265470       0.16616796       0.70479769 </v>
   <v>       0.58116832      -0.86080700       1.39685016 </v>
   <v>      -0.06112943       0.12476131      -0.95497313 </v>
   <v>       0.46044294      -0.67963933       0.84882744 </v>
   <v>       0.25953330      -0.25898038      -0.20132687 </v>
   <v>      -0.51193641      -0.00495439       0.52021326 </v>
   <v>       0.11513837      -0.91478913       0.55403883 </v>
   <v>       0.21970395       0.24085510       0.06203006 </v>
   <v>       0.09609842      -0.00948735      -0.08214000 </v>
   <v>       0.06869162       0.07004805       0.43236154 </v>
   <v>       0.10377167      -0.02191143      -0.01864709 </v>
   <v>       0.23876649       0.46581049       0.47925307 </v>
   <v>      -1.36549127       0.59040514       0.13311003 </v>
   <v>       0.04313228       0.19467331       0.04311218 </v>
   <v>      -0.02484565       0.10142512      -0.97150781 </v>
   <v>       0.48607126      -0.74418362       0.79909675 </v>
   <v>      -0.52538698       1.02162313       2.07454207 </v>
   <v>      -0.54148875       0.01223541       0.45714435 </v>
   <v>      -0.26242123      -1.13162620       1.98335814 </v>
   <v>      -0.27351010      -0.13703721       0.32647222 </v>
   <v>      -0.02886295      -0.14334856      -0.12002124 </v>
   <v>      -0.17458612      -0.24508694       1.13065355 </v>
   <v>      -0.03583580      -0.09529309       0.02146942 </v>
   <v>       0.26838505       0.51955165       0.46152005 </v>
   <v>       0.07886801       1.04197873       2.52088763 </v>
   <v>      -0.07930468      -0.07668949       0.85929530 </v>
   <v>       0.50054961      -0.74344522      -3.13198544 </v>
   <v>       0.88812746      -1.74976874      -0.08231104 </v>
   <v>       0.21256678      -0.28528199       2.72500332 </v>
   <v>       0.09251567       1.04656276      -0.09805070 </v>
   <v>      -0.06412354      -0.03282901      -0.14910300 </v>
   <v>       0.90753034       0.49888359      -0.43377161 </v>
   <v>      -2.27744860      -2.10087839       0.60066499 </v>
   <v>       0.08406108       0.01360872       0.04470892 </v>
   <v>      -0.92773449       0.32531957      -0.16379669 </v>
   <v>       0.05056507      -0.14917943       0.33277490 </v>
   <v>       0.46286281      -0.73844636      -3.12062823 </v>
   <v>       1.12769160      -0.24425874      -4.02822339 </v>
   <v>      -0.62802795       0.11454162      -0.88687321 </v>
   <v>       0.17922342      -0.29943226       2.75813385 </v>
   <v>       0.18532339       0.99896000      -0.12006263 </v>
   <v>      -0.05567576      -0.01703451      -0.06111482 </v>
   <v>      -0.01566476       1.08329239      -2.21135069 </v>
   <v>       0.18618173      -0.02929410       0.57054114 </v>
   <v>      -0.82582443       0.55218785      -3.16209313 </v>
   <v>      -0.02156069      -0.21595576       0.79247287 </v>
   <v>      -0.03722214       0.06403980       0.02604009 </v>
   <v>      -0.98429709       0.37521606      -0.05631614 </v>
   <v>       0.13361229       0.27905170       1.45552853 </v>
   <v>       0.50252675      -0.70075673      -3.14955409 </v>
   <v>       0.03306706      -0.45940116      -0.02331497 </v>
   <v>       0.20010364      -0.28618890       2.70813372 </v>
   <v>       0.08441070       1.07839690      -0.07472659 </v>
   <v>       0.06069052      -0.16855699      -0.04783916 </v>
   <v>       0.33754192       0.42925594      -2.84066770 </v>
   <v>       1.00538265       2.10496672       2.61324355 </v>
   <v>       1.64181549       0.82654443      -2.48698498 </v>
   <v>      -0.29918784       0.58068368       0.73584307 </v>
   <v>       0.00503185       0.01895796      -0.00509761 </v>
   <v>      -0.96312610       0.30096640      -0.14190384 </v>
   <v>      -0.01542085      -0.05314644       0.09668791 </v>
   <v>       0.43897981      -0.73156792      -3.11729230 </v>
   <v>       0.58836207      -0.75495904      -3.96187101 </v>
   <v>      -1.31550361       1.23767862      -0.95121558 </v>
   <v>       0.15337240      -0.27575895       2.75215102 </v>
   <v>       0.11834186       0.99819496      -0.12052752 </v>
   <v>      -0.02162370      -0.02836864       0.02229048 </v>
   <v>       0.52518510       0.27418262      -2.31816205 </v>
   <v>      -0.13220066       0.96963733       1.95718036 </v>
   <v>      -1.49155947       1.02879188      -3.56483725 </v>
   <v>       0.38366257      -0.29941181       1.03158972 </v>
   <v>      -0.07614050       0.13322012       0.00959322 </v>
   <v>      -0.97783438       0.36909933      -0.07673056 </v>
  </varray>
  <varray name="stress" >
   <v>      62.95539138      -2.97399603      -0.13763566 </v>
   <v>      -2.97399531      70.79997422      -4.11147208 </v>
   <v>      -0.13763579      -4.11147238      69.71249398 </v>
  </varray>
  <energy>
   <i name="e_fr_energy">   -473.60651481 </i>
   <i name="e_wo_entrp">   -473.02032445 </i>
   <i name="e_0_energy">     -1.17238072 </i>
  </energy>
  <time name="totalsc">  544.74  544.86</time>
  <eigenvalues>
   <array>
    <dimension dim="1">band</dimension>
    <dimension dim="2">kpoint</dimension>
    <dimension dim="3">spin</dimension>
    <field>eigene</field>
    <field>occ</field>
    <set>
     <set comment="spin 1">
      <set comment="kpoint 1">
       <r>  -63.1038    1.0000 </r>
       <r>  -63.1024    1.0000 </r>
       <r>  -63.0454    1.0000 </r>
       <r>  -62.9550    1.0000 </r>
       <r>  -62.9497    1.0000 </r>
       <r>  -62.9283    1.0000 </r>
       <r>  -62.9212    1.0000 </r>
       <r>  -62.9150    1.0000 </r>
       <r>  -62.9091    1.0000 </r>
       <r>  -62.9081    1.0000 </r>
       <r>  -62.9050    1.0000 </r>
       <r>  -62.9040    1.0000 </r>
       <r>  -62.8883    1.0000 </r>
       <r>  -62.8830    1.0000 </r>
       <r>  -62.8778    1.0000 </r>
       <r>  -62.8740    1.0000 </r>
       <r>  -62.8723    1.0000 </r>
       <r>  -62.8711    1.0000 </r>
       <r>  -62.8668    1.0000 </r>
       <r>  -62.8404    1.0000 </r>
       <r>  -62.8355    1.0000 </r>
       <r>  -62.7712    1.0000 </r>
       <r>  -62.7373    1.0000 </r>
       <r>  -62.7249    1.0000 </r>
       <r>  -62.7063    1.0000 </r>
       <r>  -62.6903    1.0000 </r>
       <r>  -62.6882    1.0000 </r>
       <r>  -62.6866    1.0000 </r>
       <r>  -62.6382    1.0000 </r>
       <r>  -62.6264    1.0000 </r>
       <r>  -62.6226    1.0000 </r>
       <r>  -62.6224    1.0000 </r>
       <r>  -62.6207    1.0000 </r>
       <r>  -62.6147    1.0000 </r>
       <r>  -62.6085    1.0000 </r>
       <r>  -62.6081    1.0000 </r>
       <r>  -62.6052    1.0000 </r>
       <r>  -62.5936    1.0000 </r>
       <r>  -62.5932    1.0000 </r>
       <r>  -62.5892    1.0000 </r>
       <r>  -62.5786    1.0000 </r>
       <r>  -62.5747    1.0000 </r>
       <r>  -62.5299    1.0000 </r>
       <r>  -62.5125    1.0000 </r>
       <r>  -62.4969    1.0000 </r>
       <r>  -62.4935    1.0000 </r>
       <r>  -62.4613    1.0000 </r>
       <r>  -62.4597    1.0000 </r>
       <r>  -62.4496    1.0000 </r>
       <r>  -62.4491    1.0000 </r>
       <r>  -62.4451    1.0000 </r>
       <r>  -62.4442    1.0000 </r>
       <r>  -62.4406    1.0000 </r>
       <r>  -62.4375    1.0000 </r>
       <r>  -62.4333    1.0000 </r>
       <r>  -62.4259    1.0000 </r>
       <r>  -62.4232    1.0000 </r>
       <r>  -62.4222    1.0000 </r>
       <r>  -62.4200    1.0000 </r>
       <r>  -62.4191    1.0000 </r>
       <r>  -62.4169    1.0000 </r>
       <r>  -62.4160    1.0000 </r>
       <r>  -62.4153    1.0000 </r>
       <r>  -62.4124    1.0000 </r>
       <r>  -62.4119    1.0000 </r>
       <r>  -62.4117    1.0000 </r>
       <r>  -62.4067    1.0000 </r>
       <r>  -62.4059    1.0000 </r>
       <r>  -62.4057    1.0000 </r>
       <r>  -62.4055    1.0000 </r>
       <r>  -62.4045    1.0000 </r>
       <r>  -62.4008    1.0000 </r>
       <r>  -62.3999    1.0000 </r>
       <r>  -62.3998    1.0000 </r>
       <r>  -62.3980    1.0000 </r>
       <r>  -62.3903    1.0000 </r>
       <r>  -62.3896    1.0000 </r>
       <r>  -62.3882    1.0000 </r>
       <r>  -62.3875    1.0000 </r>
       <r>  -62.3869    1.0000 </r>
       <r>  -62.3805    1.0000 </r>
       <r>  -62.3780    1.0000 </r>
       <r>  -62.3763    1.0000 </r>
       <r>  -62.3585    1.0000 </r>
       <r>  -62.3520    1.0000 </r>
       <r>  -62.3515    1.0000 </r>
       <r>  -62.3513    1.0000 </r>
       <r>  -62.3489    1.0000 </r>
       <r>  -62.3408    1.0000 </r>
       <r>  -62.3343    1.0000 </r>
       <r>  -62.3287    1.0000 </r>
       <r>  -62.3257    1.0000 </r>
       <r>  -62.3234    1.0000 </r>
       <r>  -62.3197    1.0000 </r>
       <r>  -62.3193    1.0000 </r>
       <r>  -62.3170    1.0000 </r>
       <r>  -62.3168    1.0000 </r>
       <r>  -62.3127    1.0000 </r>
       <r>  -62.3127    1.0000 </r>
       <r>  -62.3119    1.0000 </r>
       <r>  -62.3095    1.0000 </r>
       <r>  -62.3044    1.0000 </r>
       <r>  -62.2939    1.0000 </r>
       <r>  -62.2905    1.0000 </r>
       <r>  -62.2826    1.0000 </r>
       <r>  -62.2511    1.0000 </r>
       <r>  -62.2479    1.0000 </r>
       <r>  -62.2333    1.0000 </r>
       <r>  -62.2328    1.0000 </r>
       <r>  -62.2287    1.0000 </r>
       <r>  -62.2262    1.0000 </r>
       <r>  -62.2254    1.0000 </r>
       <r>  -62.2169    1.0000 </r>
       <r>  -62.2134    1.0000 </r>
       <r>  -62.2010    1.0000 </r>
       <r>  -62.1996    1.0000 </r>
       <r>  -62.1932    1.0000 </r>
       <r>  -62.1909    1.0000 </r>
       <r>  -62.1892    1.0000 </r>
       <r>  -62.1846    1.0000 </r>
       <r>  -62.1759    1.0000 </r>
       <r>  -62.1684    1.0000 </r>
       <r>  -62.1682    1.0000 </r>
       <r>  -62.1669    1.0000 </r>
       <r>  -62.1648    1.0000 </r>
       <r>  -62.1599    1.0000 </r>
       <r>  -62.1541    1.0000 </r>
       <r>  -62.1518    1.0000 </r>
       <r>  -62.1502    1.0000 </r>
       <r>  -62.1433    1.0000 </r>
       <r>  -62.1385    1.0000 </r>
       <r>  -62.1379    1.0000 </r>
       <r>  -62.1310    1.0000 </r>
       <r>  -62.1251    1.0000 </r>
       <r>  -62.1222    1.0000 </r>
       <r>  -62.1135    1.0000 </r>
       <r>  -62.1129    1.0000 </r>
       <r>  -62.1082    1.0000 </r>
       <r>  -62.0840    1.0000 </r>
       <r>  -62.0678    1.0000 </r>
       <r>  -61.6273    1.0000 </r>
       <r>  -61.6241    1.0000 </r>
       <r>  -61.6230    1.0000 </r>
       <r>  -61.6186    1.0000 </r>
       <r>  -14.7834    1.0000 </r>
       <r>  -14.2128    1.0000 </r>
       <r>  -14.0255    1.0000 </r>
       <r>  -13.7677    1.0000 </r>
       <r>  -13.6297    1.0000 </r>
       <r>  -13.6109    1.0000 </r>
       <r>  -13.5880    1.0000 </r>
       <r>  -13.3966    1.0000 </r>
       <r>  -13.3239    1.0000 </r>
       <r>  -13.2529    1.0000 </r>
       <r>  -13.1710    1.0000 </r>
       <r>  -13.1276    1.0000 </r>
       <r>  -13.0472    1.0000 </r>
       <r>  -12.9904    1.0000 </r>
       <r>  -12.8328    1.0000 </r>
       <r>  -12.8028    1.0000 </r>
       <r>  -12.7300    1.0000 </r>
       <r>  -12.6139    1.0000 </r>
       <r>  -12.5705    1.0000 </r>
       <r>  -12.5384    1.0000 </r>
       <r>  -12.4988    1.0000 </r>
       <r>  -12.4855    1.0000 </r>
       <r>  -12.4664    1.0000 </r>
       <r>  -12.4216    1.0000 </r>
       <r>  -12.3725    1.0000 </r>
       <r>  -12.3512    1.0000 </r>
       <r>  -12.3221    1.0000 </r>
       <r>  -12.2017    1.0000 </r>
       <r>  -12.1842    1.0000 </r>
       <r>  -12.1148    1.0000 </r>
       <r>  -12.0935    1.0000 </r>
       <r>  -12.0634    1.0000 </r>
       <r>  -11.9965    1.0000 </r>
       <r>  -11.9160    1.0000 </r>
       <r>  -11.8350    1.0000 </r>
       <r>  -11.7409    1.0000 </r>
       <r>  -11.7180    1.0000 </r>
       <r>  -11.6431    1.0000 </r>
       <r>  -11.6041    1.0000 </r>
       <r>  -11.5977    1.0000 </r>
       <r>  -11.5911    1.0000 </r>
       <r>  -11.5622    1.0000 </r>
       <r>  -11.5531    1.0000 </r>
       <r>  -11.5075    1.0000 </r>
       <r>  -11.4602    1.0000 </r>
       <r>  -11.3298    1.0000 </r>
       <r>  -11.0638    1.0000 </r>
       <r>  -10.9679    1.0000 </r>
       <r>   -6.5790    1.0000 </r>
       <r>   -6.3233    1.0000 </r>
       <r>   -6.1697    1.0000 </r>
       <r>   -6.1327    1.0000 </r>
       <r>   -6.0332    1.0000 </r>
       <r>   -5.9392    1.0000 </r>
       <r>   -5.8521    1.0000 </r>
       <r>   -5.8309    1.0000 </r>
       <r>   -5.7069    1.0000 </r>
       <r>   -5.6940    1.0000 </r>
       <r>   -5.6035    1.0000 </r>
       <r>   -5.5107    1.0000 </r>
       <r>   -5.4486    1.0000 </r>
       <r>   -5.4286    1.0000 </r>
       <r>   -5.3625    1.0000 </r>
       <r>   -5.3395    1.0000 </r>
       <r>   -5.2763    1.0000 </r>
       <r>   -5.2596    1.0000 </r>
       <r>   -5.1476    1.0000 </r>
       <r>   -5.1214    1.0000 </r>
       <r>   -5.1170    1.0000 </r>
       <r>   -5.0651    1.0000 </r>
       <r>   -5.0197    1.0000 </r>
       <r>   -5.0089    1.0000 </r>
       <r>   -4.9980    1.0000 </r>
       <r>   -4.9797    1.0000 </r>
       <r>   -4.9668    1.0000 </r>
       <r>   -4.9591    1.0000 </r>
       <r>   -4.8416    1.0000 </r>
       <r>   -4.8213    1.0000 </r>
       <r>   -4.7954    1.0000 </r>
       <r>   -4.7535    1.0000 </r>
       <r>   -4.7278    1.0000 </r>
       <r>   -4.7116    1.0000 </r>
       <r>   -4.6629    1.0000 </r>
       <r>   -4.6197    1.0000 </r>
       <r>   -4.5651    1.0000 </r>
       <r>   -4.4709    1.0000 </r>
       <r>   -4.4616    1.0000 </r>
       <r>   -4.4314    1.0000 </r>
       <r>   -4.3988    1.0000 </r>
       <r>   -4.3872    1.0000 </r>
       <r>   -4.3399    1.0000 </r>
       <r>   -4.3189    1.0000 </r>
       <r>   -4.3059    1.0000 </r>
       <r>   -4.2880    1.0000 </r>
       <r>   -4.2375    1.0000 </r>
       <r>   -4.2231    1.0000 </r>
       <r>   -4.1687    1.0000 </r>
       <r>   -4.1392    1.0000 </r>
       <r>   -4.1224    1.0000 </r>
       <r>   -4.1134    1.0000 </r>
       <r>   -4.0926    1.0000 </r>
       <r>   -4.0558    1.0000 </r>
       <r>   -4.0103    1.0000 </r>
       <r>   -3.9415    1.0000 </r>
       <r>   -3.9114    1.0000 </r>
       <r>   -3.8806    1.0000 </r>
       <r>   -3.8511    1.0000 </r>
       <r>   -3.8288    1.0000 </r>
       <r>   -3.7847    1.0000 </r>
       <r>   -3.7583    1.0000 </r>
       <r>   -3.7317    1.0000 </r>
       <r>   -3.7171    1.0000 </r>
       <r>   -3.6564    1.0000 </r>
       <r>   -3.6202    1.0000 </r>
       <r>   -3.5959    1.0000 </r>
       <r>   -3.5669    1.0000 </r>
       <r>   -3.5454    1.0000 </r>
       <r>   -3.5236    1.0000 </r>
       <r>   -3.5020    1.0000 </r>
       <r>   -3.4877    1.0000 </r>
       <r>   -3.4719    1.0000 </r>
       <r>   -3.4566    1.0000 </r>
       <r>   -3.4331    1.0000 </r>
       <r>   -3.4090    1.0000 </r>
       <r>   -3.4006    1.0000 </r>
       <r>   -3.3882    1.0000 </r>
       <r>   -3.3586    1.0000 </r>
       <r>   -3.3436    1.0000 </r>
       <r>   -3.3373    1.0000 </r>
       <r>   -3.3280    1.0000 </r>
       <r>   -3.3073    1.0000 </r>
       <r>   -3.2677    1.0000 </r>
       <r>   -3.2525    1.0000 </r>
       <r>   -3.2306    1.0000 </r>
       <r>   -3.2197    1.0000 </r>
       <r>   -3.2111    1.0000 </r>
       <r>   -3.1817    1.0000 </r>
       <r>   -3.1594    1.0000 </r>
       <r>   -3.1371    1.0000 </r>
       <r>   -3.0968    1.0000 </r>
       <r>   -3.0643    1.0000 </r>
       <r>   -3.0265    1.0000 </r>
       <r>   -2.9977    1.0000 </r>
       <r>   -2.9658    1.0000 </r>
       <r>   -2.9584    1.0000 </r>
       <r>   -2.9349    1.0000 </r>
       <r>   -2.9205    1.0000 </r>
       <r>   -2.8988    1.0000 </r>
       <r>   -2.8847    1.0000 </r>
       <r>   -2.8690    1.0000 </r>
       <r>   -2.8364    1.0000 </r>
       <r>   -2.8179    1.0000 </r>
       <r>   -2.7989    1.0000 </r>
       <r>   -2.7488    1.0000 </r>
       <r>   -2.7290    1.0000 </r>
       <r>   -2.7040    1.0000 </r>
       <r>   -2.6810    1.0000 </r>
       <r>   -2.6655    1.0000 </r>
       <r>   -2.6581    1.0000 </r>
       <r>   -2.6225    1.0000 </r>
       <r>   -2.5903    1.0000 </r>
       <r>   -2.5642    1.0000 </r>
       <r>   -2.5407    1.0000 </r>
       <r>   -2.5098    1.0000 </r>
       <r>   -2.5010    1.0000 </r>
       <r>   -2.4765    1.0000 </r>
       <r>   -2.4497    1.0000 </r>
       <r>   -2.4351    1.0000 </r>
       <r>   -2.4002    1.0000 </r>
       <r>   -2.3753    1.0000 </r>
       <r>   -2.3645    1.0000 </r>
       <r>   -2.3457    1.0000 </r>
       <r>   -2.2684    1.0000 </r>
       <r>   -2.2421    1.0000 </r>
       <r>   -2.1921    1.0000 </r>
       <r>   -2.1875    1.0000 </r>
       <r>   -2.1457    1.0000 </r>
       <r>   -2.1360    1.0000 </r>
       <r>   -2.0905    1.0000 </r>
       <r>   -2.0085    1.0000 </r>
       <r>   -1.9689    1.0000 </r>
       <r>   -1.9117    1.0000 </r>
       <r>   -1.8779    1.0000 </r>
       <r>   -1.8606    1.0000 </r>
       <r>   -1.8258    1.0000 </r>
       <r>   -1.7723    1.0000 </r>
       <r>   -1.7663    1.0000 </r>
       <r>   -1.7212    1.0000 </r>
       <r>   -1.6585    1.0000 </r>
       <r>   -1.6506    1.0000 </r>
       <r>   -1.6173    1.0000 </r>
       <r>   -1.6051    1.0000 </r>
       <r>   -1.5876    1.0000 </r>
       <r>   -1.5125    1.0000 </r>
       <r>   -1.4783    1.0000 </r>
       <r>   -1.4624    1.0000 </r>
       <r>   -1.4453    1.0000 </r>
       <r>   -1.3833    1.0000 </r>
       <r>   -1.3764    1.0000 </r>
       <r>   -1.3611    1.0000 </r>
       <r>   -1.3500    1.0000 </r>
       <r>   -1.3186    1.0000 </r>
       <r>   -1.3132    1.0000 </r>
       <r>   -1.2585    1.0000 </r>
       <r>   -1.2414    1.0000 </r>
       <r>   -1.2266    1.0000 </r>
       <r>   -1.1762    1.0000 </r>
       <r>   -1.1722    1.0000 </r>
       <r>   -1.1591    1.0000 </r>
       <r>   -1.1460    1.0000 </r>
       <r>   -1.1058    1.0000 </r>
       <r>   -1.0700    1.0000 </r>
       <r>   -1.0581    1.0000 </r>
       <r>   -1.0425    1.0000 </r>
       <r>   -1.0289    1.0000 </r>
       <r>   -1.0243    1.0000 </r>
       <r>   -1.0140    1.0000 </r>
       <r>   -1.0018    1.0000 </r>
       <r>   -0.9995    1.0000 </r>
       <r>   -0.9821    1.0000 </r>
       <r>   -0.9684    1.0000 </r>
       <r>   -0.9376    1.0000 </r>
       <r>   -0.9249    1.0000 </r>
       <r>   -0.9229    1.0000 </r>
       <r>   -0.9131    1.0000 </r>
       <r>   -0.8956    1.0000 </r>
       <r>   -0.8842    1.0000 </r>
       <r>   -0.8792    1.0000 </r>
       <r>   -0.8706    1.0000 </r>
       <r>   -0.8460    1.0000 </r>
       <r>   -0.8324    1.0000 </r>
       <r>   -0.8206    1.0000 </r>
       <r>   -0.8033    1.0000 </r>
       <r>   -0.7952    1.0000 </r>
       <r>   -0.7648    1.0000 </r>
       <r>   -0.7609    1.0000 </r>
       <r>   -0.7491    1.0000 </r>
       <r>   -0.7247    1.0000 </r>
       <r>   -0.7007    1.0000 </r>
       <r>   -0.6875    1.0000 </r>
       <r>   -0.6726    1.0000 </r>
       <r>   -0.6597    1.0000 </r>
       <r>   -0.6443    1.0000 </r>
       <r>   -0.6399    1.0000 </r>
       <r>   -0.6194    1.0000 </r>
       <r>   -0.5967    1.0000 </r>
       <r>   -0.5927    1.0000 </r>
       <r>   -0.5732    1.0000 </r>
       <r>   -0.5634    1.0000 </r>
       <r>   -0.5577    1.0000 </r>
       <r>   -0.5465    1.0000 </r>
       <r>   -0.5353    1.0000 </r>
       <r>   -0.5111    1.0000 </r>
       <r>   -0.5012    1.0000 </r>
       <r>   -0.4874    1.0000 </r>
       <r>   -0.4725    1.0000 </r>
       <r>   -0.4470    1.0000 </r>
       <r>   -0.4346    1.0000 </r>
       <r>   -0.4317    1.0000 </r>
       <r>   -0.4134    1.0000 </r>
       <r>   -0.4122    1.0000 </r>
       <r>   -0.4075    1.0000 </r>
       <r>   -0.3854    1.0000 </r>
       <r>   -0.3738    1.0000 </r>
       <r>   -0.3648    1.0000 </r>
       <r>   -0.3440    1.0000 </r>
       <r>   -0.3389    1.0000 </r>
       <r>   -0.3309    1.0000 </r>
       <r>   -0.3124    1.0000 </r>
       <r>   -0.3098    1.0000 </r>
       <r>   -0.2953    1.0000 </r>
       <r>   -0.2819    1.0000 </r>
       <r>   -0.2690    1.0000 </r>
       <r>   -0.2651    1.0000 </r>
       <r>   -0.2504    1.0000 </r>
       <r>   -0.2298    1.0000 </r>
       <r>   -0.2217    1.0000 </r>
       <r>   -0.2117    1.0000 </r>
       <r>   -0.2077    1.0000 </r>
       <r>   -0.2013    1.0000 </r>
       <r>   -0.1804    1.0000 </r>
       <r>   -0.1743    1.0000 </r>
       <r>   -0.1645    1.0000 </r>
       <r>   -0.1471    1.0000 </r>
       <r>   -0.1372    1.0000 </r>
       <r>   -0.1268    1.0000 </r>
       <r>   -0.1188    1.0000 </r>
       <r>   -0.1096    1.0000 </r>
       <r>   -0.0959    1.0000 </r>
       <r>   -0.0829    1.0000 </r>
       <r>   -0.0807    1.0000 </r>
       <r>   -0.0711    1.0000 </r>
       <r>   -0.0648    1.0000 </r>
       <r>   -0.0598    1.0000 </r>
       <r>   -0.0423    1.0000 </r>
       <r>   -0.0351    1.0000 </r>
       <r>   -0.0231    1.0000 </r>
       <r>   -0.0154    1.0000 </r>
       <r>    0.0084    1.0000 </r>
       <r>    0.0160    1.0000 </r>
       <r>    0.0239    1.0000 </r>
       <r>    0.0287    1.0000 </r>
       <r>    0.0349    1.0000 </r>
       <r>    0.0397    1.0000 </r>
       <r>    0.0517    1.0000 </r>
       <r>    0.0676    1.0000 </r>
       <r>    0.0738    1.0000 </r>
       <r>    0.0844    1.0000 </r>
       <r>    0.1025    1.0000 </r>
       <r>    0.1060    1.0000 </r>
       <r>    0.1215    1.0000 </r>
       <r>    0.1453    1.0000 </r>
       <r>    0.1544    1.0000 </r>
       <r>    0.1636    1.0000 </r>
       <r>    0.1710    1.0000 </r>
       <r>    0.1985    1.0000 </r>
       <r>    0.2133    1.0000 </r>
       <r>    0.2351    1.0000 </r>
       <r>    0.2383    1.0000 </r>
       <r>    0.2526    1.0000 </r>
       <r>    0.2756    1.0000 </r>
       <r>    0.2945    1.0000 </r>
       <r>    0.3072    1.0000 </r>
       <r>    0.3189    1.0000 </r>
       <r>    0.3334    1.0000 </r>
       <r>    0.3379    1.0000 </r>
       <r>    0.3526    1.0000 </r>
       <r>    0.3552    1.0000 </r>
       <r>    0.3611    1.0000 </r>
       <r>    0.3832    1.0000 </r>
       <r>    0.4118    1.0000 </r>
       <r>    0.4125    1.0000 </r>
       <r>    0.4359    1.0000 </r>
       <r>    0.4489    1.0000 </r>
       <r>    0.4554    1.0000 </r>
       <r>    0.4714    1.0000 </r>
       <r>    0.4980    1.0000 </r>
       <r>    0.5241    1.0000 </r>
       <r>    0.5365    1.0000 </r>
       <r>    0.5427    1.0000 </r>
       <r>    0.5642    1.0000 </r>
       <r>    0.5834    1.0000 </r>
       <r>    0.6224    1.0000 </r>
       <r>    0.6267    1.0000 </r>
       <r>    0.6418    1.0000 </r>
       <r>    0.6650    1.0000 </r>
       <r>    0.6786    1.0000 </r>
       <r>    0.7087    1.0000 </r>
       <r>    0.7313    1.0000 </r>
       <r>    0.7504    1.0000 </r>
       <r>    0.7812    1.0000 </r>
       <r>    0.7905    1.0000 </r>
       <r>    0.8084    1.0000 </r>
       <r>    0.8646    1.0000 </r>
       <r>    0.8823    1.0000 </r>
       <r>    0.9049    1.0000 </r>
       <r>    0.9265    1.0000 </r>
       <r>    0.9611    1.0000 </r>
       <r>    0.9643    1.0000 </r>
       <r>    0.9900    1.0000 </r>
       <r>    1.0013    1.0000 </r>
       <r>    1.0146    1.0000 </r>
       <r>    1.0308    1.0000 </r>
       <r>    1.0397    1.0000 </r>
       <r>    1.1011    1.0000 </r>
       <r>    1.1110    1.0000 </r>
       <r>    1.1524    0.9999 </r>
       <r>    1.2019    0.9995 </r>
       <r>    1.2195    0.9992 </r>
       <r>    1.2475    0.9985 </r>
       <r>    1.2562    0.9982 </r>
       <r>    1.2845    0.9967 </r>
       <r>    1.2922    0.9961 </r>
       <r>    1.3251    0.9923 </r>
       <r>    1.3608    0.9851 </r>
       <r>    1.3906    0.9751 </r>
       <r>    1.4085    0.9667 </r>
       <r>    1.4408    0.9459 </r>
       <r>    1.4651    0.9243 </r>
       <r>    1.4864    0.9003 </r>
       <r>    1.5016    0.8803 </r>
       <r>    1.5752    0.7441 </r>
       <r>    1.6227    0.6256 </r>
       <r>    1.6538    0.5398 </r>
       <r>    1.7251    0.3432 </r>
       <r>    1.7578    0.2627 </r>
       <r>    1.7670    0.2418 </r>
       <r>    1.7903    0.1934 </r>
       <r>    1.8174    0.1454 </r>
       <r>    1.8473    0.1024 </r>
       <r>    1.8625    0.0845 </r>
[...]
       <r>   -58.5788     0.0000   288.0000 </r>
       <r>   -58.3182     0.0000   288.0000 </r>
       <r>   -58.0576     0.0000   288.0000 </r>
       <r>   -57.7970     0.0000   288.0000 </r>
       <r>   -57.5364     0.0000   288.0000 </r>
       <r>   -57.2758     0.0000   288.0000 </r>
       <r>   -57.0152     0.0000   288.0000 </r>
       <r>   -56.7546     0.0000   288.0000 </r>
       <r>   -56.4940     0.0000   288.0000 </r>
       <r>   -56.2334     0.0000   288.0000 </r>
       <r>   -55.9728     0.0000   288.0000 </r>
       <r>   -55.7122     0.0000   288.0000 </r>
       <r>   -55.4516     0.0000   288.0000 </r>
       <r>   -55.1910     0.0000   288.0000 </r>
       <r>   -54.9304     0.0000   288.0000 </r>
       <r>   -54.6698     0.0000   288.0000 </r>
       <r>   -54.4092     0.0000   288.0000 </r>
       <r>   -54.1486     0.0000   288.0000 </r>
       <r>   -53.8879     0.0000   288.0000 </r>
       <r>   -53.6273     0.0000   288.0000 </r>
       <r>   -53.3667     0.0000   288.0000 </r>
       <r>   -53.1061     0.0000   288.0000 </r>
       <r>   -52.8455     0.0000   288.0000 </r>
       <r>   -52.5849     0.0000   288.0000 </r>
       <r>   -52.3243     0.0000   288.0000 </r>
       <r>   -52.0637     0.0000   288.0000 </r>
       <r>   -51.8031     0.0000   288.0000 </r>
       <r>   -51.5425     0.0000   288.0000 </r>
       <r>   -51.2819     0.0000   288.0000 </r>
       <r>   -51.0213     0.0000   288.0000 </r>
       <r>   -50.7607     0.0000   288.0000 </r>
       <r>   -50.5001     0.0000   288.0000 </r>
       <r>   -50.2395     0.0000   288.0000 </r>
       <r>   -49.9789     0.0000   288.0000 </r>
       <r>   -49.7183     0.0000   288.0000 </r>
       <r>   -49.4577     0.0000   288.0000 </r>
       <r>   -49.1971     0.0000   288.0000 </r>
       <r>   -48.9365     0.0000   288.0000 </r>
       <r>   -48.6759     0.0000   288.0000 </r>
       <r>   -48.4153     0.0000   288.0000 </r>
       <r>   -48.1547     0.0000   288.0000 </r>
       <r>   -47.8941     0.0000   288.0000 </r>
       <r>   -47.6335     0.0000   288.0000 </r>
       <r>   -47.3729     0.0000   288.0000 </r>
       <r>   -47.1123     0.0000   288.0000 </r>
       <r>   -46.8517     0.0000   288.0000 </r>
       <r>   -46.5911     0.0000   288.0000 </r>
       <r>   -46.3305     0.0000   288.0000 </r>
       <r>   -46.0699     0.0000   288.0000 </r>
       <r>   -45.8093     0.0000   288.0000 </r>
       <r>   -45.5487     0.0000   288.0000 </r>
       <r>   -45.2881     0.0000   288.0000 </r>
       <r>   -45.0275     0.0000   288.0000 </r>
       <r>   -44.7669     0.0000   288.0000 </r>
       <r>   -44.5063     0.0000   288.0000 </r>
       <r>   -44.2457     0.0000   288.0000 </r>
       <r>   -43.9851     0.0000   288.0000 </r>
       <r>   -43.7245     0.0000   288.0000 </r>
       <r>   -43.4639     0.0000   288.0000 </r>
       <r>   -43.2033     0.0000   288.0000 </r>
       <r>   -42.9427     0.0000   288.0000 </r>
       <r>   -42.6821     0.0000   288.0000 </r>
       <r>   -42.4215     0.0000   288.0000 </r>
       <r>   -42.1609     0.0000   288.0000 </r>
       <r>   -41.9003     0.0000   288.0000 </r>
       <r>   -41.6397     0.0000   288.0000 </r>
       <r>   -41.3791     0.0000   288.0000 </r>
       <r>   -41.1185     0.0000   288.0000 </r>
       <r>   -40.8579     0.0000   288.0000 </r>
       <r>   -40.5973     0.0000   288.0000 </r>
       <r>   -40.3367     0.0000   288.0000 </r>
       <r>   -40.0761     0.0000   288.0000 </r>
       <r>   -39.8155     0.0000   288.0000 </r>
       <r>   -39.5549     0.0000   288.0000 </r>
       <r>   -39.2943     0.0000   288.0000 </r>
       <r>   -39.0337     0.0000   288.0000 </r>
       <r>   -38.7731     0.0000   288.0000 </r>
       <r>   -38.5125     0.0000   288.0000 </r>
       <r>   -38.2519     0.0000   288.0000 </r>
       <r>   -37.9913     0.0000   288.0000 </r>
       <r>   -37.7307     0.0000   288.0000 </r>
       <r>   -37.4701     0.0000   288.0000 </r>
       <r>   -37.2095     0.0000   288.0000 </r>
       <r>   -36.9489     0.0000   288.0000 </r>
       <r>   -36.6883     0.0000   288.0000 </r>
       <r>   -36.4277     0.0000   288.0000 </r>
       <r>   -36.1671     0.0000   288.0000 </r>
       <r>   -35.9065     0.0000   288.0000 </r>
       <r>   -35.6459     0.0000   288.0000 </r>
       <r>   -35.3853     0.0000   288.0000 </r>
       <r>   -35.1247     0.0000   288.0000 </r>
       <r>   -34.8641     0.0000   288.0000 </r>
       <r>   -34.6035     0.0000   288.0000 </r>
       <r>   -34.3429     0.0000   288.0000 </r>
       <r>   -34.0823     0.0000   288.0000 </r>
       <r>   -33.8217     0.0000   288.0000 </r>
       <r>   -33.5611     0.0000   288.0000 </r>
       <r>   -33.3005     0.0000   288.0000 </r>
       <r>   -33.0399     0.0000   288.0000 </r>
       <r>   -32.7793     0.0000   288.0000 </r>
       <r>   -32.5187     0.0000   288.0000 </r>
       <r>   -32.2581     0.0000   288.0000 </r>
       <r>   -31.9975     0.0000   288.0000 </r>
       <r>   -31.7369     0.0000   288.0000 </r>
       <r>   -31.4763     0.0000   288.0000 </r>
       <r>   -31.2157     0.0000   288.0000 </r>
       <r>   -30.9551     0.0000   288.0000 </r>
       <r>   -30.6945     0.0000   288.0000 </r>
       <r>   -30.4338     0.0000   288.0000 </r>
       <r>   -30.1732     0.0000   288.0000 </r>
       <r>   -29.9126     0.0000   288.0000 </r>
       <r>   -29.6520     0.0000   288.0000 </r>
       <r>   -29.3914     0.0000   288.0000 </r>
       <r>   -29.1308     0.0000   288.0000 </r>
       <r>   -28.8702     0.0000   288.0000 </r>
       <r>   -28.6096     0.0000   288.0000 </r>
       <r>   -28.3490     0.0000   288.0000 </r>
       <r>   -28.0884     0.0000   288.0000 </r>
       <r>   -27.8278     0.0000   288.0000 </r>
       <r>   -27.5672     0.0000   288.0000 </r>
       <r>   -27.3066     0.0000   288.0000 </r>
       <r>   -27.0460     0.0000   288.0000 </r>
       <r>   -26.7854     0.0000   288.0000 </r>
       <r>   -26.5248     0.0000   288.0000 </r>
       <r>   -26.2642     0.0000   288.0000 </r>
       <r>   -26.0036     0.0000   288.0000 </r>
       <r>   -25.7430     0.0000   288.0000 </r>
       <r>   -25.4824     0.0000   288.0000 </r>
       <r>   -25.2218     0.0000   288.0000 </r>
       <r>   -24.9612     0.0000   288.0000 </r>
       <r>   -24.7006     0.0000   288.0000 </r>
       <r>   -24.4400     0.0000   288.0000 </r>
       <r>   -24.1794     0.0000   288.0000 </r>
       <r>   -23.9188     0.0000   288.0000 </r>
       <r>   -23.6582     0.0000   288.0000 </r>
       <r>   -23.3976     0.0000   288.0000 </r>
       <r>   -23.1370     0.0000   288.0000 </r>
       <r>   -22.8764     0.0000   288.0000 </r>
       <r>   -22.6158     0.0000   288.0000 </r>
       <r>   -22.3552     0.0000   288.0000 </r>
       <r>   -22.0946     0.0000   288.0000 </r>
       <r>   -21.8340     0.0000   288.0000 </r>
       <r>   -21.5734     0.0000   288.0000 </r>
       <r>   -21.3128     0.0000   288.0000 </r>
       <r>   -21.0522     0.0000   288.0000 </r>
       <r>   -20.7916     0.0000   288.0000 </r>
       <r>   -20.5310     0.0000   288.0000 </r>
       <r>   -20.2704     0.0000   288.0000 </r>
       <r>   -20.0098     0.0000   288.0000 </r>
       <r>   -19.7492     0.0000   288.0000 </r>
       <r>   -19.4886     0.0000   288.0000 </r>
       <r>   -19.2280     0.0000   288.0000 </r>
       <r>   -18.9674     0.0000   288.0000 </r>
       <r>   -18.7068     0.0000   288.0000 </r>
       <r>   -18.4462     0.0000   288.0000 </r>
       <r>   -18.1856     0.0000   288.0000 </r>
       <r>   -17.9250     0.0000   288.0000 </r>
       <r>   -17.6644     0.0000   288.0000 </r>
       <r>   -17.4038     0.0000   288.0000 </r>
       <r>   -17.1432     0.0000   288.0000 </r>
       <r>   -16.8826     0.0000   288.0000 </r>
       <r>   -16.6220     0.0000   288.0000 </r>
       <r>   -16.3614     0.0000   288.0000 </r>
       <r>   -16.1008     0.0000   288.0000 </r>
       <r>   -15.8402     0.0000   288.0000 </r>
       <r>   -15.5796     0.0000   288.0000 </r>
       <r>   -15.3190     0.0006   288.0002 </r>
       <r>   -15.0584     0.1984   288.0518 </r>
       <r>   -14.7978     3.3277   288.9190 </r>
       <r>   -14.5372     3.9194   289.9404 </r>
       <r>   -14.2766     3.0217   290.7279 </r>
       <r>   -14.0160     8.6482   292.9816 </r>
       <r>   -13.7554    11.3674   295.9440 </r>
       <r>   -13.4948    21.3973   301.5201 </r>
       <r>   -13.2342    23.6644   307.6871 </r>
       <r>   -12.9736    26.6789   314.6397 </r>
       <r>   -12.7130    26.3503   321.5066 </r>
       <r>   -12.4524    42.7704   332.6526 </r>
       <r>   -12.1918    45.9118   344.6173 </r>
       <r>   -11.9312    36.9964   354.2586 </r>
       <r>   -11.6706    38.1508   364.2007 </r>
       <r>   -11.4100    45.5658   376.0752 </r>
       <r>   -11.1494    16.9420   380.4903 </r>
       <r>   -10.8888    10.4224   383.2064 </r>
       <r>   -10.6282     2.9749   383.9816 </r>
       <r>   -10.3676     0.0704   384.0000 </r>
       <r>   -10.1070     0.0001   384.0000 </r>
       <r>    -9.8464     0.0000   384.0000 </r>
       <r>    -9.5858     0.0000   384.0000 </r>
       <r>    -9.3252     0.0000   384.0000 </r>
       <r>    -9.0646     0.0000   384.0000 </r>
       <r>    -8.8040     0.0000   384.0000 </r>
       <r>    -8.5434     0.0000   384.0000 </r>
       <r>    -8.2828     0.0000   384.0000 </r>
       <r>    -8.0222     0.0000   384.0000 </r>
       <r>    -7.7616     0.0000   384.0000 </r>
       <r>    -7.5010     0.0000   384.0000 </r>
       <r>    -7.2404     0.0000   384.0000 </r>
       <r>    -6.9798     0.0177   384.0046 </r>
       <r>    -6.7191     1.2375   384.3271 </r>
       <r>    -6.4585     6.4573   386.0099 </r>
       <r>    -6.1979    13.1624   389.4400 </r>
       <r>    -5.9373    23.0521   395.4474 </r>
       <r>    -5.6767    28.1405   402.7809 </r>
       <r>    -5.4161    33.4971   411.5103 </r>
       <r>    -5.1555    45.2507   423.3026 </r>
       <r>    -4.8949    60.6037   439.0960 </r>
       <r>    -4.6343    55.0707   453.4475 </r>
       <r>    -4.3737    55.6288   467.9444 </r>
       <r>    -4.1131    67.6308   485.5691 </r>
       <r>    -3.8525    60.8798   501.4344 </r>
       <r>    -3.5919    68.7037   519.3387 </r>
       <r>    -3.3313    96.3824   544.4560 </r>
       <r>    -3.0707    92.6130   568.5911 </r>
       <r>    -2.8101    84.6284   590.6453 </r>
       <r>    -2.5495    83.9458   612.5217 </r>
       <r>    -2.2889    74.6455   631.9744 </r>
       <r>    -2.0283    55.8197   646.5211 </r>
       <r>    -1.7677    52.9072   660.3088 </r>
       <r>    -1.5071    63.2924   676.8028 </r>
       <r>    -1.2465    79.3105   697.4712 </r>
       <r>    -0.9859   111.7650   726.5973 </r>
       <r>    -0.7253   139.6123   762.9804 </r>
       <r>    -0.4647   146.8283   801.2440 </r>
       <r>    -0.2041   171.8063   846.0169 </r>
       <r>     0.0565   186.1374   894.5246 </r>
       <r>     0.3171   157.4979   935.5687 </r>
       <r>     0.5777   127.2060   968.7187 </r>
       <r>     0.8383    97.0318   994.0053 </r>
       <r>     1.0989    86.2228  1016.4751 </r>
       <r>     1.3595    77.2250  1036.6000 </r>
       <r>     1.6201    63.8157  1053.2304 </r>
       <r>     1.8807    62.8642  1069.6129 </r>
       <r>     2.1413    62.4850  1085.8965 </r>
       <r>     2.4019    67.7314  1103.5474 </r>
       <r>     2.6625    65.3925  1120.5888 </r>
       <r>     2.9231    52.3101  1134.2208 </r>
       <r>     3.1837    33.3173  1142.9034 </r>
       <r>     3.4443    24.8261  1149.3731 </r>
       <r>     3.7049     9.2163  1151.7749 </r>
       <r>     3.9655     0.8573  1151.9983 </r>
       <r>     4.2261     0.0067  1152.0000 </r>
       <r>     4.4867     0.0355  1152.0093 </r>
       <r>     4.7473     2.5246  1152.6672 </r>
       <r>     5.0079    15.0693  1156.5942 </r>
       <r>     5.2685    19.1147  1161.5755 </r>
       <r>     5.5291    20.7018  1166.9705 </r>
       <r>     5.7897    20.7205  1172.3702 </r>
       <r>     6.0503    27.6129  1179.5662 </r>
       <r>     6.3109    29.3511  1187.2151 </r>
       <r>     6.5715    31.1756  1195.3395 </r>
       <r>     6.8321    42.2049  1206.3382 </r>
       <r>     7.0927    44.7004  1217.9871 </r>
       <r>     7.3533    57.3945  1232.9442 </r>
       <r>     7.6139    56.0093  1247.5403 </r>
       <r>     7.8745    52.4596  1261.2113 </r>
       <r>     8.1351    24.0043  1267.4669 </r>
       <r>     8.3957     2.0306  1267.9961 </r>
       <r>     8.6563     0.0151  1268.0000 </r>
       <r>     8.9169     0.0000  1268.0000 </r>
       <r>     9.1775     0.0000  1268.0000 </r>
       <r>     9.4381     0.0000  1268.0000 </r>
       <r>     9.6987     0.0000  1268.0000 </r>
       <r>     9.9593     0.0000  1268.0000 </r>
       <r>    10.2199     0.0000  1268.0000 </r>
       <r>    10.4805     0.0000  1268.0000 </r>
       <r>    10.7411     0.0000  1268.0000 </r>
       <r>    11.0017     0.0000  1268.0000 </r>
       <r>    11.2623     0.0000  1268.0000 </r>
       <r>    11.5229     0.0000  1268.0000 </r>
      </set>
     </set>
    </array>
   </total>
  </dos>
 </calculation>
 <structure name="finalpos" >
  <crystal>
   <varray name="basis" >
    <v>      11.25646304       0.00000000       0.00000000 </v>
    <v>       5.04456212      10.06282034       0.00000000 </v>
    <v>       0.00000000       0.00000000      21.74423184 </v>
   </varray>
   <i name="volume">   2463.00752351 </i>
   <varray name="rec_basis" >
    <v>       0.08883785      -0.04453504       0.00000000 </v>
    <v>       0.00000000       0.09937572       0.00000000 </v>
    <v>       0.00000000       0.00000000       0.04598921 </v>
   </varray>
  </crystal>
  <varray name="positions" >
   <v>       0.26092070       0.47878036       0.25332799 </v>
   <v>       0.35488056       0.38482049       0.38835497 </v>
   <v>       0.37461112       0.36508800       0.49728236 </v>
   <v>       0.13168850       0.11026861       0.17670038 </v>
   <v>       0.04893297       0.05449730       0.47243829 </v>
   <v>       0.30579124       0.43338081       0.12598998 </v>
   <v>       0.36819893       0.23939913       0.21765305 </v>
   <v>       0.46215880       0.14543926       0.35268003 </v>
   <v>       0.00030194       0.37150212       0.21765305 </v>
   <v>       0.09426181       0.27754226       0.35268003 </v>
   <v>       0.18519932       0.19076211       0.47244314 </v>
   <v>       0.50465401       0.46548990       0.11546197 </v>
   <v>       0.76092070       0.47878036       0.25332799 </v>
   <v>       0.85488056       0.38482049       0.38835497 </v>
   <v>       0.87455817       0.36514461       0.49727342 </v>
   <v>       0.66696083       0.07274024       0.11830101 </v>
   <v>       0.54892467       0.05450373       0.47239203 </v>
   <v>       0.77423906       0.33335899       0.08262607 </v>
   <v>       0.86819893       0.23939913       0.21765305 </v>
   <v>       0.96215880       0.14543926       0.35268003 </v>
   <v>       0.50030194       0.37150212       0.21765305 </v>
   <v>       0.59426181       0.27754226       0.35268003 </v>
   <v>       0.68520051       0.19077903       0.47239017 </v>
   <v>       0.90583332       0.45813904       0.09969877 </v>
   <v>       0.26092070       0.97878036       0.25332799 </v>
   <v>       0.35488056       0.88482049       0.38835497 </v>
   <v>       0.37459303       0.86510558       0.49727752 </v>
   <v>       0.10450007       0.59862729       0.17944853 </v>
   <v>       0.04894340       0.55450176       0.47245558 </v>
   <v>       0.19120009       0.73315225       0.12405620 </v>
   <v>       0.36819893       0.73939913       0.21765305 </v>
   <v>       0.46215880       0.64543926       0.35268003 </v>
   <v>       0.00030194       0.87150212       0.21765305 </v>
   <v>       0.09426181       0.77754226       0.35268003 </v>
   <v>       0.18520021       0.69075990       0.47245254 </v>
   <v>       0.52112716       0.92658363       0.11676459 </v>
   <v>       0.76092070       0.97878036       0.25332799 </v>
   <v>       0.85488056       0.88482049       0.38835497 </v>
   <v>       0.87455721       0.86514543       0.49727451 </v>
   <v>       0.66696083       0.57274024       0.11830101 </v>
   <v>       0.54892601       0.55450591       0.47239443 </v>
   <v>       0.77423907       0.83335899       0.08262607 </v>
   <v>       0.86819893       0.73939913       0.21765305 </v>
   <v>       0.96215880       0.64543926       0.35268003 </v>
   <v>       0.50030194       0.87150212       0.21765305 </v>
   <v>       0.59426181       0.77754226       0.35268003 </v>
   <v>       0.68519841       0.69077935       0.47239204 </v>
   <v>       0.90634206       0.96546199       0.08262607 </v>
   <v>       0.07287763       0.16682343       0.27005396 </v>
   <v>       0.16683750       0.07286357       0.40508094 </v>
   <v>       0.47891775       0.26078330       0.13502698 </v>
   <v>       0.21073623       0.52896886       0.52655209 </v>
   <v>       0.03023343       0.37768264       0.45050807 </v>
   <v>       0.43627354       0.47164251       0.31548109 </v>
   <v>       0.34231368       0.06560239       0.18045411 </v>
   <v>       0.17409868       0.39738738       0.18045411 </v>
   <v>       0.26805855       0.30342751       0.31548109 </v>
   <v>       0.36201842       0.20946765       0.45050807 </v>
   <v>       0.57287763       0.16682343       0.27005396 </v>
   <v>       0.66683750       0.07286357       0.40508094 </v>
   <v>       0.88311763       0.37661225       0.02104960 </v>
   <v>       0.97891775       0.26078330       0.13502698 </v>
   <v>       0.71067877       0.52902759       0.52652885 </v>
   <v>       0.53023343       0.37768264       0.45050807 </v>
   <v>       0.93627354       0.47164251       0.31548109 </v>
   <v>       0.76129965       0.15661025       0.06346218 </v>
   <v>       0.84231368       0.06560239       0.18045411 </v>
   <v>       0.61149974       0.49169053       0.04580431 </v>
   <v>       0.67409868       0.39738738       0.18045411 </v>
   <v>       0.76805855       0.30342751       0.31548109 </v>
   <v>       0.86201842       0.20946765       0.45050807 </v>
   <v>       0.07287764       0.66682343       0.27005396 </v>
   <v>       0.16683750       0.57286357       0.40508094 </v>
   <v>       0.47891775       0.76078330       0.13502698 </v>
   <v>       0.21071200       0.02898042       0.52654643 </v>
   <v>       0.03023342       0.87768264       0.45050807 </v>
   <v>       0.43627354       0.97164251       0.31548109 </v>
   <v>       0.31871145       0.57266393       0.06668125 </v>
   <v>       0.34231368       0.56560239       0.18045411 </v>
   <v>       0.10175504       0.87976169       0.06082487 </v>
   <v>       0.17409868       0.89738738       0.18045411 </v>
   <v>       0.26805855       0.80342751       0.31548109 </v>
   <v>       0.36201842       0.70946764       0.45050807 </v>
   <v>       0.57287764       0.66682343       0.27005396 </v>
   <v>       0.66683750       0.57286357       0.40508094 </v>
   <v>       0.86963184       0.87000820       0.01278713 </v>
   <v>       0.97891775       0.76078330       0.13502698 </v>
   <v>       0.71067595       0.02902909       0.52652801 </v>
   <v>       0.53023342       0.87768264       0.45050807 </v>
   <v>       0.93627354       0.97164251       0.31548109 </v>
   <v>       0.77193945       0.64973883       0.06602563 </v>
   <v>       0.84231368       0.56560239       0.18045411 </v>
   <v>       0.60297677       0.98985110       0.05011559 </v>
   <v>       0.67409868       0.89738738       0.18045411 </v>
   <v>       0.76805855       0.80342751       0.31548109 </v>
   <v>       0.86201842       0.70946764       0.45050807 </v>
  </varray>
 </structure>
</modeling>
