LAMMPS data file via write_data, version 5 Jun 2019, timestep = 46

72 atoms
2 atom types

0.0000000000000000e+00 1.1452783670500001e+01 xlo xhi
0.0000000000000000e+00 8.7007307979000004e+00 ylo yhi
0.0000000000000000e+00 2.0500762856000001e+01 zlo zhi
-4.0053990701000002e+00 0.0000000000000000e+00 0.0000000000000000e+00 xy xz yz

Masses

1 58.71
2 32.06

Atoms # atomic

1 1 6.3498294781999993e+00 6.4711805379999998e-01 7.1632766568999999e+00 0 0 0
2 1 8.0708222516999975e+00 1.4393805677000000e+00 4.6601620083000004e+00 0 0 0
3 1 9.8139110001288561e+00 2.2144350573826350e+00 2.4782958475937256e+00 0 0 0
4 1 7.6907466925733248e-01 8.6697652204279354e+00 9.2704771569390765e+00 0 0 0
5 1 -2.8082971716999978e+00 6.9757802645000000e+00 5.4945335647000011e+00 0 0 0
6 1 -1.0873044056999994e+00 7.7680427697000001e+00 2.9914189160000002e+00 0 0 0
7 1 5.5893527990496028e-01 8.0678365108223016e+00 1.2425342796783800e+00 0 0 0
8 1 5.4077213075626913e+00 5.5379291510452413e+00 9.7775746493670734e+00 0 0 0
9 1 6.9234937368000002e+00 6.1835177507000001e+00 7.9976482132999998e+00 0 0 0
10 1 1.8323410753466821e-01 2.8345100846301761e+00 8.5209229377634799e+00 0 0 0
11 1 1.7707661570000006e+00 3.8114491634999998e+00 6.3289051210000009e+00 0 0 0
12 1 3.4917589229999995e+00 4.6037116686999999e+00 3.8257904724000009e+00 0 0 0
13 1 6.4009965083882756e+00 5.5230261972971784e+00 2.8172190072010754e+00 0 0 0
14 1 2.5123357812000005e+00 2.7349656189999999e-01 8.3437154819000003e+00 0 0 0
15 1 4.2333285431999998e+00 1.0657590758000000e+00 5.8406008331999999e+00 0 0 0
16 1 5.9543213205999992e+00 1.8580215810000000e+00 3.3374862049999998e+00 0 0 0
17 1 -3.2038053407999976e+00 8.1866837917000002e+00 1.6687430923000002e+00 0 0 0
18 1 4.8069928017000008e+00 6.6021587725999993e+00 6.6749723895999997e+00 0 0 0
19 1 6.5279855677000009e+00 7.3944212777999976e+00 4.1718577409000002e+00 0 0 0
20 1 -3.4573477409999842e-01 4.2300901768000001e+00 5.0062292973000000e+00 0 0 0
21 1 1.3752579879000002e+00 5.0223526907000000e+00 2.5031146487000000e+00 0 0 0
22 1 4.0304086755368091e+00 6.0522378832057022e+00 1.8516619329459583e+00 0 0 0
23 1 7.6197789484712546e+00 2.6235513120322063e+00 8.6733562391774086e+00 0 0 0
24 1 9.3860561304000001e+00 3.4378276715999996e+00 7.5093439460000004e+00 0 0 0
25 1 3.7522756369074384e+00 2.1902315271934509e+00 9.2704461758873116e+00 0 0 0
26 1 5.2915790115000014e+00 2.9459033349999997e+00 7.1632766568999999e+00 0 0 0
27 1 7.0125717848999995e+00 3.7381658488000000e+00 4.6601620083000004e+00 0 0 0
28 1 8.7971742381940441e+00 4.5531640786609131e+00 2.4382891968542060e+00 0 0 0
29 1 1.3885143170000011e-01 5.7383474779999988e-01 5.4945335647000011e+00 0 0 0
30 1 1.8598441977000000e+00 1.3660972530000000e+00 2.9914189160000002e+00 0 0 0
31 1 3.1203495218884534e+00 2.1876597403749676e+00 1.0403046089677754e+00 0 0 0
32 1 4.3858100881054805e+00 7.7192891850105658e+00 9.7659164213183285e+00 0 0 0
33 1 5.8652432700999997e+00 8.4823030318000008e+00 7.9976482132999998e+00 0 0 0
34 1 -1.0619230227406962e+00 5.5386855046181420e+00 8.5212025334264112e+00 0 0 0
35 1 7.1251569030000295e-01 6.1102344446999997e+00 6.3289051210000009e+00 0 0 0
36 1 2.4335084561999998e+00 6.9024969498999997e+00 3.8257904724000009e+00 0 0 0
37 2 1.7169598952626695e+00 1.7945204034891702e+00 9.4982375647704380e+00 0 0 0
38 2 3.1253583171000012e+00 2.3294667204000001e+00 7.3517128013000006e+00 0 0 0
39 2 4.8463510790999997e+00 3.1217292343000000e+00 4.8485981527000002e+00 0 0 0
40 2 6.8779692794082754e+00 3.5719334011449897e+00 2.5324737188140278e+00 0 0 0
41 2 -3.0637649669999972e-01 7.4966063839999997e-01 3.1798550604000004e+00 0 0 0
42 2 1.2790729521938906e+00 1.3783328908623176e+00 1.0017846502781056e+00 0 0 0
43 2 3.7796276792281205e+00 7.9879620889096987e+00 7.8694835295954411e+00 0 0 0
44 2 5.4200153376000006e+00 8.6581289311000003e+00 5.6829697091000000e+00 0 0 0
45 2 -1.4537050115999981e+00 5.4937978214000003e+00 6.5173412450000008e+00 0 0 0
46 2 2.6728775040000230e-01 6.2860603352999975e+00 4.0142265963000003e+00 0 0 0
47 2 2.1064679274405540e+00 6.8149680479282777e+00 1.7491703838702584e+00 0 0 0
48 2 8.3439795947458393e+00 4.7134850985611898e+00 8.7645163147689527e+00 0 0 0
49 2 -6.0917984447070350e-01 4.0591623226420905e+00 2.1033094379646213e+00 0 0 0
50 2 5.8204311374000000e+00 1.7963849688000000e+00 9.0359585295000002e+00 0 0 0
51 2 7.5414238993999989e+00 2.5886474826999999e+00 6.5328438807999998e+00 0 0 0
52 2 9.2624166654000000e+00 3.3809099879000000e+00 4.0297292322000002e+00 0 0 0
53 2 2.3886963236000001e+00 2.1657888680000001e-01 4.8641007681000001e+00 0 0 0
54 2 4.1096890856000003e+00 1.0088414006999999e+00 2.3609861194000001e+00 0 0 0
55 2 -3.3376955084999977e+00 8.1250471709000003e+00 7.3672154167000006e+00 0 0 0
56 2 6.3648168020118794e+00 7.3173140578919549e+00 9.6802056762393764e+00 0 0 0
57 2 8.3644411407615771e-01 4.7742532592240146e+00 7.9542208023483187e+00 0 0 0
58 2 2.9623605707000005e+00 5.7529785837000000e+00 5.6984723244000000e+00 0 0 0
59 2 4.6286356698307127e+00 6.4225110140723967e+00 3.7698573077620670e+00 0 0 0
60 2 6.2922944613588312e+00 7.2684419934839539e+00 1.7559068005919842e+00 0 0 0
61 2 6.1938874881999997e+00 1.9454237189999998e-01 4.8485981527000002e+00 0 0 0
62 2 7.9413697119591840e+00 1.2171067179585209e+00 2.6552379488953100e+00 0 0 0
63 2 -8.5483754475622764e-01 7.3804474384596110e+00 9.4978247335502601e+00 0 0 0
64 2 4.6749565610000132e-01 8.1030106559000004e+00 7.3517128013000006e+00 0 0 0
65 2 -2.9642391576999976e+00 6.5232045740000002e+00 3.1798550604000004e+00 0 0 0
66 2 -1.3708841042386928e+00 7.5194631534038852e+00 9.6628453113784751e-01 0 0 0
67 2 5.1878811527316966e+00 4.9217810936677324e+00 7.8775007390078695e+00 0 0 0
68 2 6.7675517467999988e+00 5.7309420688000001e+00 5.6829697091000000e+00 0 0 0
69 2 -1.0616860239999994e-01 2.5666109591000001e+00 6.5173412450000008e+00 0 0 0
70 2 1.6148241596000008e+00 3.3588734729999992e+00 4.0142265963000003e+00 0 0 0
71 2 3.3358169370000001e+00 4.1511359781000001e+00 1.5111119475999999e+00 0 0 0
72 2 9.6794258337568220e+00 1.8168610864614159e+00 8.7636021521521581e+00 0 0 0

Velocities

1 0.0000000000000000e+00 0.0000000000000000e+00 0.0000000000000000e+00
2 0.0000000000000000e+00 0.0000000000000000e+00 0.0000000000000000e+00
3 0.0000000000000000e+00 0.0000000000000000e+00 0.0000000000000000e+00
4 0.0000000000000000e+00 0.0000000000000000e+00 0.0000000000000000e+00
5 0.0000000000000000e+00 0.0000000000000000e+00 0.0000000000000000e+00
6 0.0000000000000000e+00 0.0000000000000000e+00 0.0000000000000000e+00
7 0.0000000000000000e+00 0.0000000000000000e+00 0.0000000000000000e+00
8 0.0000000000000000e+00 0.0000000000000000e+00 0.0000000000000000e+00
9 0.0000000000000000e+00 0.0000000000000000e+00 0.0000000000000000e+00
10 0.0000000000000000e+00 0.0000000000000000e+00 0.0000000000000000e+00
11 0.0000000000000000e+00 0.0000000000000000e+00 0.0000000000000000e+00
12 0.0000000000000000e+00 0.0000000000000000e+00 0.0000000000000000e+00
13 0.0000000000000000e+00 0.0000000000000000e+00 0.0000000000000000e+00
14 0.0000000000000000e+00 0.0000000000000000e+00 0.0000000000000000e+00
15 0.0000000000000000e+00 0.0000000000000000e+00 0.0000000000000000e+00
16 0.0000000000000000e+00 0.0000000000000000e+00 0.0000000000000000e+00
17 0.0000000000000000e+00 0.0000000000000000e+00 0.0000000000000000e+00
18 0.0000000000000000e+00 0.0000000000000000e+00 0.0000000000000000e+00
19 0.0000000000000000e+00 0.0000000000000000e+00 0.0000000000000000e+00
20 0.0000000000000000e+00 0.0000000000000000e+00 0.0000000000000000e+00
21 0.0000000000000000e+00 0.0000000000000000e+00 0.0000000000000000e+00
22 0.0000000000000000e+00 0.0000000000000000e+00 0.0000000000000000e+00
23 0.0000000000000000e+00 0.0000000000000000e+00 0.0000000000000000e+00
24 0.0000000000000000e+00 0.0000000000000000e+00 0.0000000000000000e+00
25 0.0000000000000000e+00 0.0000000000000000e+00 0.0000000000000000e+00
26 0.0000000000000000e+00 0.0000000000000000e+00 0.0000000000000000e+00
27 0.0000000000000000e+00 0.0000000000000000e+00 0.0000000000000000e+00
28 0.0000000000000000e+00 0.0000000000000000e+00 0.0000000000000000e+00
29 0.0000000000000000e+00 0.0000000000000000e+00 0.0000000000000000e+00
30 0.0000000000000000e+00 0.0000000000000000e+00 0.0000000000000000e+00
31 0.0000000000000000e+00 0.0000000000000000e+00 0.0000000000000000e+00
32 0.0000000000000000e+00 0.0000000000000000e+00 0.0000000000000000e+00
33 0.0000000000000000e+00 0.0000000000000000e+00 0.0000000000000000e+00
34 0.0000000000000000e+00 0.0000000000000000e+00 0.0000000000000000e+00
35 0.0000000000000000e+00 0.0000000000000000e+00 0.0000000000000000e+00
36 0.0000000000000000e+00 0.0000000000000000e+00 0.0000000000000000e+00
37 0.0000000000000000e+00 0.0000000000000000e+00 0.0000000000000000e+00
38 0.0000000000000000e+00 0.0000000000000000e+00 0.0000000000000000e+00
39 0.0000000000000000e+00 0.0000000000000000e+00 0.0000000000000000e+00
40 0.0000000000000000e+00 0.0000000000000000e+00 0.0000000000000000e+00
41 0.0000000000000000e+00 0.0000000000000000e+00 0.0000000000000000e+00
42 0.0000000000000000e+00 0.0000000000000000e+00 0.0000000000000000e+00
43 0.0000000000000000e+00 0.0000000000000000e+00 0.0000000000000000e+00
44 0.0000000000000000e+00 0.0000000000000000e+00 0.0000000000000000e+00
45 0.0000000000000000e+00 0.0000000000000000e+00 0.0000000000000000e+00
46 0.0000000000000000e+00 0.0000000000000000e+00 0.0000000000000000e+00
47 0.0000000000000000e+00 0.0000000000000000e+00 0.0000000000000000e+00
48 0.0000000000000000e+00 0.0000000000000000e+00 0.0000000000000000e+00
49 0.0000000000000000e+00 0.0000000000000000e+00 0.0000000000000000e+00
50 0.0000000000000000e+00 0.0000000000000000e+00 0.0000000000000000e+00
51 0.0000000000000000e+00 0.0000000000000000e+00 0.0000000000000000e+00
52 0.0000000000000000e+00 0.0000000000000000e+00 0.0000000000000000e+00
53 0.0000000000000000e+00 0.0000000000000000e+00 0.0000000000000000e+00
54 0.0000000000000000e+00 0.0000000000000000e+00 0.0000000000000000e+00
55 0.0000000000000000e+00 0.0000000000000000e+00 0.0000000000000000e+00
56 0.0000000000000000e+00 0.0000000000000000e+00 0.0000000000000000e+00
57 0.0000000000000000e+00 0.0000000000000000e+00 0.0000000000000000e+00
58 0.0000000000000000e+00 0.0000000000000000e+00 0.0000000000000000e+00
59 0.0000000000000000e+00 0.0000000000000000e+00 0.0000000000000000e+00
60 0.0000000000000000e+00 0.0000000000000000e+00 0.0000000000000000e+00
61 0.0000000000000000e+00 0.0000000000000000e+00 0.0000000000000000e+00
62 0.0000000000000000e+00 0.0000000000000000e+00 0.0000000000000000e+00
63 0.0000000000000000e+00 0.0000000000000000e+00 0.0000000000000000e+00
64 0.0000000000000000e+00 0.0000000000000000e+00 0.0000000000000000e+00
65 0.0000000000000000e+00 0.0000000000000000e+00 0.0000000000000000e+00
66 0.0000000000000000e+00 0.0000000000000000e+00 0.0000000000000000e+00
67 0.0000000000000000e+00 0.0000000000000000e+00 0.0000000000000000e+00
68 0.0000000000000000e+00 0.0000000000000000e+00 0.0000000000000000e+00
69 0.0000000000000000e+00 0.0000000000000000e+00 0.0000000000000000e+00
70 0.0000000000000000e+00 0.0000000000000000e+00 0.0000000000000000e+00
71 0.0000000000000000e+00 0.0000000000000000e+00 0.0000000000000000e+00
72 0.0000000000000000e+00 0.0000000000000000e+00 0.0000000000000000e+00
