       N       E                     dE             d eps       ncg     rms          rms(c)
DAV:   1     0.146675536689E+05    0.14668E+05   -0.73555E+05  1664   0.169E+03
DAV:   2     0.992233416989E+03   -0.13675E+05   -0.13188E+05  1448   0.545E+02
DAV:   3    -0.479879067846E+03   -0.14721E+04   -0.13786E+04  1568   0.191E+02
DAV:   4    -0.585369489627E+03   -0.10549E+03   -0.10386E+03  1656   0.443E+01
DAV:   5    -0.589033875188E+03   -0.36644E+01   -0.36582E+01  1768   0.891E+00    0.100E+02
DAV:   6    -0.713998719102E+03   -0.12496E+03   -0.14173E+03  1656   0.119E+02    0.191E+02
DAV:   7    -0.547944920592E+03    0.16605E+03   -0.25066E+02  1592   0.668E+01    0.795E+01
DAV:   8    -0.776075368984E+03   -0.22813E+03   -0.19379E+02  1760   0.109E+02    0.235E+02
DAV:   9    -0.594307734394E+03    0.18177E+03   -0.28059E+02  1816   0.574E+01    0.147E+02
DAV:  10    -0.552275922719E+03    0.42032E+02   -0.10900E+02  1896   0.362E+01    0.691E+01
DAV:  11    -0.571914760298E+03   -0.19639E+02   -0.74695E+01  2040   0.534E+01    0.115E+02
DAV:  12    -0.541391205163E+03    0.30524E+02   -0.59234E+01  1896   0.389E+01    0.622E+01
DAV:  13    -0.534273772873E+03    0.71174E+01   -0.45180E+01  1848   0.369E+01    0.511E+01
DAV:  14    -0.525495093444E+03    0.87787E+01   -0.27014E+01  1832   0.281E+01    0.384E+01
DAV:  15    -0.522103810571E+03    0.33913E+01   -0.15853E+01  1712   0.233E+01    0.298E+01
DAV:  16    -0.519838770217E+03    0.22650E+01   -0.61232E+00  1800   0.129E+01    0.256E+01
DAV:  17    -0.519023393081E+03    0.81538E+00   -0.37875E+00  1792   0.640E+00    0.229E+01
DAV:  18    -0.518187037228E+03    0.83636E+00   -0.12113E+00  1760   0.506E+00    0.197E+01
DAV:  19    -0.517836649048E+03    0.35039E+00   -0.82786E-01  1824   0.471E+00    0.200E+01
DAV:  20    -0.516987578757E+03    0.84907E+00   -0.13199E+00  1880   0.478E+00    0.151E+01
DAV:  21    -0.516654002063E+03    0.33358E+00   -0.42009E-01  1872   0.323E+00    0.132E+01
DAV:  22    -0.516385376971E+03    0.26863E+00   -0.21172E-01  1840   0.197E+00    0.117E+01
DAV:  23    -0.516131534818E+03    0.25384E+00   -0.34014E-01  2008   0.265E+00    0.978E+00
DAV:  24    -0.515960271439E+03    0.17126E+00   -0.58078E-01  1864   0.340E+00    0.778E+00
DAV:  25    -0.515823592621E+03    0.13668E+00   -0.36254E-01  1840   0.312E+00    0.610E+00
DAV:  26    -0.515779445772E+03    0.44147E-01   -0.47805E-01  1744   0.232E+00    0.496E+00
DAV:  27    -0.515756531392E+03    0.22914E-01   -0.14268E-01  1792   0.171E+00    0.415E+00
DAV:  28    -0.515737896982E+03    0.18634E-01   -0.12930E-01  1904   0.149E+00    0.348E+00
DAV:  29    -0.515735711621E+03    0.21854E-02   -0.97893E-02  1816   0.165E+00    0.294E+00
DAV:  30    -0.515726488058E+03    0.92236E-02   -0.83026E-02  1800   0.142E+00    0.271E+00
DAV:  31    -0.515707175725E+03    0.19312E-01   -0.54162E-02  1720   0.145E+00    0.154E+00
DAV:  32    -0.515699934503E+03    0.72412E-02   -0.18072E-02  1808   0.667E-01    0.830E-01
DAV:  33    -0.515698521385E+03    0.14131E-02   -0.63551E-03  1856   0.444E-01    0.515E-01
DAV:  34    -0.515698790588E+03   -0.26920E-03   -0.22552E-03  1520   0.237E-01    0.463E-01
DAV:  35    -0.515698916956E+03   -0.12637E-03   -0.22735E-03  1448   0.273E-01    0.425E-01
DAV:  36    -0.515699719871E+03   -0.80292E-03   -0.22645E-03  1664   0.292E-01    0.505E-01
DAV:  37    -0.515699160181E+03    0.55969E-03   -0.14411E-03  1552   0.265E-01    0.271E-01
DAV:  38    -0.515699722526E+03   -0.56235E-03   -0.76717E-04  1384   0.157E-01    0.226E-01
DAV:  39    -0.515699920709E+03   -0.19818E-03   -0.36839E-04  1168   0.133E-01    0.151E-01
DAV:  40    -0.515700341417E+03   -0.42071E-03   -0.18586E-04   936   0.754E-02    0.116E-01
DAV:  41    -0.515700468972E+03   -0.12756E-03   -0.89589E-05   864   0.539E-02    0.781E-02
DAV:  42    -0.515700965444E+03   -0.49647E-03   -0.57423E-05   872   0.415E-02    0.705E-02
DAV:  43    -0.515701546531E+03   -0.58109E-03   -0.97400E-05   936   0.623E-02    0.952E-02
DAV:  44    -0.515702396504E+03   -0.84997E-03   -0.13602E-04   960   0.579E-02    0.567E-02
DAV:  45    -0.515702527625E+03   -0.13112E-03   -0.48038E-05   856   0.334E-02    0.409E-02
DAV:  46    -0.515702903299E+03   -0.37567E-03   -0.43700E-05   880   0.225E-02    0.307E-02
DAV:  47    -0.515703102585E+03   -0.19929E-03   -0.31374E-05   856   0.269E-02    0.353E-02
DAV:  48    -0.515703596658E+03   -0.49407E-03   -0.51668E-05   912   0.205E-02    0.321E-02
DAV:  49    -0.515703720693E+03   -0.12404E-03   -0.29039E-05   856   0.235E-02    0.334E-02
DAV:  50    -0.515703911186E+03   -0.19049E-03   -0.32587E-05   888   0.158E-02    0.282E-02
DAV:  51    -0.515703895728E+03    0.15458E-04   -0.12374E-05   824   0.134E-02
   1 F= -.51570390E+03 E0= -.51492270E+03  d E =-.156239E+01
