       N       E                     dE             d eps       ncg     rms          rms(c)
DAV:   1     0.625946901060E+04    0.62595E+04   -0.36194E+05   848   0.154E+03
DAV:   2     0.348485912127E+03   -0.59110E+04   -0.57042E+04   728   0.486E+02
DAV:   3    -0.252355092776E+03   -0.60084E+03   -0.56945E+03   816   0.158E+02
DAV:   4    -0.288669339402E+03   -0.36314E+02   -0.35805E+02   840   0.353E+01
DAV:   5    -0.289692009620E+03   -0.10227E+01   -0.10200E+01   824   0.641E+00    0.692E+01
DAV:   6    -0.367421552367E+03   -0.77730E+02   -0.76116E+02   832   0.126E+02    0.147E+02
DAV:   7    -0.270787971249E+03    0.96634E+02   -0.14678E+02   792   0.651E+01    0.598E+01
DAV:   8    -0.294149631574E+03   -0.23362E+02   -0.15192E+02   960   0.792E+01    0.950E+01
DAV:   9    -0.261936436464E+03    0.32213E+02   -0.89501E+01   896   0.351E+01    0.405E+01
DAV:  10    -0.259448460182E+03    0.24880E+01   -0.59070E+01   888   0.429E+01    0.445E+01
DAV:  11    -0.262924127360E+03   -0.34757E+01   -0.37989E+01   928   0.373E+01    0.468E+01
DAV:  12    -0.255124860977E+03    0.77993E+01   -0.19549E+01   912   0.275E+01    0.244E+01
DAV:  13    -0.253527416125E+03    0.15974E+01   -0.95610E+00   904   0.242E+01    0.397E+01
DAV:  14    -0.254216375262E+03   -0.68896E+00   -0.25735E+01   936   0.163E+01    0.198E+01
DAV:  15    -0.252864849438E+03    0.13515E+01   -0.26057E+00   936   0.122E+01    0.195E+01
DAV:  16    -0.252135757586E+03    0.72909E+00   -0.21316E+00   872   0.925E+00    0.133E+01
DAV:  17    -0.251783337108E+03    0.35242E+00   -0.10768E+00   912   0.827E+00    0.132E+01
DAV:  18    -0.251286817084E+03    0.49652E+00   -0.94863E-01   936   0.696E+00    0.934E+00
DAV:  19    -0.251153917640E+03    0.13290E+00   -0.44995E-01   952   0.428E+00    0.805E+00
DAV:  20    -0.251029691846E+03    0.12423E+00   -0.23278E-01   928   0.363E+00    0.662E+00
DAV:  21    -0.250988311895E+03    0.41380E-01   -0.38478E-01   936   0.429E+00    0.610E+00
DAV:  22    -0.250922140835E+03    0.66171E-01   -0.31188E-01   944   0.338E+00    0.533E+00
DAV:  23    -0.250840802893E+03    0.81338E-01   -0.14877E-01   944   0.275E+00    0.350E+00
DAV:  24    -0.250839836644E+03    0.96625E-03   -0.13409E-01   936   0.267E+00    0.338E+00
DAV:  25    -0.250824926659E+03    0.14910E-01   -0.12440E-01   904   0.269E+00    0.248E+00
DAV:  26    -0.250822981334E+03    0.19453E-02   -0.73221E-02   928   0.171E+00    0.242E+00
DAV:  27    -0.250808083036E+03    0.14898E-01   -0.22938E-02   864   0.121E+00    0.155E+00
DAV:  28    -0.250804100037E+03    0.39830E-02   -0.13337E-02   952   0.883E-01    0.123E+00
DAV:  29    -0.250799123418E+03    0.49766E-02   -0.10602E-02   952   0.817E-01    0.688E-01
DAV:  30    -0.250800664555E+03   -0.15411E-02   -0.68748E-03   944   0.600E-01    0.805E-01
DAV:  31    -0.250798846270E+03    0.18183E-02   -0.42149E-03   912   0.535E-01    0.452E-01
DAV:  32    -0.250798903731E+03   -0.57461E-04   -0.16198E-03   856   0.303E-01    0.395E-01
DAV:  33    -0.250798719079E+03    0.18465E-03   -0.89873E-04   736   0.256E-01    0.275E-01
DAV:  34    -0.250798804011E+03   -0.84933E-04   -0.34476E-04   528   0.154E-01
   1 F= -.25079880E+03 E0= -.25032924E+03  d E =-.939119E+00
