LAMMPS data file via write_data, version 5 Jun 2019, timestep = 33

60 atoms
2 atom types

0.0000000000000000e+00 9.5784099999999999e+00 xlo xhi
0.0000000000000000e+00 1.1256463038200000e+01 ylo yhi
0.0000000000000000e+00 1.7711358899699999e+01 zlo zhi
0.0000000000000000e+00 0.0000000000000000e+00 0.0000000000000000e+00 xy xz yz

Masses

1 58.71
2 32.06

Atoms # atomic

1 1 9.3811699435438385e+00 4.9656376599762853e+00 1.4296890087459677e+00 -1 0 0
2 1 7.7362117420000021e-01 4.2700843219999998e+00 3.4920210239000000e+00 0 0 0
3 1 4.0438876092562398e-01 3.9020471416942870e+00 5.8532408657178907e+00 0 0 0
4 1 5.5628261741999996e+00 1.7478033417999999e+00 1.9497492413999999e+00 0 0 0
5 1 5.5628261741999996e+00 1.1641339520000000e+00 5.0342928063999999e+00 0 0 0
6 1 2.0370477466558063e+00 3.9674943261205975e+00 1.0895222362728409e+00 0 0 0
7 1 2.0389578704000000e+00 2.1166700599000001e+00 3.0845435650000002e+00 0 0 0
8 1 6.8281628704000017e+00 5.2226204300000001e+00 1.5422717825000001e+00 0 0 0
9 1 6.8281628704000017e+00 4.6389510402000003e+00 4.6268153475000000e+00 0 0 0
10 1 6.8350842302492412e+00 3.6173802172736282e+00 6.7603900211391332e+00 0 0 0
11 1 4.2607945320954137e+00 4.9846923122742295e+00 1.4331508177380017e+00 0 0 0
12 1 3.3042945666000008e+00 4.2700843219999998e+00 3.4920210239000000e+00 0 0 0
13 1 3.6797093860045944e+00 3.9196426252721941e+00 5.8597438291146045e+00 0 0 0
14 1 8.0934995666000003e+00 1.7478033417999999e+00 1.9497492413999999e+00 0 0 0
15 1 8.0934995666000003e+00 1.1641339520000000e+00 5.0342928063999999e+00 0 0 0
16 1 7.7362117420000021e-01 9.8983158411000005e+00 3.4920210239000000e+00 0 0 0
17 1 6.9275296380454943e-01 9.5546832222444014e+00 6.0287069070320563e+00 0 0 0
18 1 5.5628261741999996e+00 7.3760348608999999e+00 1.9497492413999999e+00 0 0 0
19 1 5.5628261741999996e+00 6.7923654710999992e+00 5.0342928063999999e+00 0 0 0
20 1 1.9384236945716788e+00 9.5950745771729604e+00 1.3277351016834207e+00 0 0 0
21 1 2.0389578704000000e+00 7.7449015789999995e+00 3.0845435650000002e+00 0 0 0
22 1 2.0394333119129753e+00 7.1493091447219399e+00 5.7217391738269141e+00 0 0 0
23 1 6.8281628704000017e+00 1.0850851949100001e+01 1.5422717825000001e+00 0 0 0
24 1 6.8281628704000017e+00 1.0267182559300000e+01 4.6268153475000000e+00 0 0 0
25 1 6.8260968591622433e+00 9.5163250093891509e+00 6.8761233914988011e+00 0 0 0
26 1 4.2363756780924104e+00 1.0630348706556994e+01 1.4275352982235023e+00 0 0 0
27 1 3.3042945666000008e+00 9.8983158411000005e+00 3.4920210239000000e+00 0 0 0
28 1 3.3576713205954447e+00 9.5598711539055117e+00 6.0204503383337347e+00 0 0 0
29 1 8.0934995666000003e+00 7.3760348608999999e+00 1.9497492413999999e+00 0 0 0
30 1 8.0934995666000003e+00 6.7923654710999992e+00 5.0342928063999999e+00 0 0 0
31 2 3.6501901085000008e+00 2.9159081912000002e+00 1.7159079410000000e+00 0 0 0
32 2 3.6942466501517544e+00 2.3877609873340919e+00 4.4979547607135810e+00 0 0 0
33 2 8.4393951084999994e+00 5.4381891827000004e+00 3.2581797057999999e+00 0 0 0
34 2 8.2689797837288292e+00 4.9816835240545378e+00 6.1580648790103831e+00 0 0 0
35 2 8.2646780986579991e+00 4.6823388857134152e-01 4.3361850332417218e-01 0 0 0
36 2 2.0389578704000000e+00 5.0743156739000002e+00 5.3193179857999997e+00 0 0 0
37 2 2.3286998296546852e+00 1.1484154641200374e-01 2.2839220503606001e+00 0 0 0
38 2 6.8361463157780067e+00 3.1687645371296926e+00 1.0807391219604188e+00 0 0 0
39 2 6.8281628704000017e+00 2.5520346937000000e+00 3.7770462033000003e+00 0 0 0
40 2 6.8268603025199450e+00 1.6231221846999586e+00 6.5920996192684873e+00 0 0 0
41 2 4.2772563219999998e-01 2.9159081912000002e+00 1.7159079410000000e+00 0 0 0
42 2 3.7665060179407261e-01 2.3771609957219995e+00 4.4826393154120359e+00 0 0 0
43 2 5.2169306322000004e+00 5.4381891827000004e+00 3.2581797057999999e+00 0 0 0
44 2 5.4002457410191491e+00 4.9857992866186711e+00 6.1664711588599310e+00 0 0 0
45 2 5.4663662096260071e+00 5.3462292787979315e-01 3.0401701444930862e-01 0 0 0
46 2 3.6501901085000008e+00 8.5441397102999996e+00 1.7159079410000000e+00 0 0 0
47 2 3.6501901085000008e+00 7.9604703317999999e+00 4.8004514883000020e+00 0 0 0
48 2 8.4393951084999994e+00 1.1066420701800000e+01 3.2581797057999999e+00 0 0 0
49 2 8.4077586815221981e+00 1.0533906001585112e+01 6.0358909355306585e+00 0 0 0
50 2 8.2138793110369193e+00 6.1663905246005006e+00 3.0064136923145957e-01 0 0 0
51 2 2.0161450571102639e+00 1.0725108811530607e+01 5.0028307584812497e+00 0 0 0
52 2 2.0389578704000000e+00 5.6579852325999997e+00 2.2347744208000000e+00 0 0 0
53 2 6.8151587368731175e+00 8.8026213508794680e+00 1.0989776388842547e+00 0 0 0
54 2 6.8281628704000017e+00 8.1802662127999994e+00 3.7770462033000003e+00 0 0 0
55 2 6.8287359625490289e+00 7.5391224413398339e+00 6.4969812078282292e+00 0 0 0
56 2 3.6241903130838632e-01 8.4460933374552507e+00 1.9921028623115000e+00 0 0 0
57 2 4.2772563219999998e-01 7.9604703317999999e+00 4.8004514883000020e+00 0 0 0
58 2 5.2169306322000004e+00 1.1066420701800000e+01 3.2581797057999999e+00 0 0 0
59 2 5.2378334242733100e+00 1.0525901925837307e+01 6.0381796290088410e+00 0 0 0
60 2 5.4440043952500385e+00 6.1665011636968865e+00 3.0154843309014656e-01 0 0 0

Velocities

1 0.0000000000000000e+00 0.0000000000000000e+00 0.0000000000000000e+00
2 0.0000000000000000e+00 0.0000000000000000e+00 0.0000000000000000e+00
3 0.0000000000000000e+00 0.0000000000000000e+00 0.0000000000000000e+00
4 0.0000000000000000e+00 0.0000000000000000e+00 0.0000000000000000e+00
5 0.0000000000000000e+00 0.0000000000000000e+00 0.0000000000000000e+00
6 0.0000000000000000e+00 0.0000000000000000e+00 0.0000000000000000e+00
7 0.0000000000000000e+00 0.0000000000000000e+00 0.0000000000000000e+00
8 0.0000000000000000e+00 0.0000000000000000e+00 0.0000000000000000e+00
9 0.0000000000000000e+00 0.0000000000000000e+00 0.0000000000000000e+00
10 0.0000000000000000e+00 0.0000000000000000e+00 0.0000000000000000e+00
11 0.0000000000000000e+00 0.0000000000000000e+00 0.0000000000000000e+00
12 0.0000000000000000e+00 0.0000000000000000e+00 0.0000000000000000e+00
13 0.0000000000000000e+00 0.0000000000000000e+00 0.0000000000000000e+00
14 0.0000000000000000e+00 0.0000000000000000e+00 0.0000000000000000e+00
15 0.0000000000000000e+00 0.0000000000000000e+00 0.0000000000000000e+00
16 0.0000000000000000e+00 0.0000000000000000e+00 0.0000000000000000e+00
17 0.0000000000000000e+00 0.0000000000000000e+00 0.0000000000000000e+00
18 0.0000000000000000e+00 0.0000000000000000e+00 0.0000000000000000e+00
19 0.0000000000000000e+00 0.0000000000000000e+00 0.0000000000000000e+00
20 0.0000000000000000e+00 0.0000000000000000e+00 0.0000000000000000e+00
21 0.0000000000000000e+00 0.0000000000000000e+00 0.0000000000000000e+00
22 0.0000000000000000e+00 0.0000000000000000e+00 0.0000000000000000e+00
23 0.0000000000000000e+00 0.0000000000000000e+00 0.0000000000000000e+00
24 0.0000000000000000e+00 0.0000000000000000e+00 0.0000000000000000e+00
25 0.0000000000000000e+00 0.0000000000000000e+00 0.0000000000000000e+00
26 0.0000000000000000e+00 0.0000000000000000e+00 0.0000000000000000e+00
27 0.0000000000000000e+00 0.0000000000000000e+00 0.0000000000000000e+00
28 0.0000000000000000e+00 0.0000000000000000e+00 0.0000000000000000e+00
29 0.0000000000000000e+00 0.0000000000000000e+00 0.0000000000000000e+00
30 0.0000000000000000e+00 0.0000000000000000e+00 0.0000000000000000e+00
31 0.0000000000000000e+00 0.0000000000000000e+00 0.0000000000000000e+00
32 0.0000000000000000e+00 0.0000000000000000e+00 0.0000000000000000e+00
33 0.0000000000000000e+00 0.0000000000000000e+00 0.0000000000000000e+00
34 0.0000000000000000e+00 0.0000000000000000e+00 0.0000000000000000e+00
35 0.0000000000000000e+00 0.0000000000000000e+00 0.0000000000000000e+00
36 0.0000000000000000e+00 0.0000000000000000e+00 0.0000000000000000e+00
37 0.0000000000000000e+00 0.0000000000000000e+00 0.0000000000000000e+00
38 0.0000000000000000e+00 0.0000000000000000e+00 0.0000000000000000e+00
39 0.0000000000000000e+00 0.0000000000000000e+00 0.0000000000000000e+00
40 0.0000000000000000e+00 0.0000000000000000e+00 0.0000000000000000e+00
41 0.0000000000000000e+00 0.0000000000000000e+00 0.0000000000000000e+00
42 0.0000000000000000e+00 0.0000000000000000e+00 0.0000000000000000e+00
43 0.0000000000000000e+00 0.0000000000000000e+00 0.0000000000000000e+00
44 0.0000000000000000e+00 0.0000000000000000e+00 0.0000000000000000e+00
45 0.0000000000000000e+00 0.0000000000000000e+00 0.0000000000000000e+00
46 0.0000000000000000e+00 0.0000000000000000e+00 0.0000000000000000e+00
47 0.0000000000000000e+00 0.0000000000000000e+00 0.0000000000000000e+00
48 0.0000000000000000e+00 0.0000000000000000e+00 0.0000000000000000e+00
49 0.0000000000000000e+00 0.0000000000000000e+00 0.0000000000000000e+00
50 0.0000000000000000e+00 0.0000000000000000e+00 0.0000000000000000e+00
51 0.0000000000000000e+00 0.0000000000000000e+00 0.0000000000000000e+00
52 0.0000000000000000e+00 0.0000000000000000e+00 0.0000000000000000e+00
53 0.0000000000000000e+00 0.0000000000000000e+00 0.0000000000000000e+00
54 0.0000000000000000e+00 0.0000000000000000e+00 0.0000000000000000e+00
55 0.0000000000000000e+00 0.0000000000000000e+00 0.0000000000000000e+00
56 0.0000000000000000e+00 0.0000000000000000e+00 0.0000000000000000e+00
57 0.0000000000000000e+00 0.0000000000000000e+00 0.0000000000000000e+00
58 0.0000000000000000e+00 0.0000000000000000e+00 0.0000000000000000e+00
59 0.0000000000000000e+00 0.0000000000000000e+00 0.0000000000000000e+00
60 0.0000000000000000e+00 0.0000000000000000e+00 0.0000000000000000e+00
