       N       E                     dE             d eps       ncg     rms          rms(c)
DAV:   1     0.699185226050E+04    0.69919E+04   -0.37870E+05   880   0.159E+03
DAV:   2     0.394373485537E+03   -0.65975E+04   -0.63583E+04   768   0.508E+02
DAV:   3    -0.258775701061E+03   -0.65315E+03   -0.61989E+03   832   0.169E+02
DAV:   4    -0.298399862241E+03   -0.39624E+02   -0.39202E+02   848   0.373E+01
DAV:   5    -0.299783638839E+03   -0.13838E+01   -0.13816E+01   936   0.745E+00    0.705E+01
DAV:   6    -0.374976614650E+03   -0.75193E+02   -0.74506E+02   880   0.120E+02    0.141E+02
DAV:   7    -0.280242012705E+03    0.94735E+02   -0.13309E+02   856   0.610E+01    0.593E+01
DAV:   8    -0.354759808064E+03   -0.74518E+02   -0.13215E+02   960   0.982E+01    0.144E+02
DAV:   9    -0.291347413554E+03    0.63412E+02   -0.10655E+02   944   0.512E+01    0.667E+01
DAV:  10    -0.270171549859E+03    0.21176E+02   -0.45599E+01  1000   0.457E+01    0.443E+01
DAV:  11    -0.273070772895E+03   -0.28992E+01   -0.47171E+01  1000   0.425E+01    0.750E+01
DAV:  12    -0.273550607982E+03   -0.47984E+00   -0.50571E+01   968   0.247E+01    0.475E+01
DAV:  13    -0.271155049199E+03    0.23956E+01   -0.34266E+01   984   0.227E+01    0.313E+01
DAV:  14    -0.266956345729E+03    0.41987E+01   -0.64882E+00   960   0.193E+01    0.253E+01
DAV:  15    -0.265328399623E+03    0.16279E+01   -0.39597E+00   976   0.149E+01    0.215E+01
DAV:  16    -0.263331207757E+03    0.19972E+01   -0.19724E+00   992   0.102E+01    0.147E+01
DAV:  17    -0.263210241072E+03    0.12097E+00   -0.14696E+00   992   0.859E+00    0.154E+01
DAV:  18    -0.262687517858E+03    0.52272E+00   -0.16253E+00   976   0.776E+00    0.112E+01
DAV:  19    -0.262347629108E+03    0.33989E+00   -0.51965E-01   992   0.465E+00    0.842E+00
DAV:  20    -0.262219732786E+03    0.12790E+00   -0.33510E-01   984   0.418E+00    0.811E+00
DAV:  21    -0.262063168584E+03    0.15656E+00   -0.37809E-01  1016   0.374E+00    0.591E+00
DAV:  22    -0.262024856405E+03    0.38312E-01   -0.23744E-01   992   0.368E+00    0.543E+00
DAV:  23    -0.261949874134E+03    0.74982E-01   -0.14666E-01   968   0.253E+00    0.358E+00
DAV:  24    -0.261962094156E+03   -0.12220E-01   -0.90351E-02   976   0.213E+00    0.378E+00
DAV:  25    -0.261927596073E+03    0.34498E-01   -0.49223E-02   904   0.146E+00    0.274E+00
DAV:  26    -0.261953935000E+03   -0.26339E-01   -0.82166E-02  1000   0.190E+00    0.361E+00
DAV:  27    -0.261937901957E+03    0.16033E-01   -0.77836E-02  1016   0.160E+00    0.313E+00
DAV:  28    -0.261917477405E+03    0.20425E-01   -0.38419E-02   992   0.122E+00    0.189E+00
DAV:  29    -0.261914768096E+03    0.27093E-02   -0.26408E-02  1000   0.117E+00    0.183E+00
DAV:  30    -0.261905200387E+03    0.95677E-02   -0.14965E-02   984   0.901E-01    0.103E+00
DAV:  31    -0.261904167151E+03    0.10332E-02   -0.67436E-03   992   0.545E-01    0.855E-01
DAV:  32    -0.261902480295E+03    0.16869E-02   -0.39311E-03   936   0.460E-01    0.552E-01
DAV:  33    -0.261902603002E+03   -0.12271E-03   -0.15784E-03   872   0.294E-01    0.481E-01
DAV:  34    -0.261902369603E+03    0.23340E-03   -0.10621E-03   808   0.275E-01    0.334E-01
DAV:  35    -0.261902641855E+03   -0.27225E-03   -0.77412E-04   744   0.200E-01    0.241E-01
DAV:  36    -0.261902683392E+03   -0.41538E-04   -0.53394E-04   728   0.198E-01
   1 F= -.26190268E+03 E0= -.26149178E+03  d E =-.821800E+00
