
74 atoms
2 atom types
   0.0000000000   10.0797329849 xlo xhi
   0.0000000000    9.4251025535 ylo yhi
   0.0000000000   20.6861815676 zlo zhi
   3.5732980427    0.0000000000    0.0000000000 xy xz yz

Atoms # atomic

     1      1    5.8651349916    8.9087982632    0.1841719912
     2      1    6.8428472953    7.4925021176    2.8096743813
     3      1    7.8205595925    6.0762059814    5.4351767714
     4      1    8.7982718962    4.6599098358    8.0606791822
     5      1    9.7759841934    3.2436136997   10.6861815723
     6      1    2.6177410564    3.8787025575    3.6848418516
     7      1    3.5954533500    2.4624064119    6.3103442417
     8      1    4.5731656472    1.0461102757    8.9358466318
     9      1   11.7197617340    5.2949986937    1.0593394615
    10      1    3.9213574474    6.8574132598    9.8110141020
    11      1    7.4946554951    1.6811991336    1.9345069111
    12      1    8.4723677887    0.2649029880    4.5600093219
    13      1   13.0233781387    8.2737094054    7.1855117120
    14      1    5.6404430541    5.3765274142    2.1160008899
    15      1    6.6181553578    3.9602312686    4.7415033007
    16      1    7.5958676550    2.5439351324    7.3670056908
    17      1    8.5735799521    1.1276389962    9.9925080809
    18      1    1.4153368116    1.7627278447    2.9911683602
    19      1    2.3930491088    0.3464317085    5.6166707503
    20      1    6.9440594552    8.3552381164    8.2421731611
    21      1   10.5173575028    3.1790239902    0.3656659701
    22      1    2.7189532163    4.7414385563    9.1173406107
    23      1    9.8655492930    8.9903269743    1.2408334404
    24      1   10.8432616003    7.5740308381    3.8663358305
    25      1   11.8209738939    6.1577346925    6.4918382206
    26      1    0.8986554482    1.5018329287    9.2988345895
    27      1    8.0452515350    5.7507213466    1.4223274192
    28      1    9.0229638322    4.3344252104    4.0478298093
    29      1   10.0006761294    2.9181290743    6.6733321994
    30      1    3.8201452860    2.1369217865    2.2974948895
    31      1    4.7978575897    0.7206256409    4.9229972796
    32      1    9.3488679296    8.7294320583    7.5484996697
    33      1   10.3265802369    7.3131359221   10.1740020598
    34      1    3.1683370863    7.9482247705    3.1726623391
    35      1    4.1460493935    6.5319286343    5.7981647292
    36      1    5.1237616907    5.1156324982    8.4236671400
    37      1   12.2703577775    9.3645209161    0.5471599490
    38      2    3.7821592501    9.0027999759   10.4857489598
    39      2    7.3554572877    3.8265858497    2.6092417895
    40      2    8.3331695913    2.4102897041    5.2347441796
    41      2    9.3108818885    0.9939935680    7.8602465697
    42      2    2.1526387480    1.6290824164    0.8589068490
    43      2    3.1303510452    0.2127862802    3.4844092391
    44      2    7.6813613951    8.2215926976    6.1099116499
    45      2    8.6590736888    6.8052965520    8.7354140400
    46      2    2.4785428490    6.0240892737    4.3595767094
    47      2    3.4562551426    4.6077931281    6.9850790995
    48      2    4.4339674498    3.1914969919    9.6105814895
    49      2   11.5805635366    7.4403854098    1.7340743193
    50      2    7.9088414024    7.9372847241    0.8670371596
    51      2    8.8865536996    6.5209885879    3.4925395497
    52      2    9.8642659968    5.1046924518    6.1180419398
    53      2   10.8419783005    3.6883963062    8.7435443506
    54      2    3.6837351534    4.3234851640    1.7422046299
    55      2    4.6614474571    2.9071890184    4.3677070200
    56      2    5.6391597543    1.4908928822    6.9932094101
    57      2    6.6168720616    0.0745967461    9.6187118002
    58      2    4.0096392609    8.7184920119    5.2428744902
    59      2    4.9873515581    7.3021958757    7.8683768803
    60      2    5.9650638517    5.8858997301   10.4938792704
    61      2    9.5383618958    0.7096855945    2.6173720795
    62      2    4.8466485793    7.4608002197    1.7503349198
    63      2    5.8243608830    6.0445040741    4.3758373306
    64      2    6.8020731801    4.6282079379    7.0013397207
    65      2    7.7797854737    3.2119117923    9.6268421108
    66      2    1.5992546340    2.4307045140    5.2510047802
    67      2    2.5769669377    1.0144083684    7.8765071910
    68      2    7.1279772775    9.0232147857   10.5020095811
    69      2    9.7235630280    5.2632967957    0.0000000000
    70      2   10.7012753216    3.8470006501    2.6255023901
    71      2    5.4984567755    1.6494972262    0.8751674703
    72      2    6.4761690827    0.2332010900    3.5006698604
    73      2   11.0271794191    8.2420074980    6.1261722504
    74      2   12.0048917263    6.8257113618    8.7516746405
