 vasp.5.4.4.18Apr17-6-g9f103f2a35 (build Aug 13 2019 17:33:20) gamma-only       
  
 executed on             LinuxIFC date 2020.05.12  16:37:33
 running on   12 total cores
 distrk:  each k-point on   12 cores,    1 groups
 distr:  one band on NCORES_PER_BAND=   6 cores,    2 groups


--------------------------------------------------------------------------------------------------------


 INCAR:
 POTCAR:    PAW_PBE Ni_pv 06Sep2000               
 POTCAR:    PAW_PBE S 06Sep2000                   
 POTCAR:    PAW_PBE Ni_pv 06Sep2000               
   VRHFIN =Ni:                                                                  
   LEXCH  = PE                                                                  
   EATOM  =  3501.1230 eV,  257.3253 Ry                                         
                                                                                
   TITEL  = PAW_PBE Ni_pv 06Sep2000                                             
   LULTRA =        F    use ultrasoft PP ?                                      
   IUNSCR =        1    unscreen: 0-lin 1-nonlin 2-no                           
   RPACOR =    1.500    partial core radius                                     
   POMASS =   58.690; ZVAL   =   16.000    mass and valenz                      
   RCORE  =    2.000    outmost cutoff radius                                   
   RWIGS  =    2.000; RWIGS  =    1.058    wigner-seitz radius (au A)           
   ENMAX  =  367.986; ENMIN  =  275.989 eV                                      
   RCLOC  =    1.301    cutoff for local pot                                    
   LCOR   =        T    correct aug charges                                     
   LPAW   =        T    paw PP                                                  
   EAUG   =  703.443                                                            
   DEXC   =    0.000                                                            
   RMAX   =    2.041    core radius for proj-oper                               
   RAUG   =    1.300    factor for augmentation sphere                          
   RDEP   =    2.103    radius for radial grids                                 
   RDEPT  =    1.618    core radius for aug-charge                              
                                                                                
   Atomic configuration                                                         
    8 entries                                                                   
     n  l   j            E        occ.                                          
     1  0  0.50     -8206.4253   2.0000                                         
     2  0  0.50      -976.1748   2.0000                                         
     2  1  1.50      -839.0571   6.0000                                         
     3  0  0.50      -105.9991   2.0000                                         
     3  1  1.50       -66.4603   6.0000                                         
     3  2  2.50        -4.6458   9.0000                                         
     4  0  0.50        -4.4926   1.0000                                         
     4  3  2.50        -1.3606   0.0000                                         
   Description                                                                  
     l       E           TYP  RCUT    TYP  RCUT                                 
     1    -66.4602962     23  1.700                                             
     1     -1.3605826     23  1.700                                             
     2     -4.6457867     23  2.000                                             
     2     -6.0063693     23  2.000                                             
     0     -4.4925576     23  1.900                                             
     0     16.3626226     23  1.900                                             
  local pseudopotential read in
  partial core-charges read in
  partial kinetic energy density read in
  atomic valenz-charges read in
  non local Contribution for L=           1  read in
    real space projection operators read in
  non local Contribution for L=           1  read in
    real space projection operators read in
  non local Contribution for L=           2  read in
    real space projection operators read in
  non local Contribution for L=           2  read in
    real space projection operators read in
  non local Contribution for L=           0  read in
    real space projection operators read in
  non local Contribution for L=           0  read in
    real space projection operators read in
    PAW grid and wavefunctions read in
 
   number of l-projection  operators is LMAX  =           6
   number of lm-projection operators is LMMAX =          18
 
 POTCAR:    PAW_PBE S 06Sep2000                   
   VRHFIN =S : s2p4                                                             
   LEXCH  = PE                                                                  
   EATOM  =   276.8230 eV,   20.3459 Ry                                         
                                                                                
   TITEL  = PAW_PBE S 06Sep2000                                                 
   LULTRA =        F    use ultrasoft PP ?                                      
   IUNSCR =        1    unscreen: 0-lin 1-nonlin 2-no                           
   RPACOR =    1.500    partial core radius                                     
   POMASS =   32.066; ZVAL   =    6.000    mass and valenz                      
   RCORE  =    1.900    outmost cutoff radius                                   
   RWIGS  =    2.200; RWIGS  =    1.164    wigner-seitz radius (au A)           
   ENMAX  =  258.689; ENMIN  =  194.016 eV                                      
   ICORE  =        2    local potential                                         
   LCOR   =        T    correct aug charges                                     
   LPAW   =        T    paw PP                                                  
   EAUG   =  335.092                                                            
   DEXC   =    0.000                                                            
   RMAX   =    1.942    core radius for proj-oper                               
   RAUG   =    1.300    factor for augmentation sphere                          
   RDEP   =    1.954    radius for radial grids                                 
   RDEPT  =    1.744    core radius for aug-charge                              
                                                                                
   Atomic configuration                                                         
    6 entries                                                                   
     n  l   j            E        occ.                                          
     1  0  0.50     -2405.8406   2.0000                                         
     2  0  0.50      -211.7007   2.0000                                         
     2  1  1.50      -156.4958   6.0000                                         
     3  0  0.50       -17.2562   2.0000                                         
     3  1  0.50        -7.0085   4.0000                                         
     3  2  1.50        -6.8029   0.0000                                         
   Description                                                                  
     l       E           TYP  RCUT    TYP  RCUT                                 
     0    -17.2561641     23  1.900                                             
     0    -15.8743224     23  1.900                                             
     1     -7.0085400     23  1.900                                             
     1     -2.7779785     23  1.900                                             
     2     -6.8029130     23  1.900                                             
  local pseudopotential read in
  partial core-charges read in
  partial kinetic energy density read in
  atomic valenz-charges read in
  non local Contribution for L=           0  read in
    real space projection operators read in
  non local Contribution for L=           0  read in
    real space projection operators read in
  non local Contribution for L=           1  read in
    real space projection operators read in
  non local Contribution for L=           1  read in
    real space projection operators read in
    PAW grid and wavefunctions read in
 
   number of l-projection  operators is LMAX  =           4
   number of lm-projection operators is LMMAX =           8
 
 Optimization of the real space projectors (new method)

 maximal supplied QI-value         = 18.90
 optimisation between [QCUT,QGAM] = [ 10.77, 21.73] = [ 32.49,132.25] Ry 
 Optimized for a Real-space Cutoff    1.38 Angstroem

   l    n(q)    QCUT    max X(q) W(low)/X(q) W(high)/X(q)  e(spline) 
   1      8    10.771     2.836    0.40E-04    0.29E-04    0.12E-06
   1      8    10.771     4.023    0.10E-03    0.48E-04    0.29E-06
   2      8    10.771    73.368    0.42E-03    0.97E-04    0.44E-06
   2      8    10.771    69.010    0.42E-03    0.99E-04    0.45E-06
   0      9    10.771    54.797    0.10E-03    0.56E-04    0.74E-07
   0      9    10.771    24.266    0.89E-04    0.49E-04    0.67E-07
 Optimization of the real space projectors (new method)

 maximal supplied QI-value         = 19.84
 optimisation between [QCUT,QGAM] = [ 10.71, 21.63] = [ 32.15,130.99] Ry 
 Optimized for a Real-space Cutoff    1.19 Angstroem

   l    n(q)    QCUT    max X(q) W(low)/X(q) W(high)/X(q)  e(spline) 
   0      8    10.715   187.594    0.41E-03    0.53E-04    0.66E-07
   0      8    10.715   164.243    0.41E-03    0.53E-04    0.65E-07
   1      7    10.715    67.533    0.19E-03    0.59E-03    0.68E-07
   1      7    10.715    50.729    0.19E-03    0.58E-03    0.67E-07
  PAW_PBE Ni_pv 06Sep2000               :
 energy of atom  1       EATOM=-3501.1230
 kinetic energy error for atom=    0.0925 (will be added to EATOM!!)
  PAW_PBE S 06Sep2000                   :
 energy of atom  2       EATOM= -276.8230
 kinetic energy error for atom=    0.0033 (will be added to EATOM!!)
 
 
 POSCAR: Type_037 Type_137                       
  positions in cartesian coordinates
  No initial velocities read in
 exchange correlation table for  LEXCH =        8
   RHO(1)=    0.500       N(1)  =     2000
   RHO(2)=  100.500       N(2)  =     4000
 


--------------------------------------------------------------------------------------------------------


 ion  position               nearest neighbor table
   1  0.310  0.982  0.065-  71 2.06  42 2.06  43 2.16  62 2.19  50 2.26   2 2.30
   2  0.397  0.795  0.136-  50 2.05  62 2.07  43 2.25   1 2.30  51 2.36  63 2.36  23 2.46
   3  0.547  0.645  0.263-  44 2.25  63 2.26  51 2.26  52 2.36  64 2.36  28 2.53  15 2.53
   4  0.698  0.494  0.390-  65 2.16  45 2.25  64 2.26  52 2.26  53 2.36  29 2.53  16 2.53
   5  0.825  0.342  0.492-  53 2.00  65 2.00  17 2.45  26 2.47
   6  0.114  0.412  0.178-  54 2.12  46 2.25  70 2.26   9 2.35  66 2.36  55 2.36  30 2.53  18 2.53

   7  0.264  0.261  0.305-  47 2.25  55 2.26  66 2.26  56 2.36  67 2.36  31 2.53  19 2.53
   8  0.414  0.111  0.432-  68 2.01  57 2.14  48 2.21  67 2.26  56 2.26  32 2.53  20 2.53
   9  0.960  0.591  0.113-  49 1.97  70 2.06  46 2.22  69 2.23  54 2.27   6 2.35  21 2.41
  10  0.082  0.807  0.458-  60 2.05  59 2.07  74 2.08  38 2.11  13 2.50
  11  0.709  0.215  0.155-  39 1.98  40 2.10  61 2.17  12 2.28  72 2.32  37 2.42
  12  0.831  0.028  0.220-  40 2.25  72 2.26  61 2.26  11 2.28  73 2.36  58 2.36  24 2.53  34 2.53

  13  0.981  0.878  0.347-  41 2.25  58 2.26  73 2.26  74 2.36  59 2.36  10 2.50  35 2.53  25 2.53

  14  0.340  0.477  0.146-  54 2.08  55 2.13  63 2.17  15 2.33  39 2.36
  15  0.508  0.420  0.229-  55 2.25  39 2.26  63 2.26  14 2.33  40 2.36  64 2.36   3 2.53  28 2.53

  16  0.658  0.270  0.356-  65 2.06  56 2.25  64 2.26  40 2.26  41 2.36   4 2.53  29 2.53
  17  0.780  0.125  0.465-  41 2.04  38 2.10  57 2.12  65 2.16   5 2.45
  18  0.074  0.187  0.145-  42 2.09  61 2.25  70 2.26  43 2.36  66 2.36  30 2.53   6 2.53
  19  0.224  0.037  0.272-  58 2.25  66 2.26  43 2.26  44 2.36  67 2.36  31 2.53   7 2.53
  20  0.375  0.886  0.398-  68 2.00  45 2.20  59 2.25  67 2.26  44 2.26   8 2.53  32 2.53
  21  0.031  0.387  0.043-  42 2.05  70 2.06  54 2.09  69 2.11   9 2.41
  22  0.090  0.511  0.430-  47 2.06  60 2.07  74 2.17  48 2.21  53 2.27  36 2.46
  23  0.589  0.878  0.103-  50 2.08  71 2.12  72 2.17  51 2.23   2 2.46  37 2.53
  24  0.791  0.804  0.187-  51 2.25  72 2.26  49 2.26  73 2.36  46 2.36  12 2.53  34 2.53
  25  0.941  0.653  0.314-  52 2.25  73 2.26  46 2.26  47 2.36  74 2.36  35 2.53  13 2.53
  26  0.025  0.166  0.434-  41 2.05  38 2.10  67 2.13  53 2.14   5 2.47
  27  0.650  0.587  0.083-  51 2.04  69 2.09  50 2.15  39 2.32
  28  0.732  0.460  0.196-  70 2.25  39 2.26  51 2.26  52 2.36  40 2.36   3 2.53  15 2.53
  29  0.882  0.310  0.323-  66 2.25  40 2.26  52 2.26  41 2.36  53 2.36   4 2.53  16 2.53
  30  0.299  0.227  0.111-  71 2.12  42 2.14  54 2.21  43 2.36  55 2.36   6 2.53  18 2.53
  31  0.449  0.076  0.238-  72 2.25  55 2.26  43 2.26  56 2.36  44 2.36   7 2.53  19 2.53
  32  0.599  0.926  0.365-  57 2.13  45 2.18  73 2.25  44 2.26  56 2.26  33 2.39   8 2.53  20 2.53

  33  0.728  0.799  0.456-  45 2.05  57 2.06  74 2.06  32 2.39
  34  0.015  0.843  0.153-  62 2.13  49 2.26  61 2.26  46 2.36  58 2.36  24 2.53  12 2.53
  35  0.166  0.693  0.280-  63 2.25  58 2.26  46 2.26  47 2.36  59 2.36  13 2.53  25 2.53
  36  0.316  0.543  0.407-  60 2.04  48 2.15  64 2.25  59 2.26  47 2.26  22 2.46
  37  0.769  0.999  0.092-  49 2.00  61 2.05  72 2.05  11 2.42  23 2.53
  38  0.989  0.014  0.494-  26 2.10  17 2.10  10 2.11  41 2.62
  39  0.586  0.406  0.126-  11 1.98  28 2.26  15 2.26  27 2.32  14 2.36
  40  0.736  0.256  0.253-  11 2.10  12 2.25  29 2.26  16 2.26  15 2.36  28 2.36
  41  0.886  0.105  0.380-  17 2.04  26 2.05  13 2.25  16 2.36  29 2.36  38 2.62
  42  0.151  0.176  0.050-  21 2.05   1 2.06  18 2.09  30 2.14
  43  0.303  0.023  0.168-   1 2.16   2 2.25  19 2.26  31 2.26  30 2.36  18 2.36  62 2.77
  44  0.453  0.872  0.295-   3 2.25  32 2.26  20 2.26  31 2.36  19 2.36  45 2.79
  45  0.591  0.730  0.405-  33 2.05  32 2.18  20 2.20   4 2.25  44 2.79
  46  0.019  0.639  0.211-   9 2.22   6 2.25  35 2.26  25 2.26  34 2.36  24 2.36
  47  0.170  0.489  0.338-  22 2.06   7 2.25  36 2.26  25 2.36  35 2.36  48 2.57
  48  0.302  0.343  0.435-  36 2.15  22 2.21   8 2.21  47 2.57  60 2.72
  49  0.869  0.789  0.084-   9 1.97  37 2.00  34 2.26  24 2.26  69 2.74
  50  0.487  0.774  0.046-   2 2.05  23 2.08  27 2.15   1 2.26
  51  0.636  0.692  0.169-  27 2.04  23 2.23  24 2.25   3 2.26  28 2.26   2 2.36
  52  0.787  0.542  0.296-  25 2.25  29 2.26   4 2.26  28 2.36   3 2.36
  53  0.937  0.391  0.423-   5 2.00  26 2.14  22 2.27   4 2.36  29 2.36
  54  0.185  0.452  0.086-  14 2.08  21 2.09   6 2.12  30 2.21   9 2.27
  55  0.353  0.308  0.211-  14 2.13  15 2.25   7 2.26  31 2.26  30 2.36   6 2.36
  56  0.503  0.158  0.338-  16 2.25   8 2.26  32 2.26  31 2.36   7 2.36
  57  0.636  0.016  0.453-  33 2.06  17 2.12  32 2.13   8 2.14
  58  0.070  0.925  0.253-  19 2.25  35 2.26  13 2.26  12 2.36  34 2.36
  59  0.220  0.775  0.380-  10 2.07  20 2.25  36 2.26  13 2.36  35 2.36
  60  0.197  0.606  0.489-  36 2.04  10 2.05  22 2.07  48 2.72
  61  0.920  0.075  0.127-  37 2.05  11 2.17  18 2.25  34 2.26  12 2.26
  62  0.193  0.849  0.099-   2 2.07  34 2.13   1 2.19  43 2.77
  63  0.350  0.641  0.212-  14 2.17  35 2.25   3 2.26  15 2.26   2 2.36
  64  0.501  0.491  0.338-  36 2.25  16 2.26   4 2.26  15 2.36   3 2.36
  65  0.646  0.344  0.450-   5 2.00  16 2.06   4 2.16  17 2.16
  66  0.067  0.258  0.254-  29 2.25  19 2.26   7 2.26  18 2.36   6 2.36
  67  0.218  0.108  0.381-  26 2.13   8 2.26  20 2.26   7 2.36  19 2.36
  68  0.391  0.957  0.487-  20 2.00   8 2.01
  69  0.835  0.555  0.030-  27 2.09  21 2.11   9 2.23  70 2.45  49 2.74
  70  0.917  0.408  0.127-  21 2.06   9 2.06  28 2.25  18 2.26   6 2.26  69 2.45
  71  0.464  0.073  0.059-   1 2.06  23 2.12  30 2.12  72 2.78
  72  0.634  0.025  0.169-  37 2.05  23 2.17  31 2.25  12 2.26  24 2.26  11 2.32  71 2.78
  73  0.784  0.874  0.296-  32 2.25  25 2.26  13 2.26  12 2.36  24 2.36
  74  0.934  0.724  0.423-  33 2.06  10 2.08  22 2.17  13 2.36  25 2.36
 
  LATTYP: Found a base centered orthorhombic cell.
 ALAT       =    11.4527836704
 B/A-ratio  =     1.4485816945
 C/A-ratio  =     1.8062142937
  
  Lattice vectors:
  
 A1 = (  10.0797329849,   0.0000000000,   0.0000000000)
 A2 = (  -3.5732980427,  -9.4251025535,   0.0000000000)
 A3 = (   0.0000000000,   0.0000000000, -20.6861815676)


Analysis of symmetry for initial positions (statically):
=====================================================================
 Subroutine PRICEL returns:
 Original cell was already a primitive cell.
 

 Routine SETGRP: Setting up the symmetry group for a 
 base centered orthorhombic supercell.


 Subroutine GETGRP returns: Found  1 space group operations
 (whereof  1 operations were pure point group operations)
 out of a pool of  8 trial point group operations.


The static configuration has the point symmetry C_1 .


Analysis of symmetry for dynamics (positions and initial velocities):
=====================================================================
 Subroutine PRICEL returns:
 Original cell was already a primitive cell.
 

 Routine SETGRP: Setting up the symmetry group for a 
 base centered orthorhombic supercell.


 Subroutine GETGRP returns: Found  1 space group operations
 (whereof  1 operations were pure point group operations)
 out of a pool of  8 trial point group operations.


The dynamic configuration has the point symmetry C_1 .


 Subroutine INISYM returns: Found  1 space group operations
 (whereof  1 operations are pure point group operations),
 and found     1 'primitive' translations

 
 
 KPOINTS: gamma-point-only calculation. no periodi

Automatic generation of k-mesh.
Space group operators:
 irot       det(A)        alpha          n_x          n_y          n_z        tau_x        tau_y        tau_z
    1     1.000000     0.000000     1.000000     0.000000     0.000000     0.000000     0.000000     0.000000
 
 Subroutine IBZKPT returns following result:
 ===========================================
 
 Found      1 irreducible k-points:
 
 Following reciprocal coordinates:
            Coordinates               Weight
  0.000000  0.000000  0.000000      1.000000
 
 Following cartesian coordinates:
            Coordinates               Weight
  0.000000  0.000000  0.000000      1.000000
 


--------------------------------------------------------------------------------------------------------




 Dimension of arrays:
   k-points           NKPTS =      1   k-points in BZ     NKDIM =      1   number of bands    NBANDS=    488
   number of dos      NEDOS =    301   number of ions     NIONS =     74
   non local maximal  LDIM  =      6   non local SUM 2l+1 LMDIM =     18
   total plane-waves  NPLWV = 314928
   max r-space proj   IRMAX =   1817   max aug-charges    IRDMAX=   5248
   dimension x,y,z NGX =    54 NGY =   54 NGZ =  108
   dimension x,y,z NGXF=   108 NGYF=  108 NGZF=  216
   support grid    NGXF=   108 NGYF=  108 NGZF=  216
   ions per type =              37  37
   NGX,Y,Z   is equivalent  to a cutoff of   8.91,  8.91,  8.68 a.u.
   NGXF,Y,Z  is equivalent  to a cutoff of  17.81, 17.81, 17.36 a.u.

 SYSTEM =  "Millerite NiS"                         
 POSCAR =  Type_037 Type_137                       

 Startparameter for this run:
   NWRITE =      2    write-flag & timer
   PREC   = normal    normal or accurate (medium, high low for compatibility)
   ISTART =      0    job   : 0-new  1-cont  2-samecut
   ICHARG =      2    charge: 1-file 2-atom 10-const
   ISPIN  =      1    spin polarized calculation?
   LNONCOLLINEAR =      F non collinear calculations
   LSORBIT =      F    spin-orbit coupling
   INIWAV =      1    electr: 0-lowe 1-rand  2-diag
   LASPH  =      F    aspherical Exc in radial PAW
   METAGGA=      F    non-selfconsistent MetaGGA calc.

 Electronic Relaxation 1
   ENCUT  =  450.0 eV  33.07 Ry    5.75 a.u.  17.43 17.43 35.78*2*pi/ulx,y,z
   ENINI  =  450.0     initial cutoff
   ENAUG  =  703.4 eV  augmentation charge cutoff
   NELM   =    100;   NELMIN=  2; NELMDL= -5     # of ELM steps 
   EDIFF  = 0.1E-03   stopping-criterion for ELM
   LREAL  =      T    real-space projection
   NLSPLINE    = F    spline interpolate recip. space projectors
   LCOMPAT=      F    compatible to vasp.4.4
   GGA_COMPAT  = T    GGA compatible to vasp.4.4-vasp.4.6
   LMAXPAW     = -100 max onsite density
   LMAXMIX     =    2 max onsite mixed and CHGCAR
   VOSKOWN=      0    Vosko Wilk Nusair interpolation
   ROPT   =   -0.00050  -0.00050
 Ionic relaxation
   EDIFFG = 0.1E-02   stopping-criterion for IOM
   NSW    =      0    number of steps for IOM
   NBLOCK =      1;   KBLOCK =      1    inner block; outer block 
   IBRION =     -1    ionic relax: 0-MD 1-quasi-New 2-CG
   NFREE  =      0    steps in history (QN), initial steepest desc. (CG)
   ISIF   =      2    stress and relaxation
   IWAVPR =     10    prediction:  0-non 1-charg 2-wave 3-comb
   ISYM   =      2    0-nonsym 1-usesym 2-fastsym
   LCORR  =      T    Harris-Foulkes like correction to forces

   POTIM  = 0.5000    time-step for ionic-motion
   TEIN   =    0.0    initial temperature
   TEBEG  =    0.0;   TEEND  =   0.0 temperature during run
   SMASS  =  -3.00    Nose mass-parameter (am)
   estimated Nose-frequenzy (Omega)   =  0.10E-29 period in steps =****** mass=  -0.232E-26a.u.
   SCALEE = 1.0000    scale energy and forces
   NPACO  =    256;   APACO  = 16.0  distance and # of slots for P.C.
   PSTRESS=    0.0 pullay stress

  Mass of Ions in am
   POMASS =  58.69 32.07
  Ionic Valenz
   ZVAL   =  16.00  6.00
  Atomic Wigner-Seitz radii
   RWIGS  =  -1.00 -1.00
  virtual crystal weights 
   VCA    =   1.00  1.00
   NELECT =     814.0000    total number of electrons
   NUPDOWN=      -1.0000    fix difference up-down

 DOS related values:
   EMIN   =  10.00;   EMAX   =-10.00  energy-range for DOS
   EFERMI =   0.00
   ISMEAR =     0;   SIGMA  =   0.20  broadening in eV -4-tet -1-fermi 0-gaus

 Electronic relaxation 2 (details)
   IALGO  =     38    algorithm
   LDIAG  =      T    sub-space diagonalisation (order eigenvalues)
   LSUBROT=      F    optimize rotation matrix (better conditioning)
   TURBO    =      0    0=normal 1=particle mesh
   IRESTART =      0    0=no restart 2=restart with 2 vectors
   NREBOOT  =      0    no. of reboots
   NMIN     =      0    reboot dimension
   EREF     =   0.00    reference energy to select bands
   IMIX   =      4    mixing-type and parameters
     AMIX     =   0.40;   BMIX     =  1.00
     AMIX_MAG =   1.60;   BMIX_MAG =  1.00
     AMIN     =   0.10
     WC   =   100.;   INIMIX=   1;  MIXPRE=   1;  MAXMIX= -45

 Intra band minimization:
   WEIMIN = 0.0000     energy-eigenvalue tresh-hold
   EBREAK =  0.51E-07  absolut break condition
   DEPER  =   0.30     relativ break condition  

   TIME   =   0.40     timestep for ELM

  volume/ion in A,a.u.               =      26.56       179.22
  Fermi-wavevector in a.u.,A,eV,Ry     =   1.220331  2.306092 20.261918  1.489209
  Thomas-Fermi vector in A             =   2.355553
 
 Write flags
   LWAVE        =      F    write WAVECAR
   LDOWNSAMPLE  =      F    k-point downsampling of WAVECAR
   LCHARG       =      F    write CHGCAR
   LVTOT        =      F    write LOCPOT, total local potential
   LVHAR        =      F    write LOCPOT, Hartree potential only
   LELF         =      F    write electronic localiz. function (ELF)
   LORBIT       =      0    0 simple, 1 ext, 2 COOP (PROOUT), +10 PAW based schemes


 Dipole corrections
   LMONO  =      F    monopole corrections only (constant potential shift)
   LDIPOL =      F    correct potential (dipole corrections)
   IDIPOL =      0    1-x, 2-y, 3-z, 4-all directions 
   EPSILON=  1.0000000 bulk dielectric constant

 Exchange correlation treatment:
   GGA     =    --    GGA type
   LEXCH   =     8    internal setting for exchange type
   VOSKOWN=      0    Vosko Wilk Nusair interpolation
   LHFCALC =     F    Hartree Fock is set to
   LHFONE  =     F    Hartree Fock one center treatment
   AEXX    =    0.0000 exact exchange contribution

 Linear response parameters
   LEPSILON=     F    determine dielectric tensor
   LRPA    =     F    only Hartree local field effects (RPA)
   LNABLA  =     F    use nabla operator in PAW spheres
   LVEL    =     F    velocity operator in full k-point grid
   LINTERFAST=   F  fast interpolation
   KINTER  =     0    interpolate to denser k-point grid
   CSHIFT  =0.1000    complex shift for real part using Kramers Kronig
   OMEGAMAX=  -1.0    maximum frequency
   DEG_THRESHOLD= 0.2000000E-02 threshold for treating states as degnerate
   RTIME   =   -0.100 relaxation time in fs
  (WPLASMAI=    0.000 imaginary part of plasma frequency in eV, 0.658/RTIME)
   DFIELD  = 0.0000000 0.0000000 0.0000000 field for delta impulse in time
 
 Orbital magnetization related:
   ORBITALMAG=     F  switch on orbital magnetization
   LCHIMAG   =     F  perturbation theory with respect to B field
   DQ        =  0.001000  dq finite difference perturbation B field
   LLRAUG    =     F  two centre corrections for induced B field



--------------------------------------------------------------------------------------------------------


 Static calculation
 charge density and potential will be updated during run
 non-spin polarized calculation
 Variant of blocked Davidson
 Davidson routine will perform the subspace rotation
 perform sub-space diagonalisation
    after iterative eigenvector-optimisation
 modified Broyden-mixing scheme, WC =      100.0
 initial mixing is a Kerker type mixing with AMIX =  0.4000 and BMIX =      1.0000
 Hartree-type preconditioning will be used
 using additional bands           81
 real space projection scheme for non local part
 use partial core corrections
 calculate Harris-corrections to forces 
   (improved forces if not selfconsistent)
 use gradient corrections 
 use of overlap-Matrix (Vanderbilt PP)
 Gauss-broadening in eV      SIGMA  =   0.20


--------------------------------------------------------------------------------------------------------


  energy-cutoff  :      450.00
  volume of cell :     1965.24
      direct lattice vectors                 reciprocal lattice vectors
    10.079732985  0.000000000  0.000000000     0.099208977 -0.037612667  0.000000000
     3.573298043  9.425102554  0.000000000     0.000000000  0.106099641  0.000000000
     0.000000000  0.000000000 20.686181568     0.000000000  0.000000000  0.048341449

  length of vectors
    10.079732985 10.079732985 20.686181568     0.106099641  0.106099641  0.048341449


 
 k-points in units of 2pi/SCALE and weight: gamma-point-only calculation. no periodi
   0.00000000  0.00000000  0.00000000       1.000
 
 k-points in reciprocal lattice and weights: gamma-point-only calculation. no periodi
   0.00000000  0.00000000  0.00000000       1.000
 
 position of ions in fractional coordinates (direct lattice) 
   0.31021818  0.98233450  0.06549030
   0.39705889  0.79495179  0.13582373
   0.54732741  0.64468327  0.26274432
   0.69759592  0.49441476  0.38966491
   0.82504099  0.34159219  0.49212065
   0.11381506  0.41152895  0.17813060
   0.26408358  0.26126044  0.30505119
   0.41435209  0.11099192  0.43197178
   0.95985723  0.59118448  0.11253799
   0.08224216  0.80698738  0.45759578
   0.70915504  0.21469493  0.15528256
   0.83057123  0.02810611  0.22043746
   0.98083975  0.87783760  0.34735805
   0.33980748  0.47653166  0.14624645
   0.50762556  0.42017912  0.22921114
   0.65789408  0.26991060  0.35613173
   0.77950001  0.12517541  0.46506228
   0.07411322  0.18702479  0.14459741
   0.22438173  0.03675628  0.27151800
   0.37465025  0.88648777  0.39843860
   0.03069235  0.38679261  0.04252077
   0.08989091  0.51088478  0.43032026
   0.58911869  0.87838076  0.10315611
   0.79086939  0.80360196  0.18690428
   0.94113790  0.65333344  0.31382487
   0.02497784  0.16575993  0.43422165
   0.64962428  0.58726830  0.08319772
   0.73212972  0.45988096  0.19567796
   0.88239823  0.30961245  0.32259855
   0.29861738  0.22672664  0.11106423
   0.44888589  0.07645812  0.23798482
   0.59915440  0.92618961  0.36490542
   0.72844921  0.79906415  0.45596288
   0.01537355  0.84330380  0.15337110
   0.16564206  0.69303528  0.28029169
   0.31591057  0.54276677  0.40721228
   0.76932724  0.99926623  0.09224235
   0.98929222  0.01448736  0.49447428
   0.58579930  0.40599939  0.12613453
   0.73606781  0.25573087  0.25305512
   0.88633632  0.10546236  0.37997571
   0.15090905  0.17594406  0.05035023
   0.30255547  0.02257655  0.16844139
   0.45282398  0.87230804  0.29536199
   0.59117355  0.72974496  0.40535804
   0.01931164  0.63915371  0.21074826
   0.16958015  0.48888520  0.33766885
   0.30164864  0.34290628  0.43523642
   0.86904312  0.78942222  0.08382767
   0.48709194  0.77399289  0.04572520
   0.63635413  0.69187455  0.16883442
   0.78662264  0.54160604  0.29575501
   0.93689116  0.39133753  0.42267561
   0.18472725  0.45154722  0.08639751
   0.35311030  0.30845171  0.21114129
   0.50337881  0.15818320  0.33806188
   0.63553240  0.01636642  0.45317809
   0.06986647  0.92502888  0.25344815
   0.22013498  0.77476036  0.38036874
   0.19701422  0.60588991  0.48894172
   0.91959796  0.07529739  0.12652756
   0.19297602  0.84925180  0.09930207
   0.35047897  0.64131971  0.21153432
   0.50074748  0.49105120  0.33845491
   0.64594492  0.34398543  0.44969855
   0.06723514  0.25789688  0.25384118
   0.21750365  0.10762836  0.38076177
   0.39102821  0.95718445  0.48727839
   0.83530857  0.55463479  0.03006042
   0.91696662  0.40816539  0.12692059
   0.46424425  0.07278771  0.05948734
   0.63372280  0.02474255  0.16922746
   0.78399131  0.87447404  0.29614805
   0.93425982  0.72420553  0.42306864
 
 position of ions in cartesian coordinates  (Angst):
   6.63709034  9.25860342  1.35474429
   6.84284730  7.49250212  2.80967438
   7.82055959  6.07620598  5.43517677
   8.79827190  4.65990984  8.06067918
   9.53680358  3.21954138 10.18009703
   2.61774106  3.87870256  3.68484185
   3.59545335  2.46240641  6.31034424
   4.57316565  1.04611028  8.93584663
  11.78758296  5.57197432  2.32798126
   3.71258542  7.60593879  9.46590942
   7.91526240  2.02352176  3.21220329
   8.47236779  0.26490299  4.56000932
  13.02337814  8.27370941  7.18551171
   5.12795830  4.49135972  3.02528054
   6.61815536  3.96023127  4.74150330
   7.59586766  2.54393513  7.36700569
   8.30444105  1.17979111  9.62036276
   1.41533681  1.76272784  2.99116836
   2.39304911  0.34643171  5.61667075
   6.94405946  8.35523812  8.24217316
   1.69149597  3.64555998  0.87959238
   2.73161994  4.81514140  8.90168303
   9.07687539  8.27882873  2.13390597
  10.84326160  7.57403084  3.86633583
  11.82097389  6.15773469  6.49183822
   0.84407954  1.56230430  8.98238790
   8.64652395  5.53506398  1.72104312
   9.02296383  4.33442521  4.04782981
  10.00067613  2.91812907  6.67333220
   3.82014529  2.13692179  2.29749489
   4.79785759  0.72062564  4.92299728
   9.34886793  8.72943206  7.54849967
  10.19786792  7.53126160  9.43213089
   3.16833709  7.94822477  3.17266234
   4.14604939  6.53192863  5.79816473
   5.12376169  5.11563250  8.42366714
  11.32528919  9.41818671  1.90814193
  10.02356909  0.13654487 10.22878478
   7.35545729  3.82658585  2.60924179
   8.33316959  2.41028970  5.23474418
   9.31088189  0.99399357  7.86024657
   2.14982348  1.65829082  1.04155404
   3.13035105  0.21278628  3.48440924
   7.68136140  8.22159270  6.10991165
   8.56646776  6.87792112  8.38530998
   2.47854285  6.02408927  4.35957671
   3.45625514  4.60779313  6.98507910
   4.26584403  3.23192681  9.00337965
  11.58056354  7.44038541  1.73407432
   7.67546399  7.29496236  0.94587969
   8.88655370  6.52098859  3.49253955
   9.86426600  5.10469245  6.11804194
  10.84197830  3.68839631  8.74354435
   3.47551410  4.25587882  1.78723466
   4.66144746  2.90718902  4.36770702
   5.63915975  1.49089288  6.99320941
   6.46447903  0.15425519  9.37452429
   4.00963926  8.71849201  5.24287449
   4.98735156  7.30219588  7.86837688
   4.15087591  5.71057452 10.11433712
   9.53836190  0.70968559  2.61737208
   4.97977654  8.00428530  2.05418069
   5.82436088  6.04450407  4.37583733
   6.80207318  4.62820794  7.00133972
   7.74011481  3.24209800  9.30254576
   1.59925463  2.43070451  5.25100478
   2.57696694  1.01440837  7.87650719
   7.36176529  9.02156162 10.07992929
  10.40156277  5.22748980  0.62183521
  10.70127532  3.84700065  2.62550239
   4.93955027  0.68603160  1.23056582
   6.47616908  0.23320109  3.50066986
  11.02717942  8.24200750  6.12617225
  12.00489173  6.82571136  8.75167464
 


--------------------------------------------------------------------------------------------------------


 use parallel FFT for orbitals z direction half grid
 k-point  1 :   0.0000 0.0000 0.0000  plane waves:   21301

 maximum and minimum number of plane-waves per node :      3554     3548

 maximum number of plane-waves:     21301
 maximum index in each direction: 
   IXMAX=   17   IYMAX=   17   IZMAX=   35
   IXMIN=  -17   IYMIN=  -17   IZMIN=    0


 real space projection operators:
  total allocation   :      11472.56 KBytes
  max/ min on nodes  :       1917.91       1907.80


 parallel 3D FFT for wavefunctions:
    minimum data exchange during FFTs selected (reduces bandwidth)
 parallel 3D FFT for charge:
    minimum data exchange during FFTs selected (reduces bandwidth)


 total amount of memory used by VASP MPI-rank0    68860. kBytes
=======================================================================

   base      :      30000. kBytes
   nonlr-proj:       2354. kBytes
   fftplans  :       8265. kBytes
   grid      :      13942. kBytes
   one-center:        101. kBytes
   wavefun   :      14198. kBytes
 
     INWAV:  cpu time    0.0000: real time    0.0000
 Broyden mixing: mesh for mixing (old mesh)
   NGX = 35   NGY = 35   NGZ = 71
  (NGX  =108   NGY  =108   NGZ  =216)
  gives a total of  86975 points

 initial charge density was supplied:
 charge density of overlapping atoms calculated
 number of electron     814.0000000 magnetization 
 keeping initial charge density in first step


--------------------------------------------------------------------------------------------------------


 Maximum index for non-local projection operator          303
 Maximum index for augmentation-charges          469 (set IRDMAX)


--------------------------------------------------------------------------------------------------------


 First call to EWALD:  gamma=   0.142
 Maximum number of real-space cells 3x 3x 2
 Maximum number of reciprocal cells 2x 2x 4

    FEWALD:  cpu time    0.0052: real time    0.0052


--------------------------------------- Iteration      1(   1)  ---------------------------------------


    POTLOK:  cpu time    0.2579: real time    0.2584
    SETDIJ:  cpu time    0.0193: real time    0.0193
     EDDAV:  cpu time    7.0245: real time    7.0334
       DOS:  cpu time    0.0013: real time    0.0013
    --------------------------------------------
      LOOP:  cpu time    7.3030: real time    7.3123

 eigenvalue-minimisations  :  1184
 total energy-change (2. order) : 0.1033652E+05  (-0.5283040E+05)
 number of electron     814.0000000 magnetization 
 augmentation part      814.0000000 magnetization 

 Free energy of the ion-electron system (eV)
  ---------------------------------------------------
  alpha Z        PSCENC =      1999.46692064
  Ewald energy   TEWEN  =    226154.16725528
  -Hartree energ DENC   =   -351937.61740516
  -exchange      EXHF   =         0.00000000
  -V(xc)+E(xc)   XCENC  =      3784.46121364
  PAW double counting   =    115860.90926010  -120909.33166199
  entropy T*S    EENTRO =        -0.38716043
  eigenvalues    EBANDS =     -4395.60166986
  atomic energy  EATOM  =    139780.45519414
  Solvation  Ediel_sol  =         0.00000000
  ---------------------------------------------------
  free energy    TOTEN  =     10336.52194637 eV

  energy without entropy =    10336.90910679  energy(sigma->0) =    10336.71552658


--------------------------------------------------------------------------------------------------------




--------------------------------------- Iteration      1(   2)  ---------------------------------------


     EDDAV:  cpu time    6.3022: real time    6.3038
       DOS:  cpu time    0.0011: real time    0.0011
    --------------------------------------------
      LOOP:  cpu time    6.3034: real time    6.3049

 eigenvalue-minimisations  :  1024
 total energy-change (2. order) :-0.9664034E+04  (-0.9343464E+04)
 number of electron     814.0000000 magnetization 
 augmentation part      814.0000000 magnetization 

 Free energy of the ion-electron system (eV)
  ---------------------------------------------------
  alpha Z        PSCENC =      1999.46692064
  Ewald energy   TEWEN  =    226154.16725528
  -Hartree energ DENC   =   -351937.61740516
  -exchange      EXHF   =         0.00000000
  -V(xc)+E(xc)   XCENC  =      3784.46121364
  PAW double counting   =    115860.90926010  -120909.33166199
  entropy T*S    EENTRO =        -0.75820848
  eigenvalues    EBANDS =    -14059.26413663
  atomic energy  EATOM  =    139780.45519414
  Solvation  Ediel_sol  =         0.00000000
  ---------------------------------------------------
  free energy    TOTEN  =       672.48843154 eV

  energy without entropy =      673.24664002  energy(sigma->0) =      672.86753578


--------------------------------------------------------------------------------------------------------




--------------------------------------- Iteration      1(   3)  ---------------------------------------


     EDDAV:  cpu time    6.6820: real time    6.6830
       DOS:  cpu time    0.0012: real time    0.0012
    --------------------------------------------
      LOOP:  cpu time    6.6832: real time    6.6842

 eigenvalue-minimisations  :  1112
 total energy-change (2. order) :-0.1014793E+04  (-0.9594865E+03)
 number of electron     814.0000000 magnetization 
 augmentation part      814.0000000 magnetization 

 Free energy of the ion-electron system (eV)
  ---------------------------------------------------
  alpha Z        PSCENC =      1999.46692064
  Ewald energy   TEWEN  =    226154.16725528
  -Hartree energ DENC   =   -351937.61740516
  -exchange      EXHF   =         0.00000000
  -V(xc)+E(xc)   XCENC  =      3784.46121364
  PAW double counting   =    115860.90926010  -120909.33166199
  entropy T*S    EENTRO =        -1.04983039
  eigenvalues    EBANDS =    -15073.76517446
  atomic energy  EATOM  =    139780.45519414
  Solvation  Ediel_sol  =         0.00000000
  ---------------------------------------------------
  free energy    TOTEN  =      -342.30422820 eV

  energy without entropy =     -341.25439781  energy(sigma->0) =     -341.77931301


--------------------------------------------------------------------------------------------------------




--------------------------------------- Iteration      1(   4)  ---------------------------------------


     EDDAV:  cpu time    7.5229: real time    7.5239
       DOS:  cpu time    0.0012: real time    0.0012
    --------------------------------------------
      LOOP:  cpu time    7.5241: real time    7.5251

 eigenvalue-minimisations  :  1136
 total energy-change (2. order) :-0.6421493E+02  (-0.6338000E+02)
 number of electron     814.0000000 magnetization 
 augmentation part      814.0000000 magnetization 

 Free energy of the ion-electron system (eV)
  ---------------------------------------------------
  alpha Z        PSCENC =      1999.46692064
  Ewald energy   TEWEN  =    226154.16725528
  -Hartree energ DENC   =   -351937.61740516
  -exchange      EXHF   =         0.00000000
  -V(xc)+E(xc)   XCENC  =      3784.46121364
  PAW double counting   =    115860.90926010  -120909.33166199
  entropy T*S    EENTRO =        -1.06980777
  eigenvalues    EBANDS =    -15137.96012388
  atomic energy  EATOM  =    139780.45519414
  Solvation  Ediel_sol  =         0.00000000
  ---------------------------------------------------
  free energy    TOTEN  =      -406.51915500 eV

  energy without entropy =     -405.44934723  energy(sigma->0) =     -405.98425111


--------------------------------------------------------------------------------------------------------




--------------------------------------- Iteration      1(   5)  ---------------------------------------


     EDDAV:  cpu time    7.4378: real time    7.4390
       DOS:  cpu time    0.0012: real time    0.0012
    CHARGE:  cpu time    0.2229: real time    0.2229
    MIXING:  cpu time    0.0076: real time    0.0076
    --------------------------------------------
      LOOP:  cpu time    7.6696: real time    7.6708

 eigenvalue-minimisations  :  1272
 total energy-change (2. order) :-0.2427327E+01  (-0.2424016E+01)
 number of electron     814.0000008 magnetization 
 augmentation part      294.8798821 magnetization 

 Broyden mixing:
  rms(total) = 0.98348E+01    rms(broyden)= 0.98253E+01
  rms(prec ) = 0.10169E+02
  weight for this iteration     100.00

 Free energy of the ion-electron system (eV)
  ---------------------------------------------------
  alpha Z        PSCENC =      1999.46692064
  Ewald energy   TEWEN  =    226154.16725528
  -Hartree energ DENC   =   -351937.61740516
  -exchange      EXHF   =         0.00000000
  -V(xc)+E(xc)   XCENC  =      3784.46121364
  PAW double counting   =    115860.90926010  -120909.33166199
  entropy T*S    EENTRO =        -1.07059276
  eigenvalues    EBANDS =    -15140.38666542
  atomic energy  EATOM  =    139780.45519414
  Solvation  Ediel_sol  =         0.00000000
  ---------------------------------------------------
  free energy    TOTEN  =      -408.94648152 eV

  energy without entropy =     -407.87588876  energy(sigma->0) =     -408.41118514


--------------------------------------------------------------------------------------------------------




--------------------------------------- Iteration      1(   6)  ---------------------------------------


    POTLOK:  cpu time    0.2466: real time    0.2469
    SETDIJ:  cpu time    0.0195: real time    0.0195
     EDDAV:  cpu time    7.2768: real time    7.2774
       DOS:  cpu time    0.0012: real time    0.0012
    CHARGE:  cpu time    0.4506: real time    0.4506
    MIXING:  cpu time    0.0094: real time    0.0094
    --------------------------------------------
      LOOP:  cpu time    8.0041: real time    8.0050

 eigenvalue-minimisations  :  1224
 total energy-change (2. order) :-0.6539861E+02  (-0.9416966E+02)
 number of electron     814.0000018 magnetization 
 augmentation part      355.5769867 magnetization 

 Broyden mixing:
  rms(total) = 0.15337E+02    rms(broyden)= 0.15335E+02
  rms(prec ) = 0.15895E+02
  weight for this iteration     100.00

 eigenvalues of (default mixing * dielectric matrix)
  average eigenvalue GAMMA=   0.2637
  0.2637

 Free energy of the ion-electron system (eV)
  ---------------------------------------------------
  alpha Z        PSCENC =      1999.46692064
  Ewald energy   TEWEN  =    226154.16725528
  -Hartree energ DENC   =   -349178.06020855
  -exchange      EXHF   =         0.00000000
  -V(xc)+E(xc)   XCENC  =      3708.96800821
  PAW double counting   =    120909.84843776  -125722.47343085
  entropy T*S    EENTRO =        -0.84380722
  eigenvalues    EBANDS =    -18125.87345818
  atomic energy  EATOM  =    139780.45519414
  Solvation  Ediel_sol  =         0.00000000
  ---------------------------------------------------
  free energy    TOTEN  =      -474.34508877 eV

  energy without entropy =     -473.50128155  energy(sigma->0) =     -473.92318516


--------------------------------------------------------------------------------------------------------




--------------------------------------- Iteration      1(   7)  ---------------------------------------


    POTLOK:  cpu time    0.2432: real time    0.2432
    SETDIJ:  cpu time    0.0196: real time    0.0196
     EDDAV:  cpu time    6.7023: real time    6.7043
       DOS:  cpu time    0.0012: real time    0.0012
    CHARGE:  cpu time    0.2124: real time    0.2124
    MIXING:  cpu time    0.0092: real time    0.0092
    --------------------------------------------
      LOOP:  cpu time    7.1878: real time    7.1899

 eigenvalue-minimisations  :  1112
 total energy-change (2. order) : 0.1002173E+03  (-0.2044892E+02)
 number of electron     814.0000011 magnetization 
 augmentation part      338.4872622 magnetization 

 Broyden mixing:
  rms(total) = 0.63718E+01    rms(broyden)= 0.63699E+01
  rms(prec ) = 0.65881E+01
  weight for this iteration     100.00

 eigenvalues of (default mixing * dielectric matrix)
  average eigenvalue GAMMA=   0.5438
  0.6440  0.4435

 Free energy of the ion-electron system (eV)
  ---------------------------------------------------
  alpha Z        PSCENC =      1999.46692064
  Ewald energy   TEWEN  =    226154.16725528
  -Hartree energ DENC   =   -350421.49775142
  -exchange      EXHF   =         0.00000000
  -V(xc)+E(xc)   XCENC  =      3737.27465980
  PAW double counting   =    125724.76754853  -130688.29328242
  entropy T*S    EENTRO =        -0.82991666
  eigenvalues    EBANDS =    -16659.63839723
  atomic energy  EATOM  =    139780.45519414
  Solvation  Ediel_sol  =         0.00000000
  ---------------------------------------------------
  free energy    TOTEN  =      -374.12776932 eV

  energy without entropy =     -373.29785266  energy(sigma->0) =     -373.71281099


--------------------------------------------------------------------------------------------------------




--------------------------------------- Iteration      1(   8)  ---------------------------------------


    POTLOK:  cpu time    0.2505: real time    0.2505
    SETDIJ:  cpu time    0.0194: real time    0.0194
     EDDAV:  cpu time    7.4548: real time    7.4560
       DOS:  cpu time    0.0011: real time    0.0011
    CHARGE:  cpu time    0.2093: real time    0.2093
    MIXING:  cpu time    0.0096: real time    0.0096
    --------------------------------------------
      LOOP:  cpu time    7.9448: real time    7.9461

 eigenvalue-minimisations  :  1280
 total energy-change (2. order) :-0.7021195E+02  (-0.2447470E+02)
 number of electron     814.0000041 magnetization 
 augmentation part      312.8053226 magnetization 

 Broyden mixing:
  rms(total) = 0.13794E+02    rms(broyden)= 0.13791E+02
  rms(prec ) = 0.15616E+02
  weight for this iteration     100.00

 eigenvalues of (default mixing * dielectric matrix)
  average eigenvalue GAMMA=   0.5278
  0.9757  0.4294  0.1785

 Free energy of the ion-electron system (eV)
  ---------------------------------------------------
  alpha Z        PSCENC =      1999.46692064
  Ewald energy   TEWEN  =    226154.16725528
  -Hartree energ DENC   =   -351174.74929825
  -exchange      EXHF   =         0.00000000
  -V(xc)+E(xc)   XCENC  =      3763.50761302
  PAW double counting   =    133474.47014872  -138582.52268553
  entropy T*S    EENTRO =        -0.90353079
  eigenvalues    EBANDS =    -15858.23134057
  atomic energy  EATOM  =    139780.45519414
  Solvation  Ediel_sol  =         0.00000000
  ---------------------------------------------------
  free energy    TOTEN  =      -444.33972334 eV

  energy without entropy =     -443.43619255  energy(sigma->0) =     -443.88795794


--------------------------------------------------------------------------------------------------------




--------------------------------------- Iteration      1(   9)  ---------------------------------------


    POTLOK:  cpu time    0.2437: real time    0.2437
    SETDIJ:  cpu time    0.0195: real time    0.0195
     EDDAV:  cpu time    7.6393: real time    7.6454
       DOS:  cpu time    0.0012: real time    0.0012
    CHARGE:  cpu time    0.2144: real time    0.2144
    MIXING:  cpu time    0.0097: real time    0.0097
    --------------------------------------------
      LOOP:  cpu time    8.1278: real time    8.1339

 eigenvalue-minimisations  :  1272
 total energy-change (2. order) : 0.6294690E+02  (-0.1188564E+02)
 number of electron     814.0000008 magnetization 
 augmentation part      313.1598329 magnetization 

 Broyden mixing:
  rms(total) = 0.52766E+01    rms(broyden)= 0.52681E+01
  rms(prec ) = 0.57163E+01
  weight for this iteration     100.00

 eigenvalues of (default mixing * dielectric matrix)
  average eigenvalue GAMMA=   0.7515
  1.9813  0.4419  0.4419  0.1407

 Free energy of the ion-electron system (eV)
  ---------------------------------------------------
  alpha Z        PSCENC =      1999.46692064
  Ewald energy   TEWEN  =    226154.16725528
  -Hartree energ DENC   =   -351348.15728428
  -exchange      EXHF   =         0.00000000
  -V(xc)+E(xc)   XCENC  =      3761.47280678
  PAW double counting   =    137061.00734746  -142186.27938988
  entropy T*S    EENTRO =        -1.03180008
  eigenvalues    EBANDS =    -15602.49387232
  atomic energy  EATOM  =    139780.45519414
  Solvation  Ediel_sol  =         0.00000000
  ---------------------------------------------------
  free energy    TOTEN  =      -381.39282225 eV

  energy without entropy =     -380.36102217  energy(sigma->0) =     -380.87692221


--------------------------------------------------------------------------------------------------------




--------------------------------------- Iteration      1(  10)  ---------------------------------------


    POTLOK:  cpu time    0.2470: real time    0.2470
    SETDIJ:  cpu time    0.0195: real time    0.0195
     EDDAV:  cpu time    7.7659: real time    7.7699
       DOS:  cpu time    0.0012: real time    0.0012
    CHARGE:  cpu time    0.2152: real time    0.2152
    MIXING:  cpu time    0.0105: real time    0.0105
    --------------------------------------------
      LOOP:  cpu time    8.2593: real time    8.2633

 eigenvalue-minimisations  :  1344
 total energy-change (2. order) :-0.2086055E+02  (-0.8597535E+01)
 number of electron     813.9999968 magnetization 
 augmentation part      313.8208155 magnetization 

 Broyden mixing:
  rms(total) = 0.90148E+01    rms(broyden)= 0.90117E+01
  rms(prec ) = 0.10273E+02
  weight for this iteration     100.00

 eigenvalues of (default mixing * dielectric matrix)
  average eigenvalue GAMMA=   0.7130
  2.3737  0.4506  0.4506  0.1450  0.1450

 Free energy of the ion-electron system (eV)
  ---------------------------------------------------
  alpha Z        PSCENC =      1999.46692064
  Ewald energy   TEWEN  =    226154.16725528
  -Hartree energ DENC   =   -351165.52701566
  -exchange      EXHF   =         0.00000000
  -V(xc)+E(xc)   XCENC  =      3755.23838397
  PAW double counting   =    144361.92455054  -149518.55514177
  entropy T*S    EENTRO =        -1.24524534
  eigenvalues    EBANDS =    -15768.17827323
  atomic energy  EATOM  =    139780.45519414
  Solvation  Ediel_sol  =         0.00000000
  ---------------------------------------------------
  free energy    TOTEN  =      -402.25337143 eV

  energy without entropy =     -401.00812609  energy(sigma->0) =     -401.63074876


--------------------------------------------------------------------------------------------------------




--------------------------------------- Iteration      1(  11)  ---------------------------------------


    POTLOK:  cpu time    0.2445: real time    0.2447
    SETDIJ:  cpu time    0.0202: real time    0.0202
     EDDAV:  cpu time    7.9270: real time    7.9290
       DOS:  cpu time    0.0012: real time    0.0012
    CHARGE:  cpu time    0.2161: real time    0.2172
    MIXING:  cpu time    0.0096: real time    0.0096
    --------------------------------------------
      LOOP:  cpu time    8.4186: real time    8.4219

 eigenvalue-minimisations  :  1320
 total energy-change (2. order) : 0.2043137E+02  (-0.6427801E+01)
 number of electron     814.0000013 magnetization 
 augmentation part      319.5884796 magnetization 

 Broyden mixing:
  rms(total) = 0.48706E+01    rms(broyden)= 0.48668E+01
  rms(prec ) = 0.54362E+01
  weight for this iteration     100.00

 eigenvalues of (default mixing * dielectric matrix)
  average eigenvalue GAMMA=   0.6352
  2.4130  0.4487  0.4487  0.2095  0.1727  0.1189

 Free energy of the ion-electron system (eV)
  ---------------------------------------------------
  alpha Z        PSCENC =      1999.46692064
  Ewald energy   TEWEN  =    226154.16725528
  -Hartree energ DENC   =   -351058.39826172
  -exchange      EXHF   =         0.00000000
  -V(xc)+E(xc)   XCENC  =      3752.49503074
  PAW double counting   =    147342.80917709  -152511.67145934
  entropy T*S    EENTRO =        -0.94194241
  eigenvalues    EBANDS =    -15840.20391088
  atomic energy  EATOM  =    139780.45519414
  Solvation  Ediel_sol  =         0.00000000
  ---------------------------------------------------
  free energy    TOTEN  =      -381.82199646 eV

  energy without entropy =     -380.88005404  energy(sigma->0) =     -381.35102525


--------------------------------------------------------------------------------------------------------




--------------------------------------- Iteration      1(  12)  ---------------------------------------


    POTLOK:  cpu time    0.2446: real time    0.2446
    SETDIJ:  cpu time    0.0194: real time    0.0194
     EDDAV:  cpu time    7.4321: real time    7.4332
       DOS:  cpu time    0.0013: real time    0.0012
    CHARGE:  cpu time    0.2198: real time    0.2198
    MIXING:  cpu time    0.0103: real time    0.0103
    --------------------------------------------
      LOOP:  cpu time    7.9276: real time    7.9286

 eigenvalue-minimisations  :  1280
 total energy-change (2. order) : 0.1079002E+02  (-0.2470568E+01)
 number of electron     814.0000023 magnetization 
 augmentation part      321.6117418 magnetization 

 Broyden mixing:
  rms(total) = 0.30717E+01    rms(broyden)= 0.30688E+01
  rms(prec ) = 0.34351E+01
  weight for this iteration     100.00

 eigenvalues of (default mixing * dielectric matrix)
  average eigenvalue GAMMA=   0.6041
  2.3021  0.5067  0.4700  0.4700  0.2069  0.1363  0.1363

 Free energy of the ion-electron system (eV)
  ---------------------------------------------------
  alpha Z        PSCENC =      1999.46692064
  Ewald energy   TEWEN  =    226154.16725528
  -Hartree energ DENC   =   -351045.19936768
  -exchange      EXHF   =         0.00000000
  -V(xc)+E(xc)   XCENC  =      3751.90074976
  PAW double counting   =    147558.30238220  -152727.55109556
  entropy T*S    EENTRO =        -0.90059730
  eigenvalues    EBANDS =    -15841.67341437
  atomic energy  EATOM  =    139780.45519414
  Solvation  Ediel_sol  =         0.00000000
  ---------------------------------------------------
  free energy    TOTEN  =      -371.03197289 eV

  energy without entropy =     -370.13137559  energy(sigma->0) =     -370.58167424


--------------------------------------------------------------------------------------------------------




--------------------------------------- Iteration      1(  13)  ---------------------------------------


    POTLOK:  cpu time    0.2456: real time    0.2456
    SETDIJ:  cpu time    0.0195: real time    0.0195
     EDDAV:  cpu time    8.0302: real time    8.0353
       DOS:  cpu time    0.0012: real time    0.0012
    CHARGE:  cpu time    0.2177: real time    0.2177
    MIXING:  cpu time    0.0103: real time    0.0103
    --------------------------------------------
      LOOP:  cpu time    8.5244: real time    8.5295

 eigenvalue-minimisations  :  1352
 total energy-change (2. order) : 0.1268994E+01  (-0.1673977E+01)
 number of electron     813.9999978 magnetization 
 augmentation part      320.5304539 magnetization 

 Broyden mixing:
  rms(total) = 0.36403E+01    rms(broyden)= 0.36380E+01
  rms(prec ) = 0.42855E+01
  weight for this iteration     100.00

 eigenvalues of (default mixing * dielectric matrix)
  average eigenvalue GAMMA=   0.5643
  2.2155  0.6733  0.4813  0.4813  0.2362  0.1525  0.1525  0.1219

 Free energy of the ion-electron system (eV)
  ---------------------------------------------------
  alpha Z        PSCENC =      1999.46692064
  Ewald energy   TEWEN  =    226154.16725528
  -Hartree energ DENC   =   -351089.32892873
  -exchange      EXHF   =         0.00000000
  -V(xc)+E(xc)   XCENC  =      3752.71490203
  PAW double counting   =    146654.12795158  -151819.09405629
  entropy T*S    EENTRO =        -0.89776137
  eigenvalues    EBANDS =    -15801.37445594
  atomic energy  EATOM  =    139780.45519414
  Solvation  Ediel_sol  =         0.00000000
  ---------------------------------------------------
  free energy    TOTEN  =      -369.76297865 eV

  energy without entropy =     -368.86521728  energy(sigma->0) =     -369.31409797


--------------------------------------------------------------------------------------------------------




--------------------------------------- Iteration      1(  14)  ---------------------------------------


    POTLOK:  cpu time    0.2456: real time    0.2456
    SETDIJ:  cpu time    0.0195: real time    0.0195
     EDDAV:  cpu time    7.8368: real time    7.8380
       DOS:  cpu time    0.0012: real time    0.0012
    CHARGE:  cpu time    0.2163: real time    0.2163
    MIXING:  cpu time    0.0113: real time    0.0113
    --------------------------------------------
      LOOP:  cpu time    8.3307: real time    8.3318

 eigenvalue-minimisations  :  1360
 total energy-change (2. order) : 0.5660252E+01  (-0.1197168E+01)
 number of electron     814.0000017 magnetization 
 augmentation part      321.4327270 magnetization 

 Broyden mixing:
  rms(total) = 0.21999E+01    rms(broyden)= 0.21976E+01
  rms(prec ) = 0.24899E+01
  weight for this iteration     100.00

 eigenvalues of (default mixing * dielectric matrix)
  average eigenvalue GAMMA=   0.5404
  2.2179  0.5925  0.5925  0.4383  0.4383  0.1644  0.1644  0.1329  0.1222

 Free energy of the ion-electron system (eV)
  ---------------------------------------------------
  alpha Z        PSCENC =      1999.46692064
  Ewald energy   TEWEN  =    226154.16725528
  -Hartree energ DENC   =   -351072.75669115
  -exchange      EXHF   =         0.00000000
  -V(xc)+E(xc)   XCENC  =      3752.81046025
  PAW double counting   =    146009.88313616  -151169.48557347
  entropy T*S    EENTRO =        -0.93760546
  eigenvalues    EBANDS =    -15817.70582280
  atomic energy  EATOM  =    139780.45519414
  Solvation  Ediel_sol  =         0.00000000
  ---------------------------------------------------
  free energy    TOTEN  =      -364.10272641 eV

  energy without entropy =     -363.16512094  energy(sigma->0) =     -363.63392368


--------------------------------------------------------------------------------------------------------




--------------------------------------- Iteration      1(  15)  ---------------------------------------


    POTLOK:  cpu time    0.2919: real time    0.2920
    SETDIJ:  cpu time    0.0355: real time    0.0356
     EDDAV:  cpu time    7.8989: real time    7.9032
       DOS:  cpu time    0.0012: real time    0.0012
    CHARGE:  cpu time    0.2166: real time    0.2166
    MIXING:  cpu time    0.0132: real time    0.0132
    --------------------------------------------
      LOOP:  cpu time    8.4572: real time    8.4616

 eigenvalue-minimisations  :  1344
 total energy-change (2. order) : 0.8859319E+00  (-0.3674874E+00)
 number of electron     814.0000018 magnetization 
 augmentation part      321.1758744 magnetization 

 Broyden mixing:
  rms(total) = 0.18810E+01    rms(broyden)= 0.18804E+01
  rms(prec ) = 0.21218E+01
  weight for this iteration     100.00

 eigenvalues of (default mixing * dielectric matrix)
  average eigenvalue GAMMA=   0.5424
  2.1982  0.7844  0.7844  0.4496  0.4496  0.1800  0.1800  0.1400  0.1400  0.1178

 Free energy of the ion-electron system (eV)
  ---------------------------------------------------
  alpha Z        PSCENC =      1999.46692064
  Ewald energy   TEWEN  =    226154.16725528
  -Hartree energ DENC   =   -351084.70763831
  -exchange      EXHF   =         0.00000000
  -V(xc)+E(xc)   XCENC  =      3753.09556371
  PAW double counting   =    145856.24736034  -151014.54811869
  entropy T*S    EENTRO =        -0.89867089
  eigenvalues    EBANDS =    -15806.49466069
  atomic energy  EATOM  =    139780.45519414
  Solvation  Ediel_sol  =         0.00000000
  ---------------------------------------------------
  free energy    TOTEN  =      -363.21679446 eV

  energy without entropy =     -362.31812356  energy(sigma->0) =     -362.76745901


--------------------------------------------------------------------------------------------------------




--------------------------------------- Iteration      1(  16)  ---------------------------------------


    POTLOK:  cpu time    0.2472: real time    0.2472
    SETDIJ:  cpu time    0.0210: real time    0.0210
     EDDAV:  cpu time    7.6833: real time    7.6875
       DOS:  cpu time    0.0015: real time    0.0015
    CHARGE:  cpu time    0.4182: real time    0.4182
    MIXING:  cpu time    0.0240: real time    0.0240
    --------------------------------------------
      LOOP:  cpu time    8.3952: real time    8.3994

 eigenvalue-minimisations  :  1336
 total energy-change (2. order) : 0.1022123E+01  (-0.1474914E+00)
 number of electron     814.0000011 magnetization 
 augmentation part      320.9950009 magnetization 

 Broyden mixing:
  rms(total) = 0.16071E+01    rms(broyden)= 0.16068E+01
  rms(prec ) = 0.18141E+01
  weight for this iteration     100.00

 eigenvalues of (default mixing * dielectric matrix)
  average eigenvalue GAMMA=   0.5244
  2.1809  0.8590  0.8590  0.4453  0.4453  0.2226  0.2226  0.1489  0.1489  0.1244
  0.1121

 Free energy of the ion-electron system (eV)
  ---------------------------------------------------
  alpha Z        PSCENC =      1999.46692064
  Ewald energy   TEWEN  =    226154.16725528
  -Hartree energ DENC   =   -351101.99633120
  -exchange      EXHF   =         0.00000000
  -V(xc)+E(xc)   XCENC  =      3753.38161359
  PAW double counting   =    145549.04331542  -150704.29820616
  entropy T*S    EENTRO =        -0.96373003
  eigenvalues    EBANDS =    -15791.45070283
  atomic energy  EATOM  =    139780.45519414
  Solvation  Ediel_sol  =         0.00000000
  ---------------------------------------------------
  free energy    TOTEN  =      -362.19467116 eV

  energy without entropy =     -361.23094113  energy(sigma->0) =     -361.71280614


--------------------------------------------------------------------------------------------------------




--------------------------------------- Iteration      1(  17)  ---------------------------------------


    POTLOK:  cpu time    0.2625: real time    0.2629
    SETDIJ:  cpu time    0.0215: real time    0.0215
     EDDAV:  cpu time    7.5826: real time    7.5846
       DOS:  cpu time    0.0011: real time    0.0011
    CHARGE:  cpu time    0.2164: real time    0.2165
    MIXING:  cpu time    0.0120: real time    0.0120
    --------------------------------------------
      LOOP:  cpu time    8.0962: real time    8.0986

 eigenvalue-minimisations  :  1312
 total energy-change (2. order) : 0.4288526E+00  (-0.5335968E-01)
 number of electron     814.0000014 magnetization 
 augmentation part      320.8071630 magnetization 

 Broyden mixing:
  rms(total) = 0.14773E+01    rms(broyden)= 0.14772E+01
  rms(prec ) = 0.16644E+01
  weight for this iteration     100.00

 eigenvalues of (default mixing * dielectric matrix)
  average eigenvalue GAMMA=   0.5475
  2.1577  1.0654  1.0654  0.4590  0.4590  0.4380  0.2167  0.1623  0.1623  0.1347
  0.1347  0.1143

 Free energy of the ion-electron system (eV)
  ---------------------------------------------------
  alpha Z        PSCENC =      1999.46692064
  Ewald energy   TEWEN  =    226154.16725528
  -Hartree energ DENC   =   -351112.52137611
  -exchange      EXHF   =         0.00000000
  -V(xc)+E(xc)   XCENC  =      3753.51029953
  PAW double counting   =    145330.78110231  -150483.83061020
  entropy T*S    EENTRO =        -0.95196043
  eigenvalues    EBANDS =    -15782.84264367
  atomic energy  EATOM  =    139780.45519414
  Solvation  Ediel_sol  =         0.00000000
  ---------------------------------------------------
  free energy    TOTEN  =      -361.76581851 eV

  energy without entropy =     -360.81385808  energy(sigma->0) =     -361.28983829


--------------------------------------------------------------------------------------------------------




--------------------------------------- Iteration      1(  18)  ---------------------------------------


    POTLOK:  cpu time    0.2502: real time    0.2502
    SETDIJ:  cpu time    0.0195: real time    0.0195
     EDDAV:  cpu time    7.8655: real time    7.8669
       DOS:  cpu time    0.0012: real time    0.0012
    CHARGE:  cpu time    0.3743: real time    0.3743
    MIXING:  cpu time    0.0126: real time    0.0126
    --------------------------------------------
      LOOP:  cpu time    8.5231: real time    8.5246

 eigenvalue-minimisations  :  1368
 total energy-change (2. order) : 0.7109436E+00  (-0.2733327E-01)
 number of electron     814.0000011 magnetization 
 augmentation part      320.6930570 magnetization 

 Broyden mixing:
  rms(total) = 0.12841E+01    rms(broyden)= 0.12840E+01
  rms(prec ) = 0.14447E+01
  weight for this iteration     100.00

 eigenvalues of (default mixing * dielectric matrix)
  average eigenvalue GAMMA=   0.5646
  2.1542  1.2781  1.2781  0.4784  0.4784  0.3864  0.3864  0.1835  0.1835  0.1451
  0.1451  0.1301  0.1130

 Free energy of the ion-electron system (eV)
  ---------------------------------------------------
  alpha Z        PSCENC =      1999.46692064
  Ewald energy   TEWEN  =    226154.16725528
  -Hartree energ DENC   =   -351124.34309900
  -exchange      EXHF   =         0.00000000
  -V(xc)+E(xc)   XCENC  =      3753.68795970
  PAW double counting   =    144858.42749507  -150006.46444063
  entropy T*S    EENTRO =        -0.97322189
  eigenvalues    EBANDS =    -15775.47893820
  atomic energy  EATOM  =    139780.45519414
  Solvation  Ediel_sol  =         0.00000000
  ---------------------------------------------------
  free energy    TOTEN  =      -361.05487488 eV

  energy without entropy =     -360.08165299  energy(sigma->0) =     -360.56826394


--------------------------------------------------------------------------------------------------------




--------------------------------------- Iteration      1(  19)  ---------------------------------------


    POTLOK:  cpu time    0.2481: real time    0.2482
    SETDIJ:  cpu time    0.0194: real time    0.0194
     EDDAV:  cpu time    7.7616: real time    7.7650
       DOS:  cpu time    0.0012: real time    0.0012
    CHARGE:  cpu time    0.2168: real time    0.2168
    MIXING:  cpu time    0.0137: real time    0.0137
    --------------------------------------------
      LOOP:  cpu time    8.2608: real time    8.2643

 eigenvalue-minimisations  :  1336
 total energy-change (2. order) : 0.5357656E+00  (-0.2604643E-01)
 number of electron     814.0000013 magnetization 
 augmentation part      320.6579508 magnetization 

 Broyden mixing:
  rms(total) = 0.10540E+01    rms(broyden)= 0.10539E+01
  rms(prec ) = 0.11820E+01
  weight for this iteration     100.00

 eigenvalues of (default mixing * dielectric matrix)
  average eigenvalue GAMMA=   0.6179
  2.1512  1.6400  1.6400  0.6065  0.6065  0.4565  0.4565  0.1979  0.1979  0.1512
  0.1512  0.1412  0.1412  0.1136

 Free energy of the ion-electron system (eV)
  ---------------------------------------------------
  alpha Z        PSCENC =      1999.46692064
  Ewald energy   TEWEN  =    226154.16725528
  -Hartree energ DENC   =   -351132.88976068
  -exchange      EXHF   =         0.00000000
  -V(xc)+E(xc)   XCENC  =      3753.78637743
  PAW double counting   =    144473.63125858  -149617.17605481
  entropy T*S    EENTRO =        -0.99472061
  eigenvalues    EBANDS =    -15770.96557926
  atomic energy  EATOM  =    139780.45519414
  Solvation  Ediel_sol  =         0.00000000
  ---------------------------------------------------
  free energy    TOTEN  =      -360.51910928 eV

  energy without entropy =     -359.52438867  energy(sigma->0) =     -360.02174897


--------------------------------------------------------------------------------------------------------




--------------------------------------- Iteration      1(  20)  ---------------------------------------


    POTLOK:  cpu time    0.2484: real time    0.2484
    SETDIJ:  cpu time    0.0195: real time    0.0195
     EDDAV:  cpu time    8.4738: real time    8.4772
       DOS:  cpu time    0.0013: real time    0.0012
    CHARGE:  cpu time    0.2178: real time    0.2178
    MIXING:  cpu time    0.0152: real time    0.0152
    --------------------------------------------
      LOOP:  cpu time    8.9759: real time    8.9793

 eigenvalue-minimisations  :  1456
 total energy-change (2. order) : 0.6667294E+00  (-0.3976689E-01)
 number of electron     814.0000010 magnetization 
 augmentation part      320.6693915 magnetization 

 Broyden mixing:
  rms(total) = 0.66293E+00    rms(broyden)= 0.66263E+00
  rms(prec ) = 0.73751E+00
  weight for this iteration     100.00

 eigenvalues of (default mixing * dielectric matrix)
  average eigenvalue GAMMA=   0.6330
  2.1527  1.8503  1.8503  0.6720  0.6720  0.4541  0.4541  0.3078  0.2053  0.1691
  0.1691  0.1459  0.1459  0.1336  0.1134

 Free energy of the ion-electron system (eV)
  ---------------------------------------------------
  alpha Z        PSCENC =      1999.46692064
  Ewald energy   TEWEN  =    226154.16725528
  -Hartree energ DENC   =   -351149.22737336
  -exchange      EXHF   =         0.00000000
  -V(xc)+E(xc)   XCENC  =      3753.92065329
  PAW double counting   =    143828.78338964  -148964.49564197
  entropy T*S    EENTRO =        -1.02271107
  eigenvalues    EBANDS =    -15761.90006651
  atomic energy  EATOM  =    139780.45519414
  Solvation  Ediel_sol  =         0.00000000
  ---------------------------------------------------
  free energy    TOTEN  =      -359.85237991 eV

  energy without entropy =     -358.82966884  energy(sigma->0) =     -359.34102438


--------------------------------------------------------------------------------------------------------




--------------------------------------- Iteration      1(  21)  ---------------------------------------


    POTLOK:  cpu time    0.2490: real time    0.2490
    SETDIJ:  cpu time    0.0195: real time    0.0195
     EDDAV:  cpu time    7.6838: real time    7.6905
       DOS:  cpu time    0.0013: real time    0.0013
    CHARGE:  cpu time    0.2251: real time    0.2251
    MIXING:  cpu time    0.0149: real time    0.0149
    --------------------------------------------
      LOOP:  cpu time    8.1936: real time    8.2002

 eigenvalue-minimisations  :  1328
 total energy-change (2. order) : 0.2349835E+00  (-0.4497219E-01)
 number of electron     814.0000012 magnetization 
 augmentation part      320.5994832 magnetization 

 Broyden mixing:
  rms(total) = 0.39639E+00    rms(broyden)= 0.39589E+00
  rms(prec ) = 0.43536E+00
  weight for this iteration     100.00

 eigenvalues of (default mixing * dielectric matrix)
  average eigenvalue GAMMA=   0.6316
  2.1685  1.8841  1.8841  0.7497  0.7497  0.4608  0.4608  0.4919  0.2122  0.1785
  0.1785  0.1135  0.1467  0.1467  0.1349  0.1456

 Free energy of the ion-electron system (eV)
  ---------------------------------------------------
  alpha Z        PSCENC =      1999.46692064
  Ewald energy   TEWEN  =    226154.16725528
  -Hartree energ DENC   =   -351168.42217459
  -exchange      EXHF   =         0.00000000
  -V(xc)+E(xc)   XCENC  =      3754.02407420
  PAW double counting   =    143354.53072307  -148484.23082775
  entropy T*S    EENTRO =        -1.04191167
  eigenvalues    EBANDS =    -15748.56664975
  atomic energy  EATOM  =    139780.45519414
  Solvation  Ediel_sol  =         0.00000000
  ---------------------------------------------------
  free energy    TOTEN  =      -359.61739642 eV

  energy without entropy =     -358.57548475  energy(sigma->0) =     -359.09644059


--------------------------------------------------------------------------------------------------------




--------------------------------------- Iteration      1(  22)  ---------------------------------------


    POTLOK:  cpu time    0.2500: real time    0.2500
    SETDIJ:  cpu time    0.0195: real time    0.0195
     EDDAV:  cpu time    7.4703: real time    7.4712
       DOS:  cpu time    0.0013: real time    0.0013
    CHARGE:  cpu time    0.2209: real time    0.2210
    MIXING:  cpu time    0.0148: real time    0.0148
    --------------------------------------------
      LOOP:  cpu time    7.9768: real time    7.9778

 eigenvalue-minimisations  :  1232
 total energy-change (2. order) : 0.8687118E-02  (-0.1958429E-01)
 number of electron     814.0000013 magnetization 
 augmentation part      320.6615851 magnetization 

 Broyden mixing:
  rms(total) = 0.35147E+00    rms(broyden)= 0.35137E+00
  rms(prec ) = 0.38059E+00
  weight for this iteration     100.00

 eigenvalues of (default mixing * dielectric matrix)
  average eigenvalue GAMMA=   0.6278
  2.1374  1.9365  1.9365  0.8354  0.8354  0.5810  0.4654  0.4654  0.2320  0.1944
  0.1944  0.1134  0.1605  0.1605  0.1455  0.1455  0.1339

 Free energy of the ion-electron system (eV)
  ---------------------------------------------------
  alpha Z        PSCENC =      1999.46692064
  Ewald energy   TEWEN  =    226154.16725528
  -Hartree energ DENC   =   -351171.52800060
  -exchange      EXHF   =         0.00000000
  -V(xc)+E(xc)   XCENC  =      3753.97541664
  PAW double counting   =    143338.13803053  -148467.19914603
  entropy T*S    EENTRO =        -1.03218481
  eigenvalues    EBANDS =    -15746.05219510
  atomic energy  EATOM  =    139780.45519414
  Solvation  Ediel_sol  =         0.00000000
  ---------------------------------------------------
  free energy    TOTEN  =      -359.60870930 eV

  energy without entropy =     -358.57652449  energy(sigma->0) =     -359.09261690


--------------------------------------------------------------------------------------------------------




--------------------------------------- Iteration      1(  23)  ---------------------------------------


    POTLOK:  cpu time    0.2521: real time    0.2521
    SETDIJ:  cpu time    0.0194: real time    0.0194
     EDDAV:  cpu time    7.5126: real time    7.5185
       DOS:  cpu time    0.0014: real time    0.0014
    CHARGE:  cpu time    0.2566: real time    0.2567
    MIXING:  cpu time    0.0218: real time    0.0218
    --------------------------------------------
      LOOP:  cpu time    8.0639: real time    8.0698

 eigenvalue-minimisations  :  1296
 total energy-change (2. order) : 0.3619762E-01  (-0.8471503E-02)
 number of electron     814.0000011 magnetization 
 augmentation part      320.6734501 magnetization 

 Broyden mixing:
  rms(total) = 0.23657E+00    rms(broyden)= 0.23642E+00
  rms(prec ) = 0.25604E+00
  weight for this iteration     100.00

 eigenvalues of (default mixing * dielectric matrix)
  average eigenvalue GAMMA=   0.6668
  2.1317  1.9458  1.9458  1.1467  1.1467  0.6581  0.6581  0.4639  0.4639  0.2143
  0.1901  0.1901  0.1135  0.1338  0.1458  0.1458  0.1544  0.1544

 Free energy of the ion-electron system (eV)
  ---------------------------------------------------
  alpha Z        PSCENC =      1999.46692064
  Ewald energy   TEWEN  =    226154.16725528
  -Hartree energ DENC   =   -351180.04417325
  -exchange      EXHF   =         0.00000000
  -V(xc)+E(xc)   XCENC  =      3753.99759196
  PAW double counting   =    143118.83273548  -148245.31184039
  entropy T*S    EENTRO =        -1.04181174
  eigenvalues    EBANDS =    -15740.09438382
  atomic energy  EATOM  =    139780.45519414
  Solvation  Ediel_sol  =         0.00000000
  ---------------------------------------------------
  free energy    TOTEN  =      -359.57251168 eV

  energy without entropy =     -358.53069995  energy(sigma->0) =     -359.05160581


--------------------------------------------------------------------------------------------------------




--------------------------------------- Iteration      1(  24)  ---------------------------------------


    POTLOK:  cpu time    0.2637: real time    0.2650
    SETDIJ:  cpu time    0.0234: real time    0.0234
     EDDAV:  cpu time    7.9607: real time    7.9637
       DOS:  cpu time    0.0012: real time    0.0012
    CHARGE:  cpu time    0.2159: real time    0.2159
    MIXING:  cpu time    0.0174: real time    0.0174
    --------------------------------------------
      LOOP:  cpu time    8.4823: real time    8.4865

 eigenvalue-minimisations  :  1344
 total energy-change (2. order) :-0.5468900E-02  (-0.9535142E-02)
 number of electron     814.0000013 magnetization 
 augmentation part      320.8861739 magnetization 

 Broyden mixing:
  rms(total) = 0.25810E+00    rms(broyden)= 0.25793E+00
  rms(prec ) = 0.28137E+00
  weight for this iteration     100.00

 eigenvalues of (default mixing * dielectric matrix)
  average eigenvalue GAMMA=   0.6643
  1.8075  1.8075  1.9521  1.9521  0.9673  0.7812  0.7812  0.4632  0.4632  0.2325
  0.2026  0.1838  0.1838  0.1135  0.1339  0.1463  0.1463  0.1516  0.1516

 Free energy of the ion-electron system (eV)
  ---------------------------------------------------
  alpha Z        PSCENC =      1999.46692064
  Ewald energy   TEWEN  =    226154.16725528
  -Hartree energ DENC   =   -351182.85589018
  -exchange      EXHF   =         0.00000000
  -V(xc)+E(xc)   XCENC  =      3753.89523203
  PAW double counting   =    143034.06032463  -148159.34821339
  entropy T*S    EENTRO =        -1.04018480
  eigenvalues    EBANDS =    -15738.37861894
  atomic energy  EATOM  =    139780.45519414
  Solvation  Ediel_sol  =         0.00000000
  ---------------------------------------------------
  free energy    TOTEN  =      -359.57798058 eV

  energy without entropy =     -358.53779578  energy(sigma->0) =     -359.05788818


--------------------------------------------------------------------------------------------------------




--------------------------------------- Iteration      1(  25)  ---------------------------------------


    POTLOK:  cpu time    0.2508: real time    0.2508
    SETDIJ:  cpu time    0.0194: real time    0.0195
     EDDAV:  cpu time    7.7147: real time    7.7166
       DOS:  cpu time    0.0013: real time    0.0013
    CHARGE:  cpu time    0.2225: real time    0.2225
    MIXING:  cpu time    0.0177: real time    0.0177
    --------------------------------------------
      LOOP:  cpu time    8.2265: real time    8.2284

 eigenvalue-minimisations  :  1344
 total energy-change (2. order) : 0.1869363E-01  (-0.1057832E-01)
 number of electron     814.0000012 magnetization 
 augmentation part      320.9639676 magnetization 

 Broyden mixing:
  rms(total) = 0.13926E+00    rms(broyden)= 0.13888E+00
  rms(prec ) = 0.15943E+00
  weight for this iteration     100.00

 eigenvalues of (default mixing * dielectric matrix)
  average eigenvalue GAMMA=   0.6915
  2.3780  2.1658  1.8894  1.8894  0.8420  0.7845  0.7845  0.5666  0.4633  0.4633
  0.2145  0.1900  0.1900  0.1135  0.1704  0.1465  0.1465  0.1338  0.1487  0.1487

 Free energy of the ion-electron system (eV)
  ---------------------------------------------------
  alpha Z        PSCENC =      1999.46692064
  Ewald energy   TEWEN  =    226154.16725528
  -Hartree energ DENC   =   -351192.84013386
  -exchange      EXHF   =         0.00000000
  -V(xc)+E(xc)   XCENC  =      3753.89116957
[...]
  Alpha Z  1999.46692  1999.46692  1999.46692
  Ewald  275819.74584280987.36697************ -2222.55242  -116.70868  2170.86059
  Hartree313274.41009317310.93683************ -1772.23595    12.98290  1689.03818
  E(xc)   -5193.73760 -5191.78768 -5198.02160    -0.95408    -0.67723     0.96890
  Local  ************************596534.36401  3981.57745    74.23763 -3822.18127
  n-local  -639.22844  -630.96722  -639.46643     1.03112     0.23087    -3.25440
  augment  5952.43703  5942.85229  5962.51195     1.71486     9.45791   -10.18997
  Kinetic 11402.12285 11378.42959 11455.44106     5.92031    18.59169   -25.10944
  Fock        0.00000     0.00000     0.00000     0.00000     0.00000     0.00000
  -------------------------------------------------------------------------------------
  Total      85.07485    99.60479   103.62831    -5.49871    -1.88490     0.13259
  in kB      69.35796    81.20362    84.48382    -4.48287    -1.53668     0.10809
  external pressure =       78.35 kB  Pullay stress =        0.00 kB


 VOLUME and BASIS-vectors are now :
 -----------------------------------------------------------------------------
  energy-cutoff  :      450.00
  volume of cell :     1965.24
      direct lattice vectors                 reciprocal lattice vectors
    10.079732985  0.000000000  0.000000000     0.099208977 -0.037612667  0.000000000
     3.573298043  9.425102554  0.000000000     0.000000000  0.106099641  0.000000000
     0.000000000  0.000000000 20.686181568     0.000000000  0.000000000  0.048341449

  length of vectors
    10.079732985 10.079732985 20.686181568     0.106099641  0.106099641  0.048341449


 FORCES acting on ions
    electron-ion (+dipol)            ewald-force                    non-local-force                 convergence-correction
 -----------------------------------------------------------------------------------------------
   0.463E+03 0.146E+03 0.540E+04   -.466E+03 -.148E+03 -.541E+04   0.100E+01 0.131E+01 0.676E+01   -.283E-01 -.548E-02 -.175E-01
   0.596E+03 0.480E+03 0.295E+04   -.599E+03 -.484E+03 -.294E+04   0.251E+01 0.250E+01 -.812E+00   -.495E-01 -.192E-01 0.604E-01
   0.119E+03 -.429E+03 -.397E+03   -.120E+03 0.430E+03 0.398E+03   0.774E+00 -.135E+01 -.567E+00   -.212E-01 -.120E-01 -.283E-01
   0.141E+03 -.716E+03 -.351E+04   -.141E+03 0.718E+03 0.351E+04   -.495E+00 -.149E+01 0.598E+00   -.563E-02 0.320E-01 -.431E-01
   -.110E+03 -.613E+03 -.573E+04   0.110E+03 0.611E+03 0.572E+04   0.470E+00 0.208E+01 0.562E+01   0.339E-01 0.305E-01 0.159E+00
   -.588E+02 -.172E+03 0.152E+04   0.584E+02 0.170E+03 -.151E+04   0.415E+00 0.906E+00 -.391E+01   -.132E-01 0.291E-01 0.643E-01
   -.218E+02 -.406E+03 -.145E+04   0.209E+02 0.407E+03 0.145E+04   0.863E+00 -.100E+01 0.302E-01   -.846E-02 0.471E-01 -.238E-01
   0.745E+02 -.581E+03 -.464E+04   -.750E+02 0.584E+03 0.464E+04   0.624E+00 -.120E+01 -.405E+01   -.971E-02 0.284E-01 0.225E-02
   -.235E+03 -.386E+03 0.407E+04   0.236E+03 0.388E+03 -.407E+04   -.643E+00 -.229E+01 0.296E-01   0.109E-01 -.463E-01 0.660E-01
   -.320E+03 -.513E+02 -.509E+04   0.320E+03 0.562E+02 0.510E+04   -.726E+00 -.381E+01 -.432E+01   -.944E-04 -.240E-01 -.376E-01
   0.110E+03 -.347E+03 0.340E+04   -.111E+03 0.347E+03 -.340E+04   0.611E+00 -.673E+00 0.519E+01   0.147E-01 0.121E+00 0.109E+00
   -.221E+03 -.186E+03 0.507E+03   0.222E+03 0.184E+03 -.503E+03   -.119E+01 0.100E+01 -.284E+01   0.326E-01 -.614E-01 0.137E+00
   -.706E+02 -.374E+03 -.215E+04   0.699E+02 0.376E+03 0.215E+04   0.622E+00 -.180E+01 0.133E+01   0.438E-01 -.109E+00 -.561E-01
   -.217E+03 -.414E+03 0.368E+04   0.219E+03 0.417E+03 -.368E+04   -.183E+01 -.374E+01 0.644E+00   -.341E-01 0.246E-01 0.739E-01
   0.314E+03 0.124E+03 0.573E+03   -.313E+03 -.122E+03 -.571E+03   0.325E+00 -.164E+01 -.162E+01   -.148E-01 0.497E-01 0.359E-01
   0.583E+03 0.141E+03 -.227E+04   -.585E+03 -.142E+03 0.227E+04   0.252E+01 0.523E+00 0.112E+01   -.471E-01 0.471E-03 -.274E-01
   0.522E+03 0.260E+03 -.506E+04   -.525E+03 -.262E+03 0.507E+04   0.202E+01 0.237E+01 -.353E+01   -.226E-01 -.364E-01 0.448E-01
   0.653E+03 0.400E+03 0.290E+04   -.655E+03 -.401E+03 -.290E+04   0.135E+01 0.923E+00 -.555E+00   0.284E-01 0.376E-01 0.456E-01
   0.408E+03 0.362E+03 -.355E+03   -.410E+03 -.362E+03 0.355E+03   0.137E+01 -.159E+00 0.270E-01   -.786E-02 -.154E-01 0.229E-02
   0.442E+03 0.487E+03 -.359E+04   -.445E+03 -.490E+03 0.359E+04   0.219E+01 0.190E+01 -.270E+01   -.602E-01 -.204E-01 -.327E-01
   0.132E+03 0.133E+03 0.584E+04   -.133E+03 -.133E+03 -.585E+04   0.109E+01 -.208E+00 0.829E+01   0.131E-01 0.672E-02 -.359E-01
   0.318E+03 0.384E+03 -.448E+04   -.325E+03 -.386E+03 0.448E+04   0.390E+01 0.116E+01 -.221E+01   0.254E-01 0.376E-01 -.521E-01
   -.124E+03 -.118E+03 0.434E+04   0.125E+03 0.119E+03 -.434E+04   0.117E+01 -.169E+01 0.407E+01   -.860E-01 -.495E-01 0.501E-01
   0.259E+03 0.264E+03 0.150E+04   -.259E+03 -.265E+03 -.149E+04   -.629E-01 0.548E+00 -.281E+01   0.136E-01 -.100E+00 0.141E+00
   0.385E+03 0.352E+03 -.136E+04   -.387E+03 -.352E+03 0.136E+04   0.128E+01 -.161E+00 0.589E+00   0.109E+00 0.163E-01 -.276E-01
   -.792E+03 0.150E+03 -.425E+04   0.797E+03 -.151E+03 0.425E+04   -.428E+01 0.119E+01 -.964E+00   0.467E-01 -.304E-01 -.129E-01
   0.430E+03 0.482E+03 0.503E+04   -.429E+03 -.484E+03 -.503E+04   -.170E+01 0.109E+01 0.513E+01   0.207E-02 -.233E-01 0.265E-01
   -.336E+03 0.126E+03 0.174E+04   0.336E+03 -.126E+03 -.174E+04   -.282E+00 -.731E+00 -.173E+01   0.283E-01 0.305E-01 0.389E-01
   -.474E+03 0.865E+02 -.124E+04   0.476E+03 -.858E+02 0.124E+04   -.155E+01 -.663E+00 0.181E+01   0.545E-01 0.925E-02 -.525E-01
   -.748E+03 -.103E+03 0.415E+04   0.752E+03 0.104E+03 -.415E+04   -.428E+01 0.376E+00 0.189E+01   -.466E-01 0.349E-01 0.295E-01
   -.356E+03 0.129E+03 0.608E+03   0.355E+03 -.130E+03 -.607E+03   0.273E+00 0.705E+00 -.475E+00   -.361E-01 0.970E-02 0.329E-01
   -.186E+03 0.104E+03 -.223E+04   0.188E+03 -.104E+03 0.223E+04   -.308E+01 0.972E+00 0.218E+01   0.274E-02 0.166E-01 -.697E-01
   0.631E+02 0.430E+03 -.516E+04   -.636E+02 -.431E+03 0.516E+04   0.938E+00 0.498E+00 0.123E+01   0.469E-01 -.331E-01 0.668E-01
   -.782E+03 0.182E+03 0.320E+04   0.785E+03 -.182E+03 -.320E+04   -.271E+01 0.117E+00 0.426E+00   0.625E-01 -.836E-01 0.124E+00
   -.553E+03 0.152E+03 -.295E+03   0.555E+03 -.151E+03 0.295E+03   -.132E+01 -.606E+00 0.525E+00   -.362E-01 -.989E-02 0.491E-01
   -.706E+03 0.124E+03 -.377E+04   0.712E+03 -.125E+03 0.377E+04   -.454E+01 0.642E+00 0.403E+00   -.551E-01 0.280E-01 -.536E-01
   -.194E+03 -.439E+03 0.539E+04   0.195E+03 0.443E+03 -.540E+04   -.885E+00 -.298E+01 0.435E+01   0.161E-01 -.322E-01 0.314E-02
   -.149E+03 0.128E+03 -.217E+04   0.150E+03 -.130E+03 0.217E+04   -.614E+00 0.121E+01 -.178E+01   0.862E-02 -.239E-01 0.254E-01
   0.146E+03 0.336E+01 0.177E+04   -.147E+03 -.513E+01 -.178E+04   0.119E+00 0.379E+01 0.286E+01   0.353E-02 0.248E-01 0.203E-01
   -.228E+02 0.731E+02 0.160E+02   0.232E+02 -.745E+02 -.143E+02   -.106E+00 0.122E+01 -.526E+00   0.355E-02 0.164E-01 0.375E-02
   -.696E+01 0.148E+03 -.868E+03   0.597E+01 -.150E+03 0.863E+03   0.601E+00 0.135E+01 0.167E+01   0.116E-01 -.346E-01 -.176E-01
   0.199E+03 0.137E+03 0.223E+04   -.203E+03 -.138E+03 -.224E+04   0.255E+01 0.489E-01 0.191E+01   -.817E-03 0.127E-01 -.194E-01
   0.871E+02 0.106E+03 0.779E+03   -.866E+02 -.106E+03 -.777E+03   -.797E+00 0.347E+00 0.439E+00   -.883E-02 -.305E-02 0.309E-01
   0.558E+02 0.142E+03 -.242E+03   -.563E+02 -.143E+03 0.242E+03   0.284E+00 0.182E+01 0.936E-01   -.138E-01 0.264E-02 -.970E-02
   0.177E+03 0.237E+03 -.143E+04   -.178E+03 -.238E+03 0.144E+04   0.603E+00 0.249E+00 -.590E+00   -.153E-01 0.188E-02 -.114E-01
   -.894E+02 0.681E+02 0.435E+03   0.910E+02 -.683E+02 -.434E+03   -.144E+01 0.598E+00 -.445E+00   0.124E-01 -.706E-02 0.499E-01
   -.380E+02 0.134E+03 -.591E+03   0.375E+02 -.135E+03 0.587E+03   0.625E+00 0.115E+01 0.129E+01   0.606E-02 0.354E-01 -.194E-01
   -.704E+02 0.107E+03 -.177E+04   0.700E+02 -.108E+03 0.177E+04   0.875E+00 -.151E+00 0.133E+00   -.192E-02 0.255E-01 -.327E-02
   -.145E+03 0.723E+01 0.212E+04   0.146E+03 -.727E+01 -.213E+04   -.852E+00 0.148E+01 0.351E+01   0.101E-01 -.579E-01 -.388E-03
   0.164E+03 0.200E+03 0.232E+04   -.164E+03 -.201E+03 -.233E+04   -.641E+00 0.157E+00 0.317E+01   -.233E-01 -.694E-02 -.269E-01
   0.190E+02 -.175E+02 0.736E+03   -.168E+02 0.174E+02 -.734E+03   -.201E+01 0.116E+01 0.328E+00   0.466E-02 -.187E-01 0.376E-01
   -.103E+03 -.112E+03 -.325E+03   0.105E+03 0.114E+03 0.325E+03   -.163E+01 -.218E+01 0.190E+00   0.251E-01 0.139E-01 -.277E-01
   -.253E+03 -.203E+03 -.147E+04   0.255E+03 0.204E+03 0.147E+04   -.640E+00 -.468E+00 -.973E+00   0.357E-01 0.123E-01 -.999E-03
   -.368E+03 -.252E+03 0.201E+04   0.373E+03 0.256E+03 -.201E+04   -.242E+01 -.207E+01 0.219E+01   -.169E-01 0.223E-02 -.879E-03
   -.100E+03 -.722E+01 0.403E+03   0.102E+03 0.615E+01 -.402E+03   -.168E+01 0.466E+00 -.273E+00   -.197E-01 0.102E-01 0.320E-01
   -.800E+02 -.137E+03 -.702E+03   0.816E+02 0.139E+03 0.702E+03   -.158E+01 -.194E+01 -.557E+00   -.152E-01 0.538E-02 -.143E-01
   0.622E+01 -.115E+03 -.193E+04   -.413E+01 0.114E+03 0.193E+04   -.114E+01 0.609E+00 -.744E+00   0.446E-03 0.120E-01 0.975E-02
   -.162E+03 -.879E+02 0.119E+03   0.164E+03 0.895E+02 -.119E+03   -.200E+01 -.154E+01 0.460E+00   0.548E-02 -.409E-01 0.342E-01
   -.260E+03 -.108E+02 -.107E+04   0.262E+03 0.126E+02 0.107E+04   -.114E+01 -.199E+01 -.651E+00   -.318E-01 -.182E-01 -.308E-01
   -.180E+03 0.102E+03 -.227E+04   0.182E+03 -.102E+03 0.228E+04   -.760E+00 0.669E+00 -.259E+01   0.986E-03 0.925E-03 0.740E-02
   -.253E+03 -.983E+02 0.160E+04   0.255E+03 0.100E+03 -.160E+04   -.647E+00 -.131E+01 0.194E+01   0.548E-01 0.117E-01 0.226E-01
   0.227E+03 0.155E+03 0.175E+04   -.228E+03 -.159E+03 -.176E+04   0.430E+00 0.198E+01 0.256E+01   0.133E-01 -.115E-01 0.633E-02
   0.103E+03 -.169E+03 0.499E+03   -.105E+03 0.171E+03 -.500E+03   0.210E+01 -.150E+01 0.110E+01   -.226E-01 0.969E-02 0.388E-01
   0.176E+03 -.116E+03 -.829E+03   -.179E+03 0.117E+03 0.830E+03   0.274E+01 -.126E+01 -.110E+01   -.362E-01 0.147E-01 -.147E-01
   0.450E+03 -.242E+03 -.191E+04   -.456E+03 0.244E+03 0.192E+04   0.293E+01 -.133E+01 -.141E+01   -.270E-01 0.575E-02 0.243E-01
   0.137E+03 -.495E+02 -.129E+01   -.140E+03 0.506E+02 0.213E+01   0.242E+01 -.100E+01 -.991E+00   0.218E-01 0.965E-02 -.270E-02
   0.786E+02 -.498E+02 -.118E+04   -.813E+02 0.510E+02 0.118E+04   0.280E+01 -.128E+01 -.780E+00   -.358E-02 0.367E-03 -.202E-01
   0.114E+03 0.113E+03 -.227E+04   -.115E+03 -.114E+03 0.227E+04   0.513E-01 0.417E+00 -.106E+00   -.114E-01 -.163E-02 0.318E-01
   0.115E+03 -.674E+02 0.225E+04   -.116E+03 0.697E+02 -.226E+04   0.950E+00 -.178E+01 0.341E+01   0.146E-01 -.126E-01 -.326E-01
   0.324E+03 0.137E+03 0.127E+04   -.329E+03 -.140E+03 -.126E+04   0.236E+01 0.898E+00 0.204E+00   0.137E-01 0.915E-02 0.245E-01
   -.310E+03 -.241E+03 0.211E+04   0.313E+03 0.244E+03 -.211E+04   -.784E+00 -.134E+01 0.303E+01   -.246E-01 0.161E-01 -.272E-01
   0.195E+03 -.197E+03 0.807E+03   -.198E+03 0.199E+03 -.805E+03   0.189E+01 -.149E+01 0.538E+00   -.333E-01 -.806E-02 0.641E-01
   0.149E+03 -.576E+02 -.373E+03   -.152E+03 0.587E+02 0.373E+03   0.295E+01 -.902E+00 -.102E+01   0.267E-01 -.272E-01 -.268E-02
   0.153E+03 0.798E+02 -.159E+04   -.157E+03 -.782E+02 0.159E+04   0.289E+01 -.162E+01 -.231E+01   0.401E-01 -.117E-01 -.293E-01
 -----------------------------------------------------------------------------------------------
   -.598E+01 0.112E+02 -.343E+02   -.145E-11 0.220E-11 -.227E-11   0.605E+01 -.109E+02 0.333E+02   0.991E-02 -.153E+00 0.942E+00
 
 
 POSITION                                       TOTAL-FORCE (eV/Angst)
 -----------------------------------------------------------------------------------
      6.63709      9.25860      1.35474        -1.140153     -0.733383     -1.705269
      6.84285      7.49250      2.80967        -0.417231     -1.790896      3.078389
      7.82056      6.07621      5.43518        -0.235377     -0.216630      0.109074
      8.79827      4.65991      8.06068         0.175769      0.429553     -0.254810
      9.53680      3.21954     10.18010         0.396215      0.044782      1.500749
      2.61774      3.87870      3.68484         0.066024     -0.847464      1.521089
      3.59545      2.46241      6.31034         0.008851     -0.216685     -0.192209
      4.57317      1.04611      8.93585         0.107897      1.707055     -1.272844
     11.78758      5.57197      2.32798         0.662870     -0.197952      0.271088
      3.71259      7.60594      9.46591         0.002401      1.088197      0.937967
      7.91526      2.02352      3.21220        -0.233350     -0.304695     -0.647268
      8.47237      0.26490      4.56001         0.418214     -1.090297      1.472773
     13.02338      8.27371      7.18551         0.018684     -0.056894     -0.467760
      5.12796      4.49136      3.02528         0.609213      0.075103     -0.860549
      6.61816      3.96023      4.74150         0.612876     -0.271240      0.883193
      7.59587      2.54394      7.36701        -0.140640     -0.563714     -1.311956
      8.30444      1.17979      9.62036        -0.827518      0.291321      0.827489
      1.41534      1.76273      2.99117        -0.299025      0.104381      1.604167
      2.39305      0.34643      5.61667        -0.044555     -0.125989     -0.036034
      6.94406      8.35524      8.24217        -1.203150     -0.684294     -2.188830
      1.69150      3.64556      0.87959        -0.116515     -0.318331     -2.167079
      2.73162      4.81514      8.90168        -2.405697     -1.006436      0.881837
      9.07688      8.27883      2.13391         1.643359      0.165148     -0.109789
     10.84326      7.57403      3.86634         0.078604     -0.345377      0.533047
     11.82097      6.15773      6.49184        -0.204265     -0.054952     -0.124127
      0.84408      1.56230      8.98239         0.842848      0.475787      0.459525
      8.64652      5.53506      1.72104        -1.277508     -1.259188     -0.410247
      9.02296      4.33443      4.04783        -0.028328     -0.236506     -0.081674
     10.00068      2.91813      6.67333         0.222055      0.028074     -0.123067
      3.82015      2.13692      2.29749         0.457120      0.835561      0.857560
      4.79786      0.72063      4.92300        -0.052734     -0.077665      0.208485
      9.34887      8.72943      7.54850        -0.166356      0.688307     -2.474926
     10.19787      7.53126      9.43213         0.411997     -0.905117      1.128513
      3.16834      7.94822      3.17266         0.396233      0.350725      0.544874
      4.14605      6.53193      5.79816         0.490162      0.096162      0.060641
      5.12376      5.11563      8.42367         1.560133      0.197323     -1.792331
     11.32529      9.41819      1.90814        -0.306497      0.536678     -1.658866
     10.02357      0.13654     10.22878         0.472794     -0.574531      2.135105
      7.35546      3.82659      2.60924        -1.235800      2.047350     -1.907075
      8.33317      2.41029      5.23474         0.305448     -0.114876      1.185232
      9.31088      0.99399      7.86025        -0.382819     -0.817908     -3.435913
      2.14982      1.65829      1.04155        -1.033882     -0.658526     -2.757386
      3.13035      0.21279      3.48441        -0.314303      0.528916      2.715810
      7.68136      8.22159      6.10991        -0.187378      0.335584     -0.714226
      8.56647      6.87792      8.38531        -0.256396     -1.463095      1.317007
      2.47854      6.02409      4.35958         0.223717      0.350540      0.868345
      3.45626      4.60779      6.98508         0.066251      0.410085     -2.594543
      4.26584      3.23193      9.00338         0.511407     -0.789045      1.664764
     11.58056      7.44039      1.73407         0.185752      1.389435     -2.135360
      7.67546      7.29496      0.94588        -0.087072     -0.993682     -3.538025
      8.88655      6.52099      3.49254         0.214584      0.995554      2.145342
      9.86427      5.10469      6.11804         0.340792      0.010306     -0.097067
     10.84198      3.68840      8.74354         1.542766      1.221171     -0.586106
      3.47551      4.25588      1.78723         2.272846      1.384830     -1.886618
      4.66145      2.90719      4.36771         0.001063     -0.601527      0.866549
      5.63916      1.49089      6.99321         0.009839      0.048785     -0.782025
      6.46448      0.15426      9.37452         0.952936      0.179626      2.177565
      4.00964      8.71849      5.24287        -0.010952     -0.000775      0.416609
      4.98735      7.30220      7.86838         1.273435     -0.127571     -0.987385
      4.15088      5.71057     10.11434         0.634585     -0.175688      3.712102
      9.53836      0.70969      2.61737         1.557245      0.905086     -0.004253
      4.97978      8.00429      2.05418        -1.398226     -1.269093     -1.689648
      5.82436      6.04450      4.37584        -0.079898      0.526142      0.384486
      6.80207      4.62821      7.00134         0.058930      0.198677     -0.720022
      7.74011      3.24210      9.30255        -2.280812      1.141892      2.438273
      1.59925      2.43070      5.25100        -0.137621      0.056980     -0.160143
      2.57697      1.01441      7.87651         0.074287     -0.108408     -0.544856
      7.36177      9.02156     10.07993        -0.794330     -0.670047      4.115293
     10.40156      5.22749      0.62184        -0.233218      0.532041     -2.427502
     10.70128      3.84700      2.62550        -2.343559     -1.941505      2.751615
      4.93955      0.68603      1.23057         2.009827      1.267488     -2.321514
      6.47617      0.23320      3.50067        -1.100845      0.831636      2.349552
     11.02718      8.24201      6.12617         0.369102      0.220050     -0.444477
     12.00489      6.82571      8.75167        -1.283118     -0.086352     -0.510324
 -----------------------------------------------------------------------------------
    total drift:                                0.079683      0.113411     -0.020437


--------------------------------------------------------------------------------------------------------



  FREE ENERGIE OF THE ION-ELECTRON SYSTEM (eV)
  ---------------------------------------------------
  free  energy   TOTEN  =      -359.55008681 eV

  energy  without entropy=     -358.51301719  energy(sigma->0) =     -359.03155200
 


--------------------------------------------------------------------------------------------------------


    POTLOK:  cpu time    0.3265: real time    0.3265


--------------------------------------------------------------------------------------------------------


     LOOP+:  cpu time  266.3831: real time  266.4803
    4ORBIT:  cpu time    0.0000: real time    0.0000

 total amount of memory used by VASP MPI-rank0    68860. kBytes
=======================================================================

   base      :      30000. kBytes
   nonlr-proj:       2354. kBytes
   fftplans  :       8265. kBytes
   grid      :      13942. kBytes
   one-center:        101. kBytes
   wavefun   :      14198. kBytes
 
  
  
 General timing and accounting informations for this job:
 ========================================================
  
                  Total CPU time used (sec):      269.285
                            User time (sec):      268.930
                          System time (sec):        0.355
                         Elapsed time (sec):      269.619
  
                   Maximum memory used (kb):      185524.
                   Average memory used (kb):           0.
  
                          Minor page faults:       113668
                          Major page faults:            0
                 Voluntary context switches:          164
