"Millerite NiS"                         
           1
    10.079733    0.000000    0.000000
     3.573298    9.425103    0.000000
     0.000000    0.000000   20.686182
   Ty   Ty
  37  37
Direct configuration=     1
   0.31021818  0.98233450  0.06549030
   0.39705889  0.79495179  0.13582373
   0.54732741  0.64468327  0.26274432
   0.69759592  0.49441476  0.38966491
   0.82504099  0.34159219  0.49212065
   0.11381506  0.41152895  0.17813060
   0.26408358  0.26126044  0.30505119
   0.41435209  0.11099192  0.43197178
   0.95985723  0.59118448  0.11253799
   0.08224216  0.80698738  0.45759578
   0.70915504  0.21469493  0.15528256
   0.83057123  0.02810611  0.22043746
   0.98083975  0.87783760  0.34735805
   0.33980748  0.47653166  0.14624645
   0.50762556  0.42017912  0.22921114
   0.65789408  0.26991060  0.35613173
   0.77950001  0.12517541  0.46506228
   0.07411322  0.18702479  0.14459741
   0.22438173  0.03675628  0.27151800
   0.37465025  0.88648777  0.39843860
   0.03069235  0.38679261  0.04252077
   0.08989091  0.51088478  0.43032026
   0.58911869  0.87838076  0.10315611
   0.79086939  0.80360196  0.18690428
   0.94113790  0.65333344  0.31382487
   0.02497784  0.16575993  0.43422165
   0.64962428  0.58726830  0.08319772
   0.73212972  0.45988096  0.19567796
   0.88239823  0.30961245  0.32259855
   0.29861738  0.22672664  0.11106423
   0.44888589  0.07645812  0.23798482
   0.59915440  0.92618961  0.36490542
   0.72844921  0.79906415  0.45596288
   0.01537355  0.84330380  0.15337110
   0.16564206  0.69303528  0.28029169
   0.31591057  0.54276677  0.40721228
   0.76932724  0.99926623  0.09224235
   0.98929222  0.01448736  0.49447428
   0.58579930  0.40599939  0.12613453
   0.73606781  0.25573087  0.25305512
   0.88633632  0.10546236  0.37997571
   0.15090905  0.17594406  0.05035023
   0.30255547  0.02257655  0.16844139
   0.45282398  0.87230804  0.29536199
   0.59117355  0.72974496  0.40535804
   0.01931164  0.63915371  0.21074826
   0.16958015  0.48888520  0.33766885
   0.30164864  0.34290628  0.43523642
   0.86904312  0.78942222  0.08382767
   0.48709194  0.77399289  0.04572520
   0.63635413  0.69187455  0.16883442
   0.78662264  0.54160604  0.29575501
   0.93689116  0.39133753  0.42267561
   0.18472725  0.45154722  0.08639751
   0.35311030  0.30845171  0.21114129
   0.50337881  0.15818320  0.33806188
   0.63553240  0.01636642  0.45317809
   0.06986647  0.92502888  0.25344815
   0.22013498  0.77476036  0.38036874
   0.19701422  0.60588991  0.48894172
   0.91959796  0.07529739  0.12652756
   0.19297602  0.84925180  0.09930207
   0.35047897  0.64131971  0.21153432
   0.50074748  0.49105120  0.33845491
   0.64594492  0.34398543  0.44969855
   0.06723514  0.25789688  0.25384118
   0.21750365  0.10762836  0.38076177
   0.39102821  0.95718445  0.48727839
   0.83530857  0.55463479  0.03006042
   0.91696662  0.40816539  0.12692059
   0.46424425  0.07278771  0.05948734
   0.63372280  0.02474255  0.16922746
   0.78399131  0.87447404  0.29614805
   0.93425982  0.72420553  0.42306864
