<?xml version="1.0" encoding="ISO-8859-1"?>
<modeling>
 <generator>
  <i name="program" type="string">vasp </i>
  <i name="version" type="string">5.4.4.18Apr17-6-g9f103f2a35  </i>
  <i name="subversion" type="string">(build Aug 13 2019 17:33:20) gamma-only         parallel </i>
  <i name="platform" type="string">LinuxIFC </i>
  <i name="date" type="string">2020 05 10 </i>
  <i name="time" type="string">14:25:23 </i>
 </generator>
 <incar>
  <i type="string" name="SYSTEM">"Millerite NiS"</i>
  <i type="string" name="PREC">normal</i>
  <i type="int" name="NSIM">     4</i>
  <i type="int" name="NELM">   100</i>
  <i name="ENCUT">    450.00000000</i>
  <i type="string" name="LREAL">A</i>
  <i type="int" name="ISMEAR">     0</i>
  <i type="int" name="NWRITE">     2</i>
  <i type="logical" name="LWAVE"> F  </i>
  <i type="logical" name="LCHARG"> F  </i>
  <v type="int" name="KPOINT_BSE">    -1     0     0     0</v>
  <i type="int" name="NELM">   100</i>
 </incar>
 <structure name="primitive_cell" >
  <crystal>
   <varray name="basis" >
    <v>      11.25646304       0.00000000       0.00000000 </v>
    <v>       5.04456212      10.06282034       0.00000000 </v>
    <v>       0.00000000       0.00000000      21.74423184 </v>
   </varray>
   <i name="volume">   2463.00752351 </i>
   <varray name="rec_basis" >
    <v>       0.08883785      -0.04453504       0.00000000 </v>
    <v>       0.00000000       0.09937572       0.00000000 </v>
    <v>       0.00000000       0.00000000       0.04598921 </v>
   </varray>
  </crystal>
  <varray name="positions" >
   <v>       0.26092070       0.47878036       0.25332799 </v>
   <v>       0.07287764      -0.33317657       0.27005396 </v>
   <v>       0.17409868       0.39738738       0.18045411 </v>
   <v>       0.34231368      -0.43439761       0.18045411 </v>
   <v>       0.43627354       0.47164251       0.31548109 </v>
   <v>       0.26805855       0.30342751       0.31548109 </v>
   <v>       0.36819893       0.23939913       0.21765305 </v>
   <v>      -0.49969806       0.37150212       0.21765305 </v>
   <v>       0.35488056       0.38482049       0.38835497 </v>
   <v>       0.16696083      -0.42725976       0.11830101 </v>
   <v>       0.16683750      -0.42713643       0.40508094 </v>
   <v>       0.47891775       0.26078330       0.13502698 </v>
   <v>      -0.42712237       0.16682343       0.27005396 </v>
   <v>       0.00030194       0.37150212       0.21765305 </v>
   <v>       0.09426181      -0.22245774       0.35268003 </v>
   <v>      -0.03784120      -0.35456074       0.35268003 </v>
   <v>       0.36819893      -0.26060087       0.21765305 </v>
   <v>       0.26805855      -0.19657249       0.31548109 </v>
   <v>      -0.06372646       0.47164251       0.31548109 </v>
   <v>       0.40634206       0.46546199       0.08262607 </v>
   <v>       0.27423906       0.33335899       0.08262607 </v>
   <v>       0.46215880       0.14543926       0.35268003 </v>
   <v>      -0.40573819       0.27754226       0.35268003 </v>
   <v>       0.09426181       0.27754226       0.35268003 </v>
   <v>       0.46215880      -0.35456074       0.35268003 </v>
   <v>       0.00030194      -0.12849788       0.21765305 </v>
   <v>      -0.13180107      -0.26060087       0.21765305 </v>
   <v>      -0.02108225      -0.23921670       0.13502698 </v>
   <v>      -0.01141546       0.44245188       0.11435014 </v>
   <v>       0.26160083      -0.34309934       0.06389796 </v>
   <v>       0.34231368       0.06560239       0.18045411 </v>
   <v>      -0.32590132       0.39738738       0.18045411 </v>
   <v>      -0.15768632      -0.43439761       0.18045411 </v>
   <v>       0.17409868      -0.10261262       0.18045411 </v>
   <v>       0.09992828       0.48767674       0.05270131 </v>
   <v>       0.07287763       0.16682343       0.27005396 </v>
   <v>      -0.42712236      -0.33317657       0.27005396 </v>
   <v>       0.36201842       0.20946765       0.45050807 </v>
   <v>      -0.46976657       0.37768264       0.45050807 </v>
   <v>       0.18935011      -0.31177042       0.47272156 </v>
   <v>       0.05101588      -0.44990576       0.47262702 </v>
   <v>      -0.06372646      -0.02835749       0.31548109 </v>
   <v>      -0.23194145      -0.19657249       0.31548109 </v>
   <v>      -0.23194145       0.30342751       0.31548109 </v>
   <v>       0.43627354      -0.02835749       0.31548109 </v>
   <v>       0.36746202       0.37304963       0.01300913 </v>
   <v>       0.03023343       0.37768264       0.45050807 </v>
   <v>       0.36201842      -0.29053236       0.45050807 </v>
   <v>      -0.41713234       0.47864161       0.06809950 </v>
   <v>       0.36586470       0.37317481       0.49636159 </v>
   <v>       0.47891775      -0.23921670       0.13502698 </v>
   <v>      -0.02108225       0.26078330       0.13502698 </v>
   <v>       0.26064516       0.15653123       0.06401997 </v>
   <v>       0.27423907      -0.16664101       0.08262607 </v>
   <v>      -0.33303917       0.07274024       0.11830101 </v>
   <v>      -0.14511944      -0.11517951       0.38835497 </v>
   <v>       0.26092070      -0.02121964       0.25332799 </v>
   <v>      -0.23907930       0.47878036       0.25332799 </v>
   <v>      -0.32292275      -0.44482442       0.13130298 </v>
   <v>      -0.33316250       0.07286357       0.40508094 </v>
   <v>       0.18567952       0.19831959       0.46622141 </v>
   <v>       0.03023342      -0.12231736       0.45050807 </v>
   <v>      -0.13798158      -0.29053236       0.45050807 </v>
   <v>       0.16696083       0.07274024       0.11830101 </v>
   <v>       0.35488056      -0.11517951       0.38835497 </v>
   <v>      -0.14511944       0.38482049       0.38835497 </v>
   <v>      -0.23907930      -0.02121964       0.25332799 </v>
   <v>      -0.21548553      -0.16357750       0.10285012 </v>
   <v>      -0.07637965      -0.03791379       0.10169195 </v>
   <v>      -0.44898819      -0.44990242       0.47262674 </v>
   <v>       0.20466240      -0.46539150      -0.46982513 </v>
   <v>       0.16683750       0.07286357       0.40508094 </v>
   <v>      -0.33316250      -0.42713643       0.40508094 </v>
   <v>      -0.13180107       0.23939913       0.21765305 </v>
   <v>      -0.49969806      -0.12849788       0.21765305 </v>
   <v>      -0.15768632       0.06560239       0.18045411 </v>
   <v>      -0.32590132      -0.10261262       0.18045411 </v>
   <v>      -0.45838124       0.05443248       0.46621826 </v>
   <v>      -0.31432233       0.19832174       0.46621991 </v>
   <v>      -0.22576094       0.33335899       0.08262607 </v>
   <v>       0.40634206      -0.03453801       0.08262607 </v>
   <v>      -0.03784120       0.14543926       0.35268003 </v>
   <v>      -0.40573819      -0.22245774       0.35268003 </v>
   <v>      -0.18052935       0.48516245       0.06180265 </v>
   <v>       0.08461795      -0.02030728       0.06353061 </v>
   <v>      -0.04489237      -0.21531417      -0.49480182 </v>
   <v>      -0.22434331       0.14674336       0.06769804 </v>
   <v>      -0.40416210      -0.03737128       0.06729703 </v>
   <v>       0.45509531      -0.21530214      -0.49480211 </v>
   <v>       0.35535361      -0.11514385       0.01247483 </v>
   <v>      -0.13411155       0.37314999       0.49636642 </v>
   <v>      -0.13798158       0.20946765       0.45050807 </v>
   <v>      -0.46976658      -0.12231736       0.45050807 </v>
   <v>       0.04162165       0.05443372       0.46622094 </v>
   <v>      -0.31065480      -0.31177236       0.47272666 </v>
   <v>      -0.29532410      -0.46541324      -0.46982938 </v>
  </varray>
 </structure>
 <varray name="primitive_index" >
  <v type="int" >        1 </v>
  <v type="int" >       75 </v>
  <v type="int" >       59 </v>
  <v type="int" >       82 </v>
  <v type="int" >       55 </v>
  <v type="int" >       60 </v>
  <v type="int" >        7 </v>
  <v type="int" >       21 </v>
  <v type="int" >        2 </v>
  <v type="int" >       28 </v>
  <v type="int" >       76 </v>
  <v type="int" >       52 </v>
  <v type="int" >       62 </v>
  <v type="int" >        9 </v>
  <v type="int" >       34 </v>
  <v type="int" >       44 </v>
  <v type="int" >       31 </v>
  <v type="int" >       85 </v>
  <v type="int" >       68 </v>
  <v type="int" >       12 </v>
  <v type="int" >        6 </v>
  <v type="int" >        8 </v>
  <v type="int" >       22 </v>
  <v type="int" >       10 </v>
  <v type="int" >       32 </v>
  <v type="int" >       33 </v>
  <v type="int" >       43 </v>
  <v type="int" >       89 </v>
  <v type="int" >       24 </v>
  <v type="int" >       81 </v>
  <v type="int" >       57 </v>
  <v type="int" >       72 </v>
  <v type="int" >       92 </v>
  <v type="int" >       84 </v>
  <v type="int" >       58 </v>
  <v type="int" >       49 </v>
  <v type="int" >       87 </v>
  <v type="int" >       61 </v>
  <v type="int" >       67 </v>
  <v type="int" >       35 </v>
  <v type="int" >       29 </v>
  <v type="int" >       91 </v>
  <v type="int" >       95 </v>
  <v type="int" >       73 </v>
  <v type="int" >       80 </v>
  <v type="int" >       51 </v>
  <v type="int" >       54 </v>
  <v type="int" >       86 </v>
  <v type="int" >       71 </v>
  <v type="int" >        3 </v>
  <v type="int" >       78 </v>
  <v type="int" >       65 </v>
  <v type="int" >       56 </v>
  <v type="int" >       30 </v>
  <v type="int" >       16 </v>
  <v type="int" >       38 </v>
  <v type="int" >       25 </v>
  <v type="int" >       13 </v>
  <v type="int" >       40 </v>
  <v type="int" >       63 </v>
  <v type="int" >       11 </v>
  <v type="int" >       79 </v>
  <v type="int" >       96 </v>
  <v type="int" >        4 </v>
  <v type="int" >       26 </v>
  <v type="int" >       14 </v>
  <v type="int" >       37 </v>
  <v type="int" >       42 </v>
  <v type="int" >       48 </v>
  <v type="int" >       41 </v>
  <v type="int" >       53 </v>
  <v type="int" >       50 </v>
  <v type="int" >       88 </v>
  <v type="int" >       19 </v>
  <v type="int" >       45 </v>
  <v type="int" >       70 </v>
  <v type="int" >       94 </v>
  <v type="int" >       17 </v>
  <v type="int" >       23 </v>
  <v type="int" >       18 </v>
  <v type="int" >       36 </v>
  <v type="int" >       20 </v>
  <v type="int" >       46 </v>
  <v type="int" >       64 </v>
  <v type="int" >       83 </v>
  <v type="int" >       39 </v>
  <v type="int" >       69 </v>
  <v type="int" >       93 </v>
  <v type="int" >       27 </v>
  <v type="int" >       77 </v>
  <v type="int" >       15 </v>
  <v type="int" >       74 </v>
  <v type="int" >       90 </v>
  <v type="int" >        5 </v>
  <v type="int" >       47 </v>
  <v type="int" >       66 </v>
 </varray>
 <kpoints>
  <generation param="Gamma">
   <v type="int" name="divisions">       1        1        1 </v>
   <v name="usershift">      0.00000000       0.00000000       0.00000000 </v>
   <v name="genvec1">      1.00000000       0.00000000       0.00000000 </v>
   <v name="genvec2">      0.00000000       1.00000000       0.00000000 </v>
   <v name="genvec3">      0.00000000       0.00000000       1.00000000 </v>
   <v name="shift">      0.00000000       0.00000000       0.00000000 </v>
  </generation>
  <varray name="kpointlist" >
   <v>       0.00000000       0.00000000       0.00000000 </v>
  </varray>
  <varray name="weights" >
   <v>       1.00000000 </v>
  </varray>
 </kpoints>
 <parameters>
  <separator name="general" >
   <i type="string" name="SYSTEM">"Millerite NiS"</i>
   <i type="logical" name="LCOMPAT"> F  </i>
  </separator>
  <separator name="electronic" >
   <i type="string" name="PREC">normal</i>
   <i name="ENMAX">    450.00000000</i>
   <i name="ENAUG">    703.44300000</i>
   <i name="EDIFF">      0.00010000</i>
   <i type="int" name="IALGO">    38</i>
   <i type="int" name="IWAVPR">    10</i>
   <i type="int" name="NBANDS">   634</i>
   <i name="NELECT">   1056.00000000</i>
   <i type="int" name="TURBO">     0</i>
   <i type="int" name="IRESTART">     0</i>
   <i type="int" name="NREBOOT">     0</i>
   <i type="int" name="NMIN">     0</i>
   <i name="EREF">      0.00000000</i>
   <separator name="electronic smearing" >
    <i type="int" name="ISMEAR">     0</i>
    <i name="SIGMA">      0.20000000</i>
    <i name="KSPACING">      0.50000000</i>
    <i type="logical" name="KGAMMA"> T  </i>
   </separator>
   <separator name="electronic projectors" >
    <i type="logical" name="LREAL"> T  </i>
    <v name="ROPT">     -0.00050000     -0.00050000</v>
    <i type="int" name="LMAXPAW">  -100</i>
    <i type="int" name="LMAXMIX">     2</i>
    <i type="logical" name="NLSPLINE"> F  </i>
   </separator>
   <separator name="electronic startup" >
    <i type="int" name="ISTART">     0</i>
    <i type="int" name="ICHARG">     2</i>
    <i type="int" name="INIWAV">     1</i>
   </separator>
   <separator name="electronic spin" >
    <i type="int" name="ISPIN">     1</i>
    <i type="logical" name="LNONCOLLINEAR"> F  </i>
    <v name="MAGMOM">      1.00000000      1.00000000      1.00000000      1.00000000      1.00000000      1.00000000      1.00000000      1.00000000      1.00000000      1.00000000      1.00000000      1.00000000      1.00000000      1.00000000      1.00000000      1.00000000      1.00000000      1.00000000      1.00000000      1.00000000
      1.00000000      1.00000000      1.00000000      1.00000000      1.00000000      1.00000000      1.00000000      1.00000000      1.00000000      1.00000000      1.00000000      1.00000000      1.00000000      1.00000000      1.00000000      1.00000000      1.00000000      1.00000000      1.00000000      1.00000000
      1.00000000      1.00000000      1.00000000      1.00000000      1.00000000      1.00000000      1.00000000      1.00000000      1.00000000      1.00000000      1.00000000      1.00000000      1.00000000      1.00000000      1.00000000      1.00000000      1.00000000      1.00000000      1.00000000      1.00000000
      1.00000000      1.00000000      1.00000000      1.00000000      1.00000000      1.00000000      1.00000000      1.00000000      1.00000000      1.00000000      1.00000000      1.00000000      1.00000000      1.00000000      1.00000000      1.00000000      1.00000000      1.00000000      1.00000000      1.00000000
      1.00000000      1.00000000      1.00000000      1.00000000      1.00000000      1.00000000      1.00000000      1.00000000      1.00000000      1.00000000      1.00000000      1.00000000      1.00000000      1.00000000      1.00000000      1.00000000</v>
    <i name="NUPDOWN">     -1.00000000</i>
    <i type="logical" name="LSORBIT"> F  </i>
    <v name="SAXIS">      0.00000000      0.00000000      1.00000000</v>
    <i type="logical" name="LSPIRAL"> F  </i>
    <v name="QSPIRAL">      0.00000000      0.00000000      0.00000000</v>
    <i type="logical" name="LZEROZ"> F  </i>
   </separator>
   <separator name="electronic exchange-correlation" >
    <i type="logical" name="LASPH"> F  </i>
    <i type="logical" name="LMETAGGA"> F  </i>
   </separator>
   <separator name="electronic convergence" >
    <i type="int" name="NELM">   100</i>
    <i type="int" name="NELMDL">    -5</i>
    <i type="int" name="NELMIN">     2</i>
    <i name="ENINI">    450.00000000</i>
    <separator name="electronic convergence detail" >
     <i type="logical" name="LDIAG"> T  </i>
     <i type="logical" name="LSUBROT"> F  </i>
     <i name="WEIMIN">      0.00000000</i>
     <i name="EBREAK">      0.00000004</i>
     <i name="DEPER">      0.30000000</i>
     <i type="int" name="NRMM">     4</i>
     <i name="TIME">      0.40000000</i>
    </separator>
   </separator>
   <separator name="electronic mixer" >
    <i name="AMIX">      0.40000000</i>
    <i name="BMIX">      1.00000000</i>
    <i name="AMIN">      0.10000000</i>
    <i name="AMIX_MAG">      1.60000000</i>
    <i name="BMIX_MAG">      1.00000000</i>
    <separator name="electronic mixer details" >
     <i type="int" name="IMIX">     4</i>
     <i type="logical" name="MIXFIRST"> F  </i>
     <i type="int" name="MAXMIX">   -45</i>
     <i name="WC">    100.00000000</i>
     <i type="int" name="INIMIX">     1</i>
     <i type="int" name="MIXPRE">     1</i>
     <i type="int" name="MREMOVE">     5</i>
    </separator>
   </separator>
   <separator name="electronic dipolcorrection" >
    <i type="logical" name="LDIPOL"> F  </i>
    <i type="logical" name="LMONO"> F  </i>
    <i type="int" name="IDIPOL">     0</i>
    <i name="EPSILON">      1.00000000</i>
    <v name="DIPOL">   -100.00000000   -100.00000000   -100.00000000</v>
    <i name="EFIELD">      0.00000000</i>
   </separator>
  </separator>
  <separator name="grids" >
   <i type="int" name="NGX">    60</i>
   <i type="int" name="NGY">    60</i>
   <i type="int" name="NGZ">   120</i>
   <i type="int" name="NGXF">   120</i>
   <i type="int" name="NGYF">   120</i>
   <i type="int" name="NGZF">   240</i>
   <i type="logical" name="ADDGRID"> F  </i>
  </separator>
  <separator name="ionic" >
   <i type="int" name="NSW">     0</i>
   <i type="int" name="IBRION">    -1</i>
   <i type="int" name="MDALGO">     0</i>
   <i type="int" name="ISIF">     2</i>
   <i name="PSTRESS">      0.00000000</i>
   <i name="EDIFFG">      0.00100000</i>
   <i type="int" name="NFREE">     0</i>
   <i name="POTIM">      0.50000000</i>
   <i name="SMASS">     -3.00000000</i>
   <i name="SCALEE">      1.00000000</i>
  </separator>
  <separator name="ionic md" >
   <i name="TEBEG">      0.00010000</i>
   <i name="TEEND">      0.00010000</i>
   <i type="int" name="NBLOCK">     1</i>
   <i type="int" name="KBLOCK">     1</i>
   <i type="int" name="NPACO">   256</i>
   <i name="APACO">     16.00000000</i>
  </separator>
  <separator name="symmetry" >
   <i type="int" name="ISYM">     2</i>
   <i name="SYMPREC">      0.00001000</i>
  </separator>
  <separator name="dos" >
   <i type="int" name="LORBIT">     0</i>
   <v name="RWIGS">     -1.00000000     -1.00000000</v>
   <i type="int" name="NEDOS">   301</i>
   <i name="EMIN">     10.00000000</i>
   <i name="EMAX">    -10.00000000</i>
   <i name="EFERMI">      0.00000000</i>
  </separator>
  <separator name="writing" >
   <i type="int" name="NWRITE">     2</i>
   <i type="logical" name="LWAVE"> F  </i>
   <i type="logical" name="LDOWNSAMPLE"> F  </i>
   <i type="logical" name="LCHARG"> F  </i>
   <i type="logical" name="LPARD"> F  </i>
   <i type="logical" name="LVTOT"> F  </i>
   <i type="logical" name="LVHAR"> F  </i>
   <i type="logical" name="LELF"> F  </i>
   <i type="logical" name="LOPTICS"> F  </i>
   <v name="STM">      0.00000000      0.00000000      0.00000000      0.00000000      0.00000000      0.00000000      0.00000000</v>
  </separator>
  <separator name="performance" >
   <i type="int" name="NPAR">     2</i>
   <i type="int" name="NSIM">     4</i>
   <i type="int" name="NBLK">    -1</i>
   <i type="logical" name="LPLANE"> T  </i>
   <i type="logical" name="LSCALAPACK"> T  </i>
   <i type="logical" name="LSCAAWARE"> F  </i>
   <i type="logical" name="LSCALU"> F  </i>
   <i type="logical" name="LASYNC"> F  </i>
   <i type="logical" name="LORBITALREAL"> F  </i>
  </separator>
  <separator name="miscellaneous" >
   <i type="int" name="IDIOT">     3</i>
   <i type="int" name="ISPECIAL">     0</i>
   <i type="logical" name="LMUSIC"> F  </i>
   <v name="POMASS">     58.69000000     32.06600000</v>
   <v name="DARWINR">      0.00000000      0.00000000</v>
   <v name="DARWINV">      1.00000000      1.00000000</v>
   <i type="logical" name="LCORR"> T  </i>
  </separator>
  <i type="logical" name="GGA_COMPAT"> T  </i>
  <i type="logical" name="LBERRY"> F  </i>
  <i type="int" name="ICORELEVEL">     0</i>
  <i type="logical" name="LDAU"> F  </i>
  <i type="int" name="I_CONSTRAINED_M">     0</i>
  <separator name="electronic exchange-correlation" >
   <i type="string" name="GGA">--</i>
   <i type="int" name="VOSKOWN">     0</i>
   <i type="logical" name="LHFCALC"> F  </i>
   <i type="string" name="PRECFOCK"></i>
   <i type="logical" name="LSYMGRAD"> F  </i>
   <i type="logical" name="LHFONE"> F  </i>
   <i type="logical" name="LRHFCALC"> F  </i>
   <i type="logical" name="LTHOMAS"> F  </i>
   <i type="logical" name="LMODELHF"> F  </i>
   <i name="ENCUT4O">     -1.00000000</i>
   <i type="int" name="EXXOEP">     0</i>
   <i type="int" name="FOURORBIT">     0</i>
   <i name="AEXX">      0.00000000</i>
   <i name="HFALPHA">      0.00000000</i>
   <i name="MCALPHA">      0.00000000</i>
   <i name="ALDAX">      1.00000000</i>
   <i name="AGGAX">      1.00000000</i>
   <i name="ALDAC">      1.00000000</i>
   <i name="AGGAC">      1.00000000</i>
   <i type="int" name="NKREDX">     1</i>
   <i type="int" name="NKREDY">     1</i>
   <i type="int" name="NKREDZ">     1</i>
   <i type="logical" name="SHIFTRED"> F  </i>
   <i type="logical" name="ODDONLY"> F  </i>
   <i type="logical" name="EVENONLY"> F  </i>
   <i type="int" name="LMAXFOCK">     0</i>
   <i type="int" name="NMAXFOCKAE">     0</i>
   <i type="logical" name="LFOCKAEDFT"> F  </i>
   <i name="HFSCREEN">      0.00000000</i>
   <i name="HFSCREENC">      0.00000000</i>
   <i type="int" name="NBANDSGWLOW">     0</i>
  </separator>
  <separator name="vdW DFT" >
   <i type="logical" name="LUSE_VDW"> F  </i>
   <i name="Zab_VDW">     -0.84910000</i>
   <i name="PARAM1">      0.12340000</i>
   <i name="PARAM2">      1.00000000</i>
   <i name="PARAM3">      0.00000000</i>
  </separator>
  <separator name="model GW" >
   <i type="int" name="MODEL_GW">     0</i>
   <i name="MODEL_EPS0">     15.39379702</i>
   <i name="MODEL_ALPHA">      1.00000000</i>
  </separator>
  <separator name="linear response parameters" >
   <i type="logical" name="LEPSILON"> F  </i>
   <i type="logical" name="LRPA"> F  </i>
   <i type="logical" name="LNABLA"> F  </i>
   <i type="logical" name="LVEL"> F  </i>
   <i type="int" name="KINTER">     0</i>
   <i name="CSHIFT">      0.10000000</i>
   <i name="OMEGAMAX">     -1.00000000</i>
   <i name="DEG_THRESHOLD">      0.00200000</i>
   <i name="RTIME">     -0.10000000</i>
   <i name="WPLASMAI">      0.00000000</i>
   <v name="DFIELD">      0.00000000      0.00000000      0.00000000</v>
   <v name="WPLASMA">      0.00000000      0.00000000      0.00000000      0.00000000      0.00000000      0.00000000      0.00000000      0.00000000      0.00000000</v>
  </separator>
  <separator name="orbital magnetization" >
   <i type="logical" name="NUCIND"> F  </i>
   <v name="MAGPOS">      0.00000000      0.00000000      0.00000000</v>
   <i type="logical" name="LNICSALL"> T  </i>
   <i type="logical" name="ORBITALMAG"> F  </i>
   <i type="logical" name="LMAGBLOCH"> F  </i>
   <i type="logical" name="LCHIMAG"> F  </i>
   <i type="logical" name="LGAUGE"> T  </i>
   <i type="int" name="MAGATOM">     0</i>
   <v name="MAGDIPOL">      0.00000000      0.00000000      0.00000000</v>
   <v name="AVECCONST">      0.00000000      0.00000000      0.00000000</v>
  </separator>
  <separator name="response functions" >
   <i type="logical" name="LADDER"> F  </i>
   <i type="logical" name="LRPAFORCE"> F  </i>
   <i type="logical" name="LFXC"> F  </i>
   <i type="logical" name="LHARTREE"> T  </i>
   <i type="int" name="IBSE">     0</i>
   <v type="int" name="KPOINT">    -1     0     0     0</v>
   <i type="logical" name="LTCTE"> F  </i>
   <i type="logical" name="LTETE"> F  </i>
   <i type="logical" name="LTRIPLET"> F  </i>
   <i type="logical" name="LFXCEPS"> F  </i>
   <i type="logical" name="LFXHEG"> F  </i>
   <i type="int" name="NATURALO">     2</i>
   <i type="logical" name="L2ORDER"> F  </i>
   <i type="logical" name="LMP2LT"> F  </i>
   <i type="logical" name="LUSEW"> F  </i>
   <i name="ENCUTGW">     -2.00000000</i>
   <i name="ENCUTGWSOFT">     -2.00000000</i>
   <i name="ENCUTLF">     -1.00000000</i>
   <i type="int" name="LMAXMP2">    -1</i>
   <i name="SCISSOR">      0.00000000</i>
   <i type="int" name="NOMEGA">     0</i>
   <i type="int" name="NOMEGAR">     0</i>
   <i type="int" name="NBANDSGW">    -1</i>
   <i type="int" name="NBANDSO">    -1</i>
   <i type="int" name="NBANDSV">    -1</i>
   <i type="int" name="NELM">   100</i>
   <i type="int" name="NELMHF">     1</i>
   <i type="int" name="DIM">     3</i>
   <i type="int" name="ANTIRES">     0</i>
   <i name="OMEGAMAX">    -30.00000000</i>
   <i name="OMEGAMIN">    -30.00000000</i>
   <i name="OMEGATL">   -200.00000000</i>
   <i type="int" name="OMEGAGRID">   140</i>
   <i name="CSHIFT">     -0.10000000</i>
   <i type="logical" name="SELFENERGY"> F  </i>
   <i type="logical" name="LSPECTRAL"> F  </i>
   <i type="logical" name="LSPECTRALGW"> F  </i>
   <i type="logical" name="LSINGLES"> F  </i>
   <i type="logical" name="LFERMIGW"> F  </i>
   <i type="logical" name="ODDONLYGW"> F  </i>
   <i type="logical" name="EVENONLYGW"> F  </i>
   <i type="int" name="NKREDLFX">     1</i>
   <i type="int" name="NKREDLFY">     1</i>
   <i type="int" name="NKREDLFZ">     1</i>
   <i type="int" name="MAXMEM">  2800</i>
   <i type="int" name="TELESCOPE">     0</i>
   <i type="int" name="TAUPAR">     1</i>
   <i type="int" name="OMEGAPAR">    -1</i>
   <i name="LAMBDA">      1.00000000</i>
  </separator>
  <separator name="External order field" >
   <i name="OFIELD_KAPPA">      0.00000000</i>
   <v name="OFIELD_K">      0.00000000      0.00000000      0.00000000</v>
   <i name="OFIELD_Q6_NEAR">      0.00000000</i>
   <i name="OFIELD_Q6_FAR">      0.00000000</i>
   <i name="OFIELD_A">      0.00000000</i>
  </separator>
 </parameters>
 <atominfo>
  <atoms>      96 </atoms>
  <types>       2 </types>
  <array name="atoms" >
   <dimension dim="1">ion</dimension>
   <field type="string">element</field>
   <field type="int">atomtype</field>
   <set>
    <rc><c>Ni</c><c>   1</c></rc>
    <rc><c>Ni</c><c>   1</c></rc>
    <rc><c>Ni</c><c>   1</c></rc>
    <rc><c>Ni</c><c>   1</c></rc>
    <rc><c>Ni</c><c>   1</c></rc>
    <rc><c>Ni</c><c>   1</c></rc>
    <rc><c>Ni</c><c>   1</c></rc>
    <rc><c>Ni</c><c>   1</c></rc>
    <rc><c>Ni</c><c>   1</c></rc>
    <rc><c>Ni</c><c>   1</c></rc>
    <rc><c>Ni</c><c>   1</c></rc>
    <rc><c>Ni</c><c>   1</c></rc>
    <rc><c>Ni</c><c>   1</c></rc>
    <rc><c>Ni</c><c>   1</c></rc>
    <rc><c>Ni</c><c>   1</c></rc>
    <rc><c>Ni</c><c>   1</c></rc>
    <rc><c>Ni</c><c>   1</c></rc>
    <rc><c>Ni</c><c>   1</c></rc>
    <rc><c>Ni</c><c>   1</c></rc>
    <rc><c>Ni</c><c>   1</c></rc>
    <rc><c>Ni</c><c>   1</c></rc>
    <rc><c>Ni</c><c>   1</c></rc>
    <rc><c>Ni</c><c>   1</c></rc>
    <rc><c>Ni</c><c>   1</c></rc>
    <rc><c>Ni</c><c>   1</c></rc>
    <rc><c>Ni</c><c>   1</c></rc>
    <rc><c>Ni</c><c>   1</c></rc>
    <rc><c>Ni</c><c>   1</c></rc>
    <rc><c>Ni</c><c>   1</c></rc>
    <rc><c>Ni</c><c>   1</c></rc>
    <rc><c>Ni</c><c>   1</c></rc>
    <rc><c>Ni</c><c>   1</c></rc>
    <rc><c>Ni</c><c>   1</c></rc>
    <rc><c>Ni</c><c>   1</c></rc>
    <rc><c>Ni</c><c>   1</c></rc>
    <rc><c>Ni</c><c>   1</c></rc>
    <rc><c>Ni</c><c>   1</c></rc>
    <rc><c>Ni</c><c>   1</c></rc>
    <rc><c>Ni</c><c>   1</c></rc>
    <rc><c>Ni</c><c>   1</c></rc>
    <rc><c>Ni</c><c>   1</c></rc>
    <rc><c>Ni</c><c>   1</c></rc>
    <rc><c>Ni</c><c>   1</c></rc>
    <rc><c>Ni</c><c>   1</c></rc>
    <rc><c>Ni</c><c>   1</c></rc>
    <rc><c>Ni</c><c>   1</c></rc>
    <rc><c>Ni</c><c>   1</c></rc>
    <rc><c>Ni</c><c>   1</c></rc>
    <rc><c>S </c><c>   2</c></rc>
    <rc><c>S </c><c>   2</c></rc>
    <rc><c>S </c><c>   2</c></rc>
    <rc><c>S </c><c>   2</c></rc>
    <rc><c>S </c><c>   2</c></rc>
    <rc><c>S </c><c>   2</c></rc>
    <rc><c>S </c><c>   2</c></rc>
    <rc><c>S </c><c>   2</c></rc>
    <rc><c>S </c><c>   2</c></rc>
    <rc><c>S </c><c>   2</c></rc>
    <rc><c>S </c><c>   2</c></rc>
    <rc><c>S </c><c>   2</c></rc>
    <rc><c>S </c><c>   2</c></rc>
    <rc><c>S </c><c>   2</c></rc>
    <rc><c>S </c><c>   2</c></rc>
    <rc><c>S </c><c>   2</c></rc>
    <rc><c>S </c><c>   2</c></rc>
    <rc><c>S </c><c>   2</c></rc>
    <rc><c>S </c><c>   2</c></rc>
    <rc><c>S </c><c>   2</c></rc>
    <rc><c>S </c><c>   2</c></rc>
    <rc><c>S </c><c>   2</c></rc>
    <rc><c>S </c><c>   2</c></rc>
    <rc><c>S </c><c>   2</c></rc>
    <rc><c>S </c><c>   2</c></rc>
    <rc><c>S </c><c>   2</c></rc>
    <rc><c>S </c><c>   2</c></rc>
    <rc><c>S </c><c>   2</c></rc>
    <rc><c>S </c><c>   2</c></rc>
    <rc><c>S </c><c>   2</c></rc>
    <rc><c>S </c><c>   2</c></rc>
    <rc><c>S </c><c>   2</c></rc>
    <rc><c>S </c><c>   2</c></rc>
    <rc><c>S </c><c>   2</c></rc>
    <rc><c>S </c><c>   2</c></rc>
    <rc><c>S </c><c>   2</c></rc>
    <rc><c>S </c><c>   2</c></rc>
    <rc><c>S </c><c>   2</c></rc>
    <rc><c>S </c><c>   2</c></rc>
    <rc><c>S </c><c>   2</c></rc>
    <rc><c>S </c><c>   2</c></rc>
    <rc><c>S </c><c>   2</c></rc>
    <rc><c>S </c><c>   2</c></rc>
    <rc><c>S </c><c>   2</c></rc>
    <rc><c>S </c><c>   2</c></rc>
    <rc><c>S </c><c>   2</c></rc>
    <rc><c>S </c><c>   2</c></rc>
    <rc><c>S </c><c>   2</c></rc>
   </set>
  </array>
  <array name="atomtypes" >
   <dimension dim="1">type</dimension>
   <field type="int">atomspertype</field>
   <field type="string">element</field>
   <field>mass</field>
   <field>valence</field>
   <field type="string">pseudopotential</field>
   <set>
    <rc><c>  48</c><c>Ni</c><c>     58.69000000</c><c>     16.00000000</c><c>  PAW_PBE Ni_pv 06Sep2000               </c></rc>
    <rc><c>  48</c><c>S </c><c>     32.06600000</c><c>      6.00000000</c><c>  PAW_PBE S 06Sep2000                   </c></rc>
   </set>
  </array>
 </atominfo>
 <structure name="initialpos" >
  <crystal>
   <varray name="basis" >
    <v>      11.25646304       0.00000000       0.00000000 </v>
    <v>       5.04456212      10.06282034       0.00000000 </v>
    <v>       0.00000000       0.00000000      21.74423184 </v>
   </varray>
   <i name="volume">   2463.00752351 </i>
   <varray name="rec_basis" >
    <v>       0.08883785      -0.04453504       0.00000000 </v>
    <v>       0.00000000       0.09937572       0.00000000 </v>
    <v>       0.00000000       0.00000000       0.04598921 </v>
   </varray>
  </crystal>
  <varray name="positions" >
   <v>       0.26092070       0.47878036       0.25332799 </v>
   <v>       0.35488056       0.38482049       0.38835497 </v>
   <v>       0.36586470       0.37317481       0.49636159 </v>
   <v>       0.16696083       0.07274024       0.11830101 </v>
   <v>       0.04162165       0.05443372       0.46622094 </v>
   <v>       0.27423906       0.33335899       0.08262607 </v>
   <v>       0.36819893       0.23939913       0.21765305 </v>
   <v>       0.46215880       0.14543926       0.35268003 </v>
   <v>       0.00030194       0.37150212       0.21765305 </v>
   <v>       0.09426181       0.27754226       0.35268003 </v>
   <v>       0.18567952       0.19831959       0.46622141 </v>
   <v>       0.40634206       0.46546199       0.08262607 </v>
   <v>       0.76092070       0.47878036       0.25332799 </v>
   <v>       0.85488056       0.38482049       0.38835497 </v>
   <v>       0.86588845       0.37314999       0.49636642 </v>
   <v>       0.66696083       0.07274024       0.11830101 </v>
   <v>       0.54161876       0.05443248       0.46621826 </v>
   <v>       0.77423906       0.33335899       0.08262607 </v>
   <v>       0.86819893       0.23939913       0.21765305 </v>
   <v>       0.96215880       0.14543926       0.35268003 </v>
   <v>       0.50030194       0.37150212       0.21765305 </v>
   <v>       0.59426181       0.27754226       0.35268003 </v>
   <v>       0.68567767       0.19832174       0.46621991 </v>
   <v>       0.98858454       0.44245188       0.11435014 </v>
   <v>       0.26092070       0.97878036       0.25332799 </v>
   <v>       0.35488056       0.88482049       0.38835497 </v>
   <v>       0.45509531       0.78469786       0.50519789 </v>
   <v>       0.16696083       0.57274024       0.11830101 </v>
   <v>       0.05101588       0.55009424       0.47262702 </v>
   <v>       0.27423907       0.83335899       0.08262607 </v>
   <v>       0.36819893       0.73939913       0.21765305 </v>
   <v>       0.46215880       0.64543926       0.35268003 </v>
   <v>       0.00030194       0.87150212       0.21765305 </v>
   <v>       0.09426181       0.77754226       0.35268003 </v>
   <v>       0.18935011       0.68822958       0.47272156 </v>
   <v>       0.40634206       0.96546199       0.08262607 </v>
   <v>       0.76092070       0.97878036       0.25332799 </v>
   <v>       0.85488056       0.88482049       0.38835497 </v>
   <v>       0.95510763       0.78468583       0.50519818 </v>
   <v>       0.67707725       0.55517558       0.13130298 </v>
   <v>       0.55101181       0.55009758       0.47262674 </v>
   <v>       0.78451447       0.83642250       0.10285012 </v>
   <v>       0.86819893       0.73939913       0.21765305 </v>
   <v>       0.96215880       0.64543926       0.35268003 </v>
   <v>       0.50030194       0.87150212       0.21765305 </v>
   <v>       0.59426181       0.77754226       0.35268003 </v>
   <v>       0.68934520       0.68822764       0.47272666 </v>
   <v>       0.92362035       0.96208621       0.10169195 </v>
   <v>       0.07287763       0.16682343       0.27005396 </v>
   <v>       0.16683750       0.07286357       0.40508094 </v>
   <v>       0.36746202       0.37304963       0.01300913 </v>
   <v>       0.47891775       0.26078330       0.13502698 </v>
   <v>       0.20466240       0.53460850       0.53017487 </v>
   <v>       0.03023343       0.37768264       0.45050807 </v>
   <v>       0.43627354       0.47164251       0.31548109 </v>
   <v>       0.26064516       0.15653123       0.06401997 </v>
   <v>       0.34231368       0.06560239       0.18045411 </v>
   <v>       0.09992828       0.48767674       0.05270131 </v>
   <v>       0.17409868       0.39738738       0.18045411 </v>
   <v>       0.26805855       0.30342751       0.31548109 </v>
   <v>       0.36201842       0.20946765       0.45050807 </v>
   <v>       0.57287763       0.16682343       0.27005396 </v>
   <v>       0.66683750       0.07286357       0.40508094 </v>
   <v>       0.81947065       0.48516245       0.06180265 </v>
   <v>       0.97891775       0.26078330       0.13502698 </v>
   <v>       0.70467590       0.53458676       0.53017062 </v>
   <v>       0.53023343       0.37768264       0.45050807 </v>
   <v>       0.93627354       0.47164251       0.31548109 </v>
   <v>       0.77565669       0.14674336       0.06769804 </v>
   <v>       0.84231368       0.06560239       0.18045411 </v>
   <v>       0.58286766       0.47864161       0.06809950 </v>
   <v>       0.67409868       0.39738738       0.18045411 </v>
   <v>       0.76805855       0.30342751       0.31548109 </v>
   <v>       0.86201842       0.20946765       0.45050807 </v>
   <v>       0.07287764       0.66682343       0.27005396 </v>
   <v>       0.16683750       0.57286357       0.40508094 </v>
   <v>       0.35535361       0.88485615       0.01247483 </v>
   <v>       0.47891775       0.76078330       0.13502698 </v>
   <v>       0.03023342       0.87768264       0.45050807 </v>
   <v>       0.43627354       0.97164251       0.31548109 </v>
   <v>       0.26160083       0.65690066       0.06389796 </v>
   <v>       0.34231368       0.56560239       0.18045411 </v>
   <v>       0.08461795       0.97969272       0.06353061 </v>
   <v>       0.17409868       0.89738738       0.18045411 </v>
   <v>       0.26805855       0.80342751       0.31548109 </v>
   <v>       0.36201842       0.70946764       0.45050807 </v>
   <v>       0.57287764       0.66682343       0.27005396 </v>
   <v>       0.66683750       0.57286357       0.40508094 </v>
   <v>       0.97891775       0.76078330       0.13502698 </v>
   <v>       0.53023342       0.87768264       0.45050807 </v>
   <v>       0.93627354       0.97164251       0.31548109 </v>
   <v>       0.84231368       0.56560239       0.18045411 </v>
   <v>       0.59583790       0.96262872       0.06729703 </v>
   <v>       0.67409868       0.89738738       0.18045411 </v>
   <v>       0.76805855       0.80342751       0.31548109 </v>
   <v>       0.86201842       0.70946764       0.45050807 </v>
  </varray>
 </structure>
 <calculation>
  <scstep>
   <time name="dav">   13.58   13.58</time>
   <time name="total">   13.97   13.98</time>
   <energy>
    <i name="alphaZ">   2684.99175279 </i>
    <i name="ewald"> 289473.60701362 </i>
    <i name="hartreedc">-453119.91573766 </i>
    <i name="XCdc">   4900.90361737 </i>
    <i name="pawpsdc"> 150306.04444553 </i>
    <i name="pawaedc">-156855.34918313 </i>
    <i name="eentropy">     -0.48633654 </i>
    <i name="bandstr">  -5190.15254407 </i>
    <i name="atom"> 181336.80673834 </i>
    <i name="e_fr_energy">  13536.44976627 </i>
    <i name="e_wo_entrp">  13536.93610281 </i>
    <i name="e_0_energy">  13536.69293454 </i>
   </energy>
  </scstep>
  <scstep>
   <time name="dav">   12.17   12.17</time>
   <time name="total">   12.17   12.17</time>
   <energy>
    <i name="e_fr_energy">    878.93232277 </i>
    <i name="e_wo_entrp">    879.83313638 </i>
    <i name="e_0_energy">    879.38272957 </i>
   </energy>
  </scstep>
  <scstep>
   <time name="dav">   12.73   12.73</time>
   <time name="total">   12.73   12.73</time>
   <energy>
    <i name="e_fr_energy">   -452.53951266 </i>
    <i name="e_wo_entrp">   -451.31360568 </i>
    <i name="e_0_energy">   -451.92655917 </i>
   </energy>
  </scstep>
  <scstep>
   <time name="dav">   13.00   13.01</time>
   <time name="total">   13.00   13.01</time>
   <energy>
    <i name="e_fr_energy">   -538.44537903 </i>
    <i name="e_wo_entrp">   -537.11590995 </i>
    <i name="e_0_energy">   -537.78064449 </i>
   </energy>
  </scstep>
  <scstep>
   <time name="dav">   14.10   14.11</time>
   <time name="total">   14.51   14.52</time>
   <energy>
    <i name="e_fr_energy">   -542.10651206 </i>
    <i name="e_wo_entrp">   -540.79441720 </i>
    <i name="e_0_energy">   -541.45046463 </i>
   </energy>
  </scstep>
  <scstep>
   <time name="dav">   13.93   13.94</time>
   <time name="total">   14.71   14.71</time>
   <energy>
    <i name="e_fr_energy">   -632.70505479 </i>
    <i name="e_wo_entrp">   -631.59585736 </i>
    <i name="e_0_energy">   -632.15045608 </i>
   </energy>
  </scstep>
  <scstep>
   <time name="dav">   12.73   12.74</time>
   <time name="total">   13.51   13.52</time>
   <energy>
    <i name="e_fr_energy">   -497.38040187 </i>
    <i name="e_wo_entrp">   -496.40346513 </i>
    <i name="e_0_energy">   -496.89193350 </i>
   </energy>
  </scstep>
  <scstep>
   <time name="dav">   14.55   14.55</time>
   <time name="total">   15.37   15.37</time>
   <energy>
    <i name="e_fr_energy">   -595.24637190 </i>
    <i name="e_wo_entrp">   -594.09580974 </i>
    <i name="e_0_energy">   -594.67109082 </i>
   </energy>
  </scstep>
  <scstep>
   <time name="dav">   14.46   14.46</time>
   <time name="total">   15.24   15.25</time>
   <energy>
    <i name="e_fr_energy">   -522.43857706 </i>
    <i name="e_wo_entrp">   -521.07708149 </i>
    <i name="e_0_energy">   -521.75782927 </i>
   </energy>
  </scstep>
  <scstep>
   <time name="dav">   15.10   15.10</time>
   <time name="total">   15.87   15.87</time>
   <energy>
    <i name="e_fr_energy">   -524.09636252 </i>
    <i name="e_wo_entrp">   -522.21418601 </i>
    <i name="e_0_energy">   -523.15527427 </i>
   </energy>
  </scstep>
  <scstep>
   <time name="dav">   15.27   15.27</time>
   <time name="total">   16.04   16.05</time>
   <energy>
    <i name="e_fr_energy">   -523.65599234 </i>
    <i name="e_wo_entrp">   -521.96959182 </i>
    <i name="e_0_energy">   -522.81279208 </i>
   </energy>
  </scstep>
  <scstep>
   <time name="dav">   14.90   14.90</time>
   <time name="total">   15.68   15.68</time>
   <energy>
    <i name="e_fr_energy">   -496.64067055 </i>
    <i name="e_wo_entrp">   -495.64139514 </i>
    <i name="e_0_energy">   -496.14103284 </i>
   </energy>
  </scstep>
  <scstep>
   <time name="dav">   14.71   14.72</time>
   <time name="total">   15.73   15.74</time>
   <energy>
    <i name="e_fr_energy">   -484.15405824 </i>
    <i name="e_wo_entrp">   -483.22123899 </i>
    <i name="e_0_energy">   -483.68764862 </i>
   </energy>
  </scstep>
  <scstep>
   <time name="dav">   14.54   14.55</time>
   <time name="total">   15.33   15.33</time>
   <energy>
    <i name="e_fr_energy">   -481.04450495 </i>
    <i name="e_wo_entrp">   -479.97573971 </i>
    <i name="e_0_energy">   -480.51012233 </i>
   </energy>
  </scstep>
  <scstep>
   <time name="dav">   15.01   15.01</time>
   <time name="total">   15.92   15.92</time>
   <energy>
    <i name="e_fr_energy">   -478.30429306 </i>
    <i name="e_wo_entrp">   -477.25626611 </i>
    <i name="e_0_energy">   -477.78027959 </i>
   </energy>
  </scstep>
  <scstep>
   <time name="dav">   14.52   14.52</time>
   <time name="total">   15.31   15.31</time>
   <energy>
    <i name="e_fr_energy">   -477.39978555 </i>
    <i name="e_wo_entrp">   -476.33664888 </i>
    <i name="e_0_energy">   -476.86821722 </i>
   </energy>
  </scstep>
  <scstep>
   <time name="dav">   14.98   14.99</time>
   <time name="total">   15.77   15.78</time>
   <energy>
    <i name="e_fr_energy">   -476.84809508 </i>
    <i name="e_wo_entrp">   -475.79133925 </i>
    <i name="e_0_energy">   -476.31971716 </i>
   </energy>
  </scstep>
  <scstep>
   <time name="dav">   15.05   15.05</time>
   <time name="total">   15.84   15.84</time>
   <energy>
    <i name="e_fr_energy">   -476.40329480 </i>
    <i name="e_wo_entrp">   -475.34955163 </i>
    <i name="e_0_energy">   -475.87642322 </i>
   </energy>
  </scstep>
  <scstep>
   <time name="dav">   15.23   15.23</time>
   <time name="total">   16.04   16.04</time>
   <energy>
    <i name="e_fr_energy">   -475.81247588 </i>
    <i name="e_wo_entrp">   -474.75250914 </i>
    <i name="e_0_energy">   -475.28249251 </i>
   </energy>
  </scstep>
  <scstep>
   <time name="dav">   15.73   15.73</time>
   <time name="total">   16.52   16.52</time>
   <energy>
    <i name="e_fr_energy">   -475.20390825 </i>
    <i name="e_wo_entrp">   -474.12041305 </i>
    <i name="e_0_energy">   -474.66216065 </i>
   </energy>
  </scstep>
  <scstep>
   <time name="dav">   15.19   15.19</time>
   <time name="total">   15.98   15.98</time>
   <energy>
    <i name="e_fr_energy">   -475.05139364 </i>
    <i name="e_wo_entrp">   -473.95309242 </i>
    <i name="e_0_energy">   -474.50224303 </i>
   </energy>
  </scstep>
  <scstep>
   <time name="dav">   13.30   13.30</time>
   <time name="total">   14.10   14.10</time>
   <energy>
    <i name="e_fr_energy">   -474.94763023 </i>
    <i name="e_wo_entrp">   -473.83833154 </i>
    <i name="e_0_energy">   -474.39298088 </i>
   </energy>
  </scstep>
  <scstep>
   <time name="dav">   14.21   14.21</time>
   <time name="total">   15.12   15.12</time>
   <energy>
    <i name="e_fr_energy">   -474.97529754 </i>
    <i name="e_wo_entrp">   -473.85622514 </i>
    <i name="e_0_energy">   -474.41576134 </i>
   </energy>
  </scstep>
  <scstep>
   <time name="dav">   12.95   12.95</time>
   <time name="total">   13.75   13.75</time>
   <energy>
    <i name="e_fr_energy">   -474.91320612 </i>
    <i name="e_wo_entrp">   -473.80252101 </i>
    <i name="e_0_energy">   -474.35786356 </i>
   </energy>
  </scstep>
  <scstep>
   <time name="dav">   14.80   14.81</time>
   <time name="total">   15.79   15.80</time>
   <energy>
    <i name="e_fr_energy">   -474.91034604 </i>
    <i name="e_wo_entrp">   -473.81056826 </i>
    <i name="e_0_energy">   -474.36045715 </i>
   </energy>
  </scstep>
  <scstep>
   <time name="dav">   14.39   14.39</time>
   <time name="total">   15.21   15.21</time>
   <energy>
    <i name="e_fr_energy">   -474.86804026 </i>
    <i name="e_wo_entrp">   -473.76464938 </i>
    <i name="e_0_energy">   -474.31634482 </i>
   </energy>
  </scstep>
  <scstep>
   <time name="dav">   14.72   14.72</time>
   <time name="total">   15.67   15.67</time>
   <energy>
    <i name="e_fr_energy">   -474.87103526 </i>
    <i name="e_wo_entrp">   -473.76877328 </i>
    <i name="e_0_energy">   -474.31990427 </i>
   </energy>
  </scstep>
  <scstep>
   <time name="dav">   13.91   13.91</time>
   <time name="total">   14.72   14.72</time>
   <energy>
    <i name="e_fr_energy">   -474.85589146 </i>
    <i name="e_wo_entrp">   -473.75730892 </i>
    <i name="e_0_energy">   -474.30660019 </i>
   </energy>
  </scstep>
  <scstep>
   <time name="dav">   14.47   14.47</time>
   <time name="total">   15.28   15.28</time>
   <energy>
    <i name="e_fr_energy">   -474.85664306 </i>
    <i name="e_wo_entrp">   -473.75844152 </i>
    <i name="e_0_energy">   -474.30754229 </i>
   </energy>
  </scstep>
  <scstep>
   <time name="dav">   12.86   12.86</time>
   <time name="total">   13.67   13.68</time>
   <energy>
    <i name="e_fr_energy">   -474.85471781 </i>
    <i name="e_wo_entrp">   -473.75870796 </i>
    <i name="e_0_energy">   -474.30671288 </i>
   </energy>
  </scstep>
  <scstep>
   <time name="dav">   14.28   14.29</time>
   <time name="total">   15.11   15.11</time>
   <energy>
    <i name="e_fr_energy">   -474.85461046 </i>
    <i name="e_wo_entrp">   -473.75793984 </i>
    <i name="e_0_energy">   -474.30627515 </i>
   </energy>
  </scstep>
  <scstep>
   <time name="dav">   12.26   12.26</time>
   <time name="total">   13.22   13.22</time>
   <energy>
    <i name="e_fr_energy">   -474.85440512 </i>
    <i name="e_wo_entrp">   -473.75763293 </i>
    <i name="e_0_energy">   -474.30601902 </i>
   </energy>
  </scstep>
  <scstep>
   <time name="dav">   13.01   13.01</time>
   <time name="total">   13.90   13.90</time>
   <energy>
    <i name="e_fr_energy">   -474.85482695 </i>
    <i name="e_wo_entrp">   -473.75812865 </i>
    <i name="e_0_energy">   -474.30647780 </i>
   </energy>
  </scstep>
  <scstep>
   <time name="dav">   12.73   12.73</time>
   <time name="total">   13.82   13.82</time>
   <energy>
    <i name="e_fr_energy">   -474.85516359 </i>
    <i name="e_wo_entrp">   -473.75936363 </i>
    <i name="e_0_energy">   -474.30726361 </i>
   </energy>
  </scstep>
  <scstep>
   <time name="dav">   11.69   11.70</time>
   <time name="total">   12.08   12.09</time>
   <energy>
    <i name="alphaZ">   2684.99175279 </i>
    <i name="ewald"> 289473.60701362 </i>
    <i name="hartreedc">-452074.23045047 </i>
    <i name="XCdc">   4859.74878663 </i>
    <i name="pawpsdc"> 183060.84465764 </i>
    <i name="pawaedc">-189710.14128748 </i>
    <i name="eentropy">     -1.09670014 </i>
    <i name="bandstr"> -20105.38575354 </i>
    <i name="atom"> 181336.80673834 </i>
    <i name="e_fr_energy">   -474.85524261 </i>
    <i name="e_wo_entrp">   -473.75854247 </i>
    <i name="e_0_energy">   -474.30689254 </i>
   </energy>
  </scstep>
  <structure>
   <crystal>
    <varray name="basis" >
     <v>      11.25646304       0.00000000       0.00000000 </v>
     <v>       5.04456212      10.06282034       0.00000000 </v>
     <v>       0.00000000       0.00000000      21.74423184 </v>
    </varray>
    <i name="volume">   2463.00752351 </i>
    <varray name="rec_basis" >
     <v>       0.08883785      -0.04453504       0.00000000 </v>
     <v>       0.00000000       0.09937572       0.00000000 </v>
     <v>       0.00000000       0.00000000       0.04598921 </v>
    </varray>
   </crystal>
   <varray name="positions" >
    <v>       0.26092070       0.47878036       0.25332799 </v>
    <v>       0.35488056       0.38482049       0.38835497 </v>
    <v>       0.36586470       0.37317481       0.49636159 </v>
    <v>       0.16696083       0.07274024       0.11830101 </v>
    <v>       0.04162165       0.05443372       0.46622094 </v>
    <v>       0.27423906       0.33335899       0.08262607 </v>
    <v>       0.36819893       0.23939913       0.21765305 </v>
    <v>       0.46215880       0.14543926       0.35268003 </v>
    <v>       0.00030194       0.37150212       0.21765305 </v>
    <v>       0.09426181       0.27754226       0.35268003 </v>
    <v>       0.18567952       0.19831959       0.46622141 </v>
    <v>       0.40634206       0.46546199       0.08262607 </v>
    <v>       0.76092070       0.47878036       0.25332799 </v>
    <v>       0.85488056       0.38482049       0.38835497 </v>
    <v>       0.86588845       0.37314999       0.49636642 </v>
    <v>       0.66696083       0.07274024       0.11830101 </v>
    <v>       0.54161876       0.05443248       0.46621826 </v>
    <v>       0.77423906       0.33335899       0.08262607 </v>
    <v>       0.86819893       0.23939913       0.21765305 </v>
    <v>       0.96215880       0.14543926       0.35268003 </v>
    <v>       0.50030194       0.37150212       0.21765305 </v>
    <v>       0.59426181       0.27754226       0.35268003 </v>
    <v>       0.68567767       0.19832174       0.46621991 </v>
    <v>       0.98858454       0.44245188       0.11435014 </v>
    <v>       0.26092070       0.97878036       0.25332799 </v>
    <v>       0.35488056       0.88482049       0.38835497 </v>
    <v>       0.45509531       0.78469786       0.50519789 </v>
    <v>       0.16696083       0.57274024       0.11830101 </v>
    <v>       0.05101588       0.55009424       0.47262702 </v>
    <v>       0.27423907       0.83335899       0.08262607 </v>
    <v>       0.36819893       0.73939913       0.21765305 </v>
    <v>       0.46215880       0.64543926       0.35268003 </v>
    <v>       0.00030194       0.87150212       0.21765305 </v>
    <v>       0.09426181       0.77754226       0.35268003 </v>
    <v>       0.18935011       0.68822958       0.47272156 </v>
    <v>       0.40634206       0.96546199       0.08262607 </v>
    <v>       0.76092070       0.97878036       0.25332799 </v>
    <v>       0.85488056       0.88482049       0.38835497 </v>
    <v>       0.95510763       0.78468583       0.50519818 </v>
    <v>       0.67707725       0.55517558       0.13130298 </v>
    <v>       0.55101181       0.55009758       0.47262674 </v>
    <v>       0.78451447       0.83642250       0.10285012 </v>
    <v>       0.86819893       0.73939913       0.21765305 </v>
    <v>       0.96215880       0.64543926       0.35268003 </v>
    <v>       0.50030194       0.87150212       0.21765305 </v>
    <v>       0.59426181       0.77754226       0.35268003 </v>
    <v>       0.68934520       0.68822764       0.47272666 </v>
    <v>       0.92362035       0.96208621       0.10169195 </v>
    <v>       0.07287763       0.16682343       0.27005396 </v>
    <v>       0.16683750       0.07286357       0.40508094 </v>
    <v>       0.36746202       0.37304963       0.01300913 </v>
    <v>       0.47891775       0.26078330       0.13502698 </v>
    <v>       0.20466240       0.53460850       0.53017487 </v>
    <v>       0.03023343       0.37768264       0.45050807 </v>
    <v>       0.43627354       0.47164251       0.31548109 </v>
    <v>       0.26064516       0.15653123       0.06401997 </v>
    <v>       0.34231368       0.06560239       0.18045411 </v>
    <v>       0.09992828       0.48767674       0.05270131 </v>
    <v>       0.17409868       0.39738738       0.18045411 </v>
    <v>       0.26805855       0.30342751       0.31548109 </v>
    <v>       0.36201842       0.20946765       0.45050807 </v>
    <v>       0.57287763       0.16682343       0.27005396 </v>
    <v>       0.66683750       0.07286357       0.40508094 </v>
    <v>       0.81947065       0.48516245       0.06180265 </v>
    <v>       0.97891775       0.26078330       0.13502698 </v>
    <v>       0.70467590       0.53458676       0.53017062 </v>
    <v>       0.53023343       0.37768264       0.45050807 </v>
    <v>       0.93627354       0.47164251       0.31548109 </v>
    <v>       0.77565669       0.14674336       0.06769804 </v>
    <v>       0.84231368       0.06560239       0.18045411 </v>
    <v>       0.58286766       0.47864161       0.06809950 </v>
    <v>       0.67409868       0.39738738       0.18045411 </v>
    <v>       0.76805855       0.30342751       0.31548109 </v>
    <v>       0.86201842       0.20946765       0.45050807 </v>
    <v>       0.07287764       0.66682343       0.27005396 </v>
    <v>       0.16683750       0.57286357       0.40508094 </v>
    <v>       0.35535361       0.88485615       0.01247483 </v>
    <v>       0.47891775       0.76078330       0.13502698 </v>
    <v>       0.03023342       0.87768264       0.45050807 </v>
    <v>       0.43627354       0.97164251       0.31548109 </v>
    <v>       0.26160083       0.65690066       0.06389796 </v>
    <v>       0.34231368       0.56560239       0.18045411 </v>
    <v>       0.08461795       0.97969272       0.06353061 </v>
    <v>       0.17409868       0.89738738       0.18045411 </v>
    <v>       0.26805855       0.80342751       0.31548109 </v>
    <v>       0.36201842       0.70946764       0.45050807 </v>
    <v>       0.57287764       0.66682343       0.27005396 </v>
    <v>       0.66683750       0.57286357       0.40508094 </v>
    <v>       0.97891775       0.76078330       0.13502698 </v>
    <v>       0.53023342       0.87768264       0.45050807 </v>
    <v>       0.93627354       0.97164251       0.31548109 </v>
    <v>       0.84231368       0.56560239       0.18045411 </v>
    <v>       0.59583790       0.96262872       0.06729703 </v>
    <v>       0.67409868       0.89738738       0.18045411 </v>
    <v>       0.76805855       0.80342751       0.31548109 </v>
    <v>       0.86201842       0.70946764       0.45050807 </v>
   </varray>
  </structure>
  <varray name="forces" >
   <v>      -0.01394933       0.11371923       0.03597379 </v>
   <v>      -0.01866993       0.20071828      -1.27431067 </v>
   <v>       0.71373395      -0.95640259       0.81600125 </v>
   <v>      -0.24693464       0.44789219       2.09835463 </v>
   <v>       0.15046973      -0.41175346       1.12535111 </v>
   <v>      -0.06974674      -1.40319996       2.52532060 </v>
   <v>       0.02122756      -0.13346801       0.06292611 </v>
   <v>       0.06268197       0.15132745      -0.27094625 </v>
   <v>      -0.20451466      -0.30729038       1.14623268 </v>
   <v>      -0.07602123       0.00118043      -0.24182774 </v>
   <v>       0.22544312      -0.45900021       1.05203458 </v>
   <v>       1.14446051      -0.14335521       2.75995808 </v>
   <v>      -0.07152246       0.08913599      -0.07559337 </v>
   <v>      -0.05080153       0.24263311      -1.30548886 </v>
   <v>       0.69884464      -0.92503024       0.83153338 </v>
   <v>      -0.28309268       1.31371980       1.55596301 </v>
   <v>       0.16571145      -0.39841397       1.13815962 </v>
   <v>       0.23425228      -2.36687979       1.17184337 </v>
   <v>      -0.01231754      -0.04495035       0.08360058 </v>
   <v>       0.08033536       0.16409091      -0.24436357 </v>
   <v>      -0.07434472      -0.11000242       0.14874512 </v>
   <v>      -0.07326986       0.08082125      -0.30935446 </v>
   <v>       0.15525845      -0.45866756       1.08534146 </v>
   <v>       0.72025064      -0.04791622       0.28221764 </v>
   <v>       0.00866581      -0.11943117      -0.15795125 </v>
   <v>      -0.01963449      -0.17115254      -0.00019867 </v>
   <v>       0.01201474      -0.06097637       1.37378403 </v>
   <v>       0.32330019       0.69674667       2.13382104 </v>
   <v>      -0.89610708       0.23553877       0.47919580 </v>
   <v>      -0.17132901      -1.28886050       2.78084034 </v>
   <v>       0.01056245       0.15967674       0.09976475 </v>
   <v>       0.07656609      -0.13589264      -0.03971624 </v>
   <v>      -0.01482773       0.11152148       0.11591879 </v>
   <v>      -0.06519360      -0.21661865      -0.03644915 </v>
   <v>       0.44769973       1.05354124       0.46175974 </v>
   <v>       1.67119787      -0.13485131       2.62422345 </v>
   <v>       0.05260945      -0.04390311      -0.04898761 </v>
   <v>      -0.02140499      -0.12217604       0.01668230 </v>
   <v>       0.01177221      -0.06649330       1.36869755 </v>
   <v>      -0.69248114       2.09020553       0.44697938 </v>
   <v>      -0.89041248       0.23470909       0.45109037 </v>
   <v>      -0.32839320      -1.10125386      -1.31513593 </v>
   <v>      -0.09591055       0.04819031       0.14596769 </v>
   <v>       0.12490944      -0.11077610      -0.04288911 </v>
   <v>      -0.09971655      -0.03885987       0.03856030 </v>
   <v>      -0.10128629      -0.16227045      -0.02261857 </v>
   <v>       0.45442578       1.03037038       0.46458858 </v>
   <v>      -0.10092694      -0.63650483      -0.91383987 </v>
   <v>      -0.01111070       0.01873114       0.05467152 </v>
   <v>       0.86707580      -1.37247238      -1.55371894 </v>
   <v>       0.20885606      -0.66702851      -4.24529013 </v>
   <v>       0.19724102      -0.21895598       0.13866815 </v>
   <v>       0.24124240      -0.46872143       2.61350292 </v>
   <v>      -0.65902421       0.93080061       0.04307097 </v>
   <v>       0.07316773      -0.07717753       0.01155450 </v>
   <v>      -0.03069675       1.14316722      -2.25262873 </v>
   <v>       0.22181503      -0.04792760       0.58023774 </v>
   <v>      -1.21644001       0.99469218      -3.52524771 </v>
   <v>      -0.17711257      -0.17685673       0.44437962 </v>
   <v>      -0.06069173      -0.04526720       0.04136069 </v>
   <v>      -0.72466878       0.86082464       0.11989961 </v>
   <v>       0.02851706      -0.04603814       0.06414877 </v>
   <v>       0.90215457      -1.43382258      -1.58427306 </v>
   <v>       1.24186218       1.53024155      -3.18820732 </v>
   <v>      -0.50115515      -1.63257285       0.06778750 </v>
   <v>       0.25672277      -0.46967142       2.62194296 </v>
   <v>      -0.67698469       0.97108390       0.05134562 </v>
   <v>       0.07918282      -0.10575269       0.02265803 </v>
   <v>       0.31191518       0.48273213      -2.26248810 </v>
   <v>      -0.20354077       0.85494979       2.56732029 </v>
   <v>      -0.93453612       0.94891651      -1.99809639 </v>
   <v>      -0.58362228      -1.27731510       1.92784445 </v>
   <v>      -0.11557684      -0.07180362       0.01717004 </v>
   <v>      -0.65939666       0.82897222       0.04292608 </v>
   <v>       0.05082858       0.07655699       0.08007997 </v>
   <v>       0.48933707      -0.84761442      -2.96630683 </v>
   <v>       0.21863962      -0.64742087      -4.42019993 </v>
   <v>       0.48721814      -0.28462054       0.09156352 </v>
   <v>       0.48594102       1.31196422      -0.80203975 </v>
   <v>       0.03184977       0.04727615      -0.03896355 </v>
   <v>      -0.30467891       1.16267979      -2.47024822 </v>
   <v>       0.20388390       0.03244392       0.72832019 </v>
   <v>      -1.16691546       0.46371814      -2.65141205 </v>
   <v>       0.25986004      -0.24533443       0.86542195 </v>
   <v>      -0.01855385       0.01803736       0.00496351 </v>
   <v>      -1.38831087       0.37359497      -0.75387793 </v>
   <v>       0.10521740      -0.04530582       0.24089426 </v>
   <v>       0.53064802      -0.83137999      -2.99616190 </v>
   <v>       0.93627140      -0.72436730      -0.16059041 </v>
   <v>       0.47534815       1.29977546      -0.83471611 </v>
   <v>      -0.02432324       0.03391996      -0.04054920 </v>
   <v>       0.35292474       1.20314220       1.24691358 </v>
   <v>      -0.49463026      -0.42679379      -2.15267564 </v>
   <v>      -0.67256910       0.27880698       2.28598841 </v>
   <v>      -0.11168771       0.08159372       0.08145557 </v>
   <v>      -1.39507788       0.32621144      -0.78015832 </v>
  </varray>
  <varray name="stress" >
   <v>      58.74252146       2.60589242      -1.80032569 </v>
   <v>       2.60589301      57.68088185       1.82189804 </v>
   <v>      -1.80032572       1.82189832      54.36330581 </v>
  </varray>
  <energy>
   <i name="e_fr_energy">   -474.85524261 </i>
   <i name="e_wo_entrp">   -474.30689254 </i>
   <i name="e_0_energy">     -1.09670014 </i>
  </energy>
  <time name="totalsc">  528.30  528.45</time>
  <eigenvalues>
   <array>
    <dimension dim="1">band</dimension>
    <dimension dim="2">kpoint</dimension>
    <dimension dim="3">spin</dimension>
    <field>eigene</field>
    <field>occ</field>
    <set>
     <set comment="spin 1">
      <set comment="kpoint 1">
       <r>  -63.0793    1.0000 </r>
       <r>  -63.0505    1.0000 </r>
       <r>  -62.9858    1.0000 </r>
       <r>  -62.9583    1.0000 </r>
       <r>  -62.9459    1.0000 </r>
       <r>  -62.9346    1.0000 </r>
       <r>  -62.9197    1.0000 </r>
       <r>  -62.8906    1.0000 </r>
       <r>  -62.8799    1.0000 </r>
       <r>  -62.8714    1.0000 </r>
       <r>  -62.8487    1.0000 </r>
       <r>  -62.8452    1.0000 </r>
       <r>  -62.8247    1.0000 </r>
       <r>  -62.8157    1.0000 </r>
       <r>  -62.8073    1.0000 </r>
       <r>  -62.7953    1.0000 </r>
       <r>  -62.7938    1.0000 </r>
       <r>  -62.7890    1.0000 </r>
       <r>  -62.7719    1.0000 </r>
       <r>  -62.7649    1.0000 </r>
       <r>  -62.7567    1.0000 </r>
       <r>  -62.7507    1.0000 </r>
       <r>  -62.7224    1.0000 </r>
       <r>  -62.7024    1.0000 </r>
       <r>  -62.6955    1.0000 </r>
       <r>  -62.6769    1.0000 </r>
       <r>  -62.6348    1.0000 </r>
       <r>  -62.6181    1.0000 </r>
       <r>  -62.5867    1.0000 </r>
       <r>  -62.5804    1.0000 </r>
       <r>  -62.5685    1.0000 </r>
       <r>  -62.5419    1.0000 </r>
       <r>  -62.5255    1.0000 </r>
       <r>  -62.5155    1.0000 </r>
       <r>  -62.4977    1.0000 </r>
       <r>  -62.4964    1.0000 </r>
       <r>  -62.4645    1.0000 </r>
       <r>  -62.4598    1.0000 </r>
       <r>  -62.4500    1.0000 </r>
       <r>  -62.4381    1.0000 </r>
       <r>  -62.4241    1.0000 </r>
       <r>  -62.4208    1.0000 </r>
       <r>  -62.4169    1.0000 </r>
       <r>  -62.4027    1.0000 </r>
       <r>  -62.4025    1.0000 </r>
       <r>  -62.3770    1.0000 </r>
       <r>  -62.3410    1.0000 </r>
       <r>  -62.3306    1.0000 </r>
       <r>  -62.3284    1.0000 </r>
       <r>  -62.3261    1.0000 </r>
       <r>  -62.3252    1.0000 </r>
       <r>  -62.3163    1.0000 </r>
       <r>  -62.3141    1.0000 </r>
       <r>  -62.3111    1.0000 </r>
       <r>  -62.3108    1.0000 </r>
       <r>  -62.3029    1.0000 </r>
       <r>  -62.2992    1.0000 </r>
       <r>  -62.2986    1.0000 </r>
       <r>  -62.2969    1.0000 </r>
       <r>  -62.2907    1.0000 </r>
       <r>  -62.2889    1.0000 </r>
       <r>  -62.2831    1.0000 </r>
       <r>  -62.2787    1.0000 </r>
       <r>  -62.2779    1.0000 </r>
       <r>  -62.2749    1.0000 </r>
       <r>  -62.2659    1.0000 </r>
       <r>  -62.2650    1.0000 </r>
       <r>  -62.2610    1.0000 </r>
       <r>  -62.2608    1.0000 </r>
       <r>  -62.2553    1.0000 </r>
       <r>  -62.2542    1.0000 </r>
       <r>  -62.2510    1.0000 </r>
       <r>  -62.2420    1.0000 </r>
       <r>  -62.2406    1.0000 </r>
       <r>  -62.2376    1.0000 </r>
       <r>  -62.2326    1.0000 </r>
       <r>  -62.2325    1.0000 </r>
       <r>  -62.2318    1.0000 </r>
       <r>  -62.2255    1.0000 </r>
       <r>  -62.2200    1.0000 </r>
       <r>  -62.2181    1.0000 </r>
       <r>  -62.2178    1.0000 </r>
       <r>  -62.2149    1.0000 </r>
       <r>  -62.2142    1.0000 </r>
       <r>  -62.2128    1.0000 </r>
       <r>  -62.2107    1.0000 </r>
       <r>  -62.2105    1.0000 </r>
       <r>  -62.2074    1.0000 </r>
       <r>  -62.2073    1.0000 </r>
       <r>  -62.2056    1.0000 </r>
       <r>  -62.2025    1.0000 </r>
       <r>  -62.2021    1.0000 </r>
       <r>  -62.2015    1.0000 </r>
       <r>  -62.1954    1.0000 </r>
       <r>  -62.1828    1.0000 </r>
       <r>  -62.1788    1.0000 </r>
       <r>  -62.1751    1.0000 </r>
       <r>  -62.1710    1.0000 </r>
       <r>  -62.1589    1.0000 </r>
       <r>  -62.1587    1.0000 </r>
       <r>  -62.1557    1.0000 </r>
       <r>  -62.1511    1.0000 </r>
       <r>  -62.1463    1.0000 </r>
       <r>  -62.1371    1.0000 </r>
       <r>  -62.1363    1.0000 </r>
       <r>  -62.1330    1.0000 </r>
       <r>  -62.1303    1.0000 </r>
       <r>  -62.1096    1.0000 </r>
       <r>  -62.0851    1.0000 </r>
       <r>  -62.0836    1.0000 </r>
       <r>  -62.0746    1.0000 </r>
       <r>  -62.0689    1.0000 </r>
       <r>  -62.0678    1.0000 </r>
       <r>  -62.0550    1.0000 </r>
       <r>  -62.0525    1.0000 </r>
       <r>  -62.0524    1.0000 </r>
       <r>  -62.0467    1.0000 </r>
       <r>  -62.0441    1.0000 </r>
       <r>  -62.0399    1.0000 </r>
       <r>  -62.0388    1.0000 </r>
       <r>  -62.0364    1.0000 </r>
       <r>  -62.0215    1.0000 </r>
       <r>  -62.0150    1.0000 </r>
       <r>  -61.9977    1.0000 </r>
       <r>  -61.9880    1.0000 </r>
       <r>  -61.9809    1.0000 </r>
       <r>  -61.9806    1.0000 </r>
       <r>  -61.9762    1.0000 </r>
       <r>  -61.9710    1.0000 </r>
       <r>  -61.9679    1.0000 </r>
       <r>  -61.9549    1.0000 </r>
       <r>  -61.9017    1.0000 </r>
       <r>  -61.8936    1.0000 </r>
       <r>  -61.8051    1.0000 </r>
       <r>  -61.8029    1.0000 </r>
       <r>  -61.8015    1.0000 </r>
       <r>  -61.7982    1.0000 </r>
       <r>  -61.7209    1.0000 </r>
       <r>  -61.7174    1.0000 </r>
       <r>  -61.7001    1.0000 </r>
       <r>  -61.5415    1.0000 </r>
       <r>  -61.5338    1.0000 </r>
       <r>  -61.4167    1.0000 </r>
       <r>  -61.4090    1.0000 </r>
       <r>  -14.2562    1.0000 </r>
       <r>  -13.9506    1.0000 </r>
       <r>  -13.7240    1.0000 </r>
       <r>  -13.5079    1.0000 </r>
       <r>  -13.4749    1.0000 </r>
       <r>  -13.3139    1.0000 </r>
       <r>  -13.2639    1.0000 </r>
       <r>  -13.2217    1.0000 </r>
       <r>  -13.1629    1.0000 </r>
       <r>  -13.0660    1.0000 </r>
       <r>  -12.9963    1.0000 </r>
       <r>  -12.9259    1.0000 </r>
       <r>  -12.9024    1.0000 </r>
       <r>  -12.8850    1.0000 </r>
       <r>  -12.8274    1.0000 </r>
       <r>  -12.5078    1.0000 </r>
       <r>  -12.4735    1.0000 </r>
       <r>  -12.4666    1.0000 </r>
       <r>  -12.4027    1.0000 </r>
       <r>  -12.3670    1.0000 </r>
       <r>  -12.3631    1.0000 </r>
       <r>  -12.3375    1.0000 </r>
       <r>  -12.2837    1.0000 </r>
       <r>  -12.2617    1.0000 </r>
       <r>  -12.2121    1.0000 </r>
       <r>  -12.1623    1.0000 </r>
       <r>  -12.1546    1.0000 </r>
       <r>  -12.1231    1.0000 </r>
       <r>  -12.0810    1.0000 </r>
       <r>  -12.0780    1.0000 </r>
       <r>  -12.0292    1.0000 </r>
       <r>  -11.9378    1.0000 </r>
       <r>  -11.8419    1.0000 </r>
       <r>  -11.7911    1.0000 </r>
       <r>  -11.7815    1.0000 </r>
       <r>  -11.6464    1.0000 </r>
       <r>  -11.6137    1.0000 </r>
       <r>  -11.5752    1.0000 </r>
       <r>  -11.5497    1.0000 </r>
       <r>  -11.5131    1.0000 </r>
       <r>  -11.4748    1.0000 </r>
       <r>  -11.4639    1.0000 </r>
       <r>  -11.4372    1.0000 </r>
       <r>  -11.3414    1.0000 </r>
       <r>  -11.2803    1.0000 </r>
       <r>  -11.1152    1.0000 </r>
       <r>  -10.9359    1.0000 </r>
       <r>  -10.8784    1.0000 </r>
       <r>   -5.9931    1.0000 </r>
       <r>   -5.9318    1.0000 </r>
       <r>   -5.8305    1.0000 </r>
       <r>   -5.8112    1.0000 </r>
       <r>   -5.7489    1.0000 </r>
       <r>   -5.7245    1.0000 </r>
       <r>   -5.6538    1.0000 </r>
       <r>   -5.6339    1.0000 </r>
       <r>   -5.4549    1.0000 </r>
       <r>   -5.4233    1.0000 </r>
       <r>   -5.3002    1.0000 </r>
       <r>   -5.2013    1.0000 </r>
       <r>   -5.1810    1.0000 </r>
       <r>   -5.1361    1.0000 </r>
       <r>   -5.0975    1.0000 </r>
       <r>   -5.0446    1.0000 </r>
       <r>   -5.0155    1.0000 </r>
       <r>   -4.9904    1.0000 </r>
       <r>   -4.9750    1.0000 </r>
       <r>   -4.9387    1.0000 </r>
       <r>   -4.9212    1.0000 </r>
       <r>   -4.8884    1.0000 </r>
       <r>   -4.8842    1.0000 </r>
       <r>   -4.8677    1.0000 </r>
       <r>   -4.8546    1.0000 </r>
       <r>   -4.8234    1.0000 </r>
       <r>   -4.7980    1.0000 </r>
       <r>   -4.7565    1.0000 </r>
       <r>   -4.7521    1.0000 </r>
       <r>   -4.6861    1.0000 </r>
       <r>   -4.6743    1.0000 </r>
       <r>   -4.6490    1.0000 </r>
       <r>   -4.5567    1.0000 </r>
       <r>   -4.5395    1.0000 </r>
       <r>   -4.5074    1.0000 </r>
       <r>   -4.4647    1.0000 </r>
       <r>   -4.4278    1.0000 </r>
       <r>   -4.4010    1.0000 </r>
       <r>   -4.3596    1.0000 </r>
       <r>   -4.2872    1.0000 </r>
       <r>   -4.2346    1.0000 </r>
       <r>   -4.1974    1.0000 </r>
       <r>   -4.1778    1.0000 </r>
       <r>   -4.1657    1.0000 </r>
       <r>   -4.1436    1.0000 </r>
       <r>   -4.1230    1.0000 </r>
       <r>   -4.1058    1.0000 </r>
       <r>   -4.0586    1.0000 </r>
       <r>   -4.0310    1.0000 </r>
       <r>   -3.9962    1.0000 </r>
       <r>   -3.9702    1.0000 </r>
       <r>   -3.9415    1.0000 </r>
       <r>   -3.8847    1.0000 </r>
       <r>   -3.8730    1.0000 </r>
       <r>   -3.8652    1.0000 </r>
       <r>   -3.8367    1.0000 </r>
       <r>   -3.7969    1.0000 </r>
       <r>   -3.7409    1.0000 </r>
       <r>   -3.6976    1.0000 </r>
       <r>   -3.6905    1.0000 </r>
       <r>   -3.6229    1.0000 </r>
       <r>   -3.6027    1.0000 </r>
       <r>   -3.5818    1.0000 </r>
       <r>   -3.5630    1.0000 </r>
       <r>   -3.5431    1.0000 </r>
       <r>   -3.4870    1.0000 </r>
       <r>   -3.4584    1.0000 </r>
       <r>   -3.4467    1.0000 </r>
       <r>   -3.4169    1.0000 </r>
       <r>   -3.3964    1.0000 </r>
       <r>   -3.3604    1.0000 </r>
       <r>   -3.3537    1.0000 </r>
       <r>   -3.3326    1.0000 </r>
       <r>   -3.3139    1.0000 </r>
       <r>   -3.2771    1.0000 </r>
       <r>   -3.2689    1.0000 </r>
       <r>   -3.2551    1.0000 </r>
       <r>   -3.2417    1.0000 </r>
       <r>   -3.2102    1.0000 </r>
       <r>   -3.1759    1.0000 </r>
       <r>   -3.1653    1.0000 </r>
       <r>   -3.1608    1.0000 </r>
       <r>   -3.1475    1.0000 </r>
       <r>   -3.1319    1.0000 </r>
       <r>   -3.0996    1.0000 </r>
       <r>   -3.0942    1.0000 </r>
       <r>   -3.0852    1.0000 </r>
       <r>   -3.0457    1.0000 </r>
       <r>   -3.0288    1.0000 </r>
       <r>   -3.0018    1.0000 </r>
       <r>   -2.9930    1.0000 </r>
       <r>   -2.9684    1.0000 </r>
       <r>   -2.9102    1.0000 </r>
       <r>   -2.8991    1.0000 </r>
       <r>   -2.8974    1.0000 </r>
       <r>   -2.8453    1.0000 </r>
       <r>   -2.8142    1.0000 </r>
       <r>   -2.7989    1.0000 </r>
       <r>   -2.7950    1.0000 </r>
       <r>   -2.7638    1.0000 </r>
       <r>   -2.7500    1.0000 </r>
       <r>   -2.7133    1.0000 </r>
       <r>   -2.7068    1.0000 </r>
       <r>   -2.6715    1.0000 </r>
       <r>   -2.6534    1.0000 </r>
       <r>   -2.6240    1.0000 </r>
       <r>   -2.6057    1.0000 </r>
       <r>   -2.5344    1.0000 </r>
       <r>   -2.5233    1.0000 </r>
       <r>   -2.5159    1.0000 </r>
       <r>   -2.5076    1.0000 </r>
       <r>   -2.4791    1.0000 </r>
       <r>   -2.4606    1.0000 </r>
       <r>   -2.4314    1.0000 </r>
       <r>   -2.3944    1.0000 </r>
       <r>   -2.3842    1.0000 </r>
       <r>   -2.3759    1.0000 </r>
       <r>   -2.3527    1.0000 </r>
       <r>   -2.3294    1.0000 </r>
       <r>   -2.2635    1.0000 </r>
       <r>   -2.2414    1.0000 </r>
       <r>   -2.2351    1.0000 </r>
       <r>   -2.2019    1.0000 </r>
       <r>   -2.1682    1.0000 </r>
       <r>   -2.1150    1.0000 </r>
       <r>   -2.0919    1.0000 </r>
       <r>   -2.0540    1.0000 </r>
       <r>   -2.0300    1.0000 </r>
       <r>   -1.9934    1.0000 </r>
       <r>   -1.9663    1.0000 </r>
       <r>   -1.9207    1.0000 </r>
       <r>   -1.8851    1.0000 </r>
       <r>   -1.8573    1.0000 </r>
       <r>   -1.7868    1.0000 </r>
       <r>   -1.7698    1.0000 </r>
       <r>   -1.7300    1.0000 </r>
       <r>   -1.6673    1.0000 </r>
       <r>   -1.6346    1.0000 </r>
       <r>   -1.6040    1.0000 </r>
       <r>   -1.5866    1.0000 </r>
       <r>   -1.5145    1.0000 </r>
       <r>   -1.4900    1.0000 </r>
       <r>   -1.4293    1.0000 </r>
       <r>   -1.3775    1.0000 </r>
       <r>   -1.3768    1.0000 </r>
       <r>   -1.3278    1.0000 </r>
       <r>   -1.3100    1.0000 </r>
       <r>   -1.2958    1.0000 </r>
       <r>   -1.2475    1.0000 </r>
       <r>   -1.2400    1.0000 </r>
       <r>   -1.2074    1.0000 </r>
       <r>   -1.1689    1.0000 </r>
       <r>   -1.1598    1.0000 </r>
       <r>   -1.1321    1.0000 </r>
       <r>   -1.0999    1.0000 </r>
       <r>   -1.0959    1.0000 </r>
       <r>   -1.0753    1.0000 </r>
       <r>   -1.0384    1.0000 </r>
       <r>   -1.0277    1.0000 </r>
       <r>   -1.0201    1.0000 </r>
       <r>   -0.9858    1.0000 </r>
       <r>   -0.9697    1.0000 </r>
       <r>   -0.9651    1.0000 </r>
       <r>   -0.9414    1.0000 </r>
       <r>   -0.9292    1.0000 </r>
       <r>   -0.9245    1.0000 </r>
       <r>   -0.8927    1.0000 </r>
       <r>   -0.8650    1.0000 </r>
       <r>   -0.8633    1.0000 </r>
       <r>   -0.8544    1.0000 </r>
       <r>   -0.8416    1.0000 </r>
       <r>   -0.8259    1.0000 </r>
       <r>   -0.7937    1.0000 </r>
       <r>   -0.7857    1.0000 </r>
       <r>   -0.7726    1.0000 </r>
       <r>   -0.7672    1.0000 </r>
       <r>   -0.7607    1.0000 </r>
       <r>   -0.7461    1.0000 </r>
       <r>   -0.7347    1.0000 </r>
       <r>   -0.7320    1.0000 </r>
       <r>   -0.7147    1.0000 </r>
       <r>   -0.7098    1.0000 </r>
       <r>   -0.6761    1.0000 </r>
       <r>   -0.6703    1.0000 </r>
       <r>   -0.6514    1.0000 </r>
       <r>   -0.6348    1.0000 </r>
       <r>   -0.6301    1.0000 </r>
       <r>   -0.6192    1.0000 </r>
       <r>   -0.6114    1.0000 </r>
       <r>   -0.5926    1.0000 </r>
       <r>   -0.5828    1.0000 </r>
       <r>   -0.5646    1.0000 </r>
       <r>   -0.5417    1.0000 </r>
       <r>   -0.5389    1.0000 </r>
       <r>   -0.5193    1.0000 </r>
       <r>   -0.5061    1.0000 </r>
       <r>   -0.4931    1.0000 </r>
       <r>   -0.4840    1.0000 </r>
       <r>   -0.4624    1.0000 </r>
       <r>   -0.4538    1.0000 </r>
       <r>   -0.4479    1.0000 </r>
       <r>   -0.4368    1.0000 </r>
       <r>   -0.4303    1.0000 </r>
       <r>   -0.3954    1.0000 </r>
       <r>   -0.3824    1.0000 </r>
       <r>   -0.3706    1.0000 </r>
       <r>   -0.3601    1.0000 </r>
       <r>   -0.3461    1.0000 </r>
       <r>   -0.3314    1.0000 </r>
       <r>   -0.3281    1.0000 </r>
       <r>   -0.3141    1.0000 </r>
       <r>   -0.2949    1.0000 </r>
       <r>   -0.2816    1.0000 </r>
       <r>   -0.2686    1.0000 </r>
       <r>   -0.2466    1.0000 </r>
       <r>   -0.2440    1.0000 </r>
       <r>   -0.2236    1.0000 </r>
       <r>   -0.2149    1.0000 </r>
       <r>   -0.2065    1.0000 </r>
       <r>   -0.2039    1.0000 </r>
       <r>   -0.1799    1.0000 </r>
       <r>   -0.1637    1.0000 </r>
       <r>   -0.1525    1.0000 </r>
       <r>   -0.1478    1.0000 </r>
       <r>   -0.1405    1.0000 </r>
       <r>   -0.1229    1.0000 </r>
       <r>   -0.1174    1.0000 </r>
       <r>   -0.1028    1.0000 </r>
       <r>   -0.0987    1.0000 </r>
       <r>   -0.0898    1.0000 </r>
       <r>   -0.0748    1.0000 </r>
       <r>   -0.0575    1.0000 </r>
       <r>   -0.0261    1.0000 </r>
       <r>   -0.0253    1.0000 </r>
       <r>   -0.0137    1.0000 </r>
       <r>    0.0011    1.0000 </r>
       <r>    0.0083    1.0000 </r>
       <r>    0.0164    1.0000 </r>
       <r>    0.0189    1.0000 </r>
       <r>    0.0269    1.0000 </r>
       <r>    0.0416    1.0000 </r>
       <r>    0.0453    1.0000 </r>
       <r>    0.0586    1.0000 </r>
       <r>    0.0634    1.0000 </r>
       <r>    0.0721    1.0000 </r>
       <r>    0.0786    1.0000 </r>
       <r>    0.0842    1.0000 </r>
       <r>    0.0970    1.0000 </r>
       <r>    0.1151    1.0000 </r>
       <r>    0.1192    1.0000 </r>
       <r>    0.1311    1.0000 </r>
       <r>    0.1481    1.0000 </r>
       <r>    0.1591    1.0000 </r>
       <r>    0.1693    1.0000 </r>
       <r>    0.1763    1.0000 </r>
       <r>    0.1787    1.0000 </r>
       <r>    0.1929    1.0000 </r>
       <r>    0.1991    1.0000 </r>
       <r>    0.2091    1.0000 </r>
       <r>    0.2214    1.0000 </r>
       <r>    0.2353    1.0000 </r>
       <r>    0.2470    1.0000 </r>
       <r>    0.2572    1.0000 </r>
       <r>    0.2682    1.0000 </r>
       <r>    0.2839    1.0000 </r>
       <r>    0.2910    1.0000 </r>
       <r>    0.2990    1.0000 </r>
       <r>    0.3080    1.0000 </r>
       <r>    0.3259    1.0000 </r>
       <r>    0.3499    1.0000 </r>
       <r>    0.3620    1.0000 </r>
       <r>    0.3738    1.0000 </r>
       <r>    0.3867    1.0000 </r>
       <r>    0.4042    1.0000 </r>
       <r>    0.4093    1.0000 </r>
       <r>    0.4223    1.0000 </r>
       <r>    0.4258    1.0000 </r>
       <r>    0.4375    1.0000 </r>
       <r>    0.4500    1.0000 </r>
       <r>    0.4630    1.0000 </r>
       <r>    0.4766    1.0000 </r>
       <r>    0.4794    1.0000 </r>
       <r>    0.4868    1.0000 </r>
       <r>    0.5151    1.0000 </r>
       <r>    0.5238    1.0000 </r>
       <r>    0.5533    1.0000 </r>
       <r>    0.5638    1.0000 </r>
       <r>    0.5854    1.0000 </r>
       <r>    0.6010    1.0000 </r>
       <r>    0.6218    1.0000 </r>
       <r>    0.6482    1.0000 </r>
       <r>    0.6846    1.0000 </r>
       <r>    0.6893    1.0000 </r>
       <r>    0.6942    1.0000 </r>
       <r>    0.7028    1.0000 </r>
       <r>    0.7244    1.0000 </r>
       <r>    0.7428    1.0000 </r>
       <r>    0.7594    1.0000 </r>
       <r>    0.7719    1.0000 </r>
       <r>    0.7888    1.0000 </r>
       <r>    0.8009    1.0000 </r>
       <r>    0.8153    1.0000 </r>
       <r>    0.8370    1.0000 </r>
       <r>    0.8522    1.0000 </r>
       <r>    0.8981    1.0000 </r>
       <r>    0.9103    1.0000 </r>
       <r>    0.9247    1.0000 </r>
       <r>    0.9687    1.0000 </r>
       <r>    1.0047    1.0000 </r>
       <r>    1.0393    1.0000 </r>
       <r>    1.0416    1.0000 </r>
       <r>    1.0767    1.0000 </r>
       <r>    1.1243    1.0000 </r>
       <r>    1.1350    1.0000 </r>
       <r>    1.1681    1.0000 </r>
       <r>    1.1825    1.0000 </r>
       <r>    1.2081    1.0000 </r>
       <r>    1.2237    0.9999 </r>
       <r>    1.2629    0.9998 </r>
       <r>    1.2760    0.9997 </r>
       <r>    1.3064    0.9994 </r>
       <r>    1.3284    0.9989 </r>
       <r>    1.3400    0.9986 </r>
       <r>    1.3699    0.9972 </r>
       <r>    1.3743    0.9969 </r>
       <r>    1.4354    0.9895 </r>
       <r>    1.4477    0.9869 </r>
       <r>    1.4914    0.9722 </r>
       <r>    1.5016    0.9672 </r>
       <r>    1.5203    0.9563 </r>
       <r>    1.5759    0.9059 </r>
       <r>    1.6078    0.8622 </r>
       <r>    1.6335    0.8181 </r>
       <r>    1.6595    0.7658 </r>
       <r>    1.7017    0.6651 </r>
       <r>    1.7447    0.5487 </r>
       <r>    1.7575    0.5128 </r>
       <r>    1.8057    0.3786 </r>
       <r>    1.8602    0.2437 </r>
       <r>    1.8809    0.2003 </r>
       <r>    1.9226    0.1281 </r>
       <r>    2.0029    0.0443 </r>
       <r>    2.0227    0.0326 </r>
       <r>    2.0740    0.0137 </r>
       <r>    2.1047    0.0077 </r>
       <r>    2.1321    0.0044 </r>
       <r>    2.1573    0.0026 </r>
       <r>    2.1797    0.0016 </r>
       <r>    2.2050    0.0009 </r>
       <r>    2.2423    0.0003 </r>
       <r>    2.2799    0.0001 </r>
[...]
       <r>   -58.5529     0.0000   288.0000 </r>
       <r>   -58.2922     0.0000   288.0000 </r>
       <r>   -58.0315     0.0000   288.0000 </r>
       <r>   -57.7708     0.0000   288.0000 </r>
       <r>   -57.5102     0.0000   288.0000 </r>
       <r>   -57.2495     0.0000   288.0000 </r>
       <r>   -56.9888     0.0000   288.0000 </r>
       <r>   -56.7281     0.0000   288.0000 </r>
       <r>   -56.4674     0.0000   288.0000 </r>
       <r>   -56.2068     0.0000   288.0000 </r>
       <r>   -55.9461     0.0000   288.0000 </r>
       <r>   -55.6854     0.0000   288.0000 </r>
       <r>   -55.4247     0.0000   288.0000 </r>
       <r>   -55.1640     0.0000   288.0000 </r>
       <r>   -54.9034     0.0000   288.0000 </r>
       <r>   -54.6427     0.0000   288.0000 </r>
       <r>   -54.3820     0.0000   288.0000 </r>
       <r>   -54.1213     0.0000   288.0000 </r>
       <r>   -53.8606     0.0000   288.0000 </r>
       <r>   -53.6000     0.0000   288.0000 </r>
       <r>   -53.3393     0.0000   288.0000 </r>
       <r>   -53.0786     0.0000   288.0000 </r>
       <r>   -52.8179     0.0000   288.0000 </r>
       <r>   -52.5572     0.0000   288.0000 </r>
       <r>   -52.2966     0.0000   288.0000 </r>
       <r>   -52.0359     0.0000   288.0000 </r>
       <r>   -51.7752     0.0000   288.0000 </r>
       <r>   -51.5145     0.0000   288.0000 </r>
       <r>   -51.2538     0.0000   288.0000 </r>
       <r>   -50.9932     0.0000   288.0000 </r>
       <r>   -50.7325     0.0000   288.0000 </r>
       <r>   -50.4718     0.0000   288.0000 </r>
       <r>   -50.2111     0.0000   288.0000 </r>
       <r>   -49.9504     0.0000   288.0000 </r>
       <r>   -49.6898     0.0000   288.0000 </r>
       <r>   -49.4291     0.0000   288.0000 </r>
       <r>   -49.1684     0.0000   288.0000 </r>
       <r>   -48.9077     0.0000   288.0000 </r>
       <r>   -48.6470     0.0000   288.0000 </r>
       <r>   -48.3864     0.0000   288.0000 </r>
       <r>   -48.1257     0.0000   288.0000 </r>
       <r>   -47.8650     0.0000   288.0000 </r>
       <r>   -47.6043     0.0000   288.0000 </r>
       <r>   -47.3436     0.0000   288.0000 </r>
       <r>   -47.0829     0.0000   288.0000 </r>
       <r>   -46.8223     0.0000   288.0000 </r>
       <r>   -46.5616     0.0000   288.0000 </r>
       <r>   -46.3009     0.0000   288.0000 </r>
       <r>   -46.0402     0.0000   288.0000 </r>
       <r>   -45.7795     0.0000   288.0000 </r>
       <r>   -45.5189     0.0000   288.0000 </r>
       <r>   -45.2582     0.0000   288.0000 </r>
       <r>   -44.9975     0.0000   288.0000 </r>
       <r>   -44.7368     0.0000   288.0000 </r>
       <r>   -44.4761     0.0000   288.0000 </r>
       <r>   -44.2155     0.0000   288.0000 </r>
       <r>   -43.9548     0.0000   288.0000 </r>
       <r>   -43.6941     0.0000   288.0000 </r>
       <r>   -43.4334     0.0000   288.0000 </r>
       <r>   -43.1727     0.0000   288.0000 </r>
       <r>   -42.9121     0.0000   288.0000 </r>
       <r>   -42.6514     0.0000   288.0000 </r>
       <r>   -42.3907     0.0000   288.0000 </r>
       <r>   -42.1300     0.0000   288.0000 </r>
       <r>   -41.8693     0.0000   288.0000 </r>
       <r>   -41.6087     0.0000   288.0000 </r>
       <r>   -41.3480     0.0000   288.0000 </r>
       <r>   -41.0873     0.0000   288.0000 </r>
       <r>   -40.8266     0.0000   288.0000 </r>
       <r>   -40.5659     0.0000   288.0000 </r>
       <r>   -40.3053     0.0000   288.0000 </r>
       <r>   -40.0446     0.0000   288.0000 </r>
       <r>   -39.7839     0.0000   288.0000 </r>
       <r>   -39.5232     0.0000   288.0000 </r>
       <r>   -39.2625     0.0000   288.0000 </r>
       <r>   -39.0019     0.0000   288.0000 </r>
       <r>   -38.7412     0.0000   288.0000 </r>
       <r>   -38.4805     0.0000   288.0000 </r>
       <r>   -38.2198     0.0000   288.0000 </r>
       <r>   -37.9591     0.0000   288.0000 </r>
       <r>   -37.6984     0.0000   288.0000 </r>
       <r>   -37.4378     0.0000   288.0000 </r>
       <r>   -37.1771     0.0000   288.0000 </r>
       <r>   -36.9164     0.0000   288.0000 </r>
       <r>   -36.6557     0.0000   288.0000 </r>
       <r>   -36.3950     0.0000   288.0000 </r>
       <r>   -36.1344     0.0000   288.0000 </r>
       <r>   -35.8737     0.0000   288.0000 </r>
       <r>   -35.6130     0.0000   288.0000 </r>
       <r>   -35.3523     0.0000   288.0000 </r>
       <r>   -35.0916     0.0000   288.0000 </r>
       <r>   -34.8310     0.0000   288.0000 </r>
       <r>   -34.5703     0.0000   288.0000 </r>
       <r>   -34.3096     0.0000   288.0000 </r>
       <r>   -34.0489     0.0000   288.0000 </r>
       <r>   -33.7882     0.0000   288.0000 </r>
       <r>   -33.5276     0.0000   288.0000 </r>
       <r>   -33.2669     0.0000   288.0000 </r>
       <r>   -33.0062     0.0000   288.0000 </r>
       <r>   -32.7455     0.0000   288.0000 </r>
       <r>   -32.4848     0.0000   288.0000 </r>
       <r>   -32.2242     0.0000   288.0000 </r>
       <r>   -31.9635     0.0000   288.0000 </r>
       <r>   -31.7028     0.0000   288.0000 </r>
       <r>   -31.4421     0.0000   288.0000 </r>
       <r>   -31.1814     0.0000   288.0000 </r>
       <r>   -30.9208     0.0000   288.0000 </r>
       <r>   -30.6601     0.0000   288.0000 </r>
       <r>   -30.3994     0.0000   288.0000 </r>
       <r>   -30.1387     0.0000   288.0000 </r>
       <r>   -29.8780     0.0000   288.0000 </r>
       <r>   -29.6174     0.0000   288.0000 </r>
       <r>   -29.3567     0.0000   288.0000 </r>
       <r>   -29.0960     0.0000   288.0000 </r>
       <r>   -28.8353     0.0000   288.0000 </r>
       <r>   -28.5746     0.0000   288.0000 </r>
       <r>   -28.3139     0.0000   288.0000 </r>
       <r>   -28.0533     0.0000   288.0000 </r>
       <r>   -27.7926     0.0000   288.0000 </r>
       <r>   -27.5319     0.0000   288.0000 </r>
       <r>   -27.2712     0.0000   288.0000 </r>
       <r>   -27.0105     0.0000   288.0000 </r>
       <r>   -26.7499     0.0000   288.0000 </r>
       <r>   -26.4892     0.0000   288.0000 </r>
       <r>   -26.2285     0.0000   288.0000 </r>
       <r>   -25.9678     0.0000   288.0000 </r>
       <r>   -25.7071     0.0000   288.0000 </r>
       <r>   -25.4465     0.0000   288.0000 </r>
       <r>   -25.1858     0.0000   288.0000 </r>
       <r>   -24.9251     0.0000   288.0000 </r>
       <r>   -24.6644     0.0000   288.0000 </r>
       <r>   -24.4037     0.0000   288.0000 </r>
       <r>   -24.1431     0.0000   288.0000 </r>
       <r>   -23.8824     0.0000   288.0000 </r>
       <r>   -23.6217     0.0000   288.0000 </r>
       <r>   -23.3610     0.0000   288.0000 </r>
       <r>   -23.1003     0.0000   288.0000 </r>
       <r>   -22.8397     0.0000   288.0000 </r>
       <r>   -22.5790     0.0000   288.0000 </r>
       <r>   -22.3183     0.0000   288.0000 </r>
       <r>   -22.0576     0.0000   288.0000 </r>
       <r>   -21.7969     0.0000   288.0000 </r>
       <r>   -21.5363     0.0000   288.0000 </r>
       <r>   -21.2756     0.0000   288.0000 </r>
       <r>   -21.0149     0.0000   288.0000 </r>
       <r>   -20.7542     0.0000   288.0000 </r>
       <r>   -20.4935     0.0000   288.0000 </r>
       <r>   -20.2329     0.0000   288.0000 </r>
       <r>   -19.9722     0.0000   288.0000 </r>
       <r>   -19.7115     0.0000   288.0000 </r>
       <r>   -19.4508     0.0000   288.0000 </r>
       <r>   -19.1901     0.0000   288.0000 </r>
       <r>   -18.9295     0.0000   288.0000 </r>
       <r>   -18.6688     0.0000   288.0000 </r>
       <r>   -18.4081     0.0000   288.0000 </r>
       <r>   -18.1474     0.0000   288.0000 </r>
       <r>   -17.8867     0.0000   288.0000 </r>
       <r>   -17.6260     0.0000   288.0000 </r>
       <r>   -17.3654     0.0000   288.0000 </r>
       <r>   -17.1047     0.0000   288.0000 </r>
       <r>   -16.8440     0.0000   288.0000 </r>
       <r>   -16.5833     0.0000   288.0000 </r>
       <r>   -16.3226     0.0000   288.0000 </r>
       <r>   -16.0620     0.0000   288.0000 </r>
       <r>   -15.8013     0.0000   288.0000 </r>
       <r>   -15.5406     0.0000   288.0000 </r>
       <r>   -15.2799     0.0000   288.0000 </r>
       <r>   -15.0192     0.0000   288.0000 </r>
       <r>   -14.7586     0.0015   288.0004 </r>
       <r>   -14.4979     0.3343   288.0875 </r>
       <r>   -14.2372     4.0748   289.1497 </r>
       <r>   -13.9765     6.6465   290.8824 </r>
       <r>   -13.7158     8.8351   293.1855 </r>
       <r>   -13.4552    14.5693   296.9834 </r>
       <r>   -13.1945    25.1499   303.5395 </r>
       <r>   -12.9338    31.6270   311.7841 </r>
       <r>   -12.6731    24.1195   318.0716 </r>
       <r>   -12.4124    31.1051   326.1801 </r>
       <r>   -12.1518    55.5150   340.6517 </r>
       <r>   -11.8911    44.0731   352.1407 </r>
       <r>   -11.6304    36.6335   361.6904 </r>
       <r>   -11.3697    43.5565   373.0447 </r>
       <r>   -11.1090    22.7776   378.9824 </r>
       <r>   -10.8484    13.7639   382.5704 </r>
       <r>   -10.5877     5.2779   383.9462 </r>
       <r>   -10.3270     0.2059   383.9999 </r>
       <r>   -10.0663     0.0004   384.0000 </r>
       <r>    -9.8056     0.0000   384.0000 </r>
       <r>    -9.5450     0.0000   384.0000 </r>
       <r>    -9.2843     0.0000   384.0000 </r>
       <r>    -9.0236     0.0000   384.0000 </r>
       <r>    -8.7629     0.0000   384.0000 </r>
       <r>    -8.5022     0.0000   384.0000 </r>
       <r>    -8.2415     0.0000   384.0000 </r>
       <r>    -7.9809     0.0000   384.0000 </r>
       <r>    -7.7202     0.0000   384.0000 </r>
       <r>    -7.4595     0.0000   384.0000 </r>
       <r>    -7.1988     0.0000   384.0000 </r>
       <r>    -6.9381     0.0000   384.0000 </r>
       <r>    -6.6775     0.0000   384.0000 </r>
       <r>    -6.4168     0.0130   384.0034 </r>
       <r>    -6.1561     1.5392   384.4046 </r>
       <r>    -5.8954    16.0649   388.5924 </r>
       <r>    -5.6347    32.6076   397.0926 </r>
       <r>    -5.3741    25.5469   403.7522 </r>
       <r>    -5.1134    36.7021   413.3197 </r>
       <r>    -4.8527    68.5382   431.1863 </r>
       <r>    -4.5920    65.5247   448.2673 </r>
       <r>    -4.3313    52.0799   461.8435 </r>
       <r>    -4.0707    61.7505   477.9407 </r>
       <r>    -3.8100    65.8417   495.1043 </r>
       <r>    -3.5493    64.7898   511.9938 </r>
       <r>    -3.2886    84.1996   533.9430 </r>
       <r>    -3.0279    99.0792   559.7710 </r>
       <r>    -2.7673    87.5635   582.5971 </r>
       <r>    -2.5066    83.5657   604.3810 </r>
       <r>    -2.2459    78.3478   624.8047 </r>
       <r>    -1.9852    62.4965   641.0964 </r>
       <r>    -1.7245    52.8966   654.8855 </r>
       <r>    -1.4639    51.7792   668.3833 </r>
       <r>    -1.2032    68.3848   686.2099 </r>
       <r>    -0.9425   101.6310   712.7031 </r>
       <r>    -0.6818   139.2729   749.0088 </r>
       <r>    -0.4211   150.6978   788.2928 </r>
       <r>    -0.1605   159.1884   829.7902 </r>
       <r>     0.1002   184.3214   877.8392 </r>
       <r>     0.3609   180.5055   924.8934 </r>
       <r>     0.6216   142.9070   962.1465 </r>
       <r>     0.8823   109.4497   990.6779 </r>
       <r>     1.1430    82.1219  1012.0855 </r>
       <r>     1.4036    79.5204  1032.8149 </r>
       <r>     1.6643    67.4886  1050.4079 </r>
       <r>     1.9250    54.0538  1064.4986 </r>
       <r>     2.1857    57.8646  1079.5828 </r>
       <r>     2.4464    71.8188  1098.3046 </r>
       <r>     2.7070    73.5684  1117.4824 </r>
       <r>     2.9677    60.2218  1133.1811 </r>
       <r>     3.2284    40.0711  1143.6268 </r>
       <r>     3.4891    23.9931  1149.8814 </r>
       <r>     3.7498     7.5140  1151.8401 </r>
       <r>     4.0104     3.1260  1152.6550 </r>
       <r>     4.2711     9.0459  1155.0131 </r>
       <r>     4.5318     5.0209  1156.3220 </r>
       <r>     4.7925     7.8164  1158.3595 </r>
       <r>     5.0532    11.1040  1161.2541 </r>
       <r>     5.3138    17.3945  1165.7886 </r>
       <r>     5.5745    17.2807  1170.2933 </r>
       <r>     5.8352    21.0123  1175.7708 </r>
       <r>     6.0959    30.7905  1183.7973 </r>
       <r>     6.3566    31.9396  1192.1233 </r>
       <r>     6.6172    29.9945  1199.9423 </r>
       <r>     6.8779    26.9635  1206.9712 </r>
       <r>     7.1386    41.6219  1217.8212 </r>
       <r>     7.3993    53.8562  1231.8604 </r>
       <r>     7.6600    56.1896  1246.5080 </r>
       <r>     7.9206    54.0321  1260.5931 </r>
       <r>     8.1813    26.2431  1267.4341 </r>
       <r>     8.4420     2.1557  1267.9961 </r>
       <r>     8.7027     0.0149  1268.0000 </r>
       <r>     8.9634     0.0000  1268.0000 </r>
       <r>     9.2240     0.0000  1268.0000 </r>
       <r>     9.4847     0.0000  1268.0000 </r>
       <r>     9.7454     0.0000  1268.0000 </r>
       <r>    10.0061     0.0000  1268.0000 </r>
       <r>    10.2668     0.0000  1268.0000 </r>
       <r>    10.5274     0.0000  1268.0000 </r>
       <r>    10.7881     0.0000  1268.0000 </r>
       <r>    11.0488     0.0000  1268.0000 </r>
       <r>    11.3095     0.0000  1268.0000 </r>
       <r>    11.5702     0.0000  1268.0000 </r>
      </set>
     </set>
    </array>
   </total>
  </dos>
 </calculation>
 <structure name="finalpos" >
  <crystal>
   <varray name="basis" >
    <v>      11.25646304       0.00000000       0.00000000 </v>
    <v>       5.04456212      10.06282034       0.00000000 </v>
    <v>       0.00000000       0.00000000      21.74423184 </v>
   </varray>
   <i name="volume">   2463.00752351 </i>
   <varray name="rec_basis" >
    <v>       0.08883785      -0.04453504       0.00000000 </v>
    <v>       0.00000000       0.09937572       0.00000000 </v>
    <v>       0.00000000       0.00000000       0.04598921 </v>
   </varray>
  </crystal>
  <varray name="positions" >
   <v>       0.26092070       0.47878036       0.25332799 </v>
   <v>       0.35488056       0.38482049       0.38835497 </v>
   <v>       0.36586470       0.37317481       0.49636159 </v>
   <v>       0.16696083       0.07274024       0.11830101 </v>
   <v>       0.04162165       0.05443372       0.46622094 </v>
   <v>       0.27423906       0.33335899       0.08262607 </v>
   <v>       0.36819893       0.23939913       0.21765305 </v>
   <v>       0.46215880       0.14543926       0.35268003 </v>
   <v>       0.00030194       0.37150212       0.21765305 </v>
   <v>       0.09426181       0.27754226       0.35268003 </v>
   <v>       0.18567952       0.19831959       0.46622141 </v>
   <v>       0.40634206       0.46546199       0.08262607 </v>
   <v>       0.76092070       0.47878036       0.25332799 </v>
   <v>       0.85488056       0.38482049       0.38835497 </v>
   <v>       0.86588845       0.37314999       0.49636642 </v>
   <v>       0.66696083       0.07274024       0.11830101 </v>
   <v>       0.54161876       0.05443248       0.46621826 </v>
   <v>       0.77423906       0.33335899       0.08262607 </v>
   <v>       0.86819893       0.23939913       0.21765305 </v>
   <v>       0.96215880       0.14543926       0.35268003 </v>
   <v>       0.50030194       0.37150212       0.21765305 </v>
   <v>       0.59426181       0.27754226       0.35268003 </v>
   <v>       0.68567767       0.19832174       0.46621991 </v>
   <v>       0.98858454       0.44245188       0.11435014 </v>
   <v>       0.26092070       0.97878036       0.25332799 </v>
   <v>       0.35488056       0.88482049       0.38835497 </v>
   <v>       0.45509531       0.78469786       0.50519789 </v>
   <v>       0.16696083       0.57274024       0.11830101 </v>
   <v>       0.05101588       0.55009424       0.47262702 </v>
   <v>       0.27423907       0.83335899       0.08262607 </v>
   <v>       0.36819893       0.73939913       0.21765305 </v>
   <v>       0.46215880       0.64543926       0.35268003 </v>
   <v>       0.00030194       0.87150212       0.21765305 </v>
   <v>       0.09426181       0.77754226       0.35268003 </v>
   <v>       0.18935011       0.68822958       0.47272156 </v>
   <v>       0.40634206       0.96546199       0.08262607 </v>
   <v>       0.76092070       0.97878036       0.25332799 </v>
   <v>       0.85488056       0.88482049       0.38835497 </v>
   <v>       0.95510763       0.78468583       0.50519818 </v>
   <v>       0.67707725       0.55517558       0.13130298 </v>
   <v>       0.55101181       0.55009758       0.47262674 </v>
   <v>       0.78451447       0.83642250       0.10285012 </v>
   <v>       0.86819893       0.73939913       0.21765305 </v>
   <v>       0.96215880       0.64543926       0.35268003 </v>
   <v>       0.50030194       0.87150212       0.21765305 </v>
   <v>       0.59426181       0.77754226       0.35268003 </v>
   <v>       0.68934520       0.68822764       0.47272666 </v>
   <v>       0.92362035       0.96208621       0.10169195 </v>
   <v>       0.07287763       0.16682343       0.27005396 </v>
   <v>       0.16683750       0.07286357       0.40508094 </v>
   <v>       0.36746202       0.37304963       0.01300913 </v>
   <v>       0.47891775       0.26078330       0.13502698 </v>
   <v>       0.20466240       0.53460850       0.53017487 </v>
   <v>       0.03023343       0.37768264       0.45050807 </v>
   <v>       0.43627354       0.47164251       0.31548109 </v>
   <v>       0.26064516       0.15653123       0.06401997 </v>
   <v>       0.34231368       0.06560239       0.18045411 </v>
   <v>       0.09992828       0.48767674       0.05270131 </v>
   <v>       0.17409868       0.39738738       0.18045411 </v>
   <v>       0.26805855       0.30342751       0.31548109 </v>
   <v>       0.36201842       0.20946765       0.45050807 </v>
   <v>       0.57287763       0.16682343       0.27005396 </v>
   <v>       0.66683750       0.07286357       0.40508094 </v>
   <v>       0.81947065       0.48516245       0.06180265 </v>
   <v>       0.97891775       0.26078330       0.13502698 </v>
   <v>       0.70467590       0.53458676       0.53017062 </v>
   <v>       0.53023343       0.37768264       0.45050807 </v>
   <v>       0.93627354       0.47164251       0.31548109 </v>
   <v>       0.77565669       0.14674336       0.06769804 </v>
   <v>       0.84231368       0.06560239       0.18045411 </v>
   <v>       0.58286766       0.47864161       0.06809950 </v>
   <v>       0.67409868       0.39738738       0.18045411 </v>
   <v>       0.76805855       0.30342751       0.31548109 </v>
   <v>       0.86201842       0.20946765       0.45050807 </v>
   <v>       0.07287764       0.66682343       0.27005396 </v>
   <v>       0.16683750       0.57286357       0.40508094 </v>
   <v>       0.35535361       0.88485615       0.01247483 </v>
   <v>       0.47891775       0.76078330       0.13502698 </v>
   <v>       0.03023342       0.87768264       0.45050807 </v>
   <v>       0.43627354       0.97164251       0.31548109 </v>
   <v>       0.26160083       0.65690066       0.06389796 </v>
   <v>       0.34231368       0.56560239       0.18045411 </v>
   <v>       0.08461795       0.97969272       0.06353061 </v>
   <v>       0.17409868       0.89738738       0.18045411 </v>
   <v>       0.26805855       0.80342751       0.31548109 </v>
   <v>       0.36201842       0.70946764       0.45050807 </v>
   <v>       0.57287764       0.66682343       0.27005396 </v>
   <v>       0.66683750       0.57286357       0.40508094 </v>
   <v>       0.97891775       0.76078330       0.13502698 </v>
   <v>       0.53023342       0.87768264       0.45050807 </v>
   <v>       0.93627354       0.97164251       0.31548109 </v>
   <v>       0.84231368       0.56560239       0.18045411 </v>
   <v>       0.59583790       0.96262872       0.06729703 </v>
   <v>       0.67409868       0.89738738       0.18045411 </v>
   <v>       0.76805855       0.80342751       0.31548109 </v>
   <v>       0.86201842       0.70946764       0.45050807 </v>
  </varray>
 </structure>
</modeling>
