  96  96   0   0
  0.2657162E+02  0.1125646E-08  0.1125646E-08  0.2251996E-08  0.5000000E-15
  1.000000000000000E-004
  CAR 
 "Millerite NiS"                         
     11.45641082    -65.82845387  301      1.78751750      1.00000000
    -65.828  0.0000E+00  0.0000E+00
    -65.571  0.0000E+00  0.0000E+00
    -65.313  0.0000E+00  0.0000E+00
    -65.056  0.0000E+00  0.0000E+00
    -64.798  0.0000E+00  0.0000E+00
    -64.540  0.0000E+00  0.0000E+00
    -64.283  0.0000E+00  0.0000E+00
    -64.025  0.0000E+00  0.0000E+00
    -63.768  0.0000E+00  0.0000E+00
    -63.510  0.0000E+00  0.0000E+00
    -63.252  0.8210E-09  0.2115E-09
    -62.995  0.5456E-04  0.1406E-04
    -62.737  0.1656E+00  0.4267E-01
    -62.479  0.2651E+02  0.6871E+01
    -62.222  0.3011E+03  0.8444E+02
    -61.964  0.4055E+03  0.1889E+03
    -61.707  0.1135E+03  0.2181E+03
    -61.449  0.5953E+02  0.2335E+03
    -61.191  0.5666E+02  0.2481E+03
    -60.934  0.6616E+02  0.2651E+03
    -60.676  0.6795E+02  0.2826E+03
    -60.419  0.1875E+02  0.2875E+03
    -60.161  0.2090E+01  0.2880E+03
    -59.903  0.4179E-01  0.2880E+03
    -59.646  0.4705E-04  0.2880E+03
    -59.388  0.2232E-08  0.2880E+03
    -59.130  0.4310E-14  0.2880E+03
    -58.873  0.0000E+00  0.2880E+03
    -58.615  0.0000E+00  0.2880E+03
    -58.358  0.0000E+00  0.2880E+03
    -58.100  0.0000E+00  0.2880E+03
    -57.842  0.0000E+00  0.2880E+03
    -57.585  0.0000E+00  0.2880E+03
    -57.327  0.0000E+00  0.2880E+03
    -57.070  0.0000E+00  0.2880E+03
    -56.812  0.0000E+00  0.2880E+03
    -56.554  0.0000E+00  0.2880E+03
    -56.297  0.0000E+00  0.2880E+03
    -56.039  0.0000E+00  0.2880E+03
    -55.781  0.0000E+00  0.2880E+03
    -55.524  0.0000E+00  0.2880E+03
    -55.266  0.0000E+00  0.2880E+03
    -55.009  0.0000E+00  0.2880E+03
    -54.751  0.0000E+00  0.2880E+03
    -54.493  0.0000E+00  0.2880E+03
    -54.236  0.0000E+00  0.2880E+03
    -53.978  0.0000E+00  0.2880E+03
    -53.720  0.0000E+00  0.2880E+03
    -53.463  0.0000E+00  0.2880E+03
    -53.205  0.0000E+00  0.2880E+03
    -52.948  0.0000E+00  0.2880E+03
    -52.690  0.0000E+00  0.2880E+03
    -52.432  0.0000E+00  0.2880E+03
    -52.175  0.0000E+00  0.2880E+03
    -51.917  0.0000E+00  0.2880E+03
    -51.660  0.0000E+00  0.2880E+03
    -51.402  0.0000E+00  0.2880E+03
    -51.144  0.0000E+00  0.2880E+03
    -50.887  0.0000E+00  0.2880E+03
    -50.629  0.0000E+00  0.2880E+03
    -50.371  0.0000E+00  0.2880E+03
    -50.114  0.0000E+00  0.2880E+03
    -49.856  0.0000E+00  0.2880E+03
    -49.599  0.0000E+00  0.2880E+03
    -49.341  0.0000E+00  0.2880E+03
    -49.083  0.0000E+00  0.2880E+03
    -48.826  0.0000E+00  0.2880E+03
    -48.568  0.0000E+00  0.2880E+03
    -48.311  0.0000E+00  0.2880E+03
    -48.053  0.0000E+00  0.2880E+03
    -47.795  0.0000E+00  0.2880E+03
    -47.538  0.0000E+00  0.2880E+03
    -47.280  0.0000E+00  0.2880E+03
    -47.022  0.0000E+00  0.2880E+03
    -46.765  0.0000E+00  0.2880E+03
    -46.507  0.0000E+00  0.2880E+03
    -46.250  0.0000E+00  0.2880E+03
    -45.992  0.0000E+00  0.2880E+03
    -45.734  0.0000E+00  0.2880E+03
    -45.477  0.0000E+00  0.2880E+03
    -45.219  0.0000E+00  0.2880E+03
    -44.962  0.0000E+00  0.2880E+03
    -44.704  0.0000E+00  0.2880E+03
    -44.446  0.0000E+00  0.2880E+03
    -44.189  0.0000E+00  0.2880E+03
    -43.931  0.0000E+00  0.2880E+03
    -43.673  0.0000E+00  0.2880E+03
    -43.416  0.0000E+00  0.2880E+03
    -43.158  0.0000E+00  0.2880E+03
    -42.901  0.0000E+00  0.2880E+03
    -42.643  0.0000E+00  0.2880E+03
    -42.385  0.0000E+00  0.2880E+03
    -42.128  0.0000E+00  0.2880E+03
    -41.870  0.0000E+00  0.2880E+03
    -41.613  0.0000E+00  0.2880E+03
    -41.355  0.0000E+00  0.2880E+03
    -41.097  0.0000E+00  0.2880E+03
    -40.840  0.0000E+00  0.2880E+03
    -40.582  0.0000E+00  0.2880E+03
    -40.324  0.0000E+00  0.2880E+03
    -40.067  0.0000E+00  0.2880E+03
    -39.809  0.0000E+00  0.2880E+03
    -39.552  0.0000E+00  0.2880E+03
    -39.294  0.0000E+00  0.2880E+03
    -39.036  0.0000E+00  0.2880E+03
    -38.779  0.0000E+00  0.2880E+03
    -38.521  0.0000E+00  0.2880E+03
    -38.264  0.0000E+00  0.2880E+03
    -38.006  0.0000E+00  0.2880E+03
    -37.748  0.0000E+00  0.2880E+03
    -37.491  0.0000E+00  0.2880E+03
    -37.233  0.0000E+00  0.2880E+03
    -36.975  0.0000E+00  0.2880E+03
    -36.718  0.0000E+00  0.2880E+03
    -36.460  0.0000E+00  0.2880E+03
    -36.203  0.0000E+00  0.2880E+03
    -35.945  0.0000E+00  0.2880E+03
    -35.687  0.0000E+00  0.2880E+03
    -35.430  0.0000E+00  0.2880E+03
    -35.172  0.0000E+00  0.2880E+03
    -34.915  0.0000E+00  0.2880E+03
    -34.657  0.0000E+00  0.2880E+03
    -34.399  0.0000E+00  0.2880E+03
    -34.142  0.0000E+00  0.2880E+03
    -33.884  0.0000E+00  0.2880E+03
    -33.626  0.0000E+00  0.2880E+03
    -33.369  0.0000E+00  0.2880E+03
    -33.111  0.0000E+00  0.2880E+03
    -32.854  0.0000E+00  0.2880E+03
    -32.596  0.0000E+00  0.2880E+03
    -32.338  0.0000E+00  0.2880E+03
    -32.081  0.0000E+00  0.2880E+03
    -31.823  0.0000E+00  0.2880E+03
    -31.565  0.0000E+00  0.2880E+03
    -31.308  0.0000E+00  0.2880E+03
    -31.050  0.0000E+00  0.2880E+03
    -30.793  0.0000E+00  0.2880E+03
    -30.535  0.0000E+00  0.2880E+03
    -30.277  0.0000E+00  0.2880E+03
    -30.020  0.0000E+00  0.2880E+03
    -29.762  0.0000E+00  0.2880E+03
    -29.505  0.0000E+00  0.2880E+03
    -29.247  0.0000E+00  0.2880E+03
    -28.989  0.0000E+00  0.2880E+03
    -28.732  0.0000E+00  0.2880E+03
    -28.474  0.0000E+00  0.2880E+03
    -28.216  0.0000E+00  0.2880E+03
    -27.959  0.0000E+00  0.2880E+03
    -27.701  0.0000E+00  0.2880E+03
    -27.444  0.0000E+00  0.2880E+03
    -27.186  0.0000E+00  0.2880E+03
    -26.928  0.0000E+00  0.2880E+03
    -26.671  0.0000E+00  0.2880E+03
    -26.413  0.0000E+00  0.2880E+03
    -26.156  0.0000E+00  0.2880E+03
    -25.898  0.0000E+00  0.2880E+03
    -25.640  0.0000E+00  0.2880E+03
    -25.383  0.0000E+00  0.2880E+03
    -25.125  0.0000E+00  0.2880E+03
    -24.867  0.0000E+00  0.2880E+03
    -24.610  0.0000E+00  0.2880E+03
    -24.352  0.0000E+00  0.2880E+03
    -24.095  0.0000E+00  0.2880E+03
    -23.837  0.0000E+00  0.2880E+03
    -23.579  0.0000E+00  0.2880E+03
    -23.322  0.0000E+00  0.2880E+03
    -23.064  0.0000E+00  0.2880E+03
    -22.807  0.0000E+00  0.2880E+03
    -22.549  0.0000E+00  0.2880E+03
    -22.291  0.0000E+00  0.2880E+03
    -22.034  0.0000E+00  0.2880E+03
    -21.776  0.0000E+00  0.2880E+03
    -21.518  0.0000E+00  0.2880E+03
    -21.261  0.0000E+00  0.2880E+03
    -21.003  0.0000E+00  0.2880E+03
    -20.746  0.0000E+00  0.2880E+03
    -20.488  0.0000E+00  0.2880E+03
    -20.230  0.0000E+00  0.2880E+03
    -19.973  0.0000E+00  0.2880E+03
    -19.715  0.0000E+00  0.2880E+03
    -19.458  0.0000E+00  0.2880E+03
    -19.200  0.0000E+00  0.2880E+03
    -18.942  0.0000E+00  0.2880E+03
    -18.685  0.0000E+00  0.2880E+03
    -18.427  0.0000E+00  0.2880E+03
    -18.169  0.0000E+00  0.2880E+03
    -17.912  0.0000E+00  0.2880E+03
    -17.654  0.0000E+00  0.2880E+03
    -17.397  0.0000E+00  0.2880E+03
    -17.139  0.0000E+00  0.2880E+03
    -16.881  0.0000E+00  0.2880E+03
    -16.624  0.0000E+00  0.2880E+03
    -16.366  0.0000E+00  0.2880E+03
    -16.109  0.0000E+00  0.2880E+03
    -15.851  0.0000E+00  0.2880E+03
    -15.593  0.0000E+00  0.2880E+03
    -15.336  0.0000E+00  0.2880E+03
    -15.078  0.0000E+00  0.2880E+03
    -14.820  0.0000E+00  0.2880E+03
    -14.563  0.5218E-10  0.2880E+03
    -14.305  0.2999E-05  0.2880E+03
    -14.048  0.7004E-02  0.2880E+03
    -13.790  0.7459E+00  0.2882E+03
    -13.532  0.4677E+01  0.2894E+03
    -13.275  0.2494E+01  0.2900E+03
    -13.017  0.6569E+01  0.2917E+03
    -12.760  0.2141E+02  0.2972E+03
    -12.502  0.2334E+02  0.3033E+03
    -12.244  0.2633E+02  0.3100E+03
    -11.987  0.3418E+02  0.3188E+03
    -11.729  0.4682E+02  0.3309E+03
    -11.471  0.5188E+02  0.3443E+03
    -11.214  0.4945E+02  0.3570E+03
    -10.956  0.3846E+02  0.3669E+03
    -10.699  0.2405E+02  0.3731E+03
    -10.441  0.2031E+02  0.3783E+03
    -10.183  0.7344E+01  0.3802E+03
     -9.926  0.6595E+01  0.3819E+03
     -9.668  0.6637E+01  0.3837E+03
     -9.411  0.1337E+01  0.3840E+03
     -9.153  0.2141E-01  0.3840E+03
     -8.895  0.1662E-04  0.3840E+03
     -8.638  0.5331E-09  0.3840E+03
     -8.380  0.8619E-15  0.3840E+03
     -8.122  0.0000E+00  0.3840E+03
     -7.865  0.0000E+00  0.3840E+03
     -7.607  0.0000E+00  0.3840E+03
     -7.350  0.0000E+00  0.3840E+03
     -7.092  0.0000E+00  0.3840E+03
     -6.834  0.0000E+00  0.3840E+03
     -6.577  0.4310E-15  0.3840E+03
     -6.319  0.5412E-09  0.3840E+03
     -6.061  0.2285E-04  0.3840E+03
     -5.804  0.4260E-01  0.3840E+03
     -5.546  0.4090E+01  0.3851E+03
     -5.289  0.2665E+02  0.3919E+03
     -5.031  0.1882E+02  0.3968E+03
     -4.773  0.1976E+02  0.4019E+03
     -4.516  0.4131E+02  0.4125E+03
     -4.258  0.6246E+02  0.4286E+03
     -4.001  0.5735E+02  0.4434E+03
     -3.743  0.5196E+02  0.4568E+03
     -3.485  0.4956E+02  0.4695E+03
     -3.228  0.5866E+02  0.4846E+03
     -2.970  0.6552E+02  0.5015E+03
     -2.712  0.8454E+02  0.5233E+03
     -2.455  0.8812E+02  0.5460E+03
     -2.197  0.9966E+02  0.5717E+03
     -1.940  0.1031E+03  0.5982E+03
     -1.682  0.7385E+02  0.6173E+03
     -1.424  0.6672E+02  0.6345E+03
     -1.167  0.6613E+02  0.6515E+03
     -0.909  0.6903E+02  0.6693E+03
     -0.652  0.7715E+02  0.6891E+03
     -0.394  0.1174E+03  0.7194E+03
     -0.136  0.1433E+03  0.7563E+03
      0.121  0.1926E+03  0.8059E+03
      0.379  0.2356E+03  0.8666E+03
      0.637  0.1878E+03  0.9150E+03
      0.894  0.1515E+03  0.9540E+03
      1.152  0.1351E+03  0.9888E+03
      1.409  0.1228E+03  0.1020E+04
      1.667  0.1003E+03  0.1046E+04
      1.925  0.7383E+02  0.1065E+04
      2.182  0.6251E+02  0.1081E+04
      2.440  0.7102E+02  0.1100E+04
      2.697  0.9133E+02  0.1123E+04
      2.955  0.8051E+02  0.1144E+04
      3.213  0.4328E+02  0.1155E+04
      3.470  0.1776E+02  0.1160E+04
      3.728  0.7441E+01  0.1162E+04
      3.986  0.1026E+02  0.1164E+04
      4.243  0.1107E+02  0.1167E+04
      4.501  0.1517E+02  0.1171E+04
      4.758  0.7596E+01  0.1173E+04
      5.016  0.7754E+01  0.1175E+04
      5.274  0.1594E+02  0.1179E+04
      5.531  0.1766E+02  0.1184E+04
      5.789  0.1944E+02  0.1189E+04
      6.046  0.2161E+02  0.1194E+04
      6.304  0.3543E+02  0.1203E+04
      6.562  0.3528E+02  0.1212E+04
      6.819  0.3608E+02  0.1222E+04
      7.077  0.4274E+02  0.1233E+04
      7.335  0.5199E+02  0.1246E+04
      7.592  0.5497E+02  0.1260E+04
      7.850  0.5167E+02  0.1274E+04
      8.107  0.2285E+02  0.1280E+04
      8.365  0.1891E+01  0.1280E+04
      8.623  0.1478E-01  0.1280E+04
      8.880  0.6782E-05  0.1280E+04
      9.138  0.1413E-09  0.1280E+04
      9.395  0.0000E+00  0.1280E+04
      9.653  0.0000E+00  0.1280E+04
      9.911  0.0000E+00  0.1280E+04
     10.168  0.0000E+00  0.1280E+04
     10.426  0.0000E+00  0.1280E+04
     10.684  0.0000E+00  0.1280E+04
     10.941  0.0000E+00  0.1280E+04
     11.199  0.0000E+00  0.1280E+04
     11.456  0.0000E+00  0.1280E+04
