  96  96   0   0
  0.2565633E+02  0.1125646E-08  0.1125646E-08  0.2174423E-08  0.5000000E-15
  1.000000000000000E-004
  CAR 
 "Millerite NiS"                         
     11.55400735    -66.58573155  301      1.70242499      1.00000000
    -66.586  0.0000E+00  0.0000E+00
    -66.325  0.0000E+00  0.0000E+00
    -66.065  0.0000E+00  0.0000E+00
    -65.804  0.0000E+00  0.0000E+00
    -65.544  0.0000E+00  0.0000E+00
    -65.283  0.0000E+00  0.0000E+00
    -65.023  0.0000E+00  0.0000E+00
    -64.762  0.0000E+00  0.0000E+00
    -64.502  0.0000E+00  0.0000E+00
    -64.242  0.0000E+00  0.0000E+00
    -63.981  0.8171E-10  0.2128E-10
    -63.721  0.4699E-05  0.1224E-05
    -63.460  0.1134E-01  0.2956E-02
    -63.200  0.1927E+01  0.5049E+00
    -62.939  0.4272E+02  0.1163E+02
    -62.679  0.1402E+03  0.4815E+02
    -62.418  0.2560E+03  0.1148E+03
    -62.158  0.3955E+03  0.2178E+03
    -61.897  0.2132E+03  0.2734E+03
    -61.637  0.3470E+02  0.2824E+03
    -61.376  0.1878E+02  0.2873E+03
    -61.116  0.2695E+01  0.2880E+03
    -60.855  0.2170E-01  0.2880E+03
    -60.595  0.7404E-05  0.2880E+03
    -60.335  0.9540E-10  0.2880E+03
    -60.074  0.0000E+00  0.2880E+03
    -59.814  0.0000E+00  0.2880E+03
    -59.553  0.0000E+00  0.2880E+03
    -59.293  0.0000E+00  0.2880E+03
    -59.032  0.0000E+00  0.2880E+03
    -58.772  0.0000E+00  0.2880E+03
    -58.511  0.0000E+00  0.2880E+03
    -58.251  0.0000E+00  0.2880E+03
    -57.990  0.0000E+00  0.2880E+03
    -57.730  0.0000E+00  0.2880E+03
    -57.469  0.0000E+00  0.2880E+03
    -57.209  0.0000E+00  0.2880E+03
    -56.948  0.0000E+00  0.2880E+03
    -56.688  0.0000E+00  0.2880E+03
    -56.428  0.0000E+00  0.2880E+03
    -56.167  0.0000E+00  0.2880E+03
    -55.907  0.0000E+00  0.2880E+03
    -55.646  0.0000E+00  0.2880E+03
    -55.386  0.0000E+00  0.2880E+03
    -55.125  0.0000E+00  0.2880E+03
    -54.865  0.0000E+00  0.2880E+03
    -54.604  0.0000E+00  0.2880E+03
    -54.344  0.0000E+00  0.2880E+03
    -54.083  0.0000E+00  0.2880E+03
    -53.823  0.0000E+00  0.2880E+03
    -53.562  0.0000E+00  0.2880E+03
    -53.302  0.0000E+00  0.2880E+03
    -53.042  0.0000E+00  0.2880E+03
    -52.781  0.0000E+00  0.2880E+03
    -52.521  0.0000E+00  0.2880E+03
    -52.260  0.0000E+00  0.2880E+03
    -52.000  0.0000E+00  0.2880E+03
    -51.739  0.0000E+00  0.2880E+03
    -51.479  0.0000E+00  0.2880E+03
    -51.218  0.0000E+00  0.2880E+03
    -50.958  0.0000E+00  0.2880E+03
    -50.697  0.0000E+00  0.2880E+03
    -50.437  0.0000E+00  0.2880E+03
    -50.176  0.0000E+00  0.2880E+03
    -49.916  0.0000E+00  0.2880E+03
    -49.655  0.0000E+00  0.2880E+03
    -49.395  0.0000E+00  0.2880E+03
    -49.135  0.0000E+00  0.2880E+03
    -48.874  0.0000E+00  0.2880E+03
    -48.614  0.0000E+00  0.2880E+03
    -48.353  0.0000E+00  0.2880E+03
    -48.093  0.0000E+00  0.2880E+03
    -47.832  0.0000E+00  0.2880E+03
    -47.572  0.0000E+00  0.2880E+03
    -47.311  0.0000E+00  0.2880E+03
    -47.051  0.0000E+00  0.2880E+03
    -46.790  0.0000E+00  0.2880E+03
    -46.530  0.0000E+00  0.2880E+03
    -46.269  0.0000E+00  0.2880E+03
    -46.009  0.0000E+00  0.2880E+03
    -45.748  0.0000E+00  0.2880E+03
    -45.488  0.0000E+00  0.2880E+03
    -45.228  0.0000E+00  0.2880E+03
    -44.967  0.0000E+00  0.2880E+03
    -44.707  0.0000E+00  0.2880E+03
    -44.446  0.0000E+00  0.2880E+03
    -44.186  0.0000E+00  0.2880E+03
    -43.925  0.0000E+00  0.2880E+03
    -43.665  0.0000E+00  0.2880E+03
    -43.404  0.0000E+00  0.2880E+03
    -43.144  0.0000E+00  0.2880E+03
    -42.883  0.0000E+00  0.2880E+03
    -42.623  0.0000E+00  0.2880E+03
    -42.362  0.0000E+00  0.2880E+03
    -42.102  0.0000E+00  0.2880E+03
    -41.841  0.0000E+00  0.2880E+03
    -41.581  0.0000E+00  0.2880E+03
    -41.321  0.0000E+00  0.2880E+03
    -41.060  0.0000E+00  0.2880E+03
    -40.800  0.0000E+00  0.2880E+03
    -40.539  0.0000E+00  0.2880E+03
    -40.279  0.0000E+00  0.2880E+03
    -40.018  0.0000E+00  0.2880E+03
    -39.758  0.0000E+00  0.2880E+03
    -39.497  0.0000E+00  0.2880E+03
    -39.237  0.0000E+00  0.2880E+03
    -38.976  0.0000E+00  0.2880E+03
    -38.716  0.0000E+00  0.2880E+03
    -38.455  0.0000E+00  0.2880E+03
    -38.195  0.0000E+00  0.2880E+03
    -37.934  0.0000E+00  0.2880E+03
    -37.674  0.0000E+00  0.2880E+03
    -37.414  0.0000E+00  0.2880E+03
    -37.153  0.0000E+00  0.2880E+03
    -36.893  0.0000E+00  0.2880E+03
    -36.632  0.0000E+00  0.2880E+03
    -36.372  0.0000E+00  0.2880E+03
    -36.111  0.0000E+00  0.2880E+03
    -35.851  0.0000E+00  0.2880E+03
    -35.590  0.0000E+00  0.2880E+03
    -35.330  0.0000E+00  0.2880E+03
    -35.069  0.0000E+00  0.2880E+03
    -34.809  0.0000E+00  0.2880E+03
    -34.548  0.0000E+00  0.2880E+03
    -34.288  0.0000E+00  0.2880E+03
    -34.028  0.0000E+00  0.2880E+03
    -33.767  0.0000E+00  0.2880E+03
    -33.507  0.0000E+00  0.2880E+03
    -33.246  0.0000E+00  0.2880E+03
    -32.986  0.0000E+00  0.2880E+03
    -32.725  0.0000E+00  0.2880E+03
    -32.465  0.0000E+00  0.2880E+03
    -32.204  0.0000E+00  0.2880E+03
    -31.944  0.0000E+00  0.2880E+03
    -31.683  0.0000E+00  0.2880E+03
    -31.423  0.0000E+00  0.2880E+03
    -31.162  0.0000E+00  0.2880E+03
    -30.902  0.0000E+00  0.2880E+03
    -30.641  0.0000E+00  0.2880E+03
    -30.381  0.0000E+00  0.2880E+03
    -30.121  0.0000E+00  0.2880E+03
    -29.860  0.0000E+00  0.2880E+03
    -29.600  0.0000E+00  0.2880E+03
    -29.339  0.0000E+00  0.2880E+03
    -29.079  0.0000E+00  0.2880E+03
    -28.818  0.0000E+00  0.2880E+03
    -28.558  0.0000E+00  0.2880E+03
    -28.297  0.0000E+00  0.2880E+03
    -28.037  0.0000E+00  0.2880E+03
    -27.776  0.0000E+00  0.2880E+03
    -27.516  0.0000E+00  0.2880E+03
    -27.255  0.0000E+00  0.2880E+03
    -26.995  0.0000E+00  0.2880E+03
    -26.734  0.0000E+00  0.2880E+03
    -26.474  0.0000E+00  0.2880E+03
    -26.214  0.0000E+00  0.2880E+03
    -25.953  0.0000E+00  0.2880E+03
    -25.693  0.0000E+00  0.2880E+03
    -25.432  0.0000E+00  0.2880E+03
    -25.172  0.0000E+00  0.2880E+03
    -24.911  0.0000E+00  0.2880E+03
    -24.651  0.0000E+00  0.2880E+03
    -24.390  0.0000E+00  0.2880E+03
    -24.130  0.0000E+00  0.2880E+03
    -23.869  0.0000E+00  0.2880E+03
    -23.609  0.0000E+00  0.2880E+03
    -23.348  0.0000E+00  0.2880E+03
    -23.088  0.0000E+00  0.2880E+03
    -22.827  0.0000E+00  0.2880E+03
    -22.567  0.0000E+00  0.2880E+03
    -22.307  0.0000E+00  0.2880E+03
    -22.046  0.0000E+00  0.2880E+03
    -21.786  0.0000E+00  0.2880E+03
    -21.525  0.0000E+00  0.2880E+03
    -21.265  0.0000E+00  0.2880E+03
    -21.004  0.0000E+00  0.2880E+03
    -20.744  0.0000E+00  0.2880E+03
    -20.483  0.0000E+00  0.2880E+03
    -20.223  0.0000E+00  0.2880E+03
    -19.962  0.0000E+00  0.2880E+03
    -19.702  0.0000E+00  0.2880E+03
    -19.441  0.0000E+00  0.2880E+03
    -19.181  0.0000E+00  0.2880E+03
    -18.920  0.0000E+00  0.2880E+03
    -18.660  0.0000E+00  0.2880E+03
    -18.400  0.0000E+00  0.2880E+03
    -18.139  0.0000E+00  0.2880E+03
    -17.879  0.0000E+00  0.2880E+03
    -17.618  0.0000E+00  0.2880E+03
    -17.358  0.0000E+00  0.2880E+03
    -17.097  0.0000E+00  0.2880E+03
    -16.837  0.0000E+00  0.2880E+03
    -16.576  0.0000E+00  0.2880E+03
    -16.316  0.0000E+00  0.2880E+03
    -16.055  0.0000E+00  0.2880E+03
    -15.795  0.0000E+00  0.2880E+03
    -15.534  0.8525E-14  0.2880E+03
    -15.274  0.4345E-08  0.2880E+03
    -15.014  0.8285E-04  0.2880E+03
    -14.753  0.6183E-01  0.2880E+03
    -14.493  0.2148E+01  0.2886E+03
    -14.232  0.5772E+01  0.2901E+03
    -13.972  0.9238E+01  0.2925E+03
    -13.711  0.1785E+02  0.2971E+03
    -13.451  0.2129E+02  0.3027E+03
    -13.190  0.1834E+02  0.3075E+03
    -12.930  0.2614E+02  0.3143E+03
    -12.669  0.2531E+02  0.3209E+03
    -12.409  0.4411E+02  0.3323E+03
    -12.148  0.4934E+02  0.3452E+03
    -11.888  0.3593E+02  0.3546E+03
    -11.627  0.3901E+02  0.3647E+03
    -11.367  0.4440E+02  0.3763E+03
    -11.107  0.1806E+02  0.3810E+03
    -10.846  0.9192E+01  0.3834E+03
    -10.586  0.2334E+01  0.3840E+03
    -10.325  0.5678E-01  0.3840E+03
    -10.065  0.7002E-04  0.3840E+03
     -9.804  0.3423E-08  0.3840E+03
     -9.544  0.5967E-14  0.3840E+03
     -9.283  0.0000E+00  0.3840E+03
     -9.023  0.0000E+00  0.3840E+03
     -8.762  0.0000E+00  0.3840E+03
     -8.502  0.0000E+00  0.3840E+03
     -8.241  0.0000E+00  0.3840E+03
     -7.981  0.0000E+00  0.3840E+03
     -7.720  0.0000E+00  0.3840E+03
     -7.460  0.0000E+00  0.3840E+03
     -7.200  0.1752E-12  0.3840E+03
     -6.939  0.4789E-07  0.3840E+03
     -6.679  0.5056E-03  0.3840E+03
     -6.418  0.2372E+00  0.3841E+03
     -6.158  0.6954E+01  0.3859E+03
     -5.897  0.2576E+02  0.3926E+03
     -5.637  0.3207E+02  0.4009E+03
     -5.376  0.2815E+02  0.4083E+03
     -5.116  0.4706E+02  0.4205E+03
     -4.855  0.6581E+02  0.4377E+03
     -4.595  0.5881E+02  0.4530E+03
     -4.334  0.5502E+02  0.4673E+03
     -4.074  0.6776E+02  0.4850E+03
     -3.813  0.6031E+02  0.5007E+03
     -3.553  0.6488E+02  0.5176E+03
     -3.293  0.9075E+02  0.5412E+03
     -3.032  0.9742E+02  0.5666E+03
     -2.772  0.9048E+02  0.5901E+03
     -2.511  0.8826E+02  0.6131E+03
     -2.251  0.7661E+02  0.6331E+03
     -1.990  0.4787E+02  0.6456E+03
     -1.730  0.4550E+02  0.6574E+03
     -1.469  0.6133E+02  0.6734E+03
     -1.209  0.7561E+02  0.6931E+03
     -0.948  0.1097E+03  0.7216E+03
     -0.688  0.1371E+03  0.7574E+03
     -0.427  0.1538E+03  0.7974E+03
     -0.167  0.1743E+03  0.8428E+03
      0.094  0.1845E+03  0.8909E+03
      0.354  0.1624E+03  0.9332E+03
      0.614  0.1361E+03  0.9686E+03
      0.875  0.1028E+03  0.9954E+03
      1.135  0.8693E+02  0.1018E+04
      1.396  0.7248E+02  0.1037E+04
      1.656  0.6241E+02  0.1053E+04
      1.917  0.5988E+02  0.1069E+04
      2.177  0.5634E+02  0.1083E+04
      2.438  0.6553E+02  0.1101E+04
      2.698  0.7226E+02  0.1119E+04
      2.959  0.6229E+02  0.1136E+04
      3.219  0.2704E+02  0.1143E+04
      3.480  0.2322E+02  0.1149E+04
      3.740  0.1164E+02  0.1152E+04
      4.000  0.1150E+01  0.1152E+04
      4.261  0.9566E-02  0.1152E+04
      4.521  0.1303E-01  0.1152E+04
      4.782  0.1351E+01  0.1152E+04
      5.042  0.1286E+02  0.1156E+04
      5.303  0.2376E+02  0.1162E+04
      5.563  0.2531E+02  0.1168E+04
      5.824  0.1983E+02  0.1174E+04
      6.084  0.2028E+02  0.1179E+04
      6.345  0.3018E+02  0.1187E+04
      6.605  0.3289E+02  0.1195E+04
      6.866  0.4026E+02  0.1206E+04
      7.126  0.5013E+02  0.1219E+04
      7.387  0.5118E+02  0.1232E+04
      7.647  0.5107E+02  0.1246E+04
      7.907  0.5386E+02  0.1260E+04
      8.168  0.2960E+02  0.1267E+04
      8.428  0.2758E+01  0.1268E+04
      8.689  0.1987E-01  0.1268E+04
      8.949  0.7318E-05  0.1268E+04
      9.210  0.1125E-09  0.1268E+04
      9.470  0.0000E+00  0.1268E+04
      9.731  0.0000E+00  0.1268E+04
      9.991  0.0000E+00  0.1268E+04
     10.252  0.0000E+00  0.1268E+04
     10.512  0.0000E+00  0.1268E+04
     10.773  0.0000E+00  0.1268E+04
     11.033  0.0000E+00  0.1268E+04
     11.294  0.0000E+00  0.1268E+04
     11.554  0.0000E+00  0.1268E+04
