"Millerite NiS"                         
           1
    16.884694    0.000000    0.000000
     0.000000    9.578410    0.000000
     0.000000    0.000000   16.169087
   Ty   Ty
  36  36
Direct configuration=     1
   0.78004631  0.14529695  0.12058499
   0.79906437  0.14500714  0.28577488
   0.21861798  0.63501312  0.09136794
   0.29733029  0.64529695  0.21596896
   0.38660437  0.13387345  0.12595347
   0.46975828  0.14529695  0.24776362
   0.95247430  0.64529695  0.15237965
   0.96177892  0.63194129  0.30129686
   0.12490229  0.14529695  0.18417431
   0.08163221  0.11601177  0.31880277
   0.57903129  0.64944441  0.14911482
   0.64218627  0.64529695  0.27955828
   0.90994331  0.00471537  0.11780801
   0.94451100  0.00921004  0.27122958
   0.35813282  0.64508253  0.05763974
   0.42486676  0.51319395  0.19076795
   0.47678698  0.46172121  0.32326759
   0.59312691  0.91465351  0.08852657
   0.59729475  0.01319395  0.22256260
   0.08001077  0.51319395  0.12717863
   0.25243876  0.01319395  0.15897329
   0.29218020  0.97150105  0.30455752
   0.77701163  0.43512198  0.11764836
   0.76972274  0.51319395  0.25435726
   0.92410515  0.35287947  0.13152088
   0.94233047  0.27142890  0.27508676
   0.44802913  0.85312722  0.05271422
   0.42486676  0.77739995  0.19076795
   0.52970195  0.14663054  0.08854018
   0.59729475  0.27739995  0.22256260
   0.08001077  0.77739995  0.12717863
   0.11724462  0.78942042  0.27731784
   0.25243876  0.27739995  0.15897329
   0.29099000  0.32259351  0.30068574
   0.76520140  0.87187651  0.11820967
   0.76972274  0.77739995  0.25435726
   0.97308173  0.13761227  0.36870513
   0.99146121  0.14529695  0.18240970
   0.47417723  0.64529695  0.08702573
   0.51214829  0.63957754  0.25996669
   0.64660522  0.14529695  0.11882039
   0.67698505  0.14573187  0.28583900
   0.11368511  0.64779143  0.03144209
   0.16191940  0.63365069  0.20387757
   0.28177470  0.14562630  0.06321497
   0.33631719  0.14529695  0.24599902
   0.81903321  0.64529695  0.15061505
   0.84379470  0.64500356  0.32268205
   0.83610814  0.29430635  0.04693103
   0.82906105  0.31351195  0.21449973
   0.31177708  0.81351195  0.11911576
   0.35141975  0.79041922  0.29404321
   0.48420507  0.31351195  0.15091042
   0.53023266  0.27554526  0.32963625
   0.00148905  0.81351195  0.24629439
   0.96812291  0.82426555  0.07921769
   0.14082551  0.32474003  0.11174002
   0.17513059  0.26253025  0.27929308
   0.65663306  0.81351195  0.18270508
   0.69457024  0.79176531  0.35137361
   0.31177708  0.47708195  0.11911576
   0.35757083  0.50005939  0.29993095
   0.81730785  0.99968792  0.03491174
   0.82906105  0.97708195  0.21449973
   0.99114988  0.46533917  0.22505124
   0.97508151  0.50330877  0.05802179
   0.48420507  0.97708195  0.15091042
   0.52014670  0.99177291  0.31833218
   0.65663306  0.47708195  0.18270508
   0.69339010  0.49614422  0.35045677
   0.14031516  0.96717223  0.10999135
   0.17391704  0.97708195  0.27808905
