<?xml version="1.0" encoding="ISO-8859-1"?>
<modeling>
 <generator>
  <i name="program" type="string">vasp </i>
  <i name="version" type="string">6.1.0  </i>
  <i name="subversion" type="string">28Jan20 (build Mar 31 2020 17:42:31) gamma-only                       parallel </i>
  <i name="platform" type="string">LinuxIFC </i>
  <i name="date" type="string">2020 04 12 </i>
  <i name="time" type="string">04:44:23 </i>
 </generator>
 <incar>
  <i type="string" name="SYSTEM">"Millerite NiS"</i>
  <i type="int" name="NSIM">     4</i>
  <i type="int" name="NELM">   100</i>
  <i name="ENCUT">    450.00000000</i>
  <i type="string" name="LREAL">A</i>
  <i type="int" name="ISMEAR">     0</i>
  <i type="int" name="NWRITE">     2</i>
  <i type="logical" name="LWAVE"> F  </i>
  <i type="logical" name="LCHARG"> F  </i>
  <i type="int" name="NCORE">     6</i>
  <i type="int" name="NELM">   100</i>
 </incar>
 <structure name="primitive_cell" >
  <crystal>
   <varray name="basis" >
    <v>      10.06282034       5.04456212       0.00000000 </v>
    <v>       0.00000000      11.25646304       0.00000000 </v>
    <v>       0.00000000       0.00000000      22.88364939 </v>
   </varray>
   <i name="volume">   2592.07135999 </i>
   <varray name="rec_basis" >
    <v>       0.09937572       0.00000000       0.00000000 </v>
    <v>      -0.04453504       0.08883785       0.00000000 </v>
    <v>       0.00000000       0.00000000       0.04369932 </v>
   </varray>
  </crystal>
  <varray name="positions" >
   <v>       0.26092070       0.47878036       0.29050611 </v>
   <v>       0.35488056       0.38482049       0.41880986 </v>
   <v>       0.44884043       0.29086063       0.54711361 </v>
   <v>       0.16696083       0.07274024       0.16220237 </v>
   <v>       0.05611868       0.05147940       0.51321499 </v>
   <v>       0.18027920       0.42731886       0.00000000 </v>
   <v>       0.27423907       0.33335899       0.12830375 </v>
   <v>       0.36819893       0.23939913       0.25660749 </v>
   <v>       0.46215880       0.14543926       0.38491124 </v>
   <v>       0.00030194       0.37150212       0.25660749 </v>
   <v>       0.09426181       0.27754226       0.38491124 </v>
   <v>       0.18822168       0.18358239       0.51321499 </v>
   <v>       0.40634206       0.46546199       0.12830375 </v>
   <v>       0.31238219       0.05942187       0.00000000 </v>
   <v>       0.76092070       0.47878036       0.29050611 </v>
   <v>       0.85488056       0.38482049       0.41880986 </v>
   <v>       0.57300096       0.16670011       0.03389862 </v>
   <v>       0.66696083       0.07274024       0.16220237 </v>
   <v>       0.55611868       0.05147940       0.51321499 </v>
   <v>       0.68027920       0.42731886       0.00000000 </v>
   <v>       0.77423907       0.33335899       0.12830375 </v>
   <v>       0.86819893       0.23939913       0.25660749 </v>
   <v>       0.96215880       0.14543926       0.38491124 </v>
   <v>       0.50030194       0.37150212       0.25660749 </v>
   <v>       0.59426181       0.27754226       0.38491124 </v>
   <v>       0.68822168       0.18358239       0.51321499 </v>
   <v>       0.90634206       0.46546199       0.12830375 </v>
   <v>       0.81238219       0.05942187       0.00000000 </v>
   <v>       0.26092070       0.97878036       0.29050611 </v>
   <v>       0.35488056       0.88482049       0.41880986 </v>
   <v>       0.16696083       0.57274024       0.16220237 </v>
   <v>       0.18027920       0.92731886       0.00000000 </v>
   <v>       0.27423907       0.83335899       0.12830375 </v>
   <v>       0.36819893       0.73939913       0.25660749 </v>
   <v>       0.46215880       0.64543926       0.38491124 </v>
   <v>       0.00030194       0.87150212       0.25660749 </v>
   <v>       0.09426181       0.77754226       0.38491124 </v>
   <v>       0.40634206       0.96546199       0.12830375 </v>
   <v>       0.31238219       0.55942187       0.00000000 </v>
   <v>       0.76092070       0.97878036       0.29050611 </v>
   <v>       0.85488056       0.88482049       0.41880986 </v>
   <v>       0.94884043       0.79086063       0.54711361 </v>
   <v>       0.66696083       0.57274024       0.16220237 </v>
   <v>       0.55611868       0.55147940       0.51321499 </v>
   <v>       0.68027920       0.92731886       0.00000000 </v>
   <v>       0.77423907       0.83335899       0.12830375 </v>
   <v>       0.86819893       0.73939913       0.25660749 </v>
   <v>       0.96215880       0.64543926       0.38491124 </v>
   <v>       0.50030194       0.87150212       0.25660749 </v>
   <v>       0.59426181       0.77754226       0.38491124 </v>
   <v>       0.90634206       0.96546199       0.12830375 </v>
   <v>       0.81238219       0.55942187       0.00000000 </v>
   <v>       0.07287763       0.16682343       0.30639927 </v>
   <v>       0.16683750       0.07286357       0.43470302 </v>
   <v>       0.38495789       0.35474317       0.04979178 </v>
   <v>       0.47891775       0.26078330       0.17809552 </v>
   <v>       0.26079737       0.47890369       0.56300676 </v>
   <v>       0.03023342       0.37768264       0.47786825 </v>
   <v>       0.43627354       0.47164251       0.34956450 </v>
   <v>       0.24835381       0.15956225       0.09295701 </v>
   <v>       0.34231368       0.06560239       0.22126075 </v>
   <v>       0.08013882       0.49134725       0.09295701 </v>
   <v>       0.17409868       0.39738738       0.22126075 </v>
   <v>       0.26805855       0.30342751       0.34956450 </v>
   <v>       0.36201842       0.20946764       0.47786825 </v>
   <v>       0.57287763       0.16682343       0.30639927 </v>
   <v>       0.66683750       0.07286357       0.43470302 </v>
   <v>       0.88495789       0.35474317       0.04979178 </v>
   <v>       0.97891775       0.26078330       0.17809552 </v>
   <v>       0.76079737       0.47890369       0.56300676 </v>
   <v>       0.53023342       0.37768264       0.47786825 </v>
   <v>       0.93627354       0.47164251       0.34956450 </v>
   <v>       0.74835381       0.15956225       0.09295701 </v>
   <v>       0.84231368       0.06560239       0.22126075 </v>
   <v>       0.58013882       0.49134724       0.09295701 </v>
   <v>       0.67409868       0.39738738       0.22126075 </v>
   <v>       0.76805855       0.30342751       0.34956450 </v>
   <v>       0.86201842       0.20946764       0.47786825 </v>
   <v>       0.07287763       0.66682343       0.30639927 </v>
   <v>       0.16683750       0.57286357       0.43470302 </v>
   <v>       0.38495789       0.85474317       0.04979178 </v>
   <v>       0.47891775       0.76078330       0.17809552 </v>
   <v>       0.26079737       0.97890369       0.56300676 </v>
   <v>       0.03023342       0.87768264       0.47786825 </v>
   <v>       0.43627354       0.97164251       0.34956450 </v>
   <v>       0.24835381       0.65956225       0.09295701 </v>
   <v>       0.34231368       0.56560239       0.22126075 </v>
   <v>       0.08013882       0.99134725       0.09295701 </v>
   <v>       0.17409868       0.89738738       0.22126075 </v>
   <v>       0.26805855       0.80342751       0.34956450 </v>
   <v>       0.36201842       0.70946764       0.47786825 </v>
   <v>       0.57287763       0.66682343       0.30639927 </v>
   <v>       0.66683750       0.57286357       0.43470302 </v>
   <v>       0.88495789       0.85474317       0.04979178 </v>
   <v>       0.97891775       0.76078330       0.17809552 </v>
   <v>       0.76079737       0.97890369       0.56300676 </v>
   <v>       0.53023342       0.87768264       0.47786825 </v>
   <v>       0.93627354       0.97164251       0.34956450 </v>
   <v>       0.74835381       0.65956225       0.09295701 </v>
   <v>       0.84231368       0.56560239       0.22126075 </v>
   <v>       0.58013882       0.99134724       0.09295701 </v>
   <v>       0.67409868       0.89738738       0.22126075 </v>
   <v>       0.76805855       0.80342751       0.34956450 </v>
   <v>       0.86201842       0.70946764       0.47786825 </v>
  </varray>
 </structure>
 <varray name="primitive_index" >
  <v type="int" >        1 </v>
  <v type="int" >        2 </v>
  <v type="int" >        3 </v>
  <v type="int" >        4 </v>
  <v type="int" >        5 </v>
  <v type="int" >        6 </v>
  <v type="int" >        7 </v>
  <v type="int" >        8 </v>
  <v type="int" >        9 </v>
  <v type="int" >       10 </v>
  <v type="int" >       11 </v>
  <v type="int" >       12 </v>
  <v type="int" >       13 </v>
  <v type="int" >       14 </v>
  <v type="int" >       15 </v>
  <v type="int" >       16 </v>
  <v type="int" >       17 </v>
  <v type="int" >       18 </v>
  <v type="int" >       19 </v>
  <v type="int" >       20 </v>
  <v type="int" >       21 </v>
  <v type="int" >       22 </v>
  <v type="int" >       23 </v>
  <v type="int" >       24 </v>
  <v type="int" >       25 </v>
  <v type="int" >       26 </v>
  <v type="int" >       27 </v>
  <v type="int" >       28 </v>
  <v type="int" >       29 </v>
  <v type="int" >       30 </v>
  <v type="int" >       31 </v>
  <v type="int" >       32 </v>
  <v type="int" >       33 </v>
  <v type="int" >       34 </v>
  <v type="int" >       35 </v>
  <v type="int" >       36 </v>
  <v type="int" >       37 </v>
  <v type="int" >       38 </v>
  <v type="int" >       39 </v>
  <v type="int" >       40 </v>
  <v type="int" >       41 </v>
  <v type="int" >       42 </v>
  <v type="int" >       43 </v>
  <v type="int" >       44 </v>
  <v type="int" >       45 </v>
  <v type="int" >       46 </v>
  <v type="int" >       47 </v>
  <v type="int" >       48 </v>
  <v type="int" >       49 </v>
  <v type="int" >       50 </v>
  <v type="int" >       51 </v>
  <v type="int" >       52 </v>
  <v type="int" >       53 </v>
  <v type="int" >       54 </v>
  <v type="int" >       55 </v>
  <v type="int" >       56 </v>
  <v type="int" >       57 </v>
  <v type="int" >       58 </v>
  <v type="int" >       59 </v>
  <v type="int" >       60 </v>
  <v type="int" >       61 </v>
  <v type="int" >       62 </v>
  <v type="int" >       63 </v>
  <v type="int" >       64 </v>
  <v type="int" >       65 </v>
  <v type="int" >       66 </v>
  <v type="int" >       67 </v>
  <v type="int" >       68 </v>
  <v type="int" >       69 </v>
  <v type="int" >       70 </v>
  <v type="int" >       71 </v>
  <v type="int" >       72 </v>
  <v type="int" >       73 </v>
  <v type="int" >       74 </v>
  <v type="int" >       75 </v>
  <v type="int" >       76 </v>
  <v type="int" >       77 </v>
  <v type="int" >       78 </v>
  <v type="int" >       79 </v>
  <v type="int" >       80 </v>
  <v type="int" >       81 </v>
  <v type="int" >       82 </v>
  <v type="int" >       83 </v>
  <v type="int" >       84 </v>
  <v type="int" >       85 </v>
  <v type="int" >       86 </v>
  <v type="int" >       87 </v>
  <v type="int" >       88 </v>
  <v type="int" >       89 </v>
  <v type="int" >       90 </v>
  <v type="int" >       91 </v>
  <v type="int" >       92 </v>
  <v type="int" >       93 </v>
  <v type="int" >       94 </v>
  <v type="int" >       95 </v>
  <v type="int" >       96 </v>
  <v type="int" >       97 </v>
  <v type="int" >       98 </v>
  <v type="int" >       99 </v>
  <v type="int" >      100 </v>
  <v type="int" >      101 </v>
  <v type="int" >      102 </v>
  <v type="int" >      103 </v>
  <v type="int" >      104 </v>
 </varray>
 <kpoints>
  <generation param="Gamma">
   <v type="int" name="divisions">       1        1        1 </v>
   <v name="usershift">      0.00000000       0.00000000       0.00000000 </v>
   <v name="genvec1">      1.00000000       0.00000000       0.00000000 </v>
   <v name="genvec2">     -0.00000000       1.00000000       0.00000000 </v>
   <v name="genvec3">      0.00000000       0.00000000       1.00000000 </v>
   <v name="shift">      0.00000000       0.00000000       0.00000000 </v>
  </generation>
  <varray name="kpointlist" >
   <v>       0.00000000       0.00000000       0.00000000 </v>
  </varray>
  <varray name="weights" >
   <v>       1.00000000 </v>
  </varray>
 </kpoints>
 <parameters>
  <separator name="general" >
   <i type="string" name="SYSTEM">"Millerite NiS"</i>
   <i type="logical" name="LCOMPAT"> F  </i>
  </separator>
  <separator name="electronic" >
   <i type="string" name="PREC">normal</i>
   <i name="ENMAX">    450.00000000</i>
   <i name="ENAUG">    703.44300000</i>
   <i name="EDIFF">      0.00010000</i>
   <i type="int" name="IALGO">    38</i>
   <i type="int" name="IWAVPR">    10</i>
   <i type="int" name="NBANDS">   688</i>
   <i type="int" name="NBANDSLOW">    -1</i>
   <i type="int" name="NBANDSHIGH">    -1</i>
   <i name="NELECT">   1144.00000000</i>
   <i type="int" name="TURBO">     0</i>
   <i type="int" name="IRESTART">     0</i>
   <i type="int" name="NREBOOT">     0</i>
   <i type="int" name="NMIN">     0</i>
   <i name="EREF">      0.00000000</i>
   <separator name="electronic smearing" >
    <i type="int" name="ISMEAR">     0</i>
    <i name="SIGMA">      0.20000000</i>
    <i name="KSPACING">      0.50000000</i>
    <i type="logical" name="KGAMMA"> T  </i>
    <i type="logical" name="KBLOWUP"> T  </i>
   </separator>
   <separator name="electronic projectors" >
    <i type="logical" name="LREAL"> T  </i>
    <v name="ROPT">     -0.00050000     -0.00050000</v>
    <i type="int" name="LMAXPAW">  -100</i>
    <i type="int" name="LMAXMIX">     2</i>
    <i type="logical" name="NLSPLINE"> F  </i>
   </separator>
   <separator name="electronic startup" >
    <i type="int" name="ISTART">     0</i>
    <i type="int" name="ICHARG">     2</i>
    <i type="int" name="INIWAV">     1</i>
   </separator>
   <separator name="electronic spin" >
    <i type="int" name="ISPIN">     1</i>
    <i type="logical" name="LNONCOLLINEAR"> F  </i>
    <v name="MAGMOM">      1.00000000      1.00000000      1.00000000      1.00000000      1.00000000      1.00000000      1.00000000      1.00000000      1.00000000      1.00000000      1.00000000      1.00000000      1.00000000      1.00000000      1.00000000      1.00000000      1.00000000      1.00000000      1.00000000      1.00000000
      1.00000000      1.00000000      1.00000000      1.00000000      1.00000000      1.00000000      1.00000000      1.00000000      1.00000000      1.00000000      1.00000000      1.00000000      1.00000000      1.00000000      1.00000000      1.00000000      1.00000000      1.00000000      1.00000000      1.00000000
      1.00000000      1.00000000      1.00000000      1.00000000      1.00000000      1.00000000      1.00000000      1.00000000      1.00000000      1.00000000      1.00000000      1.00000000      1.00000000      1.00000000      1.00000000      1.00000000      1.00000000      1.00000000      1.00000000      1.00000000
      1.00000000      1.00000000      1.00000000      1.00000000      1.00000000      1.00000000      1.00000000      1.00000000      1.00000000      1.00000000      1.00000000      1.00000000      1.00000000      1.00000000      1.00000000      1.00000000      1.00000000      1.00000000      1.00000000      1.00000000
      1.00000000      1.00000000      1.00000000      1.00000000      1.00000000      1.00000000      1.00000000      1.00000000      1.00000000      1.00000000      1.00000000      1.00000000      1.00000000      1.00000000      1.00000000      1.00000000      1.00000000      1.00000000      1.00000000      1.00000000
      1.00000000      1.00000000      1.00000000      1.00000000</v>
    <i name="NUPDOWN">     -1.00000000</i>
    <i type="logical" name="LSORBIT"> F  </i>
    <v name="SAXIS">      0.00000000      0.00000000      1.00000000</v>
    <i type="logical" name="LSPIRAL"> F  </i>
    <v name="QSPIRAL">      0.00000000      0.00000000      0.00000000</v>
    <i type="logical" name="LZEROZ"> F  </i>
   </separator>
   <separator name="electronic exchange-correlation" >
    <i type="logical" name="LASPH"> F  </i>
    <i type="logical" name="LMETAGGA"> F  </i>
   </separator>
   <separator name="electronic convergence" >
    <i type="int" name="NELM">   100</i>
    <i type="int" name="NELMDL">    -5</i>
    <i type="int" name="NELMIN">     2</i>
    <i name="ENINI">    450.00000000</i>
    <separator name="electronic convergence detail" >
     <i type="logical" name="LDIAG"> T  </i>
     <i type="logical" name="LSUBROT"> F  </i>
     <i name="WEIMIN">      0.00000000</i>
     <i name="EBREAK">      0.00000004</i>
     <i name="DEPER">      0.30000000</i>
     <i type="int" name="NRMM">     4</i>
     <i name="TIME">      0.40000000</i>
    </separator>
   </separator>
   <separator name="electronic mixer" >
    <i name="AMIX">      0.40000000</i>
    <i name="BMIX">      1.00000000</i>
    <i name="AMIN">      0.10000000</i>
    <i name="AMIX_MAG">      1.60000000</i>
    <i name="BMIX_MAG">      1.00000000</i>
    <separator name="electronic mixer details" >
     <i type="int" name="IMIX">     4</i>
     <i type="logical" name="MIXFIRST"> F  </i>
     <i type="int" name="MAXMIX">   -45</i>
     <i name="WC">    100.00000000</i>
     <i type="int" name="INIMIX">     1</i>
     <i type="int" name="MIXPRE">     1</i>
     <i type="int" name="MREMOVE">     5</i>
    </separator>
   </separator>
   <separator name="electronic dipolcorrection" >
    <i type="logical" name="LDIPOL"> F  </i>
    <i type="logical" name="LMONO"> F  </i>
    <i type="int" name="IDIPOL">     0</i>
    <i name="EPSILON">      1.00000000</i>
    <v name="DIPOL">   -100.00000000   -100.00000000   -100.00000000</v>
    <i name="EFIELD">      0.00000000</i>
   </separator>
  </separator>
  <separator name="grids" >
   <i type="int" name="NGX">    60</i>
   <i type="int" name="NGY">    60</i>
   <i type="int" name="NGZ">   120</i>
   <i type="int" name="NGXF">   120</i>
   <i type="int" name="NGYF">   120</i>
   <i type="int" name="NGZF">   240</i>
   <i type="logical" name="ADDGRID"> F  </i>
  </separator>
  <separator name="ionic" >
   <i type="int" name="NSW">     0</i>
   <i type="int" name="IBRION">    -1</i>
   <i type="int" name="MDALGO">     0</i>
   <i type="int" name="ISIF">     2</i>
   <i name="PSTRESS">      0.00000000</i>
   <i name="EDIFFG">      0.00100000</i>
   <i type="int" name="NFREE">     0</i>
   <i name="POTIM">      0.50000000</i>
   <i name="SMASS">     -3.00000000</i>
   <i name="SCALEE">      1.00000000</i>
  </separator>
  <separator name="ionic md" >
   <i name="TEBEG">      0.00010000</i>
   <i name="TEEND">      0.00010000</i>
   <i type="int" name="NBLOCK">     1</i>
   <i type="int" name="KBLOCK">     1</i>
   <i type="int" name="NPACO">   256</i>
   <i name="APACO">     16.00000000</i>
  </separator>
  <separator name="symmetry" >
   <i type="int" name="ISYM">     2</i>
   <i name="SYMPREC">      0.00001000</i>
  </separator>
  <separator name="dos" >
   <i type="int" name="LORBIT">     0</i>
   <v name="RWIGS">     -1.00000000     -1.00000000</v>
   <i type="int" name="NEDOS">   301</i>
   <i name="EMIN">     10.00000000</i>
   <i name="EMAX">    -10.00000000</i>
   <i name="EFERMI">      0.00000000</i>
  </separator>
  <separator name="writing" >
   <i type="int" name="NWRITE">     2</i>
   <i type="logical" name="LWAVE"> F  </i>
   <i type="logical" name="LDOWNSAMPLE"> F  </i>
   <i type="logical" name="LCHARG"> F  </i>
   <i type="logical" name="LPARD"> F  </i>
   <i type="logical" name="LVTOT"> F  </i>
   <i type="logical" name="LVHAR"> F  </i>
   <i type="logical" name="LELF"> F  </i>
   <i type="logical" name="LOPTICS"> F  </i>
   <v name="STM">      0.00000000      0.00000000      0.00000000      0.00000000      0.00000000      0.00000000      0.00000000</v>
  </separator>
  <separator name="performance" >
   <i type="int" name="NPAR">     8</i>
   <i type="int" name="NSIM">     4</i>
   <i type="int" name="NBLK">    -1</i>
   <i type="logical" name="LPLANE"> T  </i>
   <i type="logical" name="LSCALAPACK"> T  </i>
   <i type="logical" name="LSCAAWARE"> F  </i>
   <i type="logical" name="LSCALU"> F  </i>
   <i type="logical" name="LASYNC"> F  </i>
   <i type="logical" name="LORBITALREAL"> F  </i>
  </separator>
  <separator name="miscellaneous" >
   <i type="int" name="IDIOT">     3</i>
   <i type="int" name="PHON_NSTRUCT">    -1</i>
   <i type="logical" name="LMUSIC"> F  </i>
   <v name="POMASS">     58.69000000     32.06600000</v>
   <v name="DARWINR">      0.00000000      0.00000000</v>
   <v name="DARWINV">      1.00000000      1.00000000</v>
   <i type="logical" name="LCORR"> T  </i>
  </separator>
  <i type="logical" name="GGA_COMPAT"> T  </i>
  <i type="logical" name="LBERRY"> F  </i>
  <i type="int" name="ICORELEVEL">     0</i>
  <i type="logical" name="LDAU"> F  </i>
  <i type="int" name="I_CONSTRAINED_M">     0</i>
  <separator name="electronic exchange-correlation" >
   <i type="string" name="GGA">--</i>
   <i type="int" name="VOSKOWN">     0</i>
   <i type="logical" name="LHFCALC"> F  </i>
   <i type="string" name="PRECFOCK"></i>
   <i type="logical" name="LSYMGRAD"> F  </i>
   <i type="logical" name="LHFONE"> F  </i>
   <i type="logical" name="LRHFCALC"> F  </i>
   <i type="logical" name="LTHOMAS"> F  </i>
   <i type="logical" name="LMODELHF"> F  </i>
   <i type="logical" name="LFOCKACE"> F  </i>
   <i name="ENCUT4O">     -1.00000000</i>
   <i type="int" name="EXXOEP">     0</i>
   <i type="int" name="FOURORBIT">     0</i>
   <i name="AEXX">      0.00000000</i>
   <i name="HFALPHA">      0.00000000</i>
   <i name="MCALPHA">      0.00000000</i>
   <i name="ALDAX">      1.00000000</i>
   <i name="AGGAX">      1.00000000</i>
   <i name="ALDAC">      1.00000000</i>
   <i name="AGGAC">      1.00000000</i>
   <i type="int" name="NKREDX">     1</i>
   <i type="int" name="NKREDY">     1</i>
   <i type="int" name="NKREDZ">     1</i>
   <i type="logical" name="SHIFTRED"> F  </i>
   <i type="logical" name="ODDONLY"> F  </i>
   <i type="logical" name="EVENONLY"> F  </i>
   <i type="int" name="LMAXFOCK">     0</i>
   <i type="int" name="NMAXFOCKAE">     0</i>
   <i type="logical" name="LFOCKAEDFT"> F  </i>
   <i name="HFSCREEN">      0.00000000</i>
   <i name="HFSCREENC">      0.00000000</i>
   <i type="int" name="NBANDSGWLOW">     0</i>
  </separator>
  <separator name="vdW DFT" >
   <i type="logical" name="LUSE_VDW"> F  </i>
   <i name="Zab_VDW">     -0.84910000</i>
   <i name="PARAM1">      0.12340000</i>
   <i name="PARAM2">      1.00000000</i>
   <i name="PARAM3">      0.00000000</i>
  </separator>
  <separator name="model GW" >
   <i type="int" name="MODEL_GW">     0</i>
   <i name="MODEL_EPS0">     14.95425785</i>
   <i name="MODEL_ALPHA">      1.00000000</i>
  </separator>
  <separator name="linear response parameters" >
   <i type="logical" name="LEPSILON"> F  </i>
   <i type="logical" name="LRPA"> F  </i>
   <i type="logical" name="LNABLA"> F  </i>
   <i type="logical" name="LVEL"> F  </i>
   <i type="int" name="KINTER">     0</i>
   <i name="CSHIFT">      0.10000000</i>
   <i name="OMEGAMAX">     -1.00000000</i>
   <i name="DEG_THRESHOLD">      0.00200000</i>
   <i name="RTIME">     -0.10000000</i>
   <i name="WPLASMAI">      0.00000000</i>
   <v name="DFIELD">      0.00000000      0.00000000      0.00000000</v>
   <v name="WPLASMA">      0.00000000      0.00000000      0.00000000      0.00000000      0.00000000      0.00000000      0.00000000      0.00000000      0.00000000</v>
  </separator>
  <separator name="orbital magnetization" >
   <i type="logical" name="NUCIND"> F  </i>
   <v name="MAGPOS">      0.00000000      0.00000000      0.00000000</v>
   <i type="logical" name="LNICSALL"> T  </i>
   <i type="logical" name="ORBITALMAG"> F  </i>
   <i type="logical" name="LMAGBLOCH"> F  </i>
   <i type="logical" name="LCHIMAG"> F  </i>
   <i type="logical" name="LGAUGE"> T  </i>
   <i type="int" name="MAGATOM">     0</i>
   <v name="MAGDIPOL">      0.00000000      0.00000000      0.00000000</v>
   <v name="AVECCONST">      0.00000000      0.00000000      0.00000000</v>
  </separator>
  <separator name="response functions" >
   <i type="logical" name="LFINITE_TEMPERATURE"> F  </i>
   <i type="logical" name="LADDER"> F  </i>
   <i type="logical" name="LRPAFORCE"> F  </i>
   <i type="logical" name="LFXC"> F  </i>
   <i type="logical" name="LHARTREE"> T  </i>
   <i type="int" name="IBSE">     0</i>
   <v type="int" name="KPOINT">    -1     0     0     0</v>
   <i type="logical" name="LTCTC"> F  </i>
   <i type="logical" name="LTCTE"> F  </i>
   <i type="logical" name="LTETE"> F  </i>
   <i type="logical" name="LTRIPLET"> F  </i>
   <i type="logical" name="LFXCEPS"> F  </i>
   <i type="logical" name="LFXHEG"> F  </i>
   <i type="int" name="NATURALO">     2</i>
   <i type="logical" name="LHOLEGF"> F  </i>
   <i type="logical" name="L2ORDER"> F  </i>
   <i type="logical" name="LDMP1"> F  </i>
   <i type="logical" name="LMP2LT"> F  </i>
   <i type="logical" name="LSMP2LT"> F  </i>
   <i type="logical" name="LGWLF"> F  </i>
   <i name="ENCUTGW">     -2.00000000</i>
   <i name="ENCUTGWSOFT">     -2.00000000</i>
   <i name="ENCUTLF">     -1.00000000</i>
   <i type="logical" name="LESF_SPLINES"> F  </i>
   <i type="int" name="LMAXMP2">    -1</i>
   <i name="SCISSOR">      0.00000000</i>
   <i type="int" name="NOMEGA">     0</i>
   <i type="int" name="NOMEGAR">     0</i>
   <i type="int" name="NBANDSGW">    -1</i>
   <i type="int" name="NBANDSO">    -1</i>
   <i type="int" name="NBANDSV">    -1</i>
   <i type="int" name="NELM">   100</i>
   <i type="int" name="NELMHF">     1</i>
   <i type="int" name="DIM">     3</i>
   <i type="int" name="IESPILON">     4</i>
   <i type="int" name="ANTIRES">     0</i>
   <i name="OMEGAMAX">    -30.00000000</i>
   <i name="OMEGAMIN">    -30.00000000</i>
   <i name="OMEGATL">   -200.00000000</i>
   <i type="int" name="OMEGAGRID">     0</i>
   <i name="CSHIFT">     -0.10000000</i>
   <i type="logical" name="LSELFENERGY"> F  </i>
   <i type="logical" name="LSPECTRAL"> F  </i>
   <i type="logical" name="LSPECTRALGW"> F  </i>
   <i type="logical" name="LSINGLES"> F  </i>
   <i type="logical" name="LFERMIGW"> F  </i>
   <i type="logical" name="ODDONLYGW"> F  </i>
   <i type="logical" name="EVENONLYGW"> F  </i>
   <i type="int" name="NKREDLFX">     1</i>
   <i type="int" name="NKREDLFY">     1</i>
   <i type="int" name="NKREDLFZ">     1</i>
   <i type="int" name="MAXMEM">  2800</i>
   <i type="int" name="TELESCOPE">     0</i>
   <i type="int" name="NTAUPAR">    -1</i>
   <i type="int" name="NOMEGAPAR">    -1</i>
   <i name="LAMBDA">      1.00000000</i>
  </separator>
  <separator name="External order field" >
   <i name="OFIELD_KAPPA">      0.00000000</i>
   <v name="OFIELD_K">      0.00000000      0.00000000      0.00000000</v>
   <i name="OFIELD_Q6_NEAR">      0.00000000</i>
   <i name="OFIELD_Q6_FAR">      0.00000000</i>
   <i name="OFIELD_A">      0.00000000</i>
  </separator>
 </parameters>
 <atominfo>
  <atoms>     104 </atoms>
  <types>       2 </types>
  <array name="atoms" >
   <dimension dim="1">ion</dimension>
   <field type="string">element</field>
   <field type="int">atomtype</field>
   <set>
    <rc><c>Ni</c><c>   1</c></rc>
    <rc><c>Ni</c><c>   1</c></rc>
    <rc><c>Ni</c><c>   1</c></rc>
    <rc><c>Ni</c><c>   1</c></rc>
    <rc><c>Ni</c><c>   1</c></rc>
    <rc><c>Ni</c><c>   1</c></rc>
    <rc><c>Ni</c><c>   1</c></rc>
    <rc><c>Ni</c><c>   1</c></rc>
    <rc><c>Ni</c><c>   1</c></rc>
    <rc><c>Ni</c><c>   1</c></rc>
    <rc><c>Ni</c><c>   1</c></rc>
    <rc><c>Ni</c><c>   1</c></rc>
    <rc><c>Ni</c><c>   1</c></rc>
    <rc><c>Ni</c><c>   1</c></rc>
    <rc><c>Ni</c><c>   1</c></rc>
    <rc><c>Ni</c><c>   1</c></rc>
    <rc><c>Ni</c><c>   1</c></rc>
    <rc><c>Ni</c><c>   1</c></rc>
    <rc><c>Ni</c><c>   1</c></rc>
    <rc><c>Ni</c><c>   1</c></rc>
    <rc><c>Ni</c><c>   1</c></rc>
    <rc><c>Ni</c><c>   1</c></rc>
    <rc><c>Ni</c><c>   1</c></rc>
    <rc><c>Ni</c><c>   1</c></rc>
    <rc><c>Ni</c><c>   1</c></rc>
    <rc><c>Ni</c><c>   1</c></rc>
    <rc><c>Ni</c><c>   1</c></rc>
    <rc><c>Ni</c><c>   1</c></rc>
    <rc><c>Ni</c><c>   1</c></rc>
    <rc><c>Ni</c><c>   1</c></rc>
    <rc><c>Ni</c><c>   1</c></rc>
    <rc><c>Ni</c><c>   1</c></rc>
    <rc><c>Ni</c><c>   1</c></rc>
    <rc><c>Ni</c><c>   1</c></rc>
    <rc><c>Ni</c><c>   1</c></rc>
    <rc><c>Ni</c><c>   1</c></rc>
    <rc><c>Ni</c><c>   1</c></rc>
    <rc><c>Ni</c><c>   1</c></rc>
    <rc><c>Ni</c><c>   1</c></rc>
    <rc><c>Ni</c><c>   1</c></rc>
    <rc><c>Ni</c><c>   1</c></rc>
    <rc><c>Ni</c><c>   1</c></rc>
    <rc><c>Ni</c><c>   1</c></rc>
    <rc><c>Ni</c><c>   1</c></rc>
    <rc><c>Ni</c><c>   1</c></rc>
    <rc><c>Ni</c><c>   1</c></rc>
    <rc><c>Ni</c><c>   1</c></rc>
    <rc><c>Ni</c><c>   1</c></rc>
    <rc><c>Ni</c><c>   1</c></rc>
    <rc><c>Ni</c><c>   1</c></rc>
    <rc><c>Ni</c><c>   1</c></rc>
    <rc><c>Ni</c><c>   1</c></rc>
    <rc><c>S </c><c>   2</c></rc>
    <rc><c>S </c><c>   2</c></rc>
    <rc><c>S </c><c>   2</c></rc>
    <rc><c>S </c><c>   2</c></rc>
    <rc><c>S </c><c>   2</c></rc>
    <rc><c>S </c><c>   2</c></rc>
    <rc><c>S </c><c>   2</c></rc>
    <rc><c>S </c><c>   2</c></rc>
    <rc><c>S </c><c>   2</c></rc>
    <rc><c>S </c><c>   2</c></rc>
    <rc><c>S </c><c>   2</c></rc>
    <rc><c>S </c><c>   2</c></rc>
    <rc><c>S </c><c>   2</c></rc>
    <rc><c>S </c><c>   2</c></rc>
    <rc><c>S </c><c>   2</c></rc>
    <rc><c>S </c><c>   2</c></rc>
    <rc><c>S </c><c>   2</c></rc>
    <rc><c>S </c><c>   2</c></rc>
    <rc><c>S </c><c>   2</c></rc>
    <rc><c>S </c><c>   2</c></rc>
    <rc><c>S </c><c>   2</c></rc>
    <rc><c>S </c><c>   2</c></rc>
    <rc><c>S </c><c>   2</c></rc>
    <rc><c>S </c><c>   2</c></rc>
    <rc><c>S </c><c>   2</c></rc>
    <rc><c>S </c><c>   2</c></rc>
    <rc><c>S </c><c>   2</c></rc>
    <rc><c>S </c><c>   2</c></rc>
    <rc><c>S </c><c>   2</c></rc>
    <rc><c>S </c><c>   2</c></rc>
    <rc><c>S </c><c>   2</c></rc>
    <rc><c>S </c><c>   2</c></rc>
    <rc><c>S </c><c>   2</c></rc>
    <rc><c>S </c><c>   2</c></rc>
    <rc><c>S </c><c>   2</c></rc>
    <rc><c>S </c><c>   2</c></rc>
    <rc><c>S </c><c>   2</c></rc>
    <rc><c>S </c><c>   2</c></rc>
    <rc><c>S </c><c>   2</c></rc>
    <rc><c>S </c><c>   2</c></rc>
    <rc><c>S </c><c>   2</c></rc>
    <rc><c>S </c><c>   2</c></rc>
    <rc><c>S </c><c>   2</c></rc>
    <rc><c>S </c><c>   2</c></rc>
    <rc><c>S </c><c>   2</c></rc>
    <rc><c>S </c><c>   2</c></rc>
    <rc><c>S </c><c>   2</c></rc>
    <rc><c>S </c><c>   2</c></rc>
    <rc><c>S </c><c>   2</c></rc>
    <rc><c>S </c><c>   2</c></rc>
    <rc><c>S </c><c>   2</c></rc>
    <rc><c>S </c><c>   2</c></rc>
   </set>
  </array>
  <array name="atomtypes" >
   <dimension dim="1">type</dimension>
   <field type="int">atomspertype</field>
   <field type="string">element</field>
   <field>mass</field>
   <field>valence</field>
   <field type="string">pseudopotential</field>
   <set>
    <rc><c>  52</c><c>Ni</c><c>     58.69000000</c><c>     16.00000000</c><c>  PAW_PBE Ni_pv 06Sep2000               </c></rc>
    <rc><c>  52</c><c>S </c><c>     32.06600000</c><c>      6.00000000</c><c>  PAW_PBE S 06Sep2000                   </c></rc>
   </set>
  </array>
 </atominfo>
 <structure name="initialpos" >
  <crystal>
   <varray name="basis" >
    <v>      10.06282034       5.04456212       0.00000000 </v>
    <v>       0.00000000      11.25646304       0.00000000 </v>
    <v>       0.00000000       0.00000000      22.88364939 </v>
   </varray>
   <i name="volume">   2592.07135999 </i>
   <varray name="rec_basis" >
    <v>       0.09937572       0.00000000       0.00000000 </v>
    <v>      -0.04453504       0.08883785       0.00000000 </v>
    <v>       0.00000000       0.00000000       0.04369932 </v>
   </varray>
  </crystal>
  <varray name="positions" >
   <v>       0.26092070       0.47878036       0.29050611 </v>
   <v>       0.35488056       0.38482049       0.41880986 </v>
   <v>       0.44884043       0.29086063       0.54711361 </v>
   <v>       0.16696083       0.07274024       0.16220237 </v>
   <v>       0.05611868       0.05147940       0.51321499 </v>
   <v>       0.18027920       0.42731886       0.00000000 </v>
   <v>       0.27423907       0.33335899       0.12830375 </v>
   <v>       0.36819893       0.23939913       0.25660749 </v>
   <v>       0.46215880       0.14543926       0.38491124 </v>
   <v>       0.00030194       0.37150212       0.25660749 </v>
   <v>       0.09426181       0.27754226       0.38491124 </v>
   <v>       0.18822168       0.18358239       0.51321499 </v>
   <v>       0.40634206       0.46546199       0.12830375 </v>
   <v>       0.31238219       0.05942187       0.00000000 </v>
   <v>       0.76092070       0.47878036       0.29050611 </v>
   <v>       0.85488056       0.38482049       0.41880986 </v>
   <v>       0.57300096       0.16670011       0.03389862 </v>
   <v>       0.66696083       0.07274024       0.16220237 </v>
   <v>       0.55611868       0.05147940       0.51321499 </v>
   <v>       0.68027920       0.42731886       0.00000000 </v>
   <v>       0.77423907       0.33335899       0.12830375 </v>
   <v>       0.86819893       0.23939913       0.25660749 </v>
   <v>       0.96215880       0.14543926       0.38491124 </v>
   <v>       0.50030194       0.37150212       0.25660749 </v>
   <v>       0.59426181       0.27754226       0.38491124 </v>
   <v>       0.68822168       0.18358239       0.51321499 </v>
   <v>       0.90634206       0.46546199       0.12830375 </v>
   <v>       0.81238219       0.05942187       0.00000000 </v>
   <v>       0.26092070       0.97878036       0.29050611 </v>
   <v>       0.35488056       0.88482049       0.41880986 </v>
   <v>       0.16696083       0.57274024       0.16220237 </v>
   <v>       0.18027920       0.92731886       0.00000000 </v>
   <v>       0.27423907       0.83335899       0.12830375 </v>
   <v>       0.36819893       0.73939913       0.25660749 </v>
   <v>       0.46215880       0.64543926       0.38491124 </v>
   <v>       0.00030194       0.87150212       0.25660749 </v>
   <v>       0.09426181       0.77754226       0.38491124 </v>
   <v>       0.40634206       0.96546199       0.12830375 </v>
   <v>       0.31238219       0.55942187       0.00000000 </v>
   <v>       0.76092070       0.97878036       0.29050611 </v>
   <v>       0.85488056       0.88482049       0.41880986 </v>
   <v>       0.94884043       0.79086063       0.54711361 </v>
   <v>       0.66696083       0.57274024       0.16220237 </v>
   <v>       0.55611868       0.55147940       0.51321499 </v>
   <v>       0.68027920       0.92731886       0.00000000 </v>
   <v>       0.77423907       0.83335899       0.12830375 </v>
   <v>       0.86819893       0.73939913       0.25660749 </v>
   <v>       0.96215880       0.64543926       0.38491124 </v>
   <v>       0.50030194       0.87150212       0.25660749 </v>
   <v>       0.59426181       0.77754226       0.38491124 </v>
   <v>       0.90634206       0.96546199       0.12830375 </v>
   <v>       0.81238219       0.55942187       0.00000000 </v>
   <v>       0.07287763       0.16682343       0.30639927 </v>
   <v>       0.16683750       0.07286357       0.43470302 </v>
   <v>       0.38495789       0.35474317       0.04979178 </v>
   <v>       0.47891775       0.26078330       0.17809552 </v>
   <v>       0.26079737       0.47890369       0.56300676 </v>
   <v>       0.03023342       0.37768264       0.47786825 </v>
   <v>       0.43627354       0.47164251       0.34956450 </v>
   <v>       0.24835381       0.15956225       0.09295701 </v>
   <v>       0.34231368       0.06560239       0.22126075 </v>
   <v>       0.08013882       0.49134725       0.09295701 </v>
   <v>       0.17409868       0.39738738       0.22126075 </v>
   <v>       0.26805855       0.30342751       0.34956450 </v>
   <v>       0.36201842       0.20946764       0.47786825 </v>
   <v>       0.57287763       0.16682343       0.30639927 </v>
   <v>       0.66683750       0.07286357       0.43470302 </v>
   <v>       0.88495789       0.35474317       0.04979178 </v>
   <v>       0.97891775       0.26078330       0.17809552 </v>
   <v>       0.76079737       0.47890369       0.56300676 </v>
   <v>       0.53023342       0.37768264       0.47786825 </v>
   <v>       0.93627354       0.47164251       0.34956450 </v>
   <v>       0.74835381       0.15956225       0.09295701 </v>
   <v>       0.84231368       0.06560239       0.22126075 </v>
   <v>       0.58013882       0.49134725       0.09295701 </v>
   <v>       0.67409868       0.39738738       0.22126075 </v>
   <v>       0.76805855       0.30342751       0.34956450 </v>
   <v>       0.86201842       0.20946764       0.47786825 </v>
   <v>       0.07287763       0.66682343       0.30639927 </v>
   <v>       0.16683750       0.57286357       0.43470302 </v>
   <v>       0.38495789       0.85474317       0.04979178 </v>
   <v>       0.47891775       0.76078330       0.17809552 </v>
   <v>       0.26079737       0.97890369       0.56300676 </v>
   <v>       0.03023342       0.87768264       0.47786825 </v>
   <v>       0.43627354       0.97164251       0.34956450 </v>
   <v>       0.24835381       0.65956225       0.09295701 </v>
   <v>       0.34231368       0.56560239       0.22126075 </v>
   <v>       0.08013882       0.99134725       0.09295701 </v>
   <v>       0.17409868       0.89738738       0.22126075 </v>
   <v>       0.26805855       0.80342751       0.34956450 </v>
   <v>       0.36201842       0.70946764       0.47786825 </v>
   <v>       0.57287763       0.66682343       0.30639927 </v>
   <v>       0.66683750       0.57286357       0.43470302 </v>
   <v>       0.88495789       0.85474317       0.04979178 </v>
   <v>       0.97891775       0.76078330       0.17809552 </v>
   <v>       0.76079737       0.97890369       0.56300676 </v>
   <v>       0.53023342       0.87768264       0.47786825 </v>
   <v>       0.93627354       0.97164251       0.34956450 </v>
   <v>       0.74835381       0.65956225       0.09295701 </v>
   <v>       0.84231368       0.56560239       0.22126075 </v>
   <v>       0.58013882       0.99134725       0.09295701 </v>
   <v>       0.67409868       0.89738738       0.22126075 </v>
   <v>       0.76805855       0.80342751       0.34956450 </v>
   <v>       0.86201842       0.70946764       0.47786825 </v>
  </varray>
 </structure>
 <calculation>
  <scstep>
   <time name="dav">    5.23    5.25</time>
   <time name="total">    5.34    5.36</time>
   <energy>
    <i name="alphaZ">   2994.23548884 </i>
    <i name="ewald"> 247387.42419376 </i>
    <i name="hartreedc">-425462.51435061 </i>
    <i name="XCdc">   5273.20082999 </i>
    <i name="pawpsdc"> 162831.54814933 </i>
    <i name="pawaedc">-169926.62828172 </i>
    <i name="eentropy">     -0.54586060 </i>
    <i name="bandstr">  -4901.84756867 </i>
    <i name="atom"> 196448.20729987 </i>
    <i name="e_fr_energy">  14643.07990018 </i>
    <i name="e_wo_entrp">  14643.62576078 </i>
    <i name="e_0_energy">  14643.35283048 </i>
   </energy>
  </scstep>
  <scstep>
   <time name="dav">    4.33    4.35</time>
   <time name="total">    4.33    4.35</time>
   <energy>
    <i name="e_fr_energy">   1030.87223533 </i>
    <i name="e_wo_entrp">   1031.92123013 </i>
    <i name="e_0_energy">   1031.39673273 </i>
   </energy>
  </scstep>
  <scstep>
   <time name="dav">    4.77    4.79</time>
   <time name="total">    4.77    4.79</time>
   <energy>
    <i name="e_fr_energy">   -466.04077441 </i>
    <i name="e_wo_entrp">   -464.24112088 </i>
    <i name="e_0_energy">   -465.14094765 </i>
   </energy>
  </scstep>
  <scstep>
   <time name="dav">    4.86    4.88</time>
   <time name="total">    4.86    4.88</time>
   <energy>
    <i name="e_fr_energy">   -577.81697903 </i>
    <i name="e_wo_entrp">   -575.79079397 </i>
    <i name="e_0_energy">   -576.80388650 </i>
   </energy>
  </scstep>
  <scstep>
   <time name="dav">    5.18    5.20</time>
   <time name="total">    5.28    5.29</time>
   <energy>
    <i name="e_fr_energy">   -581.85340008 </i>
    <i name="e_wo_entrp">   -579.82091217 </i>
    <i name="e_0_energy">   -580.83715612 </i>
   </energy>
  </scstep>
  <scstep>
   <time name="dav">    4.99    5.00</time>
   <time name="total">    5.16    5.17</time>
   <energy>
    <i name="e_fr_energy">   -737.67796874 </i>
    <i name="e_wo_entrp">   -736.40891939 </i>
    <i name="e_0_energy">   -737.04344407 </i>
   </energy>
  </scstep>
  <scstep>
   <time name="dav">    4.91    4.92</time>
   <time name="total">    5.08    5.10</time>
   <energy>
    <i name="e_fr_energy">   -569.28004396 </i>
    <i name="e_wo_entrp">   -567.06137510 </i>
    <i name="e_0_energy">   -568.17070953 </i>
   </energy>
  </scstep>
  <scstep>
   <time name="dav">    5.00    5.01</time>
   <time name="total">    5.17    5.18</time>
   <energy>
    <i name="e_fr_energy">   -674.11808791 </i>
    <i name="e_wo_entrp">   -672.42115367 </i>
    <i name="e_0_energy">   -673.26962079 </i>
   </energy>
  </scstep>
  <scstep>
   <time name="dav">    5.35    5.38</time>
   <time name="total">    5.52    5.54</time>
   <energy>
    <i name="e_fr_energy">   -668.87143687 </i>
    <i name="e_wo_entrp">   -666.90419087 </i>
    <i name="e_0_energy">   -667.88781387 </i>
   </energy>
  </scstep>
  <scstep>
   <time name="dav">    5.27    5.28</time>
   <time name="total">    5.44    5.46</time>
   <energy>
    <i name="e_fr_energy">   -577.35294116 </i>
    <i name="e_wo_entrp">   -575.98869581 </i>
    <i name="e_0_energy">   -576.67081849 </i>
   </energy>
  </scstep>
  <scstep>
   <time name="dav">    5.76    5.77</time>
   <time name="total">    5.93    5.95</time>
   <energy>
    <i name="e_fr_energy">   -606.60770404 </i>
    <i name="e_wo_entrp">   -604.81493146 </i>
    <i name="e_0_energy">   -605.71131775 </i>
   </energy>
  </scstep>
  <scstep>
   <time name="dav">    5.60    5.62</time>
   <time name="total">    5.77    5.78</time>
   <energy>
    <i name="e_fr_energy">   -572.63296537 </i>
    <i name="e_wo_entrp">   -570.99952181 </i>
    <i name="e_0_energy">   -571.81624359 </i>
   </energy>
  </scstep>
  <scstep>
   <time name="dav">    5.52    5.53</time>
   <time name="total">    5.68    5.70</time>
   <energy>
    <i name="e_fr_energy">   -519.42242083 </i>
    <i name="e_wo_entrp">   -517.65908103 </i>
    <i name="e_0_energy">   -518.54075093 </i>
   </energy>
  </scstep>
  <scstep>
   <time name="dav">    5.66    5.67</time>
   <time name="total">    5.82    5.84</time>
   <energy>
    <i name="e_fr_energy">   -513.02904679 </i>
    <i name="e_wo_entrp">   -511.43055083 </i>
    <i name="e_0_energy">   -512.22979881 </i>
   </energy>
  </scstep>
  <scstep>
   <time name="dav">    5.32    5.33</time>
   <time name="total">    5.49    5.51</time>
   <energy>
    <i name="e_fr_energy">   -513.30599688 </i>
    <i name="e_wo_entrp">   -511.35991971 </i>
    <i name="e_0_energy">   -512.33295830 </i>
   </energy>
  </scstep>
  <scstep>
   <time name="dav">    5.26    5.28</time>
   <time name="total">    5.43    5.45</time>
   <energy>
    <i name="e_fr_energy">   -511.76736853 </i>
    <i name="e_wo_entrp">   -510.21153309 </i>
    <i name="e_0_energy">   -510.98945081 </i>
   </energy>
  </scstep>
  <scstep>
   <time name="dav">    5.19    5.21</time>
   <time name="total">    5.36    5.38</time>
   <energy>
    <i name="e_fr_energy">   -509.27945252 </i>
    <i name="e_wo_entrp">   -507.67958232 </i>
    <i name="e_0_energy">   -508.47951742 </i>
   </energy>
  </scstep>
  <scstep>
   <time name="dav">    5.39    5.41</time>
   <time name="total">    5.56    5.58</time>
   <energy>
    <i name="e_fr_energy">   -508.50287037 </i>
    <i name="e_wo_entrp">   -506.88342341 </i>
    <i name="e_0_energy">   -507.69314689 </i>
   </energy>
  </scstep>
  <scstep>
   <time name="dav">    5.37    5.38</time>
   <time name="total">    5.54    5.55</time>
   <energy>
    <i name="e_fr_energy">   -508.40212098 </i>
    <i name="e_wo_entrp">   -506.62038418 </i>
    <i name="e_0_energy">   -507.51125258 </i>
   </energy>
  </scstep>
  <scstep>
   <time name="dav">    5.29    5.30</time>
   <time name="total">    5.46    5.47</time>
   <energy>
    <i name="e_fr_energy">   -508.82208671 </i>
    <i name="e_wo_entrp">   -506.96236927 </i>
    <i name="e_0_energy">   -507.89222799 </i>
   </energy>
  </scstep>
  <scstep>
   <time name="dav">    5.25    5.26</time>
   <time name="total">    5.42    5.43</time>
   <energy>
    <i name="e_fr_energy">   -508.27621072 </i>
    <i name="e_wo_entrp">   -506.53349674 </i>
    <i name="e_0_energy">   -507.40485373 </i>
   </energy>
  </scstep>
  <scstep>
   <time name="dav">    5.44    5.46</time>
   <time name="total">    5.61    5.62</time>
   <energy>
    <i name="e_fr_energy">   -507.95047283 </i>
    <i name="e_wo_entrp">   -506.25157674 </i>
    <i name="e_0_energy">   -507.10102478 </i>
   </energy>
  </scstep>
  <scstep>
   <time name="dav">    5.60    5.61</time>
   <time name="total">    5.77    5.79</time>
   <energy>
    <i name="e_fr_energy">   -507.39760027 </i>
    <i name="e_wo_entrp">   -505.61863333 </i>
    <i name="e_0_energy">   -506.50811680 </i>
   </energy>
  </scstep>
  <scstep>
   <time name="dav">    5.59    5.60</time>
   <time name="total">    5.76    5.78</time>
   <energy>
    <i name="e_fr_energy">   -507.19397260 </i>
    <i name="e_wo_entrp">   -505.34656549 </i>
    <i name="e_0_energy">   -506.27026905 </i>
   </energy>
  </scstep>
  <scstep>
   <time name="dav">    5.29    5.30</time>
   <time name="total">    5.46    5.47</time>
   <energy>
    <i name="e_fr_energy">   -507.13161371 </i>
    <i name="e_wo_entrp">   -505.29090553 </i>
    <i name="e_0_energy">   -506.21125962 </i>
   </energy>
  </scstep>
  <scstep>
   <time name="dav">    5.12    5.13</time>
   <time name="total">    5.29    5.30</time>
   <energy>
    <i name="e_fr_energy">   -507.07524028 </i>
    <i name="e_wo_entrp">   -505.22527924 </i>
    <i name="e_0_energy">   -506.15025976 </i>
   </energy>
  </scstep>
  <scstep>
   <time name="dav">    5.26    5.28</time>
   <time name="total">    5.43    5.45</time>
   <energy>
    <i name="e_fr_energy">   -507.05227547 </i>
    <i name="e_wo_entrp">   -505.18087876 </i>
    <i name="e_0_energy">   -506.11657712 </i>
   </energy>
  </scstep>
  <scstep>
   <time name="dav">    5.38    5.39</time>
   <time name="total">    5.56    5.57</time>
   <energy>
    <i name="e_fr_energy">   -507.02080504 </i>
    <i name="e_wo_entrp">   -505.15661387 </i>
    <i name="e_0_energy">   -506.08870946 </i>
   </energy>
  </scstep>
  <scstep>
   <time name="dav">    5.29    5.30</time>
   <time name="total">    5.46    5.47</time>
   <energy>
    <i name="e_fr_energy">   -507.00432245 </i>
    <i name="e_wo_entrp">   -505.15473996 </i>
    <i name="e_0_energy">   -506.07953121 </i>
   </energy>
  </scstep>
  <scstep>
   <time name="dav">    5.35    5.37</time>
   <time name="total">    5.52    5.54</time>
   <energy>
    <i name="e_fr_energy">   -507.01270945 </i>
    <i name="e_wo_entrp">   -505.17395626 </i>
    <i name="e_0_energy">   -506.09333285 </i>
   </energy>
  </scstep>
  <scstep>
   <time name="dav">    5.67    5.69</time>
   <time name="total">    5.84    5.86</time>
   <energy>
    <i name="e_fr_energy">   -506.98552010 </i>
    <i name="e_wo_entrp">   -505.15424062 </i>
    <i name="e_0_energy">   -506.06988036 </i>
   </energy>
  </scstep>
  <scstep>
   <time name="dav">    5.56    5.57</time>
   <time name="total">    5.73    5.74</time>
   <energy>
    <i name="e_fr_energy">   -506.98335650 </i>
    <i name="e_wo_entrp">   -505.13134831 </i>
    <i name="e_0_energy">   -506.05735240 </i>
   </energy>
  </scstep>
  <scstep>
   <time name="dav">    5.48    5.50</time>
   <time name="total">    5.66    5.67</time>
   <energy>
    <i name="e_fr_energy">   -506.97941141 </i>
    <i name="e_wo_entrp">   -505.11759018 </i>
    <i name="e_0_energy">   -506.04850080 </i>
   </energy>
  </scstep>
  <scstep>
   <time name="dav">    5.60    5.61</time>
   <time name="total">    5.77    5.78</time>
   <energy>
    <i name="e_fr_energy">   -506.96242930 </i>
    <i name="e_wo_entrp">   -505.11463418 </i>
    <i name="e_0_energy">   -506.03853174 </i>
   </energy>
  </scstep>
  <scstep>
   <time name="dav">    5.56    5.57</time>
   <time name="total">    5.74    5.75</time>
   <energy>
    <i name="e_fr_energy">   -506.96011281 </i>
    <i name="e_wo_entrp">   -505.12524878 </i>
    <i name="e_0_energy">   -506.04268079 </i>
   </energy>
  </scstep>
  <scstep>
   <time name="dav">    5.32    5.33</time>
   <time name="total">    5.51    5.52</time>
   <energy>
    <i name="e_fr_energy">   -506.95753282 </i>
    <i name="e_wo_entrp">   -505.12068783 </i>
    <i name="e_0_energy">   -506.03911032 </i>
   </energy>
  </scstep>
  <scstep>
   <time name="dav">    5.56    5.58</time>
   <time name="total">    5.75    5.76</time>
   <energy>
    <i name="e_fr_energy">   -506.95726473 </i>
    <i name="e_wo_entrp">   -505.12051195 </i>
    <i name="e_0_energy">   -506.03888834 </i>
   </energy>
  </scstep>
  <scstep>
   <time name="dav">    5.11    5.12</time>
   <time name="total">    5.29    5.31</time>
   <energy>
    <i name="e_fr_energy">   -506.95638116 </i>
    <i name="e_wo_entrp">   -505.12375121 </i>
    <i name="e_0_energy">   -506.04006618 </i>
   </energy>
  </scstep>
  <scstep>
   <time name="dav">    4.99    5.00</time>
   <time name="total">    5.16    5.17</time>
   <energy>
    <i name="e_fr_energy">   -506.95583954 </i>
    <i name="e_wo_entrp">   -505.12625255 </i>
    <i name="e_0_energy">   -506.04104604 </i>
   </energy>
  </scstep>
  <scstep>
   <time name="dav">    4.82    4.83</time>
   <time name="total">    4.99    5.01</time>
   <energy>
    <i name="e_fr_energy">   -506.95712698 </i>
    <i name="e_wo_entrp">   -505.12084313 </i>
    <i name="e_0_energy">   -506.03898506 </i>
   </energy>
  </scstep>
  <scstep>
   <time name="dav">    4.53    4.54</time>
   <time name="total">    4.70    4.71</time>
   <energy>
    <i name="e_fr_energy">   -506.95636294 </i>
    <i name="e_wo_entrp">   -505.12461358 </i>
    <i name="e_0_energy">   -506.04048826 </i>
   </energy>
  </scstep>
  <scstep>
   <time name="dav">    3.93    3.94</time>
   <time name="total">    4.10    4.11</time>
   <energy>
    <i name="e_fr_energy">   -506.95650579 </i>
    <i name="e_wo_entrp">   -505.12588865 </i>
    <i name="e_0_energy">   -506.04119722 </i>
   </energy>
  </scstep>
  <scstep>
   <time name="dav">    3.33    3.34</time>
   <time name="total">    3.51    3.52</time>
   <energy>
    <i name="e_fr_energy">   -506.95667353 </i>
    <i name="e_wo_entrp">   -505.12669662 </i>
    <i name="e_0_energy">   -506.04168507 </i>
   </energy>
  </scstep>
  <scstep>
   <time name="dav">    3.05    3.06</time>
   <time name="total">    3.22    3.23</time>
   <energy>
    <i name="e_fr_energy">   -506.95679059 </i>
    <i name="e_wo_entrp">   -505.12722051 </i>
    <i name="e_0_energy">   -506.04200555 </i>
   </energy>
  </scstep>
  <scstep>
   <time name="dav">    2.92    2.92</time>
   <time name="total">    3.09    3.10</time>
   <energy>
    <i name="e_fr_energy">   -506.95695048 </i>
    <i name="e_wo_entrp">   -505.12608572 </i>
    <i name="e_0_energy">   -506.04151810 </i>
   </energy>
  </scstep>
  <scstep>
   <time name="dav">    3.23    3.24</time>
   <time name="total">    3.41    3.42</time>
   <energy>
    <i name="e_fr_energy">   -506.95735774 </i>
    <i name="e_wo_entrp">   -505.12698709 </i>
    <i name="e_0_energy">   -506.04217242 </i>
   </energy>
  </scstep>
  <scstep>
   <time name="dav">    3.14    3.15</time>
   <time name="total">    3.32    3.33</time>
   <energy>
    <i name="e_fr_energy">   -506.95763371 </i>
    <i name="e_wo_entrp">   -505.12817007 </i>
    <i name="e_0_energy">   -506.04290189 </i>
   </energy>
  </scstep>
  <scstep>
   <time name="dav">    3.42    3.43</time>
   <time name="total">    3.60    3.60</time>
   <energy>
    <i name="e_fr_energy">   -506.95828836 </i>
    <i name="e_wo_entrp">   -505.12969579 </i>
    <i name="e_0_energy">   -506.04399208 </i>
   </energy>
  </scstep>
  <scstep>
   <time name="dav">    3.12    3.12</time>
   <time name="total">    3.31    3.31</time>
   <energy>
    <i name="e_fr_energy">   -506.95839455 </i>
    <i name="e_wo_entrp">   -505.12953800 </i>
    <i name="e_0_energy">   -506.04396627 </i>
   </energy>
  </scstep>
  <scstep>
   <time name="dav">    3.10    3.11</time>
   <time name="total">    3.28    3.29</time>
   <energy>
    <i name="e_fr_energy">   -506.95859289 </i>
    <i name="e_wo_entrp">   -505.12970000 </i>
    <i name="e_0_energy">   -506.04414644 </i>
   </energy>
  </scstep>
  <scstep>
   <time name="dav">    3.04    3.05</time>
   <time name="total">    3.12    3.13</time>
   <energy>
    <i name="alphaZ">   2994.23548884 </i>
    <i name="ewald"> 247387.42419376 </i>
    <i name="hartreedc">-424346.98413102 </i>
    <i name="XCdc">   5230.04052279 </i>
    <i name="pawpsdc"> 188394.31145184 </i>
    <i name="pawaedc">-195573.19785455 </i>
    <i name="eentropy">     -1.82944501 </i>
    <i name="bandstr"> -21039.16612698 </i>
    <i name="atom"> 196448.20729987 </i>
    <i name="e_fr_energy">   -506.95860046 </i>
    <i name="e_wo_entrp">   -505.12915545 </i>
    <i name="e_0_energy">   -506.04387796 </i>
   </energy>
  </scstep>
  <structure>
   <crystal>
    <varray name="basis" >
     <v>      10.06282034       5.04456212       0.00000000 </v>
     <v>       0.00000000      11.25646304       0.00000000 </v>
     <v>       0.00000000       0.00000000      22.88364939 </v>
    </varray>
    <i name="volume">   2592.07135999 </i>
    <varray name="rec_basis" >
     <v>       0.09937572       0.00000000       0.00000000 </v>
     <v>      -0.04453504       0.08883785       0.00000000 </v>
     <v>       0.00000000       0.00000000       0.04369932 </v>
    </varray>
   </crystal>
   <varray name="positions" >
    <v>       0.26092070       0.47878036       0.29050611 </v>
    <v>       0.35488056       0.38482049       0.41880986 </v>
    <v>       0.44884043       0.29086063       0.54711361 </v>
    <v>       0.16696083       0.07274024       0.16220237 </v>
    <v>       0.05611868       0.05147940       0.51321499 </v>
    <v>       0.18027920       0.42731886       0.00000000 </v>
    <v>       0.27423907       0.33335899       0.12830375 </v>
    <v>       0.36819893       0.23939913       0.25660749 </v>
    <v>       0.46215880       0.14543926       0.38491124 </v>
    <v>       0.00030194       0.37150212       0.25660749 </v>
    <v>       0.09426181       0.27754226       0.38491124 </v>
    <v>       0.18822168       0.18358239       0.51321499 </v>
    <v>       0.40634206       0.46546199       0.12830375 </v>
    <v>       0.31238219       0.05942187       0.00000000 </v>
    <v>       0.76092070       0.47878036       0.29050611 </v>
    <v>       0.85488056       0.38482049       0.41880986 </v>
    <v>       0.57300096       0.16670011       0.03389862 </v>
    <v>       0.66696083       0.07274024       0.16220237 </v>
    <v>       0.55611868       0.05147940       0.51321499 </v>
    <v>       0.68027920       0.42731886       0.00000000 </v>
    <v>       0.77423907       0.33335899       0.12830375 </v>
    <v>       0.86819893       0.23939913       0.25660749 </v>
    <v>       0.96215880       0.14543926       0.38491124 </v>
    <v>       0.50030194       0.37150212       0.25660749 </v>
    <v>       0.59426181       0.27754226       0.38491124 </v>
    <v>       0.68822168       0.18358239       0.51321499 </v>
    <v>       0.90634206       0.46546199       0.12830375 </v>
    <v>       0.81238219       0.05942187       0.00000000 </v>
    <v>       0.26092070       0.97878036       0.29050611 </v>
    <v>       0.35488056       0.88482049       0.41880986 </v>
    <v>       0.16696083       0.57274024       0.16220237 </v>
    <v>       0.18027920       0.92731886       0.00000000 </v>
    <v>       0.27423907       0.83335899       0.12830375 </v>
    <v>       0.36819893       0.73939913       0.25660749 </v>
    <v>       0.46215880       0.64543926       0.38491124 </v>
    <v>       0.00030194       0.87150212       0.25660749 </v>
    <v>       0.09426181       0.77754226       0.38491124 </v>
    <v>       0.40634206       0.96546199       0.12830375 </v>
    <v>       0.31238219       0.55942187       0.00000000 </v>
    <v>       0.76092070       0.97878036       0.29050611 </v>
    <v>       0.85488056       0.88482049       0.41880986 </v>
    <v>       0.94884043       0.79086063       0.54711361 </v>
    <v>       0.66696083       0.57274024       0.16220237 </v>
    <v>       0.55611868       0.55147940       0.51321499 </v>
    <v>       0.68027920       0.92731886       0.00000000 </v>
    <v>       0.77423907       0.83335899       0.12830375 </v>
    <v>       0.86819893       0.73939913       0.25660749 </v>
    <v>       0.96215880       0.64543926       0.38491124 </v>
    <v>       0.50030194       0.87150212       0.25660749 </v>
    <v>       0.59426181       0.77754226       0.38491124 </v>
    <v>       0.90634206       0.96546199       0.12830375 </v>
    <v>       0.81238219       0.55942187       0.00000000 </v>
    <v>       0.07287763       0.16682343       0.30639927 </v>
    <v>       0.16683750       0.07286357       0.43470302 </v>
    <v>       0.38495789       0.35474317       0.04979178 </v>
    <v>       0.47891775       0.26078330       0.17809552 </v>
    <v>       0.26079737       0.47890369       0.56300676 </v>
    <v>       0.03023342       0.37768264       0.47786825 </v>
    <v>       0.43627354       0.47164251       0.34956450 </v>
    <v>       0.24835381       0.15956225       0.09295701 </v>
    <v>       0.34231368       0.06560239       0.22126075 </v>
    <v>       0.08013882       0.49134725       0.09295701 </v>
    <v>       0.17409868       0.39738738       0.22126075 </v>
    <v>       0.26805855       0.30342751       0.34956450 </v>
    <v>       0.36201842       0.20946764       0.47786825 </v>
    <v>       0.57287763       0.16682343       0.30639927 </v>
    <v>       0.66683750       0.07286357       0.43470302 </v>
    <v>       0.88495789       0.35474317       0.04979178 </v>
    <v>       0.97891775       0.26078330       0.17809552 </v>
    <v>       0.76079737       0.47890369       0.56300676 </v>
    <v>       0.53023342       0.37768264       0.47786825 </v>
    <v>       0.93627354       0.47164251       0.34956450 </v>
    <v>       0.74835381       0.15956225       0.09295701 </v>
    <v>       0.84231368       0.06560239       0.22126075 </v>
    <v>       0.58013882       0.49134725       0.09295701 </v>
    <v>       0.67409868       0.39738738       0.22126075 </v>
    <v>       0.76805855       0.30342751       0.34956450 </v>
    <v>       0.86201842       0.20946764       0.47786825 </v>
    <v>       0.07287763       0.66682343       0.30639927 </v>
    <v>       0.16683750       0.57286357       0.43470302 </v>
    <v>       0.38495789       0.85474317       0.04979178 </v>
    <v>       0.47891775       0.76078330       0.17809552 </v>
    <v>       0.26079737       0.97890369       0.56300676 </v>
    <v>       0.03023342       0.87768264       0.47786825 </v>
    <v>       0.43627354       0.97164251       0.34956450 </v>
    <v>       0.24835381       0.65956225       0.09295701 </v>
    <v>       0.34231368       0.56560239       0.22126075 </v>
    <v>       0.08013882       0.99134725       0.09295701 </v>
    <v>       0.17409868       0.89738738       0.22126075 </v>
    <v>       0.26805855       0.80342751       0.34956450 </v>
    <v>       0.36201842       0.70946764       0.47786825 </v>
    <v>       0.57287763       0.66682343       0.30639927 </v>
    <v>       0.66683750       0.57286357       0.43470302 </v>
    <v>       0.88495789       0.85474317       0.04979178 </v>
    <v>       0.97891775       0.76078330       0.17809552 </v>
    <v>       0.76079737       0.97890369       0.56300676 </v>
    <v>       0.53023342       0.87768264       0.47786825 </v>
    <v>       0.93627354       0.97164251       0.34956450 </v>
    <v>       0.74835381       0.65956225       0.09295701 </v>
    <v>       0.84231368       0.56560239       0.22126075 </v>
    <v>       0.58013882       0.99134725       0.09295701 </v>
    <v>       0.67409868       0.89738738       0.22126075 </v>
    <v>       0.76805855       0.80342751       0.34956450 </v>
    <v>       0.86201842       0.70946764       0.47786825 </v>
   </varray>
  </structure>
  <varray name="forces" >
   <v>       0.12750469      -0.09837673      -0.12515796 </v>
   <v>      -0.08253950       0.04786032      -0.04590491 </v>
   <v>      -1.63485614       1.00283697      -1.08497103 </v>
   <v>      -0.18932382       0.10352613      -0.32979603 </v>
   <v>       1.00080613       0.11595977      -0.44506700 </v>
   <v>       0.72004236       0.48499562       1.89180202 </v>
   <v>      -0.20576704      -0.19179378      -0.09678117 </v>
   <v>      -0.01693792       0.12896308       0.06080885 </v>
   <v>       0.09021333       0.01187751       0.02492025 </v>
   <v>      -0.12377014       0.01102347       0.03762750 </v>
   <v>      -0.00849530       0.05479646       0.33915382 </v>
   <v>      -0.04187570      -1.00842862      -0.43103125 </v>
   <v>       0.07357594       0.27206924      -0.09018330 </v>
   <v>      -0.02184749      -0.89307132       1.94318033 </v>
   <v>       0.14829999      -0.10860322      -0.07227036 </v>
   <v>       0.38701349      -0.17563719       0.39558510 </v>
   <v>       0.04348668      -0.03565050       0.69720666 </v>
   <v>      -0.11346030       0.07126644      -0.20970459 </v>
   <v>       0.70587701      -0.24851282      -0.71432386 </v>
   <v>       0.78822875       0.40673197       1.93620694 </v>
   <v>      -0.27317995      -0.01241297      -0.25607387 </v>
   <v>      -0.04635657       0.12047190       0.02720158 </v>
   <v>      -0.04856907      -0.10521173       0.10870004 </v>
   <v>      -0.11257417      -0.04892719       0.05414881 </v>
   <v>       0.07885738      -0.09328085       0.03765874 </v>
   <v>       0.41436054      -0.74108645      -0.57250791 </v>
   <v>      -0.02523315       0.21495012      -0.23869630 </v>
   <v>      -0.24636855      -0.82777140       1.77703987 </v>
   <v>       0.13663597      -0.06996800      -0.05067795 </v>
   <v>       0.52372296       0.01849720       0.36639845 </v>
   <v>      -0.16971199       0.09969988      -0.29230701 </v>
   <v>       0.84347180       0.52309093       1.99481668 </v>
   <v>      -0.20907439      -0.06106271      -0.26291268 </v>
   <v>      -0.05839124       0.12488790       0.03350534 </v>
   <v>       0.10848335      -0.06018626       0.27884808 </v>
   <v>      -0.09375152      -0.07308882       0.04636472 </v>
   <v>       0.26515574      -0.28890559       0.18549958 </v>
   <v>      -0.09879707       0.25766195      -0.25133530 </v>
   <v>      -0.11875946      -0.86592669       1.88819346 </v>
   <v>       0.03498675      -0.08733494      -0.08075652 </v>
   <v>       0.11007606      -0.13749379       0.16305197 </v>
   <v>      -1.04194932       0.50975632      -1.77128210 </v>
   <v>      -0.19838571       0.10508979      -0.31360047 </v>
   <v>       1.49271538       0.73095119      -0.43136651 </v>
   <v>       0.63356814       0.58217160       1.77843060 </v>
   <v>      -0.10998749      -0.04515685      -0.23614423 </v>
   <v>       0.00642687       0.11642448       0.05181525 </v>
   <v>       0.39964127      -0.00938046       0.49157520 </v>
   <v>      -0.11682650      -0.04201205       0.04088224 </v>
   <v>       0.01277454       0.13202319       0.43586801 </v>
   <v>      -0.00487556       0.12795916      -0.24686367 </v>
   <v>      -0.10249138      -0.99292051       1.99082542 </v>
   <v>       0.09080236      -0.04532105       0.19200004 </v>
   <v>      -0.22840404       0.19098103       0.38072601 </v>
   <v>       0.04455941      -0.00943391      -1.81808806 </v>
   <v>      -0.04472270       0.04559969      -0.09502061 </v>
   <v>       1.06426045      -0.65863110      -0.04490738 </v>
   <v>       0.15329505      -0.30813522      -0.43339452 </v>
   <v>       0.00084363      -0.01354136       0.03559923 </v>
   <v>       0.37317421       0.09816890      -0.58320485 </v>
   <v>       0.00068527       0.01540729      -0.05526669 </v>
   <v>       0.13492640      -0.40511662      -0.68688664 </v>
   <v>       0.01974083       0.00634533       0.00386180 </v>
   <v>       0.00901854      -0.02450722       0.06637511 </v>
   <v>       0.30256586      -0.01935863       1.01647825 </v>
   <v>       0.02886927      -0.00999801      -0.05335492 </v>
   <v>      -0.23538260       0.14108963       0.13167660 </v>
   <v>      -0.80184396       0.54711256      -1.64139107 </v>
   <v>      -0.00086351      -0.05209057      -0.22474262 </v>
   <v>      -1.78598023      -0.29754550      -1.08845127 </v>
   <v>       0.11595712      -0.21358372       0.97234853 </v>
   <v>      -0.04392770      -0.00834418       0.12314975 </v>
   <v>      -0.03514436       0.10954570      -0.88261641 </v>
   <v>       0.10131638       0.03386451      -0.00302218 </v>
   <v>       0.09290099      -0.37426397      -0.58934644 </v>
   <v>       0.01784547      -0.01644376      -0.05657708 </v>
   <v>      -0.03490974       0.04249283       0.11193593 </v>
   <v>       0.34504307      -0.07407221       0.52277662 </v>
   <v>      -0.00963081      -0.00216699       0.18649837 </v>
   <v>      -0.31350494       0.18928420       0.21347592 </v>
   <v>      -0.83514410       0.49183629      -1.64304333 </v>
   <v>       0.04863801       0.01780937      -0.20419519 </v>
   <v>      -1.87370645       1.10227603      -1.13094925 </v>
   <v>      -0.34701858      -0.50125330       0.71595636 </v>
   <v>      -0.04825905      -0.02574101       0.06028894 </v>
   <v>       0.42721264       0.06584545      -0.66956082 </v>
   <v>       0.01353609      -0.02306196      -0.00329612 </v>
   <v>       0.07808407      -0.38985464      -0.63636551 </v>
   <v>       0.01237164      -0.03706090      -0.01398617 </v>
   <v>       0.05224275      -0.03566277       0.21354411 </v>
   <v>       0.58706347      -0.05402178      -0.38845560 </v>
   <v>       0.09483408       0.01414428       0.24162059 </v>
   <v>      -0.48212163      -0.06367907       0.49165327 </v>
   <v>      -0.77688175       0.49182772      -1.69871063 </v>
   <v>       0.11150150      -0.03945997      -0.09508263 </v>
   <v>      -0.74658964       0.41649960      -0.09553457 </v>
   <v>      -0.19244638      -0.22256031      -0.08302536 </v>
   <v>       0.05500799      -0.01306593       0.15961763 </v>
   <v>       0.39353278       0.11366171      -0.62605033 </v>
   <v>       0.04653430       0.01794827      -0.01466400 </v>
   <v>      -0.11329309      -0.01150088      -0.89611562 </v>
   <v>       0.00688627      -0.08638410       0.02216330 </v>
   <v>       0.05297459      -0.04719379       0.22846946 </v>
   <v>       0.44178205       0.87797282      -0.06250951 </v>
  </varray>
  <varray name="stress" >
   <v>     -24.83113537       3.98702914     -10.18509839 </v>
   <v>       3.98702919     -17.97831280       4.32900155 </v>
   <v>     -10.18509803       4.32900145     -35.79106983 </v>
  </varray>
  <energy>
   <i name="e_fr_energy">   -506.95860046 </i>
   <i name="e_wo_entrp">   -505.12915545 </i>
   <i name="e_0_energy">   -506.04387796 </i>
  </energy>
  <time name="totalsc">  260.39  261.16</time>
  <eigenvalues>
   <array>
    <dimension dim="1">band</dimension>
    <dimension dim="2">kpoint</dimension>
    <dimension dim="3">spin</dimension>
    <field>eigene</field>
    <field>occ</field>
    <set>
     <set comment="spin 1">
      <set comment="kpoint 1">
       <r>  -62.1597    1.0000 </r>
       <r>  -62.1424    1.0000 </r>
       <r>  -62.1351    1.0000 </r>
       <r>  -62.1222    1.0000 </r>
       <r>  -62.1202    1.0000 </r>
       <r>  -62.1160    1.0000 </r>
       <r>  -62.1134    1.0000 </r>
       <r>  -62.1050    1.0000 </r>
       <r>  -62.1049    1.0000 </r>
       <r>  -62.1005    1.0000 </r>
       <r>  -62.0988    1.0000 </r>
       <r>  -62.0982    1.0000 </r>
       <r>  -62.0973    1.0000 </r>
       <r>  -62.0944    1.0000 </r>
       <r>  -62.0940    1.0000 </r>
       <r>  -62.0939    1.0000 </r>
       <r>  -62.0934    1.0000 </r>
       <r>  -62.0931    1.0000 </r>
       <r>  -62.0898    1.0000 </r>
       <r>  -62.0877    1.0000 </r>
       <r>  -62.0856    1.0000 </r>
       <r>  -62.0851    1.0000 </r>
       <r>  -62.0810    1.0000 </r>
       <r>  -62.0795    1.0000 </r>
       <r>  -62.0771    1.0000 </r>
       <r>  -62.0769    1.0000 </r>
       <r>  -62.0767    1.0000 </r>
       <r>  -62.0761    1.0000 </r>
       <r>  -62.0745    1.0000 </r>
       <r>  -62.0742    1.0000 </r>
       <r>  -62.0740    1.0000 </r>
       <r>  -62.0723    1.0000 </r>
       <r>  -62.0699    1.0000 </r>
       <r>  -62.0689    1.0000 </r>
       <r>  -62.0678    1.0000 </r>
       <r>  -62.0676    1.0000 </r>
       <r>  -62.0636    1.0000 </r>
       <r>  -62.0597    1.0000 </r>
       <r>  -62.0591    1.0000 </r>
       <r>  -62.0582    1.0000 </r>
       <r>  -62.0567    1.0000 </r>
       <r>  -62.0558    1.0000 </r>
       <r>  -62.0545    1.0000 </r>
       <r>  -62.0542    1.0000 </r>
       <r>  -62.0521    1.0000 </r>
       <r>  -62.0513    1.0000 </r>
       <r>  -62.0506    1.0000 </r>
       <r>  -62.0504    1.0000 </r>
       <r>  -62.0491    1.0000 </r>
       <r>  -62.0486    1.0000 </r>
       <r>  -62.0482    1.0000 </r>
       <r>  -62.0472    1.0000 </r>
       <r>  -62.0460    1.0000 </r>
       <r>  -62.0455    1.0000 </r>
       <r>  -62.0445    1.0000 </r>
       <r>  -62.0438    1.0000 </r>
       <r>  -62.0413    1.0000 </r>
       <r>  -62.0413    1.0000 </r>
       <r>  -62.0407    1.0000 </r>
       <r>  -62.0395    1.0000 </r>
       <r>  -62.0372    1.0000 </r>
       <r>  -62.0349    1.0000 </r>
       <r>  -62.0324    1.0000 </r>
       <r>  -62.0318    1.0000 </r>
       <r>  -62.0278    1.0000 </r>
       <r>  -62.0254    1.0000 </r>
       <r>  -62.0195    1.0000 </r>
       <r>  -62.0194    1.0000 </r>
       <r>  -62.0177    1.0000 </r>
       <r>  -62.0112    1.0000 </r>
       <r>  -62.0108    1.0000 </r>
       <r>  -62.0013    1.0000 </r>
       <r>  -61.9699    1.0000 </r>
       <r>  -61.9596    1.0000 </r>
       <r>  -61.9458    1.0000 </r>
       <r>  -61.9451    1.0000 </r>
       <r>  -61.9349    1.0000 </r>
       <r>  -61.9303    1.0000 </r>
       <r>  -61.9212    1.0000 </r>
       <r>  -61.9206    1.0000 </r>
       <r>  -61.9160    1.0000 </r>
       <r>  -61.9080    1.0000 </r>
       <r>  -61.8969    1.0000 </r>
       <r>  -61.8913    1.0000 </r>
       <r>  -61.8828    1.0000 </r>
       <r>  -61.8825    1.0000 </r>
       <r>  -61.8818    1.0000 </r>
       <r>  -61.8817    1.0000 </r>
       <r>  -61.8794    1.0000 </r>
       <r>  -61.8789    1.0000 </r>
       <r>  -61.8763    1.0000 </r>
       <r>  -61.8696    1.0000 </r>
       <r>  -61.8683    1.0000 </r>
       <r>  -61.8656    1.0000 </r>
       <r>  -61.8656    1.0000 </r>
       <r>  -61.8636    1.0000 </r>
       <r>  -61.8614    1.0000 </r>
       <r>  -61.8601    1.0000 </r>
       <r>  -61.8571    1.0000 </r>
       <r>  -61.8554    1.0000 </r>
       <r>  -61.8504    1.0000 </r>
       <r>  -61.8433    1.0000 </r>
       <r>  -61.8413    1.0000 </r>
       <r>  -61.8376    1.0000 </r>
       <r>  -61.8321    1.0000 </r>
       <r>  -61.8279    1.0000 </r>
       <r>  -61.8265    1.0000 </r>
       <r>  -61.8262    1.0000 </r>
       <r>  -61.8255    1.0000 </r>
       <r>  -61.8231    1.0000 </r>
       <r>  -61.8203    1.0000 </r>
       <r>  -61.8143    1.0000 </r>
       <r>  -61.8133    1.0000 </r>
       <r>  -61.8119    1.0000 </r>
       <r>  -61.7624    1.0000 </r>
       <r>  -61.7593    1.0000 </r>
       <r>  -61.7482    1.0000 </r>
       <r>  -61.7291    1.0000 </r>
       <r>  -61.7252    1.0000 </r>
       <r>  -61.7243    1.0000 </r>
       <r>  -61.7111    1.0000 </r>
       <r>  -61.6237    1.0000 </r>
       <r>  -61.5844    1.0000 </r>
       <r>  -61.5554    1.0000 </r>
       <r>  -61.5513    1.0000 </r>
       <r>  -61.5021    1.0000 </r>
       <r>  -61.4229    1.0000 </r>
       <r>  -61.4099    1.0000 </r>
       <r>  -61.3879    1.0000 </r>
       <r>  -61.3252    1.0000 </r>
       <r>  -61.2357    1.0000 </r>
       <r>  -61.1274    1.0000 </r>
       <r>  -60.9570    1.0000 </r>
       <r>  -60.9432    1.0000 </r>
       <r>  -60.8928    1.0000 </r>
       <r>  -60.8902    1.0000 </r>
       <r>  -60.8655    1.0000 </r>
       <r>  -60.8633    1.0000 </r>
       <r>  -60.8562    1.0000 </r>
       <r>  -60.8504    1.0000 </r>
       <r>  -60.8466    1.0000 </r>
       <r>  -60.8257    1.0000 </r>
       <r>  -60.8244    1.0000 </r>
       <r>  -60.8026    1.0000 </r>
       <r>  -60.7997    1.0000 </r>
       <r>  -60.7954    1.0000 </r>
       <r>  -60.7947    1.0000 </r>
       <r>  -60.7923    1.0000 </r>
       <r>  -60.7496    1.0000 </r>
       <r>  -60.7428    1.0000 </r>
       <r>  -60.6519    1.0000 </r>
       <r>  -60.6515    1.0000 </r>
       <r>  -60.6257    1.0000 </r>
       <r>  -60.6229    1.0000 </r>
       <r>  -60.6212    1.0000 </r>
       <r>  -60.6005    1.0000 </r>
       <r>  -13.4780    1.0000 </r>
       <r>  -12.9600    1.0000 </r>
       <r>  -12.7602    1.0000 </r>
       <r>  -12.7317    1.0000 </r>
       <r>  -12.7082    1.0000 </r>
       <r>  -12.5518    1.0000 </r>
       <r>  -12.5044    1.0000 </r>
       <r>  -12.3818    1.0000 </r>
       <r>  -12.3278    1.0000 </r>
       <r>  -12.3156    1.0000 </r>
       <r>  -12.2599    1.0000 </r>
       <r>  -12.2071    1.0000 </r>
       <r>  -12.0808    1.0000 </r>
       <r>  -12.0312    1.0000 </r>
       <r>  -11.9620    1.0000 </r>
       <r>  -11.9035    1.0000 </r>
       <r>  -11.8505    1.0000 </r>
       <r>  -11.8082    1.0000 </r>
       <r>  -11.7565    1.0000 </r>
       <r>  -11.7423    1.0000 </r>
       <r>  -11.7381    1.0000 </r>
       <r>  -11.7154    1.0000 </r>
       <r>  -11.5797    1.0000 </r>
       <r>  -11.5485    1.0000 </r>
       <r>  -11.5372    1.0000 </r>
       <r>  -11.5149    1.0000 </r>
       <r>  -11.4820    1.0000 </r>
       <r>  -11.4721    1.0000 </r>
       <r>  -11.4348    1.0000 </r>
       <r>  -11.3934    1.0000 </r>
       <r>  -11.3360    1.0000 </r>
       <r>  -11.3068    1.0000 </r>
       <r>  -11.2679    1.0000 </r>
       <r>  -11.2111    1.0000 </r>
       <r>  -11.1994    1.0000 </r>
       <r>  -11.1932    1.0000 </r>
       <r>  -11.1646    1.0000 </r>
       <r>  -11.1210    1.0000 </r>
       <r>  -10.9620    1.0000 </r>
       <r>  -10.9325    1.0000 </r>
       <r>  -10.8827    1.0000 </r>
       <r>  -10.8779    1.0000 </r>
       <r>  -10.7639    1.0000 </r>
       <r>  -10.6457    1.0000 </r>
       <r>  -10.5273    1.0000 </r>
       <r>  -10.4543    1.0000 </r>
       <r>  -10.2841    1.0000 </r>
       <r>  -10.2006    1.0000 </r>
       <r>  -10.0853    1.0000 </r>
       <r>   -9.5415    1.0000 </r>
       <r>   -9.1905    1.0000 </r>
       <r>   -9.0027    1.0000 </r>
       <r>   -5.3091    1.0000 </r>
       <r>   -5.2641    1.0000 </r>
       <r>   -5.2551    1.0000 </r>
       <r>   -5.2177    1.0000 </r>
       <r>   -5.2015    1.0000 </r>
       <r>   -5.1860    1.0000 </r>
       <r>   -4.8548    1.0000 </r>
       <r>   -4.7981    1.0000 </r>
       <r>   -4.7098    1.0000 </r>
       <r>   -4.6293    1.0000 </r>
       <r>   -4.5202    1.0000 </r>
       <r>   -4.4850    1.0000 </r>
       <r>   -4.4662    1.0000 </r>
       <r>   -4.4340    1.0000 </r>
       <r>   -4.4251    1.0000 </r>
       <r>   -4.3839    1.0000 </r>
       <r>   -4.3513    1.0000 </r>
       <r>   -4.3207    1.0000 </r>
       <r>   -4.2976    1.0000 </r>
       <r>   -4.2622    1.0000 </r>
       <r>   -4.2364    1.0000 </r>
       <r>   -4.2027    1.0000 </r>
       <r>   -4.1907    1.0000 </r>
       <r>   -4.1733    1.0000 </r>
       <r>   -4.1294    1.0000 </r>
       <r>   -4.1128    1.0000 </r>
       <r>   -4.0818    1.0000 </r>
       <r>   -4.0638    1.0000 </r>
       <r>   -4.0197    1.0000 </r>
       <r>   -3.9562    1.0000 </r>
       <r>   -3.9401    1.0000 </r>
       <r>   -3.8690    1.0000 </r>
       <r>   -3.8592    1.0000 </r>
       <r>   -3.8122    1.0000 </r>
       <r>   -3.7728    1.0000 </r>
       <r>   -3.7647    1.0000 </r>
       <r>   -3.7573    1.0000 </r>
       <r>   -3.7104    1.0000 </r>
       <r>   -3.6772    1.0000 </r>
       <r>   -3.6503    1.0000 </r>
       <r>   -3.5803    1.0000 </r>
       <r>   -3.5007    1.0000 </r>
       <r>   -3.4798    1.0000 </r>
       <r>   -3.4354    1.0000 </r>
       <r>   -3.3675    1.0000 </r>
       <r>   -3.2994    1.0000 </r>
       <r>   -3.2733    1.0000 </r>
       <r>   -3.2516    1.0000 </r>
       <r>   -3.2405    1.0000 </r>
       <r>   -3.2229    1.0000 </r>
       <r>   -3.1859    1.0000 </r>
       <r>   -3.1518    1.0000 </r>
       <r>   -3.1207    1.0000 </r>
       <r>   -3.0820    1.0000 </r>
       <r>   -3.0700    1.0000 </r>
       <r>   -3.0492    1.0000 </r>
       <r>   -3.0222    1.0000 </r>
       <r>   -2.9394    1.0000 </r>
       <r>   -2.9180    1.0000 </r>
       <r>   -2.9094    1.0000 </r>
       <r>   -2.8788    1.0000 </r>
       <r>   -2.8606    1.0000 </r>
       <r>   -2.8342    1.0000 </r>
       <r>   -2.8032    1.0000 </r>
       <r>   -2.7779    1.0000 </r>
       <r>   -2.7448    1.0000 </r>
       <r>   -2.7433    1.0000 </r>
       <r>   -2.7320    1.0000 </r>
       <r>   -2.7186    1.0000 </r>
       <r>   -2.6953    1.0000 </r>
       <r>   -2.6771    1.0000 </r>
       <r>   -2.6504    1.0000 </r>
       <r>   -2.6305    1.0000 </r>
       <r>   -2.6218    1.0000 </r>
       <r>   -2.5740    1.0000 </r>
       <r>   -2.5645    1.0000 </r>
       <r>   -2.5474    1.0000 </r>
       <r>   -2.5156    1.0000 </r>
       <r>   -2.4894    1.0000 </r>
       <r>   -2.4640    1.0000 </r>
       <r>   -2.4400    1.0000 </r>
       <r>   -2.4193    1.0000 </r>
       <r>   -2.3879    1.0000 </r>
       <r>   -2.3674    1.0000 </r>
       <r>   -2.3376    1.0000 </r>
       <r>   -2.3284    1.0000 </r>
       <r>   -2.3237    1.0000 </r>
       <r>   -2.2914    1.0000 </r>
       <r>   -2.2657    1.0000 </r>
       <r>   -2.2432    1.0000 </r>
       <r>   -2.2267    1.0000 </r>
       <r>   -2.2114    1.0000 </r>
       <r>   -2.1981    1.0000 </r>
       <r>   -2.1730    1.0000 </r>
       <r>   -2.1417    1.0000 </r>
       <r>   -2.1372    1.0000 </r>
       <r>   -2.1141    1.0000 </r>
       <r>   -2.0943    1.0000 </r>
       <r>   -2.0880    1.0000 </r>
       <r>   -2.0729    1.0000 </r>
       <r>   -2.0537    1.0000 </r>
       <r>   -2.0359    1.0000 </r>
       <r>   -2.0036    1.0000 </r>
       <r>   -2.0019    1.0000 </r>
       <r>   -1.9615    1.0000 </r>
       <r>   -1.9447    1.0000 </r>
       <r>   -1.9323    1.0000 </r>
       <r>   -1.9252    1.0000 </r>
       <r>   -1.9022    1.0000 </r>
       <r>   -1.8891    1.0000 </r>
       <r>   -1.8641    1.0000 </r>
       <r>   -1.8448    1.0000 </r>
       <r>   -1.8360    1.0000 </r>
       <r>   -1.8239    1.0000 </r>
       <r>   -1.8056    1.0000 </r>
       <r>   -1.7932    1.0000 </r>
       <r>   -1.7581    1.0000 </r>
       <r>   -1.7191    1.0000 </r>
       <r>   -1.7139    1.0000 </r>
       <r>   -1.7065    1.0000 </r>
       <r>   -1.6591    1.0000 </r>
       <r>   -1.6359    1.0000 </r>
       <r>   -1.6088    1.0000 </r>
[...]
       <r>   -55.1162     0.0000   312.0000 </r>
       <r>   -54.8588     0.0000   312.0000 </r>
       <r>   -54.6014     0.0000   312.0000 </r>
       <r>   -54.3440     0.0000   312.0000 </r>
       <r>   -54.0866     0.0000   312.0000 </r>
       <r>   -53.8292     0.0000   312.0000 </r>
       <r>   -53.5718     0.0000   312.0000 </r>
       <r>   -53.3144     0.0000   312.0000 </r>
       <r>   -53.0570     0.0000   312.0000 </r>
       <r>   -52.7996     0.0000   312.0000 </r>
       <r>   -52.5422     0.0000   312.0000 </r>
       <r>   -52.2848     0.0000   312.0000 </r>
       <r>   -52.0274     0.0000   312.0000 </r>
       <r>   -51.7700     0.0000   312.0000 </r>
       <r>   -51.5126     0.0000   312.0000 </r>
       <r>   -51.2552     0.0000   312.0000 </r>
       <r>   -50.9978     0.0000   312.0000 </r>
       <r>   -50.7404     0.0000   312.0000 </r>
       <r>   -50.4829     0.0000   312.0000 </r>
       <r>   -50.2255     0.0000   312.0000 </r>
       <r>   -49.9681     0.0000   312.0000 </r>
       <r>   -49.7107     0.0000   312.0000 </r>
       <r>   -49.4533     0.0000   312.0000 </r>
       <r>   -49.1959     0.0000   312.0000 </r>
       <r>   -48.9385     0.0000   312.0000 </r>
       <r>   -48.6811     0.0000   312.0000 </r>
       <r>   -48.4237     0.0000   312.0000 </r>
       <r>   -48.1663     0.0000   312.0000 </r>
       <r>   -47.9089     0.0000   312.0000 </r>
       <r>   -47.6515     0.0000   312.0000 </r>
       <r>   -47.3941     0.0000   312.0000 </r>
       <r>   -47.1367     0.0000   312.0000 </r>
       <r>   -46.8793     0.0000   312.0000 </r>
       <r>   -46.6219     0.0000   312.0000 </r>
       <r>   -46.3645     0.0000   312.0000 </r>
       <r>   -46.1071     0.0000   312.0000 </r>
       <r>   -45.8497     0.0000   312.0000 </r>
       <r>   -45.5923     0.0000   312.0000 </r>
       <r>   -45.3349     0.0000   312.0000 </r>
       <r>   -45.0775     0.0000   312.0000 </r>
       <r>   -44.8201     0.0000   312.0000 </r>
       <r>   -44.5627     0.0000   312.0000 </r>
       <r>   -44.3053     0.0000   312.0000 </r>
       <r>   -44.0479     0.0000   312.0000 </r>
       <r>   -43.7905     0.0000   312.0000 </r>
       <r>   -43.5330     0.0000   312.0000 </r>
       <r>   -43.2756     0.0000   312.0000 </r>
       <r>   -43.0182     0.0000   312.0000 </r>
       <r>   -42.7608     0.0000   312.0000 </r>
       <r>   -42.5034     0.0000   312.0000 </r>
       <r>   -42.2460     0.0000   312.0000 </r>
       <r>   -41.9886     0.0000   312.0000 </r>
       <r>   -41.7312     0.0000   312.0000 </r>
       <r>   -41.4738     0.0000   312.0000 </r>
       <r>   -41.2164     0.0000   312.0000 </r>
       <r>   -40.9590     0.0000   312.0000 </r>
       <r>   -40.7016     0.0000   312.0000 </r>
       <r>   -40.4442     0.0000   312.0000 </r>
       <r>   -40.1868     0.0000   312.0000 </r>
       <r>   -39.9294     0.0000   312.0000 </r>
       <r>   -39.6720     0.0000   312.0000 </r>
       <r>   -39.4146     0.0000   312.0000 </r>
       <r>   -39.1572     0.0000   312.0000 </r>
       <r>   -38.8998     0.0000   312.0000 </r>
       <r>   -38.6424     0.0000   312.0000 </r>
       <r>   -38.3850     0.0000   312.0000 </r>
       <r>   -38.1276     0.0000   312.0000 </r>
       <r>   -37.8702     0.0000   312.0000 </r>
       <r>   -37.6128     0.0000   312.0000 </r>
       <r>   -37.3554     0.0000   312.0000 </r>
       <r>   -37.0980     0.0000   312.0000 </r>
       <r>   -36.8406     0.0000   312.0000 </r>
       <r>   -36.5832     0.0000   312.0000 </r>
       <r>   -36.3257     0.0000   312.0000 </r>
       <r>   -36.0683     0.0000   312.0000 </r>
       <r>   -35.8109     0.0000   312.0000 </r>
       <r>   -35.5535     0.0000   312.0000 </r>
       <r>   -35.2961     0.0000   312.0000 </r>
       <r>   -35.0387     0.0000   312.0000 </r>
       <r>   -34.7813     0.0000   312.0000 </r>
       <r>   -34.5239     0.0000   312.0000 </r>
       <r>   -34.2665     0.0000   312.0000 </r>
       <r>   -34.0091     0.0000   312.0000 </r>
       <r>   -33.7517     0.0000   312.0000 </r>
       <r>   -33.4943     0.0000   312.0000 </r>
       <r>   -33.2369     0.0000   312.0000 </r>
       <r>   -32.9795     0.0000   312.0000 </r>
       <r>   -32.7221     0.0000   312.0000 </r>
       <r>   -32.4647     0.0000   312.0000 </r>
       <r>   -32.2073     0.0000   312.0000 </r>
       <r>   -31.9499     0.0000   312.0000 </r>
       <r>   -31.6925     0.0000   312.0000 </r>
       <r>   -31.4351     0.0000   312.0000 </r>
       <r>   -31.1777     0.0000   312.0000 </r>
       <r>   -30.9203     0.0000   312.0000 </r>
       <r>   -30.6629     0.0000   312.0000 </r>
       <r>   -30.4055     0.0000   312.0000 </r>
       <r>   -30.1481     0.0000   312.0000 </r>
       <r>   -29.8907     0.0000   312.0000 </r>
       <r>   -29.6333     0.0000   312.0000 </r>
       <r>   -29.3758     0.0000   312.0000 </r>
       <r>   -29.1184     0.0000   312.0000 </r>
       <r>   -28.8610     0.0000   312.0000 </r>
       <r>   -28.6036     0.0000   312.0000 </r>
       <r>   -28.3462     0.0000   312.0000 </r>
       <r>   -28.0888     0.0000   312.0000 </r>
       <r>   -27.8314     0.0000   312.0000 </r>
       <r>   -27.5740     0.0000   312.0000 </r>
       <r>   -27.3166     0.0000   312.0000 </r>
       <r>   -27.0592     0.0000   312.0000 </r>
       <r>   -26.8018     0.0000   312.0000 </r>
       <r>   -26.5444     0.0000   312.0000 </r>
       <r>   -26.2870     0.0000   312.0000 </r>
       <r>   -26.0296     0.0000   312.0000 </r>
       <r>   -25.7722     0.0000   312.0000 </r>
       <r>   -25.5148     0.0000   312.0000 </r>
       <r>   -25.2574     0.0000   312.0000 </r>
       <r>   -25.0000     0.0000   312.0000 </r>
       <r>   -24.7426     0.0000   312.0000 </r>
       <r>   -24.4852     0.0000   312.0000 </r>
       <r>   -24.2278     0.0000   312.0000 </r>
       <r>   -23.9704     0.0000   312.0000 </r>
       <r>   -23.7130     0.0000   312.0000 </r>
       <r>   -23.4556     0.0000   312.0000 </r>
       <r>   -23.1982     0.0000   312.0000 </r>
       <r>   -22.9408     0.0000   312.0000 </r>
       <r>   -22.6834     0.0000   312.0000 </r>
       <r>   -22.4260     0.0000   312.0000 </r>
       <r>   -22.1685     0.0000   312.0000 </r>
       <r>   -21.9111     0.0000   312.0000 </r>
       <r>   -21.6537     0.0000   312.0000 </r>
       <r>   -21.3963     0.0000   312.0000 </r>
       <r>   -21.1389     0.0000   312.0000 </r>
       <r>   -20.8815     0.0000   312.0000 </r>
       <r>   -20.6241     0.0000   312.0000 </r>
       <r>   -20.3667     0.0000   312.0000 </r>
       <r>   -20.1093     0.0000   312.0000 </r>
       <r>   -19.8519     0.0000   312.0000 </r>
       <r>   -19.5945     0.0000   312.0000 </r>
       <r>   -19.3371     0.0000   312.0000 </r>
       <r>   -19.0797     0.0000   312.0000 </r>
       <r>   -18.8223     0.0000   312.0000 </r>
       <r>   -18.5649     0.0000   312.0000 </r>
       <r>   -18.3075     0.0000   312.0000 </r>
       <r>   -18.0501     0.0000   312.0000 </r>
       <r>   -17.7927     0.0000   312.0000 </r>
       <r>   -17.5353     0.0000   312.0000 </r>
       <r>   -17.2779     0.0000   312.0000 </r>
       <r>   -17.0205     0.0000   312.0000 </r>
       <r>   -16.7631     0.0000   312.0000 </r>
       <r>   -16.5057     0.0000   312.0000 </r>
       <r>   -16.2483     0.0000   312.0000 </r>
       <r>   -15.9909     0.0000   312.0000 </r>
       <r>   -15.7335     0.0000   312.0000 </r>
       <r>   -15.4761     0.0000   312.0000 </r>
       <r>   -15.2186     0.0000   312.0000 </r>
       <r>   -14.9612     0.0000   312.0000 </r>
       <r>   -14.7038     0.0000   312.0000 </r>
       <r>   -14.4464     0.0000   312.0000 </r>
       <r>   -14.1890     0.0000   312.0000 </r>
       <r>   -13.9316     0.0052   312.0013 </r>
       <r>   -13.6742     0.6367   312.1652 </r>
       <r>   -13.4168     4.5476   313.3358 </r>
       <r>   -13.1594     3.1353   314.1428 </r>
       <r>   -12.9020     7.4152   316.0515 </r>
       <r>   -12.6446    20.4666   321.3197 </r>
       <r>   -12.3872    26.6312   328.1747 </r>
       <r>   -12.1298    31.4731   336.2759 </r>
       <r>   -11.8724    34.7764   345.2275 </r>
       <r>   -11.6150    48.4972   357.7109 </r>
       <r>   -11.3576    56.4104   372.2311 </r>
       <r>   -11.1002    50.8129   385.3105 </r>
       <r>   -10.8428    34.3591   394.1547 </r>
       <r>   -10.5854    23.1057   400.1022 </r>
       <r>   -10.3280    17.6784   404.6527 </r>
       <r>   -10.0706    15.2815   408.5862 </r>
       <r>    -9.8132     5.4669   409.9934 </r>
       <r>    -9.5558     3.6357   410.9292 </r>
       <r>    -9.2984     5.7010   412.3967 </r>
       <r>    -9.0410     8.1557   414.4960 </r>
       <r>    -8.7836     5.3563   415.8747 </r>
       <r>    -8.5262     0.4838   415.9992 </r>
       <r>    -8.2687     0.0029   416.0000 </r>
       <r>    -8.0113     0.0000   416.0000 </r>
       <r>    -7.7539     0.0000   416.0000 </r>
       <r>    -7.4965     0.0000   416.0000 </r>
       <r>    -7.2391     0.0000   416.0000 </r>
       <r>    -6.9817     0.0000   416.0000 </r>
       <r>    -6.7243     0.0000   416.0000 </r>
       <r>    -6.4669     0.0000   416.0000 </r>
       <r>    -6.2095     0.0000   416.0000 </r>
       <r>    -5.9521     0.0000   416.0000 </r>
       <r>    -5.6947     0.0472   416.0122 </r>
       <r>    -5.4373     4.1266   417.0744 </r>
       <r>    -5.1799    26.4713   423.8882 </r>
       <r>    -4.9225    19.8679   429.0022 </r>
       <r>    -4.6651    21.3099   434.4875 </r>
       <r>    -4.4077    44.5630   445.9582 </r>
       <r>    -4.1503    67.6560   463.3731 </r>
       <r>    -3.8929    61.7308   479.2628 </r>
       <r>    -3.6355    56.1501   493.7160 </r>
       <r>    -3.3781    46.0895   505.5796 </r>
       <r>    -3.1207    60.1163   521.0538 </r>
       <r>    -2.8633    71.8530   539.5490 </r>
       <r>    -2.6059    89.4203   562.5661 </r>
       <r>    -2.3485    90.7290   585.9201 </r>
       <r>    -2.0911   102.2717   612.2452 </r>
       <r>    -1.8337   107.7539   639.9814 </r>
       <r>    -1.5763    85.2787   661.9325 </r>
       <r>    -1.3189    65.8776   678.8896 </r>
       <r>    -1.0614    59.5282   694.2124 </r>
       <r>    -0.8040    73.1754   713.0480 </r>
       <r>    -0.5466    86.7594   735.3802 </r>
       <r>    -0.2892   123.9493   767.2852 </r>
       <r>    -0.0318   158.7845   808.1569 </r>
       <r>     0.2256   197.5015   858.9945 </r>
       <r>     0.4830   258.9695   925.6542 </r>
       <r>     0.7404   219.1460   982.0632 </r>
       <r>     0.9978   162.0631  1023.7788 </r>
       <r>     1.2552   146.8758  1061.5852 </r>
       <r>     1.5126   136.1735  1096.6368 </r>
       <r>     1.7700   121.2206  1127.8394 </r>
       <r>     2.0274    95.0190  1152.2976 </r>
       <r>     2.2848    63.0251  1168.5205 </r>
       <r>     2.5422    78.3892  1188.6982 </r>
       <r>     2.7996    93.5183  1212.7701 </r>
       <r>     3.0570    89.8432  1235.8961 </r>
       <r>     3.3144    55.3201  1250.1357 </r>
       <r>     3.5718    19.2355  1255.0870 </r>
       <r>     3.8292     9.9213  1257.6407 </r>
       <r>     4.0866     5.2276  1258.9863 </r>
       <r>     4.3440    14.7592  1262.7854 </r>
       <r>     4.6014     4.6797  1263.9900 </r>
       <r>     4.8588     2.1622  1264.5466 </r>
       <r>     5.1162     7.3926  1266.4494 </r>
       <r>     5.3736    18.2394  1271.1443 </r>
       <r>     5.6310    27.0180  1278.0989 </r>
       <r>     5.8885    20.8349  1283.4618 </r>
       <r>     6.1459    25.5924  1290.0494 </r>
       <r>     6.4033    32.9141  1298.5216 </r>
       <r>     6.6607    23.2449  1304.5049 </r>
       <r>     6.9181    31.0154  1312.4884 </r>
       <r>     7.1755    45.9699  1324.3212 </r>
       <r>     7.4329    54.5198  1338.3548 </r>
       <r>     7.6903    64.5314  1354.9654 </r>
       <r>     7.9477    55.3717  1369.2183 </r>
       <r>     8.2051    24.1491  1375.4344 </r>
       <r>     8.4625     2.1795  1375.9954 </r>
       <r>     8.7199     0.0179  1376.0000 </r>
       <r>     8.9773     0.0000  1376.0000 </r>
       <r>     9.2347     0.0000  1376.0000 </r>
       <r>     9.4921     0.0000  1376.0000 </r>
       <r>     9.7495     0.0000  1376.0000 </r>
       <r>    10.0069     0.0000  1376.0000 </r>
       <r>    10.2643     0.0000  1376.0000 </r>
       <r>    10.5217     0.0000  1376.0000 </r>
       <r>    10.7791     0.0000  1376.0000 </r>
       <r>    11.0365     0.0000  1376.0000 </r>
       <r>    11.2939     0.0000  1376.0000 </r>
       <r>    11.5513     0.0000  1376.0000 </r>
      </set>
     </set>
    </array>
   </total>
  </dos>
 </calculation>
 <structure name="finalpos" >
  <crystal>
   <varray name="basis" >
    <v>      10.06282034       5.04456212       0.00000000 </v>
    <v>       0.00000000      11.25646304       0.00000000 </v>
    <v>       0.00000000       0.00000000      22.88364939 </v>
   </varray>
   <i name="volume">   2592.07135999 </i>
   <varray name="rec_basis" >
    <v>       0.09937572       0.00000000       0.00000000 </v>
    <v>      -0.04453504       0.08883785       0.00000000 </v>
    <v>       0.00000000       0.00000000       0.04369932 </v>
   </varray>
  </crystal>
  <varray name="positions" >
   <v>       0.26092070       0.47878036       0.29050611 </v>
   <v>       0.35488056       0.38482049       0.41880986 </v>
   <v>       0.44884043       0.29086063       0.54711361 </v>
   <v>       0.16696083       0.07274024       0.16220237 </v>
   <v>       0.05611868       0.05147940       0.51321499 </v>
   <v>       0.18027920       0.42731886       0.00000000 </v>
   <v>       0.27423907       0.33335899       0.12830375 </v>
   <v>       0.36819893       0.23939913       0.25660749 </v>
   <v>       0.46215880       0.14543926       0.38491124 </v>
   <v>       0.00030194       0.37150212       0.25660749 </v>
   <v>       0.09426181       0.27754226       0.38491124 </v>
   <v>       0.18822168       0.18358239       0.51321499 </v>
   <v>       0.40634206       0.46546199       0.12830375 </v>
   <v>       0.31238219       0.05942187       0.00000000 </v>
   <v>       0.76092070       0.47878036       0.29050611 </v>
   <v>       0.85488056       0.38482049       0.41880986 </v>
   <v>       0.57300096       0.16670011       0.03389862 </v>
   <v>       0.66696083       0.07274024       0.16220237 </v>
   <v>       0.55611868       0.05147940       0.51321499 </v>
   <v>       0.68027920       0.42731886       0.00000000 </v>
   <v>       0.77423907       0.33335899       0.12830375 </v>
   <v>       0.86819893       0.23939913       0.25660749 </v>
   <v>       0.96215880       0.14543926       0.38491124 </v>
   <v>       0.50030194       0.37150212       0.25660749 </v>
   <v>       0.59426181       0.27754226       0.38491124 </v>
   <v>       0.68822168       0.18358239       0.51321499 </v>
   <v>       0.90634206       0.46546199       0.12830375 </v>
   <v>       0.81238219       0.05942187       0.00000000 </v>
   <v>       0.26092070       0.97878036       0.29050611 </v>
   <v>       0.35488056       0.88482049       0.41880986 </v>
   <v>       0.16696083       0.57274024       0.16220237 </v>
   <v>       0.18027920       0.92731886       0.00000000 </v>
   <v>       0.27423907       0.83335899       0.12830375 </v>
   <v>       0.36819893       0.73939913       0.25660749 </v>
   <v>       0.46215880       0.64543926       0.38491124 </v>
   <v>       0.00030194       0.87150212       0.25660749 </v>
   <v>       0.09426181       0.77754226       0.38491124 </v>
   <v>       0.40634206       0.96546199       0.12830375 </v>
   <v>       0.31238219       0.55942187       0.00000000 </v>
   <v>       0.76092070       0.97878036       0.29050611 </v>
   <v>       0.85488056       0.88482049       0.41880986 </v>
   <v>       0.94884043       0.79086063       0.54711361 </v>
   <v>       0.66696083       0.57274024       0.16220237 </v>
   <v>       0.55611868       0.55147940       0.51321499 </v>
   <v>       0.68027920       0.92731886       0.00000000 </v>
   <v>       0.77423907       0.83335899       0.12830375 </v>
   <v>       0.86819893       0.73939913       0.25660749 </v>
   <v>       0.96215880       0.64543926       0.38491124 </v>
   <v>       0.50030194       0.87150212       0.25660749 </v>
   <v>       0.59426181       0.77754226       0.38491124 </v>
   <v>       0.90634206       0.96546199       0.12830375 </v>
   <v>       0.81238219       0.55942187       0.00000000 </v>
   <v>       0.07287763       0.16682343       0.30639927 </v>
   <v>       0.16683750       0.07286357       0.43470302 </v>
   <v>       0.38495789       0.35474317       0.04979178 </v>
   <v>       0.47891775       0.26078330       0.17809552 </v>
   <v>       0.26079737       0.47890369       0.56300676 </v>
   <v>       0.03023342       0.37768264       0.47786825 </v>
   <v>       0.43627354       0.47164251       0.34956450 </v>
   <v>       0.24835381       0.15956225       0.09295701 </v>
   <v>       0.34231368       0.06560239       0.22126075 </v>
   <v>       0.08013882       0.49134725       0.09295701 </v>
   <v>       0.17409868       0.39738738       0.22126075 </v>
   <v>       0.26805855       0.30342751       0.34956450 </v>
   <v>       0.36201842       0.20946764       0.47786825 </v>
   <v>       0.57287763       0.16682343       0.30639927 </v>
   <v>       0.66683750       0.07286357       0.43470302 </v>
   <v>       0.88495789       0.35474317       0.04979178 </v>
   <v>       0.97891775       0.26078330       0.17809552 </v>
   <v>       0.76079737       0.47890369       0.56300676 </v>
   <v>       0.53023342       0.37768264       0.47786825 </v>
   <v>       0.93627354       0.47164251       0.34956450 </v>
   <v>       0.74835381       0.15956225       0.09295701 </v>
   <v>       0.84231368       0.06560239       0.22126075 </v>
   <v>       0.58013882       0.49134725       0.09295701 </v>
   <v>       0.67409868       0.39738738       0.22126075 </v>
   <v>       0.76805855       0.30342751       0.34956450 </v>
   <v>       0.86201842       0.20946764       0.47786825 </v>
   <v>       0.07287763       0.66682343       0.30639927 </v>
   <v>       0.16683750       0.57286357       0.43470302 </v>
   <v>       0.38495789       0.85474317       0.04979178 </v>
   <v>       0.47891775       0.76078330       0.17809552 </v>
   <v>       0.26079737       0.97890369       0.56300676 </v>
   <v>       0.03023342       0.87768264       0.47786825 </v>
   <v>       0.43627354       0.97164251       0.34956450 </v>
   <v>       0.24835381       0.65956225       0.09295701 </v>
   <v>       0.34231368       0.56560239       0.22126075 </v>
   <v>       0.08013882       0.99134725       0.09295701 </v>
   <v>       0.17409868       0.89738738       0.22126075 </v>
   <v>       0.26805855       0.80342751       0.34956450 </v>
   <v>       0.36201842       0.70946764       0.47786825 </v>
   <v>       0.57287763       0.66682343       0.30639927 </v>
   <v>       0.66683750       0.57286357       0.43470302 </v>
   <v>       0.88495789       0.85474317       0.04979178 </v>
   <v>       0.97891775       0.76078330       0.17809552 </v>
   <v>       0.76079737       0.97890369       0.56300676 </v>
   <v>       0.53023342       0.87768264       0.47786825 </v>
   <v>       0.93627354       0.97164251       0.34956450 </v>
   <v>       0.74835381       0.65956225       0.09295701 </v>
   <v>       0.84231368       0.56560239       0.22126075 </v>
   <v>       0.58013882       0.99134725       0.09295701 </v>
   <v>       0.67409868       0.89738738       0.22126075 </v>
   <v>       0.76805855       0.80342751       0.34956450 </v>
   <v>       0.86201842       0.70946764       0.47786825 </v>
  </varray>
 </structure>
</modeling>
