
76 atoms
2 atom types
   0.0000000000    9.5784100000 xlo xhi
   0.0000000000   10.4033537511 ylo yhi
   0.0000000000   20.2163973509 zlo zhi
  -4.7892049999    0.0000000000    0.0000000000 xy xz yz

Atoms # atomic

     1      1    4.0556245202    4.4635129025    1.0383103066
     2      1    4.0556245203    6.3581094339    3.5414249538
     3      1    4.0556245155    8.2527059550    6.0445396009
     4      1    4.0556245203   10.1473024761    8.5476542481
     5      1    4.0556245202    0.6856046070    5.2101680654
     6      1    4.0556245250    2.5802011281    7.7132827125
     7      1    4.0556245155    4.4747976595   10.2163973597
     8      1   -0.7335804797    7.2997653159    0.2039387710
     9      1   -0.7335804749    9.1943618370    2.7070534182
    10      1   -0.7335804750    1.6272604994    1.8726818624
    11      1   -0.7335804798    3.5218570205    4.3757965096
    12      1   -0.7335804750    5.4164535415    6.8789111567
    13      1   -0.7335804797    7.3110500626    9.3820258039
    14      1    5.3209612213    2.7160119593    2.3609861363
    15      1    5.3209612117    4.6106084908    4.8641007835
    16      1    5.3209612165    6.5052050118    7.3672154307
    17      1    5.3209612117    8.3998015329    9.8703300778
    18      1    5.3209612165    0.8327001849    9.0359585220
    19      1    0.5317562213    5.5522643728    1.5266145805
    20      1    0.5317562165    7.4468608938    4.0297292277
    21      1    0.5317562213    9.3414574149    6.5328438749
    22      1    0.5317562212    1.7743560773    5.6984723191
    23      1    0.5317562165    3.6689525984    8.2015869662
    24      1   -4.2574487835   10.2831133073    3.1953576719
    25      1    5.3209612117    8.3885167862    0.6922430247
    26      1   -2.9921120921    8.2527059550    6.0445396009
    27      1   -2.9921120873   10.1473024761    8.5476542481
    28      1    6.5862979127    4.4635129025    1.0383103066
    29      1    6.5862979127    6.3581094339    3.5414249538
    30      1    6.5862979127    0.6856046070    5.2101680654
    31      1    6.5862979175    2.5802011281    7.7132827125
    32      1    6.5862979079    4.4747976595   10.2163973597
    33      1    1.7970929127    7.2997653159    0.2039387710
    34      1    1.7970929175    9.1943618370    2.7070534182
    35      1    1.7970929175    1.6272604994    1.8726818624
    36      1    1.7970929127    3.5218570205    4.3757965096
    37      1    1.7970929175    5.4164535415    6.8789111567
    38      1    1.7970929127    7.3110500626    9.3820258039
    39      2   -2.6462165454    6.0272031990    5.8561034710
    40      2   -2.6462165406    7.9217997201    8.3592181181
    41      2    6.9321934546    2.2380101568    0.8498741766
    42      2    6.9321934594    4.1326066779    3.3529888238
    43      2    6.9321934594    0.3546983825    7.5248465623
    44      2    6.9321934546    2.2492949035   10.0279612095
    45      2    2.1429884546    5.0742625703    0.0155026208
    46      2    2.1429884498    6.9688590914    2.5186172680
    47      2    2.1429884547    8.8634556124    5.0217319152
    48      2    2.1429884594    1.2963542645    4.1873603594
    49      2    2.1429884498    3.1909507959    6.6904750066
    50      2    2.1429884546    5.0855473170    9.1935896537
    51      2    0.5317562165    1.6382445788    9.1780870329
    52      2   -4.2574487787   10.1470018087    6.6749723857
    53      2    5.3209612213    6.3578087666    1.6687430914
    54      2    5.3209612165    8.2524052877    4.1718577385
    55      2    5.3209612164    0.6853039501    3.3374862030
    56      2    5.3209612117    2.5799004711    5.8406008501
    57      2    5.3209612165    4.4744969922    8.3437154973
    58      2    0.5317562117    9.1940611801    0.8343715558
    59      2    0.5317562165    1.6269598321    0.0000000000
    60      2    0.5317562213    3.5215563531    2.5031146472
    61      2    0.5317562165    5.4161528742    5.0062292943
    62      2    0.5317562165    7.3107494057    7.5093439415
    63      2    0.5317562117    9.2053459267   10.0124585887
    64      2    3.7097289783    2.2380101568    0.8498741766
    65      2    3.7097289831    4.1326066779    3.3529888238
    66      2    3.7097289783    6.0272031990    5.8561034710
    67      2    3.7097289831    7.9217997201    8.3592181181
    68      2    3.7097289831    0.3546983825    7.5248465623
    69      2    3.7097289783    2.2492949035   10.0279612095
    70      2   -1.0794760217    5.0742625703    0.0155026208
    71      2   -1.0794760265    6.9688590914    2.5186172680
    72      2   -1.0794760217    8.8634556124    5.0217319152
    73      2   -1.0794760265    3.1909507959    6.6904750066
    74      2   -1.0794760217    5.0855473170    9.1935896537
    75      2    8.4989339831    1.2963542645    4.1873603594
    76      2    3.7097289784    9.8051114944    1.6842457122
