LAMMPS data file via write_data, version 5 Jun 2019, timestep = 52

72 atoms
2 atom types

0.0000000000000000e+00 1.6884694054200001e+01 xlo xhi
0.0000000000000000e+00 9.5784099999999999e+00 ylo yhi
0.0000000000000000e+00 1.6169087119699999e+01 zlo zhi
0.0000000000000000e+00 0.0000000000000000e+00 0.0000000000000000e+00 xy xz yz

Masses

1 58.71
2 32.06

Atoms # atomic

1 1 1.3170843241800000e+01 1.3917137972000000e+00 1.9497492409999999e+00 0 0 0
2 1 1.3509974619032667e+01 1.3938988929529184e+00 4.6340906461001481e+00 0 0 0
3 1 3.7455759881559141e+00 6.0988051153717304e+00 1.4597161481698311e+00 0 0 0
4 1 5.0203308952999999e+00 6.1809187972000021e+00 3.4920210102000002e+00 0 0 0
5 1 6.6378845984830415e+00 1.2632244989593062e+00 2.0095298775626280e+00 0 0 0
6 1 7.9317248034999999e+00 1.3917137972000000e+00 4.0061116054000001e+00 0 0 0
7 1 1.6082237150000001e+01 6.1809187972000021e+00 2.4638398361000018e+00 0 0 0
8 1 1.6241480680711458e+01 6.3022864806680028e+00 4.8815151939285055e+00 0 0 0
9 1 2.1089370039999999e+00 1.3917137972000000e+00 2.9779304312999999e+00 0 0 0
10 1 1.2111284031599459e+00 1.7695946791234560e+00 5.0902936611265819e+00 0 0 0
11 1 1.0843118711600001e+01 6.1809187972000021e+00 4.5202022005000000e+00 0 0 0
12 1 1.5504248068790348e+01 8.7436760808681733e+00 2.1273773047130482e+00 0 -1 0
13 1 1.5910746711286764e+01 1.6167758981358388e-01 4.4042920819963323e+00 0 0 0
14 1 6.1836420136715295e+00 6.1517009094359896e+00 1.0368420817579544e+00 0 0 0
15 1 7.1737451720000003e+00 4.9155821009000009e+00 3.0845435547000002e+00 0 0 0
16 1 7.9227209762389199e+00 4.4472455991097153e+00 5.3481067518110548e+00 0 0 0
17 1 9.5650032099972968e+00 1.2910144639207766e-01 1.0342834450079175e+00 0 0 0
18 1 1.0085139063300000e+01 1.2637710090000001e-01 3.5986341498000001e+00 0 0 0
19 1 1.3509573556000001e+00 4.9155821009000009e+00 2.0563623806000000e+00 0 0 0
20 1 1.9857222198702587e+00 4.8006205188758910e+00 4.4740443254183804e+00 0 0 0
21 1 4.2623512638000003e+00 1.2637710090000001e-01 2.5704529594999999e+00 0 0 0
22 1 4.6445353529856446e+00 9.4991400264173791e+00 4.9707315084138379e+00 0 -1 0
23 1 1.3063933597532193e+01 4.1089232241529841e+00 1.9061041732416355e+00 0 0 0
24 1 1.2996532971500001e+01 4.9155821009000009e+00 4.1127247450000004e+00 0 0 0
25 1 1.5373130109391063e+01 2.7608280405726697e+00 1.9013681038317192e+00 0 0 0
26 1 1.5903072930981857e+01 2.7072692730064825e+00 4.3690893135124975e+00 0 0 0
27 1 7.2500525651456877e+00 8.3267647039231392e+00 9.0354614537362721e-01 0 0 0
28 1 7.1737451720000003e+00 7.4462554934000007e+00 3.0845435547000002e+00 0 0 0
29 1 7.7171203724187531e+00 7.7726471471908347e+00 5.4346232204918961e+00 0 0 0
30 1 9.5268302309849684e+00 2.5533235568720043e+00 1.0558129006443995e+00 0 0 0
31 1 1.0085139063300000e+01 2.6570504934000008e+00 3.5986341498000001e+00 0 0 0
32 1 1.3509573556000001e+00 7.4462554934000007e+00 2.0563623806000000e+00 0 0 0
33 1 4.2623512638000003e+00 2.6570504934000008e+00 2.5704529594999999e+00 0 0 0
34 1 4.9717108454982579e+00 3.1096851543739095e+00 4.8679845736409275e+00 0 0 0
35 1 1.3014906362401316e+01 8.2391082483304867e+00 1.9063304607267397e+00 0 0 0
36 1 1.2996532971500001e+01 7.4462554934000007e+00 4.1127247450000004e+00 0 0 0
37 2 1.6281065729821222e+01 1.4555464248004721e+00 5.9520961888354771e+00 -1 0 0
38 2 1.6740519129900001e+01 1.3917137972000000e+00 2.9493983954999998e+00 0 0 0
39 2 8.1208778233114511e+00 6.4649243710275321e+00 1.5261000626289978e+00 0 0 0
40 2 8.5900067833999998e+00 6.1809187972000021e+00 4.4916701808999999e+00 0 0 0
41 2 1.0917731313499999e+01 1.3917137972000000e+00 1.9212172052000009e+00 0 0 0
42 2 1.1441730927520240e+01 1.3832204175823986e+00 4.6092954288299977e+00 0 0 0
43 2 1.9574127312737832e+00 6.1531639192863024e+00 5.1497899099423039e-01 0 0 0
44 2 2.7494104534307842e+00 6.2772398772231446e+00 3.2612522507996715e+00 0 0 0
45 2 4.8450428914143995e+00 1.3900366860165203e+00 1.0526353889101983e+00 0 0 0
46 2 5.6786128752000007e+00 1.3917137972000000e+00 3.9775795857000000e+00 0 0 0
47 2 1.3829125221700000e+01 6.1809187972000021e+00 2.4353078002999999e+00 0 0 0
48 2 1.4250296807695975e+01 6.1832119435548538e+00 5.2257684146240901e+00 0 0 0
49 2 1.3800978916151218e+01 2.7861678754594474e+00 5.7032659522712081e-01 0 0 0
50 2 1.3998442265900000e+01 3.0029460353000008e+00 3.4682648862000018e+00 0 0 0
51 2 5.2642605413999997e+00 7.7921510352999999e+00 1.9259931169000000e+00 0 0 0
52 2 5.7852417569816925e+00 7.7858880190378628e+00 4.7366061392982726e+00 0 0 0
53 2 8.1756544495999997e+00 3.0029460353000008e+00 2.4400837120999999e+00 0 0 0
54 2 8.9101994916251019e+00 2.6981319124311871e+00 5.2972219118215591e+00 0 0 0
55 2 1.6767422233078239e+01 7.8829732613252759e+00 3.6424406119053514e+00 -1 0 0
56 2 1.6500639202636769e+01 7.4663352254533741e+00 8.8199874175573900e-01 0 0 0
57 2 2.3793252020269393e+00 3.0984377264461069e+00 1.7742419648266650e+00 0 0 0
58 2 2.9365360111999999e+00 3.0029460353000008e+00 4.4964460765000034e+00 0 0 0
59 2 1.1232340874223192e+01 7.9009013157030878e+00 3.0679341281304624e+00 0 0 0
60 2 1.1724628387811595e+01 7.5556120322846647e+00 5.7000962403606552e+00 0 0 0
61 2 5.2642605413999997e+00 4.5696865590000000e+00 1.9259931169000000e+00 0 0 0
62 2 5.9805549107680553e+00 4.8786066103640522e+00 4.8520317312422927e+00 0 0 0
63 2 1.4103761499516851e+01 9.5193722604500266e+00 7.6970595049552959e-01 0 0 0
64 2 1.3998442265900000e+01 9.3588915589999999e+00 3.4682648862000018e+00 0 0 0
65 2 2.5142103000000002e-02 4.5696865590000000e+00 3.9823554812999999e+00 0 0 0
66 2 1.6350712827531229e+01 4.4764191698971336e+00 1.2600021100688565e+00 0 0 0
67 2 8.1756544495999997e+00 9.3588915589999999e+00 2.4400837120999999e+00 0 0 0
68 2 8.7905751011924860e+00 9.4738194933007343e+00 5.2079391525830507e+00 0 0 0
69 2 1.1253110495793894e+01 4.4453282537364602e+00 3.0552616322332384e+00 0 0 0
70 2 1.1727108737600648e+01 4.8101699318821458e+00 5.7013874120506003e+00 0 0 0
71 2 2.3822000289137613e+00 9.2507552246064879e+00 1.8288534152179536e+00 0 0 0
72 2 2.6642451227904833e+00 2.8837297661837069e-01 4.6599742276557281e+00 0 1 0

Velocities

1 0.0000000000000000e+00 0.0000000000000000e+00 0.0000000000000000e+00
2 0.0000000000000000e+00 0.0000000000000000e+00 0.0000000000000000e+00
3 0.0000000000000000e+00 0.0000000000000000e+00 0.0000000000000000e+00
4 0.0000000000000000e+00 0.0000000000000000e+00 0.0000000000000000e+00
5 0.0000000000000000e+00 0.0000000000000000e+00 0.0000000000000000e+00
6 0.0000000000000000e+00 0.0000000000000000e+00 0.0000000000000000e+00
7 0.0000000000000000e+00 0.0000000000000000e+00 0.0000000000000000e+00
8 0.0000000000000000e+00 0.0000000000000000e+00 0.0000000000000000e+00
9 0.0000000000000000e+00 0.0000000000000000e+00 0.0000000000000000e+00
10 0.0000000000000000e+00 0.0000000000000000e+00 0.0000000000000000e+00
11 0.0000000000000000e+00 0.0000000000000000e+00 0.0000000000000000e+00
12 0.0000000000000000e+00 0.0000000000000000e+00 0.0000000000000000e+00
13 0.0000000000000000e+00 0.0000000000000000e+00 0.0000000000000000e+00
14 0.0000000000000000e+00 0.0000000000000000e+00 0.0000000000000000e+00
15 0.0000000000000000e+00 0.0000000000000000e+00 0.0000000000000000e+00
16 0.0000000000000000e+00 0.0000000000000000e+00 0.0000000000000000e+00
17 0.0000000000000000e+00 0.0000000000000000e+00 0.0000000000000000e+00
18 0.0000000000000000e+00 0.0000000000000000e+00 0.0000000000000000e+00
19 0.0000000000000000e+00 0.0000000000000000e+00 0.0000000000000000e+00
20 0.0000000000000000e+00 0.0000000000000000e+00 0.0000000000000000e+00
21 0.0000000000000000e+00 0.0000000000000000e+00 0.0000000000000000e+00
22 0.0000000000000000e+00 0.0000000000000000e+00 0.0000000000000000e+00
23 0.0000000000000000e+00 0.0000000000000000e+00 0.0000000000000000e+00
24 0.0000000000000000e+00 0.0000000000000000e+00 0.0000000000000000e+00
25 0.0000000000000000e+00 0.0000000000000000e+00 0.0000000000000000e+00
26 0.0000000000000000e+00 0.0000000000000000e+00 0.0000000000000000e+00
27 0.0000000000000000e+00 0.0000000000000000e+00 0.0000000000000000e+00
28 0.0000000000000000e+00 0.0000000000000000e+00 0.0000000000000000e+00
29 0.0000000000000000e+00 0.0000000000000000e+00 0.0000000000000000e+00
30 0.0000000000000000e+00 0.0000000000000000e+00 0.0000000000000000e+00
31 0.0000000000000000e+00 0.0000000000000000e+00 0.0000000000000000e+00
32 0.0000000000000000e+00 0.0000000000000000e+00 0.0000000000000000e+00
33 0.0000000000000000e+00 0.0000000000000000e+00 0.0000000000000000e+00
34 0.0000000000000000e+00 0.0000000000000000e+00 0.0000000000000000e+00
35 0.0000000000000000e+00 0.0000000000000000e+00 0.0000000000000000e+00
36 0.0000000000000000e+00 0.0000000000000000e+00 0.0000000000000000e+00
37 0.0000000000000000e+00 0.0000000000000000e+00 0.0000000000000000e+00
38 0.0000000000000000e+00 0.0000000000000000e+00 0.0000000000000000e+00
39 0.0000000000000000e+00 0.0000000000000000e+00 0.0000000000000000e+00
40 0.0000000000000000e+00 0.0000000000000000e+00 0.0000000000000000e+00
41 0.0000000000000000e+00 0.0000000000000000e+00 0.0000000000000000e+00
42 0.0000000000000000e+00 0.0000000000000000e+00 0.0000000000000000e+00
43 0.0000000000000000e+00 0.0000000000000000e+00 0.0000000000000000e+00
44 0.0000000000000000e+00 0.0000000000000000e+00 0.0000000000000000e+00
45 0.0000000000000000e+00 0.0000000000000000e+00 0.0000000000000000e+00
46 0.0000000000000000e+00 0.0000000000000000e+00 0.0000000000000000e+00
47 0.0000000000000000e+00 0.0000000000000000e+00 0.0000000000000000e+00
48 0.0000000000000000e+00 0.0000000000000000e+00 0.0000000000000000e+00
49 0.0000000000000000e+00 0.0000000000000000e+00 0.0000000000000000e+00
50 0.0000000000000000e+00 0.0000000000000000e+00 0.0000000000000000e+00
51 0.0000000000000000e+00 0.0000000000000000e+00 0.0000000000000000e+00
52 0.0000000000000000e+00 0.0000000000000000e+00 0.0000000000000000e+00
53 0.0000000000000000e+00 0.0000000000000000e+00 0.0000000000000000e+00
54 0.0000000000000000e+00 0.0000000000000000e+00 0.0000000000000000e+00
55 0.0000000000000000e+00 0.0000000000000000e+00 0.0000000000000000e+00
56 0.0000000000000000e+00 0.0000000000000000e+00 0.0000000000000000e+00
57 0.0000000000000000e+00 0.0000000000000000e+00 0.0000000000000000e+00
58 0.0000000000000000e+00 0.0000000000000000e+00 0.0000000000000000e+00
59 0.0000000000000000e+00 0.0000000000000000e+00 0.0000000000000000e+00
60 0.0000000000000000e+00 0.0000000000000000e+00 0.0000000000000000e+00
61 0.0000000000000000e+00 0.0000000000000000e+00 0.0000000000000000e+00
62 0.0000000000000000e+00 0.0000000000000000e+00 0.0000000000000000e+00
63 0.0000000000000000e+00 0.0000000000000000e+00 0.0000000000000000e+00
64 0.0000000000000000e+00 0.0000000000000000e+00 0.0000000000000000e+00
65 0.0000000000000000e+00 0.0000000000000000e+00 0.0000000000000000e+00
66 0.0000000000000000e+00 0.0000000000000000e+00 0.0000000000000000e+00
67 0.0000000000000000e+00 0.0000000000000000e+00 0.0000000000000000e+00
68 0.0000000000000000e+00 0.0000000000000000e+00 0.0000000000000000e+00
69 0.0000000000000000e+00 0.0000000000000000e+00 0.0000000000000000e+00
70 0.0000000000000000e+00 0.0000000000000000e+00 0.0000000000000000e+00
71 0.0000000000000000e+00 0.0000000000000000e+00 0.0000000000000000e+00
72 0.0000000000000000e+00 0.0000000000000000e+00 0.0000000000000000e+00
