
76 atoms
2 atom types
   0.0000000000    9.5784100000 xlo xhi
   0.0000000000   10.4033537511 ylo yhi
   0.0000000000   20.2008947275 zlo zhi
  -4.7892049999    0.0000000000    0.0000000000 xy xz yz

Atoms # atomic

     1      1    4.0556245202    4.4635129025    1.0228076819
     2      1    4.0556245203    6.3581094339    3.5259223443
     3      1    4.0556245155    8.2527059550    6.0290369866
     4      1    4.0556245203   10.1473024761    8.5321516288
     5      1    4.0556245202    0.6856046070    5.1946654324
     6      1    4.0556245250    2.5802011281    7.6977800747
     7      1    4.0556245155    4.4747976595   10.2008947371
     8      1   -0.7335804797    7.2997653159    0.1884361479
     9      1   -0.7335804749    9.1943618370    2.6915507902
    10      1   -0.7335804750    1.6272604994    1.8571792360
    11      1   -0.7335804798    3.5218570205    4.3602938783
    12      1   -0.7335804750    5.4164535415    6.8634085407
    13      1   -0.7335804797    7.3110500626    9.3665231830
    14      1    5.3209612213    2.7160119593    2.3454835053
    15      1    5.3209612117    4.6106084908    4.8485981476
    16      1    5.3209612165    6.5052050118    7.3517127898
    17      1    5.3209612117    8.3998015329    9.8548274523
    18      1    5.3209612165    0.8327001849    9.0204558981
    19      1    0.5317562213    5.5522643728    1.5111119512
    20      1    0.5317562165    7.4468608938    4.0142265934
    21      1    0.5317562213    9.3414574149    6.5173412559
    22      1    0.5317562212    1.7743560773    5.6829697017
    23      1    0.5317562165    3.6689525984    8.1860843440
    24      1   -4.2574487835   10.2831133073    3.1798550595
    25      1    5.3209612117    8.3885167862    0.6767404172
    26      1   -2.9921120921    8.2527059550    6.0290369866
    27      1   -2.9921120873   10.1473024761    8.5321516288
    28      1    6.5862979127    4.4635129025    1.0228076819
    29      1    6.5862979127    6.3581094339    3.5259223443
    30      1    6.5862979127    0.6856046070    5.1946654324
    31      1    6.5862979175    2.5802011281    7.6977800747
    32      1    6.5862979079    4.4747976595   10.2008947371
    33      1    1.7970929127    7.2997653159    0.1884361479
    34      1    1.7970929175    9.1943618370    2.6915507902
    35      1    1.7970929175    1.6272604994    1.8571792360
    36      1    1.7970929127    3.5218570205    4.3602938783
    37      1    1.7970929175    5.4164535415    6.8634085407
    38      1    1.7970929127    7.3110500626    9.3665231830
    39      2   -2.6462165454    6.0272031990    5.8406008386
    40      2   -2.6462165406    7.9217997201    8.3437154809
    41      2    6.9321934546    2.2380101568    0.8343715541
    42      2    6.9321934594    4.1326066779    3.3374861964
    43      2    6.9321934594    0.3546983825    7.5093439469
    44      2    6.9321934546    2.2492949035   10.0124585892
    45      2    2.1429884546    5.0742625703    0.0000000000
    46      2    2.1429884498    6.9688590914    2.5031146422
    47      2    2.1429884547    8.8634556124    5.0062292845
    48      2    2.1429884594    1.2963542645    4.1718577505
    49      2    2.1429884498    3.1909507959    6.6749723928
    50      2    2.1429884546    5.0855473170    9.1780870350
    51      2   -2.6462165453    9.8051114944    1.6687430881
    52      2    0.5317562165    1.6382445788    9.1625844240
    53      2   -4.2574487787   10.1470018087    6.6594697616
    54      2    5.3209612213    6.3578087666    1.6532404771
    55      2    5.3209612165    8.2524052877    4.1563551193
    56      2    5.3209612164    0.6853039501    3.3219835652
    57      2    5.3209612117    2.5799004711    5.8250982276
    58      2    5.3209612165    4.4744969922    8.3282128699
    59      2    0.5317562117    9.1940611801    0.8188689229
    60      2    0.5317562213    3.5215563531    2.4876120312
    61      2    0.5317562165    5.4161528742    4.9907266735
    62      2    0.5317562165    7.3107494057    7.4938413157
    63      2    0.5317562117    9.2053459267    9.9969559580
    64      2    3.7097289783    2.2380101568    0.8343715541
    65      2    3.7097289831    4.1326066779    3.3374861964
    66      2    3.7097289783    6.0272031990    5.8406008386
    67      2    3.7097289831    7.9217997201    8.3437154809
    68      2    3.7097289831    0.3546983825    7.5093439469
    69      2    3.7097289783    2.2492949035   10.0124585892
    70      2   -1.0794760217    5.0742625703    0.0000000000
    71      2   -1.0794760265    6.9688590914    2.5031146422
    72      2   -1.0794760217    8.8634556124    5.0062292845
    73      2   -1.0794760265    3.1909507959    6.6749723928
    74      2   -1.0794760217    5.0855473170    9.1780870350
    75      2    8.4989339831    1.2963542645    4.1718577505
    76      2    3.7097289784    9.8051114944    1.6687430881
