"Millerite NiS"                         
           1
    11.256463    0.000000    0.000000
     5.044562   10.062820    0.000000
     0.000000    0.000000   21.744232
   Ty   Ty
  48  48
Direct configuration=     1
   0.26092070  0.47878036  0.25332799
   0.35488056  0.38482049  0.38835497
   0.37524000  0.36446047  0.49733937
   0.16696083  0.07274024  0.11830101
   0.04891258  0.05467276  0.47247674
   0.27423906  0.33335899  0.08262607
   0.36819893  0.23939913  0.21765305
   0.46215880  0.14543926  0.35268003
   0.00030194  0.37150212  0.21765305
   0.09426181  0.27754226  0.35268003
   0.18503198  0.19079214  0.47247268
   0.47967031  0.44420774  0.11307106
   0.76092070  0.47878036  0.25332799
   0.85488056  0.38482049  0.38835497
   0.87523426  0.36446674  0.49733617
   0.65470138  0.07507645  0.14576953
   0.54891421  0.05467031  0.47248583
   0.78449398  0.33172511  0.09951197
   0.86819893  0.23939913  0.21765305
   0.96215880  0.14543926  0.35268003
   0.50030194  0.37150212  0.21765305
   0.59426181  0.27754226  0.35268003
   0.68503100  0.19078669  0.47248633
   0.90634206  0.46546199  0.08262607
   0.26092070  0.97878036  0.25332799
   0.35488056  0.88482049  0.38835497
   0.37524011  0.86446121  0.49733777
   0.17591043  0.55596908  0.13149321
   0.04891107  0.55466711  0.47247545
   0.28755338  0.83621639  0.10212999
   0.36819893  0.73939913  0.21765305
   0.46215880  0.64543926  0.35268003
   0.00030194  0.87150212  0.21765305
   0.09426181  0.77754226  0.35268003
   0.18503003  0.69078707  0.47247949
   0.43900633  0.96282977  0.10394249
   0.76092070  0.97878036  0.25332799
   0.85488056  0.88482049  0.38835497
   0.87525118  0.86444984  0.49734141
   0.66696083  0.57274024  0.11830101
   0.54891196  0.55467082  0.47247561
   0.78246790  0.81860798  0.10280603
   0.86819893  0.73939913  0.21765305
   0.96215880  0.64543926  0.35268003
   0.50030194  0.87150212  0.21765305
   0.59426181  0.77754226  0.35268003
   0.68503179  0.69078918  0.47247455
   0.01387568  0.94130068  0.11785012
   0.07287763  0.16682343  0.27005396
   0.16683750  0.07286357  0.40508094
   0.31289527  0.48836494  0.05990672
   0.47891775  0.26078330  0.13502698
   0.21108019  0.52861537  0.52644719
   0.03023343  0.37768264  0.45050807
   0.43627354  0.47164251  0.31548109
   0.28474745  0.14252923  0.06864310
   0.34231368  0.06560239  0.18045411
   0.08240418  0.47882863  0.06828441
   0.17409868  0.39738738  0.18045411
   0.26805855  0.30342751  0.31548109
   0.36201842  0.20946765  0.45050807
   0.57287763  0.16682343  0.27005396
   0.66683750  0.07286357  0.40508094
   0.86571348  0.35807313  0.02068794
   0.97891775  0.26078330  0.13502698
   0.71107936  0.52862275  0.52644703
   0.53023343  0.37768264  0.45050807
   0.93627354  0.47164251  0.31548109
   0.84231368  0.06560239  0.18045411
   0.61142857  0.47017351  0.05638886
   0.67409868  0.39738738  0.18045411
   0.76805855  0.30342751  0.31548109
   0.86201842  0.20946765  0.45050807
   0.07287764  0.66682343  0.27005396
   0.16683750  0.57286357  0.40508094
   0.47891775  0.76078330  0.13502698
   0.21108486  0.02862227  0.52644503
   0.03023342  0.87768264  0.45050807
   0.43627354  0.97164251  0.31548109
   0.34231368  0.56560239  0.18045411
   0.12894307  0.96610974  0.05214226
   0.17409868  0.89738738  0.18045411
   0.26805855  0.80342751  0.31548109
   0.36201842  0.70946764  0.45050807
   0.57287764  0.66682343  0.27005396
   0.66683750  0.57286357  0.40508094
   0.97891775  0.76078330  0.13502698
   0.71109271  0.02860804  0.52644918
   0.53023342  0.87768264  0.45050807
   0.93627354  0.97164251  0.31548109
   0.76255723  0.65795492  0.06540011
   0.84231368  0.56560239  0.18045411
   0.60776768  0.98063689  0.07262443
   0.67409868  0.89738738  0.18045411
   0.76805855  0.80342751  0.31548109
   0.86201842  0.70946764  0.45050807
