
72 atoms
2 atom types
   0.0000000000   10.0797329849 xlo xhi
   0.0000000000    9.4251025535 ylo yhi
   0.0000000000   20.6835035552 zlo zhi
   3.5732980427    0.0000000000    0.0000000000 xy xz yz

Atoms # atomic

     1      1    6.8428472823    7.4925021364    2.6255023872
     2      1    7.8205595795    6.0762060003    5.2510047951
     3      1    8.7982718832    4.6599098547    7.8765071823
     4      1    9.7759841804    3.2436137185   10.5020095694
     5      1    2.6177410398    3.8787025669    3.5006698634
     6      1    3.5954533370    2.4624064308    6.1261722506
     7      1    4.5731656443    1.0461102946    8.7516746378
     8      1   11.7197617210    5.2949987125    0.8751674555
     9      1    3.9213574344    6.8574132786    9.6268421139
    10      1    7.4946554785    1.6811991430    1.7503349317
    11      1    8.4723677858    0.2649030068    4.3758373189
    12      1   13.0233781257    8.2737094242    7.0013397268
    13      1    5.6404430411    5.3765274330    1.9318289110
    14      1    6.6181553448    3.9602312874    4.5573312982
    15      1    7.5958676419    2.5439351513    7.1828337061
    16      1    8.5735799456    1.1276390057    9.8083360932
    17      1    1.4153367986    1.7627278635    2.8069963665
    18      1    2.3930491058    0.3464317273    5.4324987744
    19      1    6.9440594422    8.3552381353    8.0580011616
    20      1    7.9217717393    6.9389419991   10.6835035487
    21      1   10.5173574863    3.1790239997    0.1814939793
    22      1    2.7189532033    4.7414385752    8.9331686171
    23      1    9.8655492901    8.9903269931    1.0566614348
    24      1   10.8432615872    7.5740308570    3.6821638427
    25      1   11.8209738809    6.1577347114    6.3076662299
    26      1    0.8986554352    1.5018329475    9.1146625964
    27      1    8.0452515220    5.7507213654    1.2381554141
    28      1    9.0229638192    4.3344252293    3.8636578220
    29      1   10.0006761229    2.9181290837    6.4891602092
    30      1    3.8201452831    2.1369218053    2.1133228903
    31      1    4.7978575767    0.7206256598    4.7388252775
    32      1    9.3488679166    8.7294320771    7.3643276854
    33      1   10.3265802203    7.3131359315    9.9898300725
    34      1    3.1683370733    7.9482247894    2.9884903458
    35      1    4.1460493805    6.5319286532    5.6139927537
    36      1    5.1237616741    5.1156325076    8.2394951409
    37      2    3.7821592371    9.0027999948   10.3015769676
    38      2    7.3554572811    3.8265858592    2.4250697854
    39      2    8.3331695783    2.4102897230    5.0505721933
    40      2    9.3108818755    0.9939935868    7.6760745804
    41      2    2.1526387350    1.6290824352    0.6747348537
    42      2    3.1303510322    0.2127862991    3.3002372616
    43      2    7.6813613786    8.2215927070    5.9257396488
    44      2    8.6590736757    6.8052965708    8.5512420359
    45      2    2.4785428324    6.0240892831    4.1754047171
    46      2    3.4562551396    4.6077931469    6.8009071043
    47      2    4.4339674368    3.1914970107    9.4264095121
    48      2   11.5805635236    7.4403854287    1.5499023299
    49      2    7.9088413894    7.9372847430    0.6828651666
    50      2    8.8865536866    6.5209886068    3.3083675538
    51      2    9.8642659903    5.1046924612    5.9338699617
    52      2   10.8419782875    3.6883963250    8.5593723489
    53      2    3.6837351505    4.3234851829    1.5580326221
    54      2    4.6614474441    2.9071890373    4.1835350300
    55      2    5.6391597413    1.4908929011    6.8090374172
    56      2    6.6168720450    0.0745967555    9.4345398044
    57      2    4.0096392479    8.7184920307    5.0587024855
    58      2    4.9873515415    7.3021958851    7.6842048934
    59      2    5.9650638488    5.8858997490   10.3097072806
    60      2    9.5383618828    0.7096856133    2.4332000983
    61      2    4.8466485627    7.4608002291    1.5661629351
    62      2    5.8243608699    6.0445040929    4.1916653223
    63      2    6.8020731671    4.6282079567    6.8171677301
    64      2    7.7797854708    3.2119118111    9.4426701173
    65      2    1.5992546310    2.4307045328    5.0668327985
    66      2    2.5769669246    1.0144083872    7.6923351856
    67      2    7.1279772645    9.0232148046   10.3178375935
    68      2   10.7012753086    3.8470006690    2.4413304113
    69      2    5.4984567725    1.6494972451    0.6909954796
    70      2    6.4761690697    0.2332011089    3.3164978668
    71      2   11.0271794060    8.2420075168    5.9420002540
    72      2   12.0048917133    6.8257113807    8.5675026618
