<?xml version="1.0" encoding="ISO-8859-1"?>
<modeling>
 <generator>
  <i name="program" type="string">vasp </i>
  <i name="version" type="string">6.1.0  </i>
  <i name="subversion" type="string">28Jan20 (build Mar 31 2020 17:42:31) gamma-only                       parallel </i>
  <i name="platform" type="string">LinuxIFC </i>
  <i name="date" type="string">2020 04 12 </i>
  <i name="time" type="string">07:24:57 </i>
 </generator>
 <incar>
  <i type="string" name="SYSTEM">"Millerite NiS"</i>
  <i type="int" name="NSIM">     4</i>
  <i type="int" name="NELM">   100</i>
  <i name="ENCUT">    450.00000000</i>
  <i type="string" name="LREAL">A</i>
  <i type="int" name="ISMEAR">     0</i>
  <i type="int" name="NWRITE">     2</i>
  <i type="logical" name="LWAVE"> F  </i>
  <i type="logical" name="LCHARG"> F  </i>
  <i type="int" name="NCORE">     6</i>
  <i type="int" name="NELM">   100</i>
 </incar>
 <structure name="primitive_cell" >
  <crystal>
   <varray name="basis" >
    <v>      10.06282034       5.04456212       0.00000000 </v>
    <v>       0.00000000      11.25646304       0.00000000 </v>
    <v>       0.00000000       0.00000000      22.51995597 </v>
   </varray>
   <i name="volume">   2550.87516496 </i>
   <varray name="rec_basis" >
    <v>       0.09937572       0.00000000       0.00000000 </v>
    <v>      -0.04453504       0.08883785       0.00000000 </v>
    <v>       0.00000000       0.00000000       0.04440506 </v>
   </varray>
  </crystal>
  <varray name="positions" >
   <v>       0.26092069       0.47878037       0.29519774 </v>
   <v>       0.35488056       0.38482051       0.42557357 </v>
   <v>       0.07300096       0.16670012       0.03444608 </v>
   <v>       0.16696082       0.07274025       0.16482191 </v>
   <v>       0.18027919       0.42731887       0.00000000 </v>
   <v>       0.27423906       0.33335901       0.13037583 </v>
   <v>       0.36819893       0.23939914       0.26075166 </v>
   <v>       0.46215879       0.14543927       0.39112749 </v>
   <v>       0.00030194       0.37150214       0.26075166 </v>
   <v>       0.09426180       0.27754227       0.39112749 </v>
   <v>       0.18822167       0.18358240       0.52150332 </v>
   <v>       0.40634206       0.46546200       0.13037583 </v>
   <v>       0.31238219       0.05942188       0.00000000 </v>
   <v>       0.76092069       0.47878037       0.29519774 </v>
   <v>       0.85488056       0.38482051       0.42557357 </v>
   <v>       0.66696082       0.07274025       0.16482191 </v>
   <v>       0.68027919       0.42731887       0.00000000 </v>
   <v>       0.77423906       0.33335901       0.13037583 </v>
   <v>       0.86819893       0.23939914       0.26075166 </v>
   <v>       0.96215879       0.14543927       0.39112749 </v>
   <v>       0.50030194       0.37150214       0.26075166 </v>
   <v>       0.59426180       0.27754227       0.39112749 </v>
   <v>       0.68822167       0.18358240       0.52150332 </v>
   <v>       0.90634206       0.46546200       0.13037583 </v>
   <v>       0.81238219       0.05942188       0.00000000 </v>
   <v>       0.26092069       0.97878037       0.29519774 </v>
   <v>       0.35488056       0.88482051       0.42557357 </v>
   <v>       0.16696082       0.57274025       0.16482191 </v>
   <v>       0.05611868       0.55147941       0.52150332 </v>
   <v>       0.27423906       0.83335901       0.13037583 </v>
   <v>       0.36819893       0.73939914       0.26075166 </v>
   <v>       0.46215879       0.64543927       0.39112749 </v>
   <v>       0.00030194       0.87150214       0.26075166 </v>
   <v>       0.09426180       0.77754227       0.39112749 </v>
   <v>       0.18822167       0.68358240       0.52150332 </v>
   <v>       0.40634206       0.96546200       0.13037583 </v>
   <v>       0.31238219       0.55942188       0.00000000 </v>
   <v>       0.76092069       0.97878037       0.29519774 </v>
   <v>       0.85488056       0.88482051       0.42557357 </v>
   <v>       0.66696082       0.57274025       0.16482191 </v>
   <v>       0.68027919       0.92731887       0.00000000 </v>
   <v>       0.77423906       0.83335901       0.13037583 </v>
   <v>       0.86819893       0.73939914       0.26075166 </v>
   <v>       0.96215879       0.64543927       0.39112749 </v>
   <v>       0.50030194       0.87150214       0.26075166 </v>
   <v>       0.59426180       0.77754227       0.39112749 </v>
   <v>       0.90634206       0.96546200       0.13037583 </v>
   <v>       0.81238219       0.55942188       0.00000000 </v>
   <v>       0.07287763       0.16682345       0.31134756 </v>
   <v>       0.16683750       0.07286358       0.44172340 </v>
   <v>       0.38495788       0.35474318       0.05059591 </v>
   <v>       0.47891775       0.26078331       0.18097173 </v>
   <v>       0.03023342       0.37768265       0.48558574 </v>
   <v>       0.43627354       0.47164252       0.35520991 </v>
   <v>       0.24835381       0.15956227       0.09445824 </v>
   <v>       0.34231367       0.06560240       0.22483408 </v>
   <v>       0.08013881       0.49134726       0.09445824 </v>
   <v>       0.17409868       0.39738739       0.22483408 </v>
   <v>       0.26805854       0.30342752       0.35520991 </v>
   <v>       0.36201841       0.20946766       0.48558574 </v>
   <v>       0.57287763       0.16682345       0.31134756 </v>
   <v>       0.66683750       0.07286358       0.44172340 </v>
   <v>       0.88495788       0.35474318       0.05059591 </v>
   <v>       0.97891775       0.26078331       0.18097173 </v>
   <v>       0.53023342       0.37768265       0.48558574 </v>
   <v>       0.93627354       0.47164252       0.35520991 </v>
   <v>       0.74835381       0.15956227       0.09445824 </v>
   <v>       0.84231367       0.06560240       0.22483408 </v>
   <v>       0.58013881       0.49134726       0.09445824 </v>
   <v>       0.67409868       0.39738739       0.22483408 </v>
   <v>       0.76805854       0.30342752       0.35520991 </v>
   <v>       0.86201841       0.20946766       0.48558574 </v>
   <v>       0.07287763       0.66682345       0.31134756 </v>
   <v>       0.16683750       0.57286358       0.44172340 </v>
   <v>       0.38495788       0.85474318       0.05059591 </v>
   <v>       0.47891775       0.76078331       0.18097173 </v>
   <v>       0.03023342       0.87768265       0.48558574 </v>
   <v>       0.43627354       0.97164252       0.35520991 </v>
   <v>       0.24835381       0.65956227       0.09445824 </v>
   <v>       0.34231367       0.56560240       0.22483408 </v>
   <v>       0.08013881       0.99134726       0.09445824 </v>
   <v>       0.17409868       0.89738739       0.22483408 </v>
   <v>       0.26805854       0.80342752       0.35520991 </v>
   <v>       0.36201841       0.70946766       0.48558574 </v>
   <v>       0.57287763       0.66682345       0.31134756 </v>
   <v>       0.66683750       0.57286358       0.44172340 </v>
   <v>       0.88495788       0.85474318       0.05059591 </v>
   <v>       0.97891775       0.76078331       0.18097173 </v>
   <v>       0.53023342       0.87768265       0.48558574 </v>
   <v>       0.93627354       0.97164252       0.35520991 </v>
   <v>       0.74835381       0.65956227       0.09445824 </v>
   <v>       0.84231367       0.56560240       0.22483408 </v>
   <v>       0.58013881       0.99134726       0.09445824 </v>
   <v>       0.67409868       0.89738739       0.22483408 </v>
   <v>       0.76805854       0.80342752       0.35520991 </v>
   <v>       0.86201841       0.70946766       0.48558574 </v>
  </varray>
 </structure>
 <varray name="primitive_index" >
  <v type="int" >        1 </v>
  <v type="int" >        2 </v>
  <v type="int" >        3 </v>
  <v type="int" >        4 </v>
  <v type="int" >        5 </v>
  <v type="int" >        6 </v>
  <v type="int" >        7 </v>
  <v type="int" >        8 </v>
  <v type="int" >        9 </v>
  <v type="int" >       10 </v>
  <v type="int" >       11 </v>
  <v type="int" >       12 </v>
  <v type="int" >       13 </v>
  <v type="int" >       14 </v>
  <v type="int" >       15 </v>
  <v type="int" >       16 </v>
  <v type="int" >       17 </v>
  <v type="int" >       18 </v>
  <v type="int" >       19 </v>
  <v type="int" >       20 </v>
  <v type="int" >       21 </v>
  <v type="int" >       22 </v>
  <v type="int" >       23 </v>
  <v type="int" >       24 </v>
  <v type="int" >       25 </v>
  <v type="int" >       26 </v>
  <v type="int" >       27 </v>
  <v type="int" >       28 </v>
  <v type="int" >       29 </v>
  <v type="int" >       30 </v>
  <v type="int" >       31 </v>
  <v type="int" >       32 </v>
  <v type="int" >       33 </v>
  <v type="int" >       34 </v>
  <v type="int" >       35 </v>
  <v type="int" >       36 </v>
  <v type="int" >       37 </v>
  <v type="int" >       38 </v>
  <v type="int" >       39 </v>
  <v type="int" >       40 </v>
  <v type="int" >       41 </v>
  <v type="int" >       42 </v>
  <v type="int" >       43 </v>
  <v type="int" >       44 </v>
  <v type="int" >       45 </v>
  <v type="int" >       46 </v>
  <v type="int" >       47 </v>
  <v type="int" >       48 </v>
  <v type="int" >       49 </v>
  <v type="int" >       50 </v>
  <v type="int" >       51 </v>
  <v type="int" >       52 </v>
  <v type="int" >       53 </v>
  <v type="int" >       54 </v>
  <v type="int" >       55 </v>
  <v type="int" >       56 </v>
  <v type="int" >       57 </v>
  <v type="int" >       58 </v>
  <v type="int" >       59 </v>
  <v type="int" >       60 </v>
  <v type="int" >       61 </v>
  <v type="int" >       62 </v>
  <v type="int" >       63 </v>
  <v type="int" >       64 </v>
  <v type="int" >       65 </v>
  <v type="int" >       66 </v>
  <v type="int" >       67 </v>
  <v type="int" >       68 </v>
  <v type="int" >       69 </v>
  <v type="int" >       70 </v>
  <v type="int" >       71 </v>
  <v type="int" >       72 </v>
  <v type="int" >       73 </v>
  <v type="int" >       74 </v>
  <v type="int" >       75 </v>
  <v type="int" >       76 </v>
  <v type="int" >       77 </v>
  <v type="int" >       78 </v>
  <v type="int" >       79 </v>
  <v type="int" >       80 </v>
  <v type="int" >       81 </v>
  <v type="int" >       82 </v>
  <v type="int" >       83 </v>
  <v type="int" >       84 </v>
  <v type="int" >       85 </v>
  <v type="int" >       86 </v>
  <v type="int" >       87 </v>
  <v type="int" >       88 </v>
  <v type="int" >       89 </v>
  <v type="int" >       90 </v>
  <v type="int" >       91 </v>
  <v type="int" >       92 </v>
  <v type="int" >       93 </v>
  <v type="int" >       94 </v>
  <v type="int" >       95 </v>
  <v type="int" >       96 </v>
 </varray>
 <kpoints>
  <generation param="Gamma">
   <v type="int" name="divisions">       1        1        1 </v>
   <v name="usershift">      0.00000000       0.00000000       0.00000000 </v>
   <v name="genvec1">      1.00000000       0.00000000       0.00000000 </v>
   <v name="genvec2">     -0.00000000       1.00000000       0.00000000 </v>
   <v name="genvec3">      0.00000000       0.00000000       1.00000000 </v>
   <v name="shift">      0.00000000       0.00000000       0.00000000 </v>
  </generation>
  <varray name="kpointlist" >
   <v>       0.00000000       0.00000000       0.00000000 </v>
  </varray>
  <varray name="weights" >
   <v>       1.00000000 </v>
  </varray>
 </kpoints>
 <parameters>
  <separator name="general" >
   <i type="string" name="SYSTEM">"Millerite NiS"</i>
   <i type="logical" name="LCOMPAT"> F  </i>
  </separator>
  <separator name="electronic" >
   <i type="string" name="PREC">normal</i>
   <i name="ENMAX">    450.00000000</i>
   <i name="ENAUG">    703.44300000</i>
   <i name="EDIFF">      0.00010000</i>
   <i type="int" name="IALGO">    38</i>
   <i type="int" name="IWAVPR">    10</i>
   <i type="int" name="NBANDS">   640</i>
   <i type="int" name="NBANDSLOW">    -1</i>
   <i type="int" name="NBANDSHIGH">    -1</i>
   <i name="NELECT">   1056.00000000</i>
   <i type="int" name="TURBO">     0</i>
   <i type="int" name="IRESTART">     0</i>
   <i type="int" name="NREBOOT">     0</i>
   <i type="int" name="NMIN">     0</i>
   <i name="EREF">      0.00000000</i>
   <separator name="electronic smearing" >
    <i type="int" name="ISMEAR">     0</i>
    <i name="SIGMA">      0.20000000</i>
    <i name="KSPACING">      0.50000000</i>
    <i type="logical" name="KGAMMA"> T  </i>
    <i type="logical" name="KBLOWUP"> T  </i>
   </separator>
   <separator name="electronic projectors" >
    <i type="logical" name="LREAL"> T  </i>
    <v name="ROPT">     -0.00050000     -0.00050000</v>
    <i type="int" name="LMAXPAW">  -100</i>
    <i type="int" name="LMAXMIX">     2</i>
    <i type="logical" name="NLSPLINE"> F  </i>
   </separator>
   <separator name="electronic startup" >
    <i type="int" name="ISTART">     0</i>
    <i type="int" name="ICHARG">     2</i>
    <i type="int" name="INIWAV">     1</i>
   </separator>
   <separator name="electronic spin" >
    <i type="int" name="ISPIN">     1</i>
    <i type="logical" name="LNONCOLLINEAR"> F  </i>
    <v name="MAGMOM">      1.00000000      1.00000000      1.00000000      1.00000000      1.00000000      1.00000000      1.00000000      1.00000000      1.00000000      1.00000000      1.00000000      1.00000000      1.00000000      1.00000000      1.00000000      1.00000000      1.00000000      1.00000000      1.00000000      1.00000000
      1.00000000      1.00000000      1.00000000      1.00000000      1.00000000      1.00000000      1.00000000      1.00000000      1.00000000      1.00000000      1.00000000      1.00000000      1.00000000      1.00000000      1.00000000      1.00000000      1.00000000      1.00000000      1.00000000      1.00000000
      1.00000000      1.00000000      1.00000000      1.00000000      1.00000000      1.00000000      1.00000000      1.00000000      1.00000000      1.00000000      1.00000000      1.00000000      1.00000000      1.00000000      1.00000000      1.00000000      1.00000000      1.00000000      1.00000000      1.00000000
      1.00000000      1.00000000      1.00000000      1.00000000      1.00000000      1.00000000      1.00000000      1.00000000      1.00000000      1.00000000      1.00000000      1.00000000      1.00000000      1.00000000      1.00000000      1.00000000      1.00000000      1.00000000      1.00000000      1.00000000
      1.00000000      1.00000000      1.00000000      1.00000000      1.00000000      1.00000000      1.00000000      1.00000000      1.00000000      1.00000000      1.00000000      1.00000000      1.00000000      1.00000000      1.00000000      1.00000000</v>
    <i name="NUPDOWN">     -1.00000000</i>
    <i type="logical" name="LSORBIT"> F  </i>
    <v name="SAXIS">      0.00000000      0.00000000      1.00000000</v>
    <i type="logical" name="LSPIRAL"> F  </i>
    <v name="QSPIRAL">      0.00000000      0.00000000      0.00000000</v>
    <i type="logical" name="LZEROZ"> F  </i>
   </separator>
   <separator name="electronic exchange-correlation" >
    <i type="logical" name="LASPH"> F  </i>
    <i type="logical" name="LMETAGGA"> F  </i>
   </separator>
   <separator name="electronic convergence" >
    <i type="int" name="NELM">   100</i>
    <i type="int" name="NELMDL">    -5</i>
    <i type="int" name="NELMIN">     2</i>
    <i name="ENINI">    450.00000000</i>
    <separator name="electronic convergence detail" >
     <i type="logical" name="LDIAG"> T  </i>
     <i type="logical" name="LSUBROT"> F  </i>
     <i name="WEIMIN">      0.00000000</i>
     <i name="EBREAK">      0.00000004</i>
     <i name="DEPER">      0.30000000</i>
     <i type="int" name="NRMM">     4</i>
     <i name="TIME">      0.40000000</i>
    </separator>
   </separator>
   <separator name="electronic mixer" >
    <i name="AMIX">      0.40000000</i>
    <i name="BMIX">      1.00000000</i>
    <i name="AMIN">      0.10000000</i>
    <i name="AMIX_MAG">      1.60000000</i>
    <i name="BMIX_MAG">      1.00000000</i>
    <separator name="electronic mixer details" >
     <i type="int" name="IMIX">     4</i>
     <i type="logical" name="MIXFIRST"> F  </i>
     <i type="int" name="MAXMIX">   -45</i>
     <i name="WC">    100.00000000</i>
     <i type="int" name="INIMIX">     1</i>
     <i type="int" name="MIXPRE">     1</i>
     <i type="int" name="MREMOVE">     5</i>
    </separator>
   </separator>
   <separator name="electronic dipolcorrection" >
    <i type="logical" name="LDIPOL"> F  </i>
    <i type="logical" name="LMONO"> F  </i>
    <i type="int" name="IDIPOL">     0</i>
    <i name="EPSILON">      1.00000000</i>
    <v name="DIPOL">   -100.00000000   -100.00000000   -100.00000000</v>
    <i name="EFIELD">      0.00000000</i>
   </separator>
  </separator>
  <separator name="grids" >
   <i type="int" name="NGX">    60</i>
   <i type="int" name="NGY">    60</i>
   <i type="int" name="NGZ">   120</i>
   <i type="int" name="NGXF">   120</i>
   <i type="int" name="NGYF">   120</i>
   <i type="int" name="NGZF">   240</i>
   <i type="logical" name="ADDGRID"> F  </i>
  </separator>
  <separator name="ionic" >
   <i type="int" name="NSW">     0</i>
   <i type="int" name="IBRION">    -1</i>
   <i type="int" name="MDALGO">     0</i>
   <i type="int" name="ISIF">     2</i>
   <i name="PSTRESS">      0.00000000</i>
   <i name="EDIFFG">      0.00100000</i>
   <i type="int" name="NFREE">     0</i>
   <i name="POTIM">      0.50000000</i>
   <i name="SMASS">     -3.00000000</i>
   <i name="SCALEE">      1.00000000</i>
  </separator>
  <separator name="ionic md" >
   <i name="TEBEG">      0.00010000</i>
   <i name="TEEND">      0.00010000</i>
   <i type="int" name="NBLOCK">     1</i>
   <i type="int" name="KBLOCK">     1</i>
   <i type="int" name="NPACO">   256</i>
   <i name="APACO">     16.00000000</i>
  </separator>
  <separator name="symmetry" >
   <i type="int" name="ISYM">     2</i>
   <i name="SYMPREC">      0.00001000</i>
  </separator>
  <separator name="dos" >
   <i type="int" name="LORBIT">     0</i>
   <v name="RWIGS">     -1.00000000     -1.00000000</v>
   <i type="int" name="NEDOS">   301</i>
   <i name="EMIN">     10.00000000</i>
   <i name="EMAX">    -10.00000000</i>
   <i name="EFERMI">      0.00000000</i>
  </separator>
  <separator name="writing" >
   <i type="int" name="NWRITE">     2</i>
   <i type="logical" name="LWAVE"> F  </i>
   <i type="logical" name="LDOWNSAMPLE"> F  </i>
   <i type="logical" name="LCHARG"> F  </i>
   <i type="logical" name="LPARD"> F  </i>
   <i type="logical" name="LVTOT"> F  </i>
   <i type="logical" name="LVHAR"> F  </i>
   <i type="logical" name="LELF"> F  </i>
   <i type="logical" name="LOPTICS"> F  </i>
   <v name="STM">      0.00000000      0.00000000      0.00000000      0.00000000      0.00000000      0.00000000      0.00000000</v>
  </separator>
  <separator name="performance" >
   <i type="int" name="NPAR">     8</i>
   <i type="int" name="NSIM">     4</i>
   <i type="int" name="NBLK">    -1</i>
   <i type="logical" name="LPLANE"> T  </i>
   <i type="logical" name="LSCALAPACK"> T  </i>
   <i type="logical" name="LSCAAWARE"> F  </i>
   <i type="logical" name="LSCALU"> F  </i>
   <i type="logical" name="LASYNC"> F  </i>
   <i type="logical" name="LORBITALREAL"> F  </i>
  </separator>
  <separator name="miscellaneous" >
   <i type="int" name="IDIOT">     3</i>
   <i type="int" name="PHON_NSTRUCT">    -1</i>
   <i type="logical" name="LMUSIC"> F  </i>
   <v name="POMASS">     58.69000000     32.06600000</v>
   <v name="DARWINR">      0.00000000      0.00000000</v>
   <v name="DARWINV">      1.00000000      1.00000000</v>
   <i type="logical" name="LCORR"> T  </i>
  </separator>
  <i type="logical" name="GGA_COMPAT"> T  </i>
  <i type="logical" name="LBERRY"> F  </i>
  <i type="int" name="ICORELEVEL">     0</i>
  <i type="logical" name="LDAU"> F  </i>
  <i type="int" name="I_CONSTRAINED_M">     0</i>
  <separator name="electronic exchange-correlation" >
   <i type="string" name="GGA">--</i>
   <i type="int" name="VOSKOWN">     0</i>
   <i type="logical" name="LHFCALC"> F  </i>
   <i type="string" name="PRECFOCK"></i>
   <i type="logical" name="LSYMGRAD"> F  </i>
   <i type="logical" name="LHFONE"> F  </i>
   <i type="logical" name="LRHFCALC"> F  </i>
   <i type="logical" name="LTHOMAS"> F  </i>
   <i type="logical" name="LMODELHF"> F  </i>
   <i type="logical" name="LFOCKACE"> F  </i>
   <i name="ENCUT4O">     -1.00000000</i>
   <i type="int" name="EXXOEP">     0</i>
   <i type="int" name="FOURORBIT">     0</i>
   <i name="AEXX">      0.00000000</i>
   <i name="HFALPHA">      0.00000000</i>
   <i name="MCALPHA">      0.00000000</i>
   <i name="ALDAX">      1.00000000</i>
   <i name="AGGAX">      1.00000000</i>
   <i name="ALDAC">      1.00000000</i>
   <i name="AGGAC">      1.00000000</i>
   <i type="int" name="NKREDX">     1</i>
   <i type="int" name="NKREDY">     1</i>
   <i type="int" name="NKREDZ">     1</i>
   <i type="logical" name="SHIFTRED"> F  </i>
   <i type="logical" name="ODDONLY"> F  </i>
   <i type="logical" name="EVENONLY"> F  </i>
   <i type="int" name="LMAXFOCK">     0</i>
   <i type="int" name="NMAXFOCKAE">     0</i>
   <i type="logical" name="LFOCKAEDFT"> F  </i>
   <i name="HFSCREEN">      0.00000000</i>
   <i name="HFSCREENC">      0.00000000</i>
   <i type="int" name="NBANDSGWLOW">     0</i>
  </separator>
  <separator name="vdW DFT" >
   <i type="logical" name="LUSE_VDW"> F  </i>
   <i name="Zab_VDW">     -0.84910000</i>
   <i name="PARAM1">      0.12340000</i>
   <i name="PARAM2">      1.00000000</i>
   <i name="PARAM3">      0.00000000</i>
  </separator>
  <separator name="model GW" >
   <i type="int" name="MODEL_GW">     0</i>
   <i name="MODEL_EPS0">     15.94296978</i>
   <i name="MODEL_ALPHA">      1.00000000</i>
  </separator>
  <separator name="linear response parameters" >
   <i type="logical" name="LEPSILON"> F  </i>
   <i type="logical" name="LRPA"> F  </i>
   <i type="logical" name="LNABLA"> F  </i>
   <i type="logical" name="LVEL"> F  </i>
   <i type="int" name="KINTER">     0</i>
   <i name="CSHIFT">      0.10000000</i>
   <i name="OMEGAMAX">     -1.00000000</i>
   <i name="DEG_THRESHOLD">      0.00200000</i>
   <i name="RTIME">     -0.10000000</i>
   <i name="WPLASMAI">      0.00000000</i>
   <v name="DFIELD">      0.00000000      0.00000000      0.00000000</v>
   <v name="WPLASMA">      0.00000000      0.00000000      0.00000000      0.00000000      0.00000000      0.00000000      0.00000000      0.00000000      0.00000000</v>
  </separator>
  <separator name="orbital magnetization" >
   <i type="logical" name="NUCIND"> F  </i>
   <v name="MAGPOS">      0.00000000      0.00000000      0.00000000</v>
   <i type="logical" name="LNICSALL"> T  </i>
   <i type="logical" name="ORBITALMAG"> F  </i>
   <i type="logical" name="LMAGBLOCH"> F  </i>
   <i type="logical" name="LCHIMAG"> F  </i>
   <i type="logical" name="LGAUGE"> T  </i>
   <i type="int" name="MAGATOM">     0</i>
   <v name="MAGDIPOL">      0.00000000      0.00000000      0.00000000</v>
   <v name="AVECCONST">      0.00000000      0.00000000      0.00000000</v>
  </separator>
  <separator name="response functions" >
   <i type="logical" name="LFINITE_TEMPERATURE"> F  </i>
   <i type="logical" name="LADDER"> F  </i>
   <i type="logical" name="LRPAFORCE"> F  </i>
   <i type="logical" name="LFXC"> F  </i>
   <i type="logical" name="LHARTREE"> T  </i>
   <i type="int" name="IBSE">     0</i>
   <v type="int" name="KPOINT">    -1     0     0     0</v>
   <i type="logical" name="LTCTC"> F  </i>
   <i type="logical" name="LTCTE"> F  </i>
   <i type="logical" name="LTETE"> F  </i>
   <i type="logical" name="LTRIPLET"> F  </i>
   <i type="logical" name="LFXCEPS"> F  </i>
   <i type="logical" name="LFXHEG"> F  </i>
   <i type="int" name="NATURALO">     2</i>
   <i type="logical" name="LHOLEGF"> F  </i>
   <i type="logical" name="L2ORDER"> F  </i>
   <i type="logical" name="LDMP1"> F  </i>
   <i type="logical" name="LMP2LT"> F  </i>
   <i type="logical" name="LSMP2LT"> F  </i>
   <i type="logical" name="LGWLF"> F  </i>
   <i name="ENCUTGW">     -2.00000000</i>
   <i name="ENCUTGWSOFT">     -2.00000000</i>
   <i name="ENCUTLF">     -1.00000000</i>
   <i type="logical" name="LESF_SPLINES"> F  </i>
   <i type="int" name="LMAXMP2">    -1</i>
   <i name="SCISSOR">      0.00000000</i>
   <i type="int" name="NOMEGA">     0</i>
   <i type="int" name="NOMEGAR">     0</i>
   <i type="int" name="NBANDSGW">    -1</i>
   <i type="int" name="NBANDSO">    -1</i>
   <i type="int" name="NBANDSV">    -1</i>
   <i type="int" name="NELM">   100</i>
   <i type="int" name="NELMHF">     1</i>
   <i type="int" name="DIM">     3</i>
   <i type="int" name="IESPILON">     4</i>
   <i type="int" name="ANTIRES">     0</i>
   <i name="OMEGAMAX">    -30.00000000</i>
   <i name="OMEGAMIN">    -30.00000000</i>
   <i name="OMEGATL">   -200.00000000</i>
   <i type="int" name="OMEGAGRID">     0</i>
   <i name="CSHIFT">     -0.10000000</i>
   <i type="logical" name="LSELFENERGY"> F  </i>
   <i type="logical" name="LSPECTRAL"> F  </i>
   <i type="logical" name="LSPECTRALGW"> F  </i>
   <i type="logical" name="LSINGLES"> F  </i>
   <i type="logical" name="LFERMIGW"> F  </i>
   <i type="logical" name="ODDONLYGW"> F  </i>
   <i type="logical" name="EVENONLYGW"> F  </i>
   <i type="int" name="NKREDLFX">     1</i>
   <i type="int" name="NKREDLFY">     1</i>
   <i type="int" name="NKREDLFZ">     1</i>
   <i type="int" name="MAXMEM">  2800</i>
   <i type="int" name="TELESCOPE">     0</i>
   <i type="int" name="NTAUPAR">    -1</i>
   <i type="int" name="NOMEGAPAR">    -1</i>
   <i name="LAMBDA">      1.00000000</i>
  </separator>
  <separator name="External order field" >
   <i name="OFIELD_KAPPA">      0.00000000</i>
   <v name="OFIELD_K">      0.00000000      0.00000000      0.00000000</v>
   <i name="OFIELD_Q6_NEAR">      0.00000000</i>
   <i name="OFIELD_Q6_FAR">      0.00000000</i>
   <i name="OFIELD_A">      0.00000000</i>
  </separator>
 </parameters>
 <atominfo>
  <atoms>      96 </atoms>
  <types>       2 </types>
  <array name="atoms" >
   <dimension dim="1">ion</dimension>
   <field type="string">element</field>
   <field type="int">atomtype</field>
   <set>
    <rc><c>Ni</c><c>   1</c></rc>
    <rc><c>Ni</c><c>   1</c></rc>
    <rc><c>Ni</c><c>   1</c></rc>
    <rc><c>Ni</c><c>   1</c></rc>
    <rc><c>Ni</c><c>   1</c></rc>
    <rc><c>Ni</c><c>   1</c></rc>
    <rc><c>Ni</c><c>   1</c></rc>
    <rc><c>Ni</c><c>   1</c></rc>
    <rc><c>Ni</c><c>   1</c></rc>
    <rc><c>Ni</c><c>   1</c></rc>
    <rc><c>Ni</c><c>   1</c></rc>
    <rc><c>Ni</c><c>   1</c></rc>
    <rc><c>Ni</c><c>   1</c></rc>
    <rc><c>Ni</c><c>   1</c></rc>
    <rc><c>Ni</c><c>   1</c></rc>
    <rc><c>Ni</c><c>   1</c></rc>
    <rc><c>Ni</c><c>   1</c></rc>
    <rc><c>Ni</c><c>   1</c></rc>
    <rc><c>Ni</c><c>   1</c></rc>
    <rc><c>Ni</c><c>   1</c></rc>
    <rc><c>Ni</c><c>   1</c></rc>
    <rc><c>Ni</c><c>   1</c></rc>
    <rc><c>Ni</c><c>   1</c></rc>
    <rc><c>Ni</c><c>   1</c></rc>
    <rc><c>Ni</c><c>   1</c></rc>
    <rc><c>Ni</c><c>   1</c></rc>
    <rc><c>Ni</c><c>   1</c></rc>
    <rc><c>Ni</c><c>   1</c></rc>
    <rc><c>Ni</c><c>   1</c></rc>
    <rc><c>Ni</c><c>   1</c></rc>
    <rc><c>Ni</c><c>   1</c></rc>
    <rc><c>Ni</c><c>   1</c></rc>
    <rc><c>Ni</c><c>   1</c></rc>
    <rc><c>Ni</c><c>   1</c></rc>
    <rc><c>Ni</c><c>   1</c></rc>
    <rc><c>Ni</c><c>   1</c></rc>
    <rc><c>Ni</c><c>   1</c></rc>
    <rc><c>Ni</c><c>   1</c></rc>
    <rc><c>Ni</c><c>   1</c></rc>
    <rc><c>Ni</c><c>   1</c></rc>
    <rc><c>Ni</c><c>   1</c></rc>
    <rc><c>Ni</c><c>   1</c></rc>
    <rc><c>Ni</c><c>   1</c></rc>
    <rc><c>Ni</c><c>   1</c></rc>
    <rc><c>Ni</c><c>   1</c></rc>
    <rc><c>Ni</c><c>   1</c></rc>
    <rc><c>Ni</c><c>   1</c></rc>
    <rc><c>Ni</c><c>   1</c></rc>
    <rc><c>S </c><c>   2</c></rc>
    <rc><c>S </c><c>   2</c></rc>
    <rc><c>S </c><c>   2</c></rc>
    <rc><c>S </c><c>   2</c></rc>
    <rc><c>S </c><c>   2</c></rc>
    <rc><c>S </c><c>   2</c></rc>
    <rc><c>S </c><c>   2</c></rc>
    <rc><c>S </c><c>   2</c></rc>
    <rc><c>S </c><c>   2</c></rc>
    <rc><c>S </c><c>   2</c></rc>
    <rc><c>S </c><c>   2</c></rc>
    <rc><c>S </c><c>   2</c></rc>
    <rc><c>S </c><c>   2</c></rc>
    <rc><c>S </c><c>   2</c></rc>
    <rc><c>S </c><c>   2</c></rc>
    <rc><c>S </c><c>   2</c></rc>
    <rc><c>S </c><c>   2</c></rc>
    <rc><c>S </c><c>   2</c></rc>
    <rc><c>S </c><c>   2</c></rc>
    <rc><c>S </c><c>   2</c></rc>
    <rc><c>S </c><c>   2</c></rc>
    <rc><c>S </c><c>   2</c></rc>
    <rc><c>S </c><c>   2</c></rc>
    <rc><c>S </c><c>   2</c></rc>
    <rc><c>S </c><c>   2</c></rc>
    <rc><c>S </c><c>   2</c></rc>
    <rc><c>S </c><c>   2</c></rc>
    <rc><c>S </c><c>   2</c></rc>
    <rc><c>S </c><c>   2</c></rc>
    <rc><c>S </c><c>   2</c></rc>
    <rc><c>S </c><c>   2</c></rc>
    <rc><c>S </c><c>   2</c></rc>
    <rc><c>S </c><c>   2</c></rc>
    <rc><c>S </c><c>   2</c></rc>
    <rc><c>S </c><c>   2</c></rc>
    <rc><c>S </c><c>   2</c></rc>
    <rc><c>S </c><c>   2</c></rc>
    <rc><c>S </c><c>   2</c></rc>
    <rc><c>S </c><c>   2</c></rc>
    <rc><c>S </c><c>   2</c></rc>
    <rc><c>S </c><c>   2</c></rc>
    <rc><c>S </c><c>   2</c></rc>
    <rc><c>S </c><c>   2</c></rc>
    <rc><c>S </c><c>   2</c></rc>
    <rc><c>S </c><c>   2</c></rc>
    <rc><c>S </c><c>   2</c></rc>
    <rc><c>S </c><c>   2</c></rc>
    <rc><c>S </c><c>   2</c></rc>
   </set>
  </array>
  <array name="atomtypes" >
   <dimension dim="1">type</dimension>
   <field type="int">atomspertype</field>
   <field type="string">element</field>
   <field>mass</field>
   <field>valence</field>
   <field type="string">pseudopotential</field>
   <set>
    <rc><c>  48</c><c>Ni</c><c>     58.69000000</c><c>     16.00000000</c><c>  PAW_PBE Ni_pv 06Sep2000               </c></rc>
    <rc><c>  48</c><c>S </c><c>     32.06600000</c><c>      6.00000000</c><c>  PAW_PBE S 06Sep2000                   </c></rc>
   </set>
  </array>
 </atominfo>
 <structure name="initialpos" >
  <crystal>
   <varray name="basis" >
    <v>      10.06282034       5.04456212       0.00000000 </v>
    <v>       0.00000000      11.25646304       0.00000000 </v>
    <v>       0.00000000       0.00000000      22.51995597 </v>
   </varray>
   <i name="volume">   2550.87516496 </i>
   <varray name="rec_basis" >
    <v>       0.09937572       0.00000000       0.00000000 </v>
    <v>      -0.04453504       0.08883785       0.00000000 </v>
    <v>       0.00000000       0.00000000       0.04440506 </v>
   </varray>
  </crystal>
  <varray name="positions" >
   <v>       0.26092069       0.47878037       0.29519774 </v>
   <v>       0.35488056       0.38482051       0.42557357 </v>
   <v>       0.07300096       0.16670012       0.03444608 </v>
   <v>       0.16696082       0.07274025       0.16482191 </v>
   <v>       0.18027919       0.42731887       0.00000000 </v>
   <v>       0.27423906       0.33335901       0.13037583 </v>
   <v>       0.36819893       0.23939914       0.26075166 </v>
   <v>       0.46215879       0.14543927       0.39112749 </v>
   <v>       0.00030194       0.37150214       0.26075166 </v>
   <v>       0.09426180       0.27754227       0.39112749 </v>
   <v>       0.18822167       0.18358240       0.52150332 </v>
   <v>       0.40634206       0.46546200       0.13037583 </v>
   <v>       0.31238219       0.05942188       0.00000000 </v>
   <v>       0.76092069       0.47878037       0.29519774 </v>
   <v>       0.85488056       0.38482051       0.42557357 </v>
   <v>       0.66696082       0.07274025       0.16482191 </v>
   <v>       0.68027919       0.42731887       0.00000000 </v>
   <v>       0.77423906       0.33335901       0.13037583 </v>
   <v>       0.86819893       0.23939914       0.26075166 </v>
   <v>       0.96215879       0.14543927       0.39112749 </v>
   <v>       0.50030194       0.37150214       0.26075166 </v>
   <v>       0.59426180       0.27754227       0.39112749 </v>
   <v>       0.68822167       0.18358240       0.52150332 </v>
   <v>       0.90634206       0.46546200       0.13037583 </v>
   <v>       0.81238219       0.05942188       0.00000000 </v>
   <v>       0.26092069       0.97878037       0.29519774 </v>
   <v>       0.35488056       0.88482051       0.42557357 </v>
   <v>       0.16696082       0.57274025       0.16482191 </v>
   <v>       0.05611868       0.55147941       0.52150332 </v>
   <v>       0.27423906       0.83335901       0.13037583 </v>
   <v>       0.36819893       0.73939914       0.26075166 </v>
   <v>       0.46215879       0.64543927       0.39112749 </v>
   <v>       0.00030194       0.87150214       0.26075166 </v>
   <v>       0.09426180       0.77754227       0.39112749 </v>
   <v>       0.18822167       0.68358240       0.52150332 </v>
   <v>       0.40634206       0.96546200       0.13037583 </v>
   <v>       0.31238219       0.55942188       0.00000000 </v>
   <v>       0.76092069       0.97878037       0.29519774 </v>
   <v>       0.85488056       0.88482051       0.42557357 </v>
   <v>       0.66696082       0.57274025       0.16482191 </v>
   <v>       0.68027919       0.92731887       0.00000000 </v>
   <v>       0.77423906       0.83335901       0.13037583 </v>
   <v>       0.86819893       0.73939914       0.26075166 </v>
   <v>       0.96215879       0.64543927       0.39112749 </v>
   <v>       0.50030194       0.87150214       0.26075166 </v>
   <v>       0.59426180       0.77754227       0.39112749 </v>
   <v>       0.90634206       0.96546200       0.13037583 </v>
   <v>       0.81238219       0.55942188       0.00000000 </v>
   <v>       0.07287763       0.16682345       0.31134756 </v>
   <v>       0.16683750       0.07286358       0.44172340 </v>
   <v>       0.38495788       0.35474318       0.05059591 </v>
   <v>       0.47891775       0.26078331       0.18097173 </v>
   <v>       0.03023342       0.37768265       0.48558574 </v>
   <v>       0.43627354       0.47164252       0.35520991 </v>
   <v>       0.24835381       0.15956227       0.09445824 </v>
   <v>       0.34231367       0.06560240       0.22483408 </v>
   <v>       0.08013881       0.49134726       0.09445824 </v>
   <v>       0.17409868       0.39738739       0.22483408 </v>
   <v>       0.26805854       0.30342752       0.35520991 </v>
   <v>       0.36201841       0.20946766       0.48558574 </v>
   <v>       0.57287763       0.16682345       0.31134756 </v>
   <v>       0.66683750       0.07286358       0.44172340 </v>
   <v>       0.88495788       0.35474318       0.05059591 </v>
   <v>       0.97891775       0.26078331       0.18097173 </v>
   <v>       0.53023342       0.37768265       0.48558574 </v>
   <v>       0.93627354       0.47164252       0.35520991 </v>
   <v>       0.74835381       0.15956227       0.09445824 </v>
   <v>       0.84231367       0.06560240       0.22483408 </v>
   <v>       0.58013881       0.49134726       0.09445824 </v>
   <v>       0.67409868       0.39738739       0.22483408 </v>
   <v>       0.76805854       0.30342752       0.35520991 </v>
   <v>       0.86201841       0.20946766       0.48558574 </v>
   <v>       0.07287763       0.66682345       0.31134756 </v>
   <v>       0.16683750       0.57286358       0.44172340 </v>
   <v>       0.38495788       0.85474318       0.05059591 </v>
   <v>       0.47891775       0.76078331       0.18097173 </v>
   <v>       0.03023342       0.87768265       0.48558574 </v>
   <v>       0.43627354       0.97164252       0.35520991 </v>
   <v>       0.24835381       0.65956227       0.09445824 </v>
   <v>       0.34231367       0.56560240       0.22483408 </v>
   <v>       0.08013881       0.99134726       0.09445824 </v>
   <v>       0.17409868       0.89738739       0.22483408 </v>
   <v>       0.26805854       0.80342752       0.35520991 </v>
   <v>       0.36201841       0.70946766       0.48558574 </v>
   <v>       0.57287763       0.66682345       0.31134756 </v>
   <v>       0.66683750       0.57286358       0.44172340 </v>
   <v>       0.88495788       0.85474318       0.05059591 </v>
   <v>       0.97891775       0.76078331       0.18097173 </v>
   <v>       0.53023342       0.87768265       0.48558574 </v>
   <v>       0.93627354       0.97164252       0.35520991 </v>
   <v>       0.74835381       0.65956227       0.09445824 </v>
   <v>       0.84231367       0.56560240       0.22483408 </v>
   <v>       0.58013881       0.99134726       0.09445824 </v>
   <v>       0.67409868       0.89738739       0.22483408 </v>
   <v>       0.76805854       0.80342752       0.35520991 </v>
   <v>       0.86201841       0.70946766       0.48558574 </v>
  </varray>
 </structure>
 <calculation>
  <scstep>
   <time name="dav">    4.17    4.19</time>
   <time name="total">    4.25    4.26</time>
   <energy>
    <i name="alphaZ">   2592.50432107 </i>
    <i name="ewald"> 253629.75626414 </i>
    <i name="hartreedc">-417349.33841260 </i>
    <i name="XCdc">   4867.75460974 </i>
    <i name="pawpsdc"> 150306.04444553 </i>
    <i name="pawaedc">-156855.34918313 </i>
    <i name="eentropy">     -0.58010194 </i>
    <i name="bandstr">  -5378.13824229 </i>
    <i name="atom"> 181336.80673834 </i>
    <i name="e_fr_energy">  13149.46043887 </i>
    <i name="e_wo_entrp">  13150.04054081 </i>
    <i name="e_0_energy">  13149.75048984 </i>
   </energy>
  </scstep>
  <scstep>
   <time name="dav">    3.98    3.99</time>
   <time name="total">    3.98    3.99</time>
   <energy>
    <i name="e_fr_energy">    852.72414406 </i>
    <i name="e_wo_entrp">    853.83165143 </i>
    <i name="e_0_energy">    853.27789775 </i>
   </energy>
  </scstep>
  <scstep>
   <time name="dav">    4.29    4.30</time>
   <time name="total">    4.29    4.30</time>
   <energy>
    <i name="e_fr_energy">   -445.18660713 </i>
    <i name="e_wo_entrp">   -443.40452228 </i>
    <i name="e_0_energy">   -444.29556470 </i>
   </energy>
  </scstep>
  <scstep>
   <time name="dav">    4.29    4.30</time>
   <time name="total">    4.29    4.30</time>
   <energy>
    <i name="e_fr_energy">   -532.99594720 </i>
    <i name="e_wo_entrp">   -531.10031504 </i>
    <i name="e_0_energy">   -532.04813112 </i>
   </energy>
  </scstep>
  <scstep>
   <time name="dav">    4.71    4.72</time>
   <time name="total">    4.79    4.81</time>
   <energy>
    <i name="e_fr_energy">   -536.57875502 </i>
    <i name="e_wo_entrp">   -534.69768913 </i>
    <i name="e_0_energy">   -535.63822207 </i>
   </energy>
  </scstep>
  <scstep>
   <time name="dav">    4.14    4.15</time>
   <time name="total">    4.30    4.31</time>
   <energy>
    <i name="e_fr_energy">   -651.61036687 </i>
    <i name="e_wo_entrp">   -650.28566111 </i>
    <i name="e_0_energy">   -650.94801399 </i>
   </energy>
  </scstep>
  <scstep>
   <time name="dav">    4.35    4.36</time>
   <time name="total">    4.51    4.52</time>
   <energy>
    <i name="e_fr_energy">   -500.10591676 </i>
    <i name="e_wo_entrp">   -498.51525240 </i>
    <i name="e_0_energy">   -499.31058458 </i>
   </energy>
  </scstep>
  <scstep>
   <time name="dav">    4.33    4.34</time>
   <time name="total">    4.49    4.51</time>
   <energy>
    <i name="e_fr_energy">   -783.67990095 </i>
    <i name="e_wo_entrp">   -782.65656271 </i>
    <i name="e_0_energy">   -783.16823183 </i>
   </energy>
  </scstep>
  <scstep>
   <time name="dav">    4.95    4.96</time>
   <time name="total">    5.11    5.12</time>
   <energy>
    <i name="e_fr_energy">   -573.96042979 </i>
    <i name="e_wo_entrp">   -572.35265273 </i>
    <i name="e_0_energy">   -573.15654126 </i>
   </energy>
  </scstep>
  <scstep>
   <time name="dav">    5.06    5.07</time>
   <time name="total">    5.21    5.22</time>
   <energy>
    <i name="e_fr_energy">   -503.48683456 </i>
    <i name="e_wo_entrp">   -502.08246928 </i>
    <i name="e_0_energy">   -502.78465192 </i>
   </energy>
  </scstep>
  <scstep>
   <time name="dav">    4.83    4.84</time>
   <time name="total">    4.99    5.00</time>
   <energy>
    <i name="e_fr_energy">   -490.74267713 </i>
    <i name="e_wo_entrp">   -489.04004098 </i>
    <i name="e_0_energy">   -489.89135905 </i>
   </energy>
  </scstep>
  <scstep>
   <time name="dav">    4.85    4.87</time>
   <time name="total">    5.02    5.03</time>
   <energy>
    <i name="e_fr_energy">   -507.43056268 </i>
    <i name="e_wo_entrp">   -505.98866824 </i>
    <i name="e_0_energy">   -506.70961546 </i>
   </energy>
  </scstep>
  <scstep>
   <time name="dav">    4.52    4.53</time>
   <time name="total">    4.69    4.70</time>
   <energy>
    <i name="e_fr_energy">   -492.77080534 </i>
    <i name="e_wo_entrp">   -491.30017200 </i>
    <i name="e_0_energy">   -492.03548867 </i>
   </energy>
  </scstep>
  <scstep>
   <time name="dav">    4.85    4.86</time>
   <time name="total">    5.01    5.02</time>
   <energy>
    <i name="e_fr_energy">   -481.56045948 </i>
    <i name="e_wo_entrp">   -480.25420051 </i>
    <i name="e_0_energy">   -480.90733000 </i>
   </energy>
  </scstep>
  <scstep>
   <time name="dav">    4.81    4.82</time>
   <time name="total">    4.97    4.99</time>
   <energy>
    <i name="e_fr_energy">   -475.40223838 </i>
    <i name="e_wo_entrp">   -474.10573537 </i>
    <i name="e_0_energy">   -474.75398688 </i>
   </energy>
  </scstep>
  <scstep>
   <time name="dav">    4.86    4.87</time>
   <time name="total">    5.02    5.03</time>
   <energy>
    <i name="e_fr_energy">   -473.45168562 </i>
    <i name="e_wo_entrp">   -472.16675410 </i>
    <i name="e_0_energy">   -472.80921986 </i>
   </energy>
  </scstep>
  <scstep>
   <time name="dav">    4.76    4.77</time>
   <time name="total">    4.93    4.94</time>
   <energy>
    <i name="e_fr_energy">   -471.63673723 </i>
    <i name="e_wo_entrp">   -470.30300903 </i>
    <i name="e_0_energy">   -470.96987313 </i>
   </energy>
  </scstep>
  <scstep>
   <time name="dav">    4.93    4.94</time>
   <time name="total">    5.10    5.11</time>
   <energy>
    <i name="e_fr_energy">   -472.10146402 </i>
    <i name="e_wo_entrp">   -470.77502857 </i>
    <i name="e_0_energy">   -471.43824630 </i>
   </energy>
  </scstep>
  <scstep>
   <time name="dav">    4.73    4.74</time>
   <time name="total">    4.90    4.92</time>
   <energy>
    <i name="e_fr_energy">   -471.12705128 </i>
    <i name="e_wo_entrp">   -469.80426893 </i>
    <i name="e_0_energy">   -470.46566010 </i>
   </energy>
  </scstep>
  <scstep>
   <time name="dav">    4.87    4.89</time>
   <time name="total">    5.04    5.06</time>
   <energy>
    <i name="e_fr_energy">   -470.51946654 </i>
    <i name="e_wo_entrp">   -469.25428618 </i>
    <i name="e_0_energy">   -469.88687636 </i>
   </energy>
  </scstep>
  <scstep>
   <time name="dav">    4.86    4.87</time>
   <time name="total">    5.02    5.04</time>
   <energy>
    <i name="e_fr_energy">   -469.88354293 </i>
    <i name="e_wo_entrp">   -468.51580449 </i>
    <i name="e_0_energy">   -469.19967371 </i>
   </energy>
  </scstep>
  <scstep>
   <time name="dav">    5.07    5.09</time>
   <time name="total">    5.24    5.26</time>
   <energy>
    <i name="e_fr_energy">   -470.11853258 </i>
    <i name="e_wo_entrp">   -468.53699354 </i>
    <i name="e_0_energy">   -469.32776306 </i>
   </energy>
  </scstep>
  <scstep>
   <time name="dav">    4.77    4.79</time>
   <time name="total">    4.94    4.96</time>
   <energy>
    <i name="e_fr_energy">   -469.58493569 </i>
    <i name="e_wo_entrp">   -468.03557833 </i>
    <i name="e_0_energy">   -468.81025701 </i>
   </energy>
  </scstep>
  <scstep>
   <time name="dav">    4.89    4.90</time>
   <time name="total">    5.05    5.07</time>
   <energy>
    <i name="e_fr_energy">   -469.52558427 </i>
    <i name="e_wo_entrp">   -467.97416075 </i>
    <i name="e_0_energy">   -468.74987251 </i>
   </energy>
  </scstep>
  <scstep>
   <time name="dav">    4.92    4.93</time>
   <time name="total">    5.09    5.10</time>
   <energy>
    <i name="e_fr_energy">   -469.41808076 </i>
    <i name="e_wo_entrp">   -467.88983592 </i>
    <i name="e_0_energy">   -468.65395834 </i>
   </energy>
  </scstep>
  <scstep>
   <time name="dav">    4.80    4.81</time>
   <time name="total">    4.96    4.98</time>
   <energy>
    <i name="e_fr_energy">   -469.38181814 </i>
    <i name="e_wo_entrp">   -467.79168905 </i>
    <i name="e_0_energy">   -468.58675359 </i>
   </energy>
  </scstep>
  <scstep>
   <time name="dav">    4.87    4.89</time>
   <time name="total">    5.04    5.06</time>
   <energy>
    <i name="e_fr_energy">   -469.39727451 </i>
    <i name="e_wo_entrp">   -467.79987860 </i>
    <i name="e_0_energy">   -468.59857655 </i>
   </energy>
  </scstep>
  <scstep>
   <time name="dav">    4.95    4.96</time>
   <time name="total">    5.11    5.13</time>
   <energy>
    <i name="e_fr_energy">   -469.38791815 </i>
    <i name="e_wo_entrp">   -467.76414171 </i>
    <i name="e_0_energy">   -468.57602993 </i>
   </energy>
  </scstep>
  <scstep>
   <time name="dav">    4.87    4.89</time>
   <time name="total">    5.05    5.06</time>
   <energy>
    <i name="e_fr_energy">   -469.29301105 </i>
    <i name="e_wo_entrp">   -467.67335169 </i>
    <i name="e_0_energy">   -468.48318137 </i>
   </energy>
  </scstep>
  <scstep>
   <time name="dav">    4.93    4.94</time>
   <time name="total">    5.09    5.11</time>
   <energy>
    <i name="e_fr_energy">   -469.26067192 </i>
    <i name="e_wo_entrp">   -467.66774748 </i>
    <i name="e_0_energy">   -468.46420970 </i>
   </energy>
  </scstep>
  <scstep>
   <time name="dav">    4.97    4.98</time>
   <time name="total">    5.14    5.15</time>
   <energy>
    <i name="e_fr_energy">   -469.20243251 </i>
    <i name="e_wo_entrp">   -467.67839249 </i>
    <i name="e_0_energy">   -468.44041250 </i>
   </energy>
  </scstep>
  <scstep>
   <time name="dav">    4.83    4.84</time>
   <time name="total">    5.00    5.01</time>
   <energy>
    <i name="e_fr_energy">   -469.20081101 </i>
    <i name="e_wo_entrp">   -467.69580347 </i>
    <i name="e_0_energy">   -468.44830724 </i>
   </energy>
  </scstep>
  <scstep>
   <time name="dav">    4.44    4.45</time>
   <time name="total">    4.61    4.62</time>
   <energy>
    <i name="e_fr_energy">   -469.21256673 </i>
    <i name="e_wo_entrp">   -467.65826970 </i>
    <i name="e_0_energy">   -468.43541822 </i>
   </energy>
  </scstep>
  <scstep>
   <time name="dav">    4.61    4.62</time>
   <time name="total">    4.78    4.79</time>
   <energy>
    <i name="e_fr_energy">   -469.20065259 </i>
    <i name="e_wo_entrp">   -467.65061732 </i>
    <i name="e_0_energy">   -468.42563496 </i>
   </energy>
  </scstep>
  <scstep>
   <time name="dav">    4.88    4.89</time>
   <time name="total">    5.04    5.05</time>
   <energy>
    <i name="e_fr_energy">   -469.19665497 </i>
    <i name="e_wo_entrp">   -467.66654511 </i>
    <i name="e_0_energy">   -468.43160004 </i>
   </energy>
  </scstep>
  <scstep>
   <time name="dav">    4.64    4.65</time>
   <time name="total">    4.81    4.82</time>
   <energy>
    <i name="e_fr_energy">   -469.19472380 </i>
    <i name="e_wo_entrp">   -467.68025538 </i>
    <i name="e_0_energy">   -468.43748959 </i>
   </energy>
  </scstep>
  <scstep>
   <time name="dav">    4.77    4.78</time>
   <time name="total">    4.94    4.95</time>
   <energy>
    <i name="e_fr_energy">   -469.19209121 </i>
    <i name="e_wo_entrp">   -467.68594283 </i>
    <i name="e_0_energy">   -468.43901702 </i>
   </energy>
  </scstep>
  <scstep>
   <time name="dav">    4.59    4.60</time>
   <time name="total">    4.75    4.77</time>
   <energy>
    <i name="e_fr_energy">   -469.19165952 </i>
    <i name="e_wo_entrp">   -467.68262726 </i>
    <i name="e_0_energy">   -468.43714339 </i>
   </energy>
  </scstep>
  <scstep>
   <time name="dav">    4.39    4.40</time>
   <time name="total">    4.56    4.57</time>
   <energy>
    <i name="e_fr_energy">   -469.19078813 </i>
    <i name="e_wo_entrp">   -467.67970941 </i>
    <i name="e_0_energy">   -468.43524877 </i>
   </energy>
  </scstep>
  <scstep>
   <time name="dav">    4.08    4.09</time>
   <time name="total">    4.25    4.26</time>
   <energy>
    <i name="e_fr_energy">   -469.19054695 </i>
    <i name="e_wo_entrp">   -467.67947317 </i>
    <i name="e_0_energy">   -468.43501006 </i>
   </energy>
  </scstep>
  <scstep>
   <time name="dav">    3.89    3.90</time>
   <time name="total">    4.06    4.07</time>
   <energy>
    <i name="e_fr_energy">   -469.19089959 </i>
    <i name="e_wo_entrp">   -467.68187844 </i>
    <i name="e_0_energy">   -468.43638901 </i>
   </energy>
  </scstep>
  <scstep>
   <time name="dav">    3.49    3.50</time>
   <time name="total">    3.66    3.67</time>
   <energy>
    <i name="e_fr_energy">   -469.19112504 </i>
    <i name="e_wo_entrp">   -467.68235380 </i>
    <i name="e_0_energy">   -468.43673942 </i>
   </energy>
  </scstep>
  <scstep>
   <time name="dav">    2.81    2.81</time>
   <time name="total">    2.98    2.98</time>
   <energy>
    <i name="e_fr_energy">   -469.19155012 </i>
    <i name="e_wo_entrp">   -467.68144551 </i>
    <i name="e_0_energy">   -468.43649782 </i>
   </energy>
  </scstep>
  <scstep>
   <time name="dav">    2.92    2.93</time>
   <time name="total">    3.09    3.10</time>
   <energy>
    <i name="e_fr_energy">   -469.19203007 </i>
    <i name="e_wo_entrp">   -467.68099317 </i>
    <i name="e_0_energy">   -468.43651162 </i>
   </energy>
  </scstep>
  <scstep>
   <time name="dav">    3.12    3.13</time>
   <time name="total">    3.29    3.30</time>
   <energy>
    <i name="e_fr_energy">   -469.19293026 </i>
    <i name="e_wo_entrp">   -467.68167624 </i>
    <i name="e_0_energy">   -468.43730325 </i>
   </energy>
  </scstep>
  <scstep>
   <time name="dav">    2.90    2.90</time>
   <time name="total">    3.07    3.08</time>
   <energy>
    <i name="e_fr_energy">   -469.19360893 </i>
    <i name="e_wo_entrp">   -467.68381238 </i>
    <i name="e_0_energy">   -468.43871065 </i>
   </energy>
  </scstep>
  <scstep>
   <time name="dav">    2.88    2.88</time>
   <time name="total">    3.04    3.05</time>
   <energy>
    <i name="e_fr_energy">   -469.19421183 </i>
    <i name="e_wo_entrp">   -467.68550987 </i>
    <i name="e_0_energy">   -468.43986085 </i>
   </energy>
  </scstep>
  <scstep>
   <time name="dav">    2.85    2.85</time>
   <time name="total">    3.02    3.03</time>
   <energy>
    <i name="e_fr_energy">   -469.19477447 </i>
    <i name="e_wo_entrp">   -467.68429459 </i>
    <i name="e_0_energy">   -468.43953453 </i>
   </energy>
  </scstep>
  <scstep>
   <time name="dav">    2.75    2.75</time>
   <time name="total">    2.91    2.92</time>
   <energy>
    <i name="e_fr_energy">   -469.19500376 </i>
    <i name="e_wo_entrp">   -467.68425227 </i>
    <i name="e_0_energy">   -468.43962801 </i>
   </energy>
  </scstep>
  <scstep>
   <time name="dav">    2.83    2.84</time>
   <time name="total">    3.00    3.01</time>
   <energy>
    <i name="e_fr_energy">   -469.19540197 </i>
    <i name="e_wo_entrp">   -467.68575805 </i>
    <i name="e_0_energy">   -468.44058001 </i>
   </energy>
  </scstep>
  <scstep>
   <time name="dav">    2.74    2.75</time>
   <time name="total">    2.82    2.83</time>
   <energy>
    <i name="alphaZ">   2592.50432107 </i>
    <i name="ewald"> 253629.75626414 </i>
    <i name="hartreedc">-416565.86821733 </i>
    <i name="XCdc">   4828.61350186 </i>
    <i name="pawpsdc"> 174014.92483445 </i>
    <i name="pawaedc">-180640.75022772 </i>
    <i name="eentropy">     -1.51015570 </i>
    <i name="bandstr"> -19663.67254704 </i>
    <i name="atom"> 181336.80673834 </i>
    <i name="e_fr_energy">   -469.19548793 </i>
    <i name="e_wo_entrp">   -467.68533223 </i>
    <i name="e_0_energy">   -468.44041008 </i>
   </energy>
  </scstep>
  <structure>
   <crystal>
    <varray name="basis" >
     <v>      10.06282034       5.04456212       0.00000000 </v>
     <v>       0.00000000      11.25646304       0.00000000 </v>
     <v>       0.00000000       0.00000000      22.51995597 </v>
    </varray>
    <i name="volume">   2550.87516496 </i>
    <varray name="rec_basis" >
     <v>       0.09937572       0.00000000       0.00000000 </v>
     <v>      -0.04453504       0.08883785       0.00000000 </v>
     <v>       0.00000000       0.00000000       0.04440506 </v>
    </varray>
   </crystal>
   <varray name="positions" >
    <v>       0.26092069       0.47878037       0.29519774 </v>
    <v>       0.35488056       0.38482051       0.42557357 </v>
    <v>       0.07300096       0.16670012       0.03444608 </v>
    <v>       0.16696082       0.07274025       0.16482191 </v>
    <v>       0.18027919       0.42731887       0.00000000 </v>
    <v>       0.27423906       0.33335901       0.13037583 </v>
    <v>       0.36819893       0.23939914       0.26075166 </v>
    <v>       0.46215879       0.14543927       0.39112749 </v>
    <v>       0.00030194       0.37150214       0.26075166 </v>
    <v>       0.09426180       0.27754227       0.39112749 </v>
    <v>       0.18822167       0.18358240       0.52150332 </v>
    <v>       0.40634206       0.46546200       0.13037583 </v>
    <v>       0.31238219       0.05942188       0.00000000 </v>
    <v>       0.76092069       0.47878037       0.29519774 </v>
    <v>       0.85488056       0.38482051       0.42557357 </v>
    <v>       0.66696082       0.07274025       0.16482191 </v>
    <v>       0.68027919       0.42731887       0.00000000 </v>
    <v>       0.77423906       0.33335901       0.13037583 </v>
    <v>       0.86819893       0.23939914       0.26075166 </v>
    <v>       0.96215879       0.14543927       0.39112749 </v>
    <v>       0.50030194       0.37150214       0.26075166 </v>
    <v>       0.59426180       0.27754227       0.39112749 </v>
    <v>       0.68822167       0.18358240       0.52150332 </v>
    <v>       0.90634206       0.46546200       0.13037583 </v>
    <v>       0.81238219       0.05942188       0.00000000 </v>
    <v>       0.26092069       0.97878037       0.29519774 </v>
    <v>       0.35488056       0.88482051       0.42557357 </v>
    <v>       0.16696082       0.57274025       0.16482191 </v>
    <v>       0.05611868       0.55147941       0.52150332 </v>
    <v>       0.27423906       0.83335901       0.13037583 </v>
    <v>       0.36819893       0.73939914       0.26075166 </v>
    <v>       0.46215879       0.64543927       0.39112749 </v>
    <v>       0.00030194       0.87150214       0.26075166 </v>
    <v>       0.09426180       0.77754227       0.39112749 </v>
    <v>       0.18822167       0.68358240       0.52150332 </v>
    <v>       0.40634206       0.96546200       0.13037583 </v>
    <v>       0.31238219       0.55942188       0.00000000 </v>
    <v>       0.76092069       0.97878037       0.29519774 </v>
    <v>       0.85488056       0.88482051       0.42557357 </v>
    <v>       0.66696082       0.57274025       0.16482191 </v>
    <v>       0.68027919       0.92731887       0.00000000 </v>
    <v>       0.77423906       0.83335901       0.13037583 </v>
    <v>       0.86819893       0.73939914       0.26075166 </v>
    <v>       0.96215879       0.64543927       0.39112749 </v>
    <v>       0.50030194       0.87150214       0.26075166 </v>
    <v>       0.59426180       0.77754227       0.39112749 </v>
    <v>       0.90634206       0.96546200       0.13037583 </v>
    <v>       0.81238219       0.55942188       0.00000000 </v>
    <v>       0.07287763       0.16682345       0.31134756 </v>
    <v>       0.16683750       0.07286358       0.44172340 </v>
    <v>       0.38495788       0.35474318       0.05059591 </v>
    <v>       0.47891775       0.26078331       0.18097173 </v>
    <v>       0.03023342       0.37768265       0.48558574 </v>
    <v>       0.43627354       0.47164252       0.35520991 </v>
    <v>       0.24835381       0.15956227       0.09445824 </v>
    <v>       0.34231367       0.06560240       0.22483408 </v>
    <v>       0.08013881       0.49134726       0.09445824 </v>
    <v>       0.17409868       0.39738739       0.22483408 </v>
    <v>       0.26805854       0.30342752       0.35520991 </v>
    <v>       0.36201841       0.20946766       0.48558574 </v>
    <v>       0.57287763       0.16682345       0.31134756 </v>
    <v>       0.66683750       0.07286358       0.44172340 </v>
    <v>       0.88495788       0.35474318       0.05059591 </v>
    <v>       0.97891775       0.26078331       0.18097173 </v>
    <v>       0.53023342       0.37768265       0.48558574 </v>
    <v>       0.93627354       0.47164252       0.35520991 </v>
    <v>       0.74835381       0.15956227       0.09445824 </v>
    <v>       0.84231367       0.06560240       0.22483408 </v>
    <v>       0.58013881       0.49134726       0.09445824 </v>
    <v>       0.67409868       0.39738739       0.22483408 </v>
    <v>       0.76805854       0.30342752       0.35520991 </v>
    <v>       0.86201841       0.20946766       0.48558574 </v>
    <v>       0.07287763       0.66682345       0.31134756 </v>
    <v>       0.16683750       0.57286358       0.44172340 </v>
    <v>       0.38495788       0.85474318       0.05059591 </v>
    <v>       0.47891775       0.76078331       0.18097173 </v>
    <v>       0.03023342       0.87768265       0.48558574 </v>
    <v>       0.43627354       0.97164252       0.35520991 </v>
    <v>       0.24835381       0.65956227       0.09445824 </v>
    <v>       0.34231367       0.56560240       0.22483408 </v>
    <v>       0.08013881       0.99134726       0.09445824 </v>
    <v>       0.17409868       0.89738739       0.22483408 </v>
    <v>       0.26805854       0.80342752       0.35520991 </v>
    <v>       0.36201841       0.70946766       0.48558574 </v>
    <v>       0.57287763       0.66682345       0.31134756 </v>
    <v>       0.66683750       0.57286358       0.44172340 </v>
    <v>       0.88495788       0.85474318       0.05059591 </v>
    <v>       0.97891775       0.76078331       0.18097173 </v>
    <v>       0.53023342       0.87768265       0.48558574 </v>
    <v>       0.93627354       0.97164252       0.35520991 </v>
    <v>       0.74835381       0.65956227       0.09445824 </v>
    <v>       0.84231367       0.56560240       0.22483408 </v>
    <v>       0.58013881       0.99134726       0.09445824 </v>
    <v>       0.67409868       0.89738739       0.22483408 </v>
    <v>       0.76805854       0.80342752       0.35520991 </v>
    <v>       0.86201841       0.70946766       0.48558574 </v>
   </varray>
  </structure>
  <varray name="forces" >
   <v>       0.13110847      -0.12528349      -0.10609154 </v>
   <v>       0.07676927      -0.21229229       0.47453386 </v>
   <v>       0.12540723       0.13709484       1.04615065 </v>
   <v>      -0.23662668      -0.02838090      -0.18493501 </v>
   <v>       0.79966249       0.40476780       1.93948808 </v>
   <v>      -0.26517387      -0.02691899      -0.28320443 </v>
   <v>      -0.02205252       0.14017113       0.04666337 </v>
   <v>       0.03487365       0.00138414       0.38282340 </v>
   <v>      -0.13702118      -0.07241780       0.05863670 </v>
   <v>       0.03617623      -0.17263834       0.13369090 </v>
   <v>      -0.09167566       0.86773283      -2.19100542 </v>
   <v>      -0.02445501       0.19626666      -0.22508686 </v>
   <v>      -0.23888229      -0.82148415       2.09836181 </v>
   <v>       0.17978291      -0.18858143      -0.10353714 </v>
   <v>      -0.41315932      -0.04338330       0.25328160 </v>
   <v>      -0.16552231       0.11393069      -0.31839010 </v>
   <v>       0.72148795       0.50103240       1.90611698 </v>
   <v>      -0.21115011      -0.18749693      -0.09743674 </v>
   <v>      -0.00066087       0.16194429       0.07704870 </v>
   <v>       0.00322590       0.00694188       0.40543337 </v>
   <v>      -0.11886310      -0.02733410       0.00950265 </v>
   <v>      -0.02103151      -0.20447169       0.37454350 </v>
   <v>      -0.14098640       0.90539229      -2.28978255 </v>
   <v>       0.08052371       0.26143049      -0.09899863 </v>
   <v>      -0.20101125      -0.89777121       2.01264536 </v>
   <v>       0.19581594      -0.13671593      -0.12363457 </v>
   <v>       0.17281800       0.06316020       0.50882424 </v>
   <v>      -0.15728458       0.10895965      -0.33178032 </v>
   <v>      -0.79387960       0.16596078      -1.80821253 </v>
   <v>      -0.16930060      -0.03504683      -0.43857836 </v>
   <v>      -0.01448077       0.15462724       0.03680689 </v>
   <v>       0.20743982       0.01233151       0.33814586 </v>
   <v>      -0.10158514      -0.02843233       0.02120546 </v>
   <v>      -0.05351808      -0.03697355       0.40420848 </v>
   <v>      -0.42835013       0.87463293      -1.99456628 </v>
   <v>       0.14386975      -0.03263787      -0.27556862 </v>
   <v>      -0.02840349      -1.20285458       2.02613545 </v>
   <v>       0.13655922      -0.10965373      -0.11175897 </v>
   <v>       0.30620028      -0.21072262       0.64468293 </v>
   <v>      -0.17756363       0.13476459      -0.29926327 </v>
   <v>       0.84107715       0.52114146       1.99355807 </v>
   <v>      -0.16353623      -0.06340134      -0.24773806 </v>
   <v>      -0.03258095       0.10378613      -0.00676492 </v>
   <v>      -0.06170687       0.01029974       0.42966574 </v>
   <v>      -0.15781518      -0.08298123       0.03197020 </v>
   <v>       0.05025146      -0.23670342       0.62935633 </v>
   <v>      -0.01850847       0.35318006      -0.30006696 </v>
   <v>      -0.11879155      -0.87201721       1.86881001 </v>
   <v>      -0.06823914      -0.00284901       0.23194713 </v>
   <v>      -0.14986255       0.25126697       0.70540388 </v>
   <v>      -0.80458453       0.58638062      -1.68021135 </v>
   <v>      -0.01656249      -0.04785906      -0.26106552 </v>
   <v>       0.44430870      -0.26894125       0.64098794 </v>
   <v>       0.01289104      -0.08046776       0.22482050 </v>
   <v>      -0.02914147      -0.07703633      -1.01223102 </v>
   <v>       0.01257872       0.04637233      -0.11204135 </v>
   <v>       0.06893774      -0.35791243      -0.58346587 </v>
   <v>       0.00800861      -0.01739505      -0.03611603 </v>
   <v>       0.08581700       0.06667190       0.02709640 </v>
   <v>      -0.11712294       0.00435336       0.18812018 </v>
   <v>      -0.03350305      -0.02021799       0.21059776 </v>
   <v>      -0.07806229       0.20489435       0.79633986 </v>
   <v>       0.04806673      -0.05144370      -1.85995281 </v>
   <v>      -0.05515751       0.07443206      -0.14459823 </v>
   <v>       0.27571136      -0.74112793      -0.37817316 </v>
   <v>       0.04650167      -0.09477261       0.19627643 </v>
   <v>       0.40966259       0.07287776      -0.62630997 </v>
   <v>       0.00624818      -0.02856635       0.01042175 </v>
   <v>       0.15464900      -0.40959729      -0.67160917 </v>
   <v>       0.00173021      -0.00940746       0.03342371 </v>
   <v>       0.12060453       0.04327813       0.02477680 </v>
   <v>      -0.17342173       0.05121708       0.19990001 </v>
   <v>       0.01855795       0.00612784       0.18690931 </v>
   <v>       0.16033755      -0.05938899       1.11221337 </v>
   <v>      -0.05648770       1.15467083      -0.79402996 </v>
   <v>       0.04111542      -0.12374932      -0.16736948 </v>
   <v>       0.35871426      -0.60392379      -0.25243465 </v>
   <v>       0.11356557      -0.09538506       0.33229751 </v>
   <v>       0.39730269       0.13524615      -0.59753016 </v>
   <v>       0.01977170       0.02157649       0.00212141 </v>
   <v>      -0.14752112       0.30306309      -0.18667652 </v>
   <v>       0.05303665      -0.13733328      -0.04703516 </v>
   <v>       0.13135554       0.00485915       0.19355928 </v>
   <v>       0.02344109       0.18632481       0.06201866 </v>
   <v>      -0.03013111       0.05012044       0.26715127 </v>
   <v>      -0.40917709       0.32834533       0.07353904 </v>
   <v>      -0.86707278       0.46335055      -1.59707920 </v>
   <v>       0.01036181       0.01828007      -0.23707352 </v>
   <v>      -0.56971948      -0.72332515      -1.36485385 </v>
   <v>      -0.02172236      -0.02594707       0.12105242 </v>
   <v>       0.38282633       0.05428696      -0.69719283 </v>
   <v>       0.02563078       0.01456295      -0.01012306 </v>
   <v>       0.05329775      -0.36980740      -0.58902721 </v>
   <v>      -0.00325335      -0.03149685      -0.01272779 </v>
   <v>       0.03907994       0.07065073       0.06646075 </v>
   <v>       0.62915951       0.02040273      -0.30439681 </v>
  </varray>
  <varray name="stress" >
   <v>     -17.73648848       1.45832249      -4.93077786 </v>
   <v>       1.45832273     -16.06927195       5.50999571 </v>
   <v>      -4.93077757       5.50999552     -36.73119317 </v>
  </varray>
  <energy>
   <i name="e_fr_energy">   -469.19548793 </i>
   <i name="e_wo_entrp">   -467.68533223 </i>
   <i name="e_0_energy">   -468.44041008 </i>
  </energy>
  <time name="totalsc">  231.64  232.31</time>
  <eigenvalues>
   <array>
    <dimension dim="1">band</dimension>
    <dimension dim="2">kpoint</dimension>
    <dimension dim="3">spin</dimension>
    <field>eigene</field>
    <field>occ</field>
    <set>
     <set comment="spin 1">
      <set comment="kpoint 1">
       <r>  -62.3896    1.0000 </r>
       <r>  -62.3789    1.0000 </r>
       <r>  -62.3787    1.0000 </r>
       <r>  -62.3657    1.0000 </r>
       <r>  -62.3633    1.0000 </r>
       <r>  -62.3614    1.0000 </r>
       <r>  -62.3544    1.0000 </r>
       <r>  -62.3537    1.0000 </r>
       <r>  -62.3513    1.0000 </r>
       <r>  -62.3508    1.0000 </r>
       <r>  -62.3488    1.0000 </r>
       <r>  -62.3428    1.0000 </r>
       <r>  -62.3401    1.0000 </r>
       <r>  -62.3379    1.0000 </r>
       <r>  -62.3295    1.0000 </r>
       <r>  -62.3279    1.0000 </r>
       <r>  -62.3275    1.0000 </r>
       <r>  -62.3275    1.0000 </r>
       <r>  -62.3234    1.0000 </r>
       <r>  -62.3225    1.0000 </r>
       <r>  -62.3223    1.0000 </r>
       <r>  -62.3212    1.0000 </r>
       <r>  -62.3193    1.0000 </r>
       <r>  -62.3192    1.0000 </r>
       <r>  -62.3181    1.0000 </r>
       <r>  -62.3159    1.0000 </r>
       <r>  -62.3150    1.0000 </r>
       <r>  -62.3124    1.0000 </r>
       <r>  -62.3119    1.0000 </r>
       <r>  -62.3083    1.0000 </r>
       <r>  -62.3064    1.0000 </r>
       <r>  -62.3011    1.0000 </r>
       <r>  -62.2994    1.0000 </r>
       <r>  -62.2991    1.0000 </r>
       <r>  -62.2987    1.0000 </r>
       <r>  -62.2985    1.0000 </r>
       <r>  -62.2974    1.0000 </r>
       <r>  -62.2966    1.0000 </r>
       <r>  -62.2905    1.0000 </r>
       <r>  -62.2837    1.0000 </r>
       <r>  -62.2835    1.0000 </r>
       <r>  -62.2824    1.0000 </r>
       <r>  -62.2780    1.0000 </r>
       <r>  -62.2751    1.0000 </r>
       <r>  -62.2751    1.0000 </r>
       <r>  -62.2747    1.0000 </r>
       <r>  -62.2746    1.0000 </r>
       <r>  -62.2728    1.0000 </r>
       <r>  -62.2718    1.0000 </r>
       <r>  -62.2714    1.0000 </r>
       <r>  -62.2704    1.0000 </r>
       <r>  -62.2693    1.0000 </r>
       <r>  -62.2690    1.0000 </r>
       <r>  -62.2634    1.0000 </r>
       <r>  -62.2616    1.0000 </r>
       <r>  -62.2609    1.0000 </r>
       <r>  -62.2580    1.0000 </r>
       <r>  -62.2561    1.0000 </r>
       <r>  -62.2535    1.0000 </r>
       <r>  -62.2531    1.0000 </r>
       <r>  -62.2515    1.0000 </r>
       <r>  -62.2512    1.0000 </r>
       <r>  -62.2482    1.0000 </r>
       <r>  -62.2480    1.0000 </r>
       <r>  -62.2432    1.0000 </r>
       <r>  -62.2414    1.0000 </r>
       <r>  -62.2384    1.0000 </r>
       <r>  -62.2377    1.0000 </r>
       <r>  -62.2361    1.0000 </r>
       <r>  -62.2279    1.0000 </r>
       <r>  -62.2263    1.0000 </r>
       <r>  -62.2145    1.0000 </r>
       <r>  -62.1990    1.0000 </r>
       <r>  -62.1701    1.0000 </r>
       <r>  -62.1693    1.0000 </r>
       <r>  -62.1626    1.0000 </r>
       <r>  -62.1616    1.0000 </r>
       <r>  -62.1474    1.0000 </r>
       <r>  -62.1405    1.0000 </r>
       <r>  -62.1399    1.0000 </r>
       <r>  -62.1279    1.0000 </r>
       <r>  -62.1229    1.0000 </r>
       <r>  -62.1182    1.0000 </r>
       <r>  -62.1159    1.0000 </r>
       <r>  -62.1101    1.0000 </r>
       <r>  -62.1061    1.0000 </r>
       <r>  -62.1006    1.0000 </r>
       <r>  -62.0976    1.0000 </r>
       <r>  -62.0964    1.0000 </r>
       <r>  -62.0956    1.0000 </r>
       <r>  -62.0954    1.0000 </r>
       <r>  -62.0937    1.0000 </r>
       <r>  -62.0905    1.0000 </r>
       <r>  -62.0861    1.0000 </r>
       <r>  -62.0858    1.0000 </r>
       <r>  -62.0847    1.0000 </r>
       <r>  -62.0816    1.0000 </r>
       <r>  -62.0705    1.0000 </r>
       <r>  -62.0660    1.0000 </r>
       <r>  -62.0573    1.0000 </r>
       <r>  -62.0491    1.0000 </r>
       <r>  -62.0418    1.0000 </r>
       <r>  -62.0417    1.0000 </r>
       <r>  -62.0392    1.0000 </r>
       <r>  -62.0365    1.0000 </r>
       <r>  -62.0353    1.0000 </r>
       <r>  -62.0315    1.0000 </r>
       <r>  -62.0263    1.0000 </r>
       <r>  -61.8278    1.0000 </r>
       <r>  -61.7529    1.0000 </r>
       <r>  -61.7294    1.0000 </r>
       <r>  -61.7143    1.0000 </r>
       <r>  -61.6826    1.0000 </r>
       <r>  -61.6646    1.0000 </r>
       <r>  -61.5968    1.0000 </r>
       <r>  -61.5632    1.0000 </r>
       <r>  -61.5332    1.0000 </r>
       <r>  -61.5329    1.0000 </r>
       <r>  -61.5006    1.0000 </r>
       <r>  -61.4960    1.0000 </r>
       <r>  -61.4877    1.0000 </r>
       <r>  -61.3324    1.0000 </r>
       <r>  -61.2261    1.0000 </r>
       <r>  -61.1101    1.0000 </r>
       <r>  -61.0956    1.0000 </r>
       <r>  -61.0915    1.0000 </r>
       <r>  -61.0676    1.0000 </r>
       <r>  -61.0661    1.0000 </r>
       <r>  -61.0604    1.0000 </r>
       <r>  -61.0333    1.0000 </r>
       <r>  -61.0157    1.0000 </r>
       <r>  -61.0053    1.0000 </r>
       <r>  -61.0048    1.0000 </r>
       <r>  -60.9910    1.0000 </r>
       <r>  -60.9906    1.0000 </r>
       <r>  -60.9710    1.0000 </r>
       <r>  -60.9358    1.0000 </r>
       <r>  -60.8636    1.0000 </r>
       <r>  -60.8555    1.0000 </r>
       <r>  -60.8417    1.0000 </r>
       <r>  -60.8318    1.0000 </r>
       <r>  -60.8245    1.0000 </r>
       <r>  -60.8034    1.0000 </r>
       <r>  -60.8014    1.0000 </r>
       <r>  -13.6710    1.0000 </r>
       <r>  -13.0645    1.0000 </r>
       <r>  -12.9547    1.0000 </r>
       <r>  -12.9408    1.0000 </r>
       <r>  -12.8821    1.0000 </r>
       <r>  -12.6999    1.0000 </r>
       <r>  -12.6916    1.0000 </r>
       <r>  -12.5792    1.0000 </r>
       <r>  -12.4830    1.0000 </r>
       <r>  -12.3953    1.0000 </r>
       <r>  -12.3772    1.0000 </r>
       <r>  -12.2799    1.0000 </r>
       <r>  -12.2107    1.0000 </r>
       <r>  -12.1960    1.0000 </r>
       <r>  -12.0811    1.0000 </r>
       <r>  -12.0120    1.0000 </r>
       <r>  -11.9713    1.0000 </r>
       <r>  -11.9461    1.0000 </r>
       <r>  -11.9311    1.0000 </r>
       <r>  -11.9078    1.0000 </r>
       <r>  -11.8457    1.0000 </r>
       <r>  -11.7822    1.0000 </r>
       <r>  -11.7402    1.0000 </r>
       <r>  -11.7179    1.0000 </r>
       <r>  -11.6908    1.0000 </r>
       <r>  -11.6244    1.0000 </r>
       <r>  -11.5762    1.0000 </r>
       <r>  -11.5594    1.0000 </r>
       <r>  -11.5224    1.0000 </r>
       <r>  -11.4930    1.0000 </r>
       <r>  -11.4581    1.0000 </r>
       <r>  -11.4070    1.0000 </r>
       <r>  -11.3768    1.0000 </r>
       <r>  -11.3245    1.0000 </r>
       <r>  -11.2628    1.0000 </r>
       <r>  -11.1454    1.0000 </r>
       <r>  -11.1034    1.0000 </r>
       <r>  -11.0601    1.0000 </r>
       <r>  -10.9853    1.0000 </r>
       <r>  -10.9668    1.0000 </r>
       <r>  -10.8885    1.0000 </r>
       <r>  -10.7597    1.0000 </r>
       <r>  -10.7495    1.0000 </r>
       <r>  -10.6632    1.0000 </r>
       <r>  -10.6123    1.0000 </r>
       <r>  -10.4056    1.0000 </r>
       <r>  -10.3141    1.0000 </r>
       <r>   -9.8949    1.0000 </r>
       <r>   -5.4674    1.0000 </r>
       <r>   -5.4545    1.0000 </r>
       <r>   -5.4139    1.0000 </r>
       <r>   -5.4060    1.0000 </r>
       <r>   -5.3912    1.0000 </r>
       <r>   -5.3450    1.0000 </r>
       <r>   -5.0198    1.0000 </r>
       <r>   -4.9134    1.0000 </r>
       <r>   -4.8748    1.0000 </r>
       <r>   -4.7560    1.0000 </r>
       <r>   -4.7033    1.0000 </r>
       <r>   -4.6817    1.0000 </r>
       <r>   -4.6277    1.0000 </r>
       <r>   -4.5863    1.0000 </r>
       <r>   -4.5551    1.0000 </r>
       <r>   -4.5374    1.0000 </r>
       <r>   -4.5082    1.0000 </r>
       <r>   -4.4818    1.0000 </r>
       <r>   -4.4153    1.0000 </r>
       <r>   -4.3911    1.0000 </r>
       <r>   -4.3640    1.0000 </r>
       <r>   -4.3486    1.0000 </r>
       <r>   -4.3307    1.0000 </r>
       <r>   -4.3119    1.0000 </r>
       <r>   -4.3060    1.0000 </r>
       <r>   -4.2383    1.0000 </r>
       <r>   -4.1893    1.0000 </r>
       <r>   -4.1493    1.0000 </r>
       <r>   -4.1206    1.0000 </r>
       <r>   -4.0940    1.0000 </r>
       <r>   -4.0033    1.0000 </r>
       <r>   -3.9832    1.0000 </r>
       <r>   -3.9441    1.0000 </r>
       <r>   -3.9189    1.0000 </r>
       <r>   -3.9056    1.0000 </r>
       <r>   -3.8778    1.0000 </r>
       <r>   -3.8080    1.0000 </r>
       <r>   -3.7472    1.0000 </r>
       <r>   -3.7115    1.0000 </r>
       <r>   -3.6890    1.0000 </r>
       <r>   -3.5938    1.0000 </r>
       <r>   -3.5583    1.0000 </r>
       <r>   -3.5281    1.0000 </r>
       <r>   -3.4935    1.0000 </r>
       <r>   -3.4866    1.0000 </r>
       <r>   -3.4271    1.0000 </r>
       <r>   -3.3974    1.0000 </r>
       <r>   -3.3762    1.0000 </r>
       <r>   -3.3551    1.0000 </r>
       <r>   -3.3264    1.0000 </r>
       <r>   -3.2930    1.0000 </r>
       <r>   -3.2637    1.0000 </r>
       <r>   -3.2317    1.0000 </r>
       <r>   -3.1789    1.0000 </r>
       <r>   -3.1535    1.0000 </r>
       <r>   -3.1343    1.0000 </r>
       <r>   -3.0795    1.0000 </r>
       <r>   -3.0354    1.0000 </r>
       <r>   -2.9968    1.0000 </r>
       <r>   -2.9754    1.0000 </r>
       <r>   -2.9533    1.0000 </r>
       <r>   -2.9490    1.0000 </r>
       <r>   -2.9392    1.0000 </r>
       <r>   -2.9239    1.0000 </r>
       <r>   -2.9047    1.0000 </r>
       <r>   -2.8874    1.0000 </r>
       <r>   -2.8613    1.0000 </r>
       <r>   -2.8472    1.0000 </r>
       <r>   -2.8114    1.0000 </r>
       <r>   -2.8020    1.0000 </r>
       <r>   -2.7777    1.0000 </r>
       <r>   -2.7310    1.0000 </r>
       <r>   -2.7054    1.0000 </r>
       <r>   -2.6924    1.0000 </r>
       <r>   -2.6505    1.0000 </r>
       <r>   -2.6199    1.0000 </r>
       <r>   -2.5914    1.0000 </r>
       <r>   -2.5620    1.0000 </r>
       <r>   -2.5299    1.0000 </r>
       <r>   -2.5081    1.0000 </r>
       <r>   -2.4942    1.0000 </r>
       <r>   -2.4432    1.0000 </r>
       <r>   -2.4346    1.0000 </r>
       <r>   -2.4172    1.0000 </r>
       <r>   -2.4141    1.0000 </r>
       <r>   -2.3921    1.0000 </r>
       <r>   -2.3807    1.0000 </r>
       <r>   -2.3687    1.0000 </r>
       <r>   -2.3439    1.0000 </r>
       <r>   -2.3164    1.0000 </r>
       <r>   -2.3095    1.0000 </r>
       <r>   -2.2956    1.0000 </r>
       <r>   -2.2924    1.0000 </r>
       <r>   -2.2669    1.0000 </r>
       <r>   -2.2398    1.0000 </r>
       <r>   -2.2161    1.0000 </r>
       <r>   -2.1984    1.0000 </r>
       <r>   -2.1948    1.0000 </r>
       <r>   -2.1831    1.0000 </r>
       <r>   -2.1640    1.0000 </r>
       <r>   -2.1318    1.0000 </r>
       <r>   -2.1142    1.0000 </r>
       <r>   -2.0941    1.0000 </r>
       <r>   -2.0799    1.0000 </r>
       <r>   -2.0537    1.0000 </r>
       <r>   -2.0404    1.0000 </r>
       <r>   -2.0286    1.0000 </r>
       <r>   -2.0176    1.0000 </r>
       <r>   -1.9984    1.0000 </r>
       <r>   -1.9538    1.0000 </r>
       <r>   -1.9081    1.0000 </r>
       <r>   -1.9013    1.0000 </r>
       <r>   -1.8822    1.0000 </r>
       <r>   -1.8421    1.0000 </r>
       <r>   -1.8168    1.0000 </r>
       <r>   -1.7921    1.0000 </r>
       <r>   -1.7472    1.0000 </r>
       <r>   -1.7374    1.0000 </r>
       <r>   -1.6726    1.0000 </r>
       <r>   -1.6547    1.0000 </r>
       <r>   -1.6282    1.0000 </r>
       <r>   -1.6161    1.0000 </r>
       <r>   -1.5741    1.0000 </r>
       <r>   -1.5650    1.0000 </r>
       <r>   -1.5329    1.0000 </r>
       <r>   -1.5232    1.0000 </r>
       <r>   -1.4692    1.0000 </r>
       <r>   -1.4360    1.0000 </r>
       <r>   -1.4126    1.0000 </r>
       <r>   -1.3526    1.0000 </r>
       <r>   -1.3516    1.0000 </r>
       <r>   -1.2681    1.0000 </r>
       <r>   -1.2032    1.0000 </r>
       <r>   -1.1707    1.0000 </r>
       <r>   -1.1585    1.0000 </r>
       <r>   -1.1172    1.0000 </r>
       <r>   -1.0967    1.0000 </r>
       <r>   -1.0869    1.0000 </r>
       <r>   -1.0785    1.0000 </r>
       <r>   -1.0241    1.0000 </r>
       <r>   -1.0071    1.0000 </r>
       <r>   -1.0009    1.0000 </r>
       <r>   -0.9534    1.0000 </r>
       <r>   -0.9042    1.0000 </r>
       <r>   -0.8872    1.0000 </r>
       <r>   -0.8571    1.0000 </r>
       <r>   -0.8367    1.0000 </r>
       <r>   -0.8034    1.0000 </r>
       <r>   -0.7838    1.0000 </r>
       <r>   -0.7657    1.0000 </r>
       <r>   -0.7494    1.0000 </r>
       <r>   -0.7188    1.0000 </r>
       <r>   -0.7000    1.0000 </r>
       <r>   -0.6727    1.0000 </r>
       <r>   -0.6341    1.0000 </r>
       <r>   -0.6119    1.0000 </r>
       <r>   -0.5824    1.0000 </r>
       <r>   -0.5811    1.0000 </r>
       <r>   -0.5546    1.0000 </r>
       <r>   -0.5480    1.0000 </r>
       <r>   -0.5272    1.0000 </r>
       <r>   -0.5250    1.0000 </r>
       <r>   -0.5215    1.0000 </r>
       <r>   -0.5017    1.0000 </r>
       <r>   -0.4959    1.0000 </r>
       <r>   -0.4796    1.0000 </r>
       <r>   -0.4773    1.0000 </r>
       <r>   -0.4533    1.0000 </r>
       <r>   -0.4281    1.0000 </r>
       <r>   -0.4096    1.0000 </r>
       <r>   -0.3979    1.0000 </r>
       <r>   -0.3902    1.0000 </r>
       <r>   -0.3740    1.0000 </r>
       <r>   -0.3656    1.0000 </r>
       <r>   -0.3527    1.0000 </r>
       <r>   -0.3414    1.0000 </r>
       <r>   -0.3373    1.0000 </r>
       <r>   -0.3262    1.0000 </r>
       <r>   -0.3036    1.0000 </r>
       <r>   -0.2969    1.0000 </r>
       <r>   -0.2827    1.0000 </r>
       <r>   -0.2725    1.0000 </r>
       <r>   -0.2412    1.0000 </r>
       <r>   -0.2212    1.0000 </r>
       <r>   -0.2198    1.0000 </r>
       <r>   -0.1937    1.0000 </r>
       <r>   -0.1918    1.0000 </r>
       <r>   -0.1741    1.0000 </r>
       <r>   -0.1641    1.0000 </r>
       <r>   -0.1336    1.0000 </r>
       <r>   -0.1279    1.0000 </r>
       <r>   -0.1029    1.0000 </r>
       <r>   -0.1015    1.0000 </r>
       <r>   -0.0810    1.0000 </r>
       <r>   -0.0629    1.0000 </r>
       <r>   -0.0533    1.0000 </r>
       <r>   -0.0408    1.0000 </r>
       <r>   -0.0376    1.0000 </r>
       <r>   -0.0336    1.0000 </r>
       <r>   -0.0269    1.0000 </r>
       <r>   -0.0175    1.0000 </r>
       <r>   -0.0071    1.0000 </r>
       <r>   -0.0023    1.0000 </r>
       <r>    0.0008    1.0000 </r>
       <r>    0.0079    1.0000 </r>
       <r>    0.0237    1.0000 </r>
       <r>    0.0274    1.0000 </r>
       <r>    0.0364    1.0000 </r>
       <r>    0.0392    1.0000 </r>
       <r>    0.0486    1.0000 </r>
       <r>    0.0620    1.0000 </r>
       <r>    0.0649    1.0000 </r>
       <r>    0.0768    1.0000 </r>
       <r>    0.0807    1.0000 </r>
[...]
       <r>   -57.9154     0.0000   288.0000 </r>
       <r>   -57.6577     0.0000   288.0000 </r>
       <r>   -57.4001     0.0000   288.0000 </r>
       <r>   -57.1424     0.0000   288.0000 </r>
       <r>   -56.8847     0.0000   288.0000 </r>
       <r>   -56.6270     0.0000   288.0000 </r>
       <r>   -56.3694     0.0000   288.0000 </r>
       <r>   -56.1117     0.0000   288.0000 </r>
       <r>   -55.8540     0.0000   288.0000 </r>
       <r>   -55.5963     0.0000   288.0000 </r>
       <r>   -55.3387     0.0000   288.0000 </r>
       <r>   -55.0810     0.0000   288.0000 </r>
       <r>   -54.8233     0.0000   288.0000 </r>
       <r>   -54.5656     0.0000   288.0000 </r>
       <r>   -54.3080     0.0000   288.0000 </r>
       <r>   -54.0503     0.0000   288.0000 </r>
       <r>   -53.7926     0.0000   288.0000 </r>
       <r>   -53.5349     0.0000   288.0000 </r>
       <r>   -53.2773     0.0000   288.0000 </r>
       <r>   -53.0196     0.0000   288.0000 </r>
       <r>   -52.7619     0.0000   288.0000 </r>
       <r>   -52.5042     0.0000   288.0000 </r>
       <r>   -52.2466     0.0000   288.0000 </r>
       <r>   -51.9889     0.0000   288.0000 </r>
       <r>   -51.7312     0.0000   288.0000 </r>
       <r>   -51.4736     0.0000   288.0000 </r>
       <r>   -51.2159     0.0000   288.0000 </r>
       <r>   -50.9582     0.0000   288.0000 </r>
       <r>   -50.7005     0.0000   288.0000 </r>
       <r>   -50.4429     0.0000   288.0000 </r>
       <r>   -50.1852     0.0000   288.0000 </r>
       <r>   -49.9275     0.0000   288.0000 </r>
       <r>   -49.6698     0.0000   288.0000 </r>
       <r>   -49.4122     0.0000   288.0000 </r>
       <r>   -49.1545     0.0000   288.0000 </r>
       <r>   -48.8968     0.0000   288.0000 </r>
       <r>   -48.6391     0.0000   288.0000 </r>
       <r>   -48.3815     0.0000   288.0000 </r>
       <r>   -48.1238     0.0000   288.0000 </r>
       <r>   -47.8661     0.0000   288.0000 </r>
       <r>   -47.6084     0.0000   288.0000 </r>
       <r>   -47.3508     0.0000   288.0000 </r>
       <r>   -47.0931     0.0000   288.0000 </r>
       <r>   -46.8354     0.0000   288.0000 </r>
       <r>   -46.5777     0.0000   288.0000 </r>
       <r>   -46.3201     0.0000   288.0000 </r>
       <r>   -46.0624     0.0000   288.0000 </r>
       <r>   -45.8047     0.0000   288.0000 </r>
       <r>   -45.5470     0.0000   288.0000 </r>
       <r>   -45.2894     0.0000   288.0000 </r>
       <r>   -45.0317     0.0000   288.0000 </r>
       <r>   -44.7740     0.0000   288.0000 </r>
       <r>   -44.5164     0.0000   288.0000 </r>
       <r>   -44.2587     0.0000   288.0000 </r>
       <r>   -44.0010     0.0000   288.0000 </r>
       <r>   -43.7433     0.0000   288.0000 </r>
       <r>   -43.4857     0.0000   288.0000 </r>
       <r>   -43.2280     0.0000   288.0000 </r>
       <r>   -42.9703     0.0000   288.0000 </r>
       <r>   -42.7126     0.0000   288.0000 </r>
       <r>   -42.4550     0.0000   288.0000 </r>
       <r>   -42.1973     0.0000   288.0000 </r>
       <r>   -41.9396     0.0000   288.0000 </r>
       <r>   -41.6819     0.0000   288.0000 </r>
       <r>   -41.4243     0.0000   288.0000 </r>
       <r>   -41.1666     0.0000   288.0000 </r>
       <r>   -40.9089     0.0000   288.0000 </r>
       <r>   -40.6512     0.0000   288.0000 </r>
       <r>   -40.3936     0.0000   288.0000 </r>
       <r>   -40.1359     0.0000   288.0000 </r>
       <r>   -39.8782     0.0000   288.0000 </r>
       <r>   -39.6205     0.0000   288.0000 </r>
       <r>   -39.3629     0.0000   288.0000 </r>
       <r>   -39.1052     0.0000   288.0000 </r>
       <r>   -38.8475     0.0000   288.0000 </r>
       <r>   -38.5898     0.0000   288.0000 </r>
       <r>   -38.3322     0.0000   288.0000 </r>
       <r>   -38.0745     0.0000   288.0000 </r>
       <r>   -37.8168     0.0000   288.0000 </r>
       <r>   -37.5591     0.0000   288.0000 </r>
       <r>   -37.3015     0.0000   288.0000 </r>
       <r>   -37.0438     0.0000   288.0000 </r>
       <r>   -36.7861     0.0000   288.0000 </r>
       <r>   -36.5285     0.0000   288.0000 </r>
       <r>   -36.2708     0.0000   288.0000 </r>
       <r>   -36.0131     0.0000   288.0000 </r>
       <r>   -35.7554     0.0000   288.0000 </r>
       <r>   -35.4978     0.0000   288.0000 </r>
       <r>   -35.2401     0.0000   288.0000 </r>
       <r>   -34.9824     0.0000   288.0000 </r>
       <r>   -34.7247     0.0000   288.0000 </r>
       <r>   -34.4671     0.0000   288.0000 </r>
       <r>   -34.2094     0.0000   288.0000 </r>
       <r>   -33.9517     0.0000   288.0000 </r>
       <r>   -33.6940     0.0000   288.0000 </r>
       <r>   -33.4364     0.0000   288.0000 </r>
       <r>   -33.1787     0.0000   288.0000 </r>
       <r>   -32.9210     0.0000   288.0000 </r>
       <r>   -32.6633     0.0000   288.0000 </r>
       <r>   -32.4057     0.0000   288.0000 </r>
       <r>   -32.1480     0.0000   288.0000 </r>
       <r>   -31.8903     0.0000   288.0000 </r>
       <r>   -31.6326     0.0000   288.0000 </r>
       <r>   -31.3750     0.0000   288.0000 </r>
       <r>   -31.1173     0.0000   288.0000 </r>
       <r>   -30.8596     0.0000   288.0000 </r>
       <r>   -30.6019     0.0000   288.0000 </r>
       <r>   -30.3443     0.0000   288.0000 </r>
       <r>   -30.0866     0.0000   288.0000 </r>
       <r>   -29.8289     0.0000   288.0000 </r>
       <r>   -29.5713     0.0000   288.0000 </r>
       <r>   -29.3136     0.0000   288.0000 </r>
       <r>   -29.0559     0.0000   288.0000 </r>
       <r>   -28.7982     0.0000   288.0000 </r>
       <r>   -28.5406     0.0000   288.0000 </r>
       <r>   -28.2829     0.0000   288.0000 </r>
       <r>   -28.0252     0.0000   288.0000 </r>
       <r>   -27.7675     0.0000   288.0000 </r>
       <r>   -27.5099     0.0000   288.0000 </r>
       <r>   -27.2522     0.0000   288.0000 </r>
       <r>   -26.9945     0.0000   288.0000 </r>
       <r>   -26.7368     0.0000   288.0000 </r>
       <r>   -26.4792     0.0000   288.0000 </r>
       <r>   -26.2215     0.0000   288.0000 </r>
       <r>   -25.9638     0.0000   288.0000 </r>
       <r>   -25.7061     0.0000   288.0000 </r>
       <r>   -25.4485     0.0000   288.0000 </r>
       <r>   -25.1908     0.0000   288.0000 </r>
       <r>   -24.9331     0.0000   288.0000 </r>
       <r>   -24.6754     0.0000   288.0000 </r>
       <r>   -24.4178     0.0000   288.0000 </r>
       <r>   -24.1601     0.0000   288.0000 </r>
       <r>   -23.9024     0.0000   288.0000 </r>
       <r>   -23.6447     0.0000   288.0000 </r>
       <r>   -23.3871     0.0000   288.0000 </r>
       <r>   -23.1294     0.0000   288.0000 </r>
       <r>   -22.8717     0.0000   288.0000 </r>
       <r>   -22.6141     0.0000   288.0000 </r>
       <r>   -22.3564     0.0000   288.0000 </r>
       <r>   -22.0987     0.0000   288.0000 </r>
       <r>   -21.8410     0.0000   288.0000 </r>
       <r>   -21.5834     0.0000   288.0000 </r>
       <r>   -21.3257     0.0000   288.0000 </r>
       <r>   -21.0680     0.0000   288.0000 </r>
       <r>   -20.8103     0.0000   288.0000 </r>
       <r>   -20.5527     0.0000   288.0000 </r>
       <r>   -20.2950     0.0000   288.0000 </r>
       <r>   -20.0373     0.0000   288.0000 </r>
       <r>   -19.7796     0.0000   288.0000 </r>
       <r>   -19.5220     0.0000   288.0000 </r>
       <r>   -19.2643     0.0000   288.0000 </r>
       <r>   -19.0066     0.0000   288.0000 </r>
       <r>   -18.7489     0.0000   288.0000 </r>
       <r>   -18.4913     0.0000   288.0000 </r>
       <r>   -18.2336     0.0000   288.0000 </r>
       <r>   -17.9759     0.0000   288.0000 </r>
       <r>   -17.7182     0.0000   288.0000 </r>
       <r>   -17.4606     0.0000   288.0000 </r>
       <r>   -17.2029     0.0000   288.0000 </r>
       <r>   -16.9452     0.0000   288.0000 </r>
       <r>   -16.6875     0.0000   288.0000 </r>
       <r>   -16.4299     0.0000   288.0000 </r>
       <r>   -16.1722     0.0000   288.0000 </r>
       <r>   -15.9145     0.0000   288.0000 </r>
       <r>   -15.6569     0.0000   288.0000 </r>
       <r>   -15.3992     0.0000   288.0000 </r>
       <r>   -15.1415     0.0000   288.0000 </r>
       <r>   -14.8838     0.0000   288.0000 </r>
       <r>   -14.6262     0.0000   288.0000 </r>
       <r>   -14.3685     0.0000   288.0000 </r>
       <r>   -14.1108     0.0073   288.0019 </r>
       <r>   -13.8531     0.7605   288.1978 </r>
       <r>   -13.5955     4.6927   289.4070 </r>
       <r>   -13.3378     2.4871   290.0479 </r>
       <r>   -13.0801     6.7493   291.7870 </r>
       <r>   -12.8224    21.5320   297.3352 </r>
       <r>   -12.5648    23.4517   303.3781 </r>
       <r>   -12.3071    27.7632   310.5320 </r>
       <r>   -12.0494    34.0713   319.3113 </r>
       <r>   -11.7917    46.2892   331.2388 </r>
       <r>   -11.5341    50.5193   344.2563 </r>
       <r>   -11.2764    44.1273   355.6268 </r>
       <r>   -11.0187    33.2682   364.1991 </r>
       <r>   -10.7610    30.4297   372.0401 </r>
       <r>   -10.5034    22.3956   377.8108 </r>
       <r>   -10.2457    12.8153   381.1130 </r>
       <r>    -9.9880     5.3275   382.4858 </r>
       <r>    -9.7303     4.9267   383.7552 </r>
       <r>    -9.4727     0.9389   383.9972 </r>
       <r>    -9.2150     0.0110   384.0000 </r>
       <r>    -8.9573     0.0000   384.0000 </r>
       <r>    -8.6996     0.0000   384.0000 </r>
       <r>    -8.4420     0.0000   384.0000 </r>
       <r>    -8.1843     0.0000   384.0000 </r>
       <r>    -7.9266     0.0000   384.0000 </r>
       <r>    -7.6690     0.0000   384.0000 </r>
       <r>    -7.4113     0.0000   384.0000 </r>
       <r>    -7.1536     0.0000   384.0000 </r>
       <r>    -6.8959     0.0000   384.0000 </r>
       <r>    -6.6383     0.0000   384.0000 </r>
       <r>    -6.3806     0.0000   384.0000 </r>
       <r>    -6.1229     0.0000   384.0000 </r>
       <r>    -5.8652     0.0473   384.0122 </r>
       <r>    -5.6076     4.2804   385.1151 </r>
       <r>    -5.3499    26.7854   392.0171 </r>
       <r>    -5.0922    18.5290   396.7915 </r>
       <r>    -4.8345    20.2745   402.0157 </r>
       <r>    -4.5769    42.3886   412.9382 </r>
       <r>    -4.3192    62.2825   428.9867 </r>
       <r>    -4.0615    56.8274   443.6297 </r>
       <r>    -3.8038    50.8079   456.7216 </r>
       <r>    -3.5462    48.3395   469.1774 </r>
       <r>    -3.2885    60.4626   484.7571 </r>
       <r>    -3.0308    66.3458   501.8527 </r>
       <r>    -2.7731    83.6615   523.4101 </r>
       <r>    -2.5155    80.8917   544.2538 </r>
       <r>    -2.2578   103.7148   570.9784 </r>
       <r>    -2.0001   103.4423   597.6328 </r>
       <r>    -1.7424    77.9430   617.7167 </r>
       <r>    -1.4848    68.1992   635.2898 </r>
       <r>    -1.2271    57.2081   650.0309 </r>
       <r>    -0.9694    67.8161   667.5053 </r>
       <r>    -0.7118    81.2013   688.4288 </r>
       <r>    -0.4541   117.5234   718.7115 </r>
       <r>    -0.1964   147.9176   756.8261 </r>
       <r>     0.0613   195.6710   807.2454 </r>
       <r>     0.3189   235.6407   867.9639 </r>
       <r>     0.5766   187.2963   916.2254 </r>
       <r>     0.8343   148.6890   954.5387 </r>
       <r>     1.0920   130.7844   988.2384 </r>
       <r>     1.3496   123.8061  1020.1400 </r>
       <r>     1.6073   102.9807  1046.6755 </r>
       <r>     1.8650    75.0419  1066.0118 </r>
       <r>     2.1227    61.1091  1081.7581 </r>
       <r>     2.3803    71.4826  1100.1773 </r>
       <r>     2.6380    90.5450  1123.5084 </r>
       <r>     2.8957    80.1175  1144.1526 </r>
       <r>     3.1534    43.4469  1155.3477 </r>
       <r>     3.4110    16.6584  1159.6401 </r>
       <r>     3.6687    13.8967  1163.2210 </r>
       <r>     3.9264     5.3953  1164.6112 </r>
       <r>     4.1841     7.5578  1166.5586 </r>
       <r>     4.4417    11.2966  1169.4695 </r>
       <r>     4.6994     9.0331  1171.7971 </r>
       <r>     4.9571     6.5875  1173.4945 </r>
       <r>     5.2148    17.7634  1178.0717 </r>
       <r>     5.4724    17.8640  1182.6748 </r>
       <r>     5.7301    22.2589  1188.4103 </r>
       <r>     5.9878    22.5607  1194.2236 </r>
       <r>     6.2454    28.0725  1201.4571 </r>
       <r>     6.5031    31.0420  1209.4559 </r>
       <r>     6.7608    37.7427  1219.1812 </r>
       <r>     7.0185    44.4149  1230.6257 </r>
       <r>     7.2761    58.3373  1245.6577 </r>
       <r>     7.5338    54.8750  1259.7976 </r>
       <r>     7.7915    50.7127  1272.8649 </r>
       <r>     8.0492    25.2325  1279.3667 </r>
       <r>     8.3068     2.4373  1279.9947 </r>
       <r>     8.5645     0.0204  1280.0000 </r>
       <r>     8.8222     0.0000  1280.0000 </r>
       <r>     9.0799     0.0000  1280.0000 </r>
       <r>     9.3375     0.0000  1280.0000 </r>
       <r>     9.5952     0.0000  1280.0000 </r>
       <r>     9.8529     0.0000  1280.0000 </r>
       <r>    10.1106     0.0000  1280.0000 </r>
       <r>    10.3682     0.0000  1280.0000 </r>
       <r>    10.6259     0.0000  1280.0000 </r>
       <r>    10.8836     0.0000  1280.0000 </r>
       <r>    11.1413     0.0000  1280.0000 </r>
       <r>    11.3989     0.0000  1280.0000 </r>
      </set>
     </set>
    </array>
   </total>
  </dos>
 </calculation>
 <structure name="finalpos" >
  <crystal>
   <varray name="basis" >
    <v>      10.06282034       5.04456212       0.00000000 </v>
    <v>       0.00000000      11.25646304       0.00000000 </v>
    <v>       0.00000000       0.00000000      22.51995597 </v>
   </varray>
   <i name="volume">   2550.87516496 </i>
   <varray name="rec_basis" >
    <v>       0.09937572       0.00000000       0.00000000 </v>
    <v>      -0.04453504       0.08883785       0.00000000 </v>
    <v>       0.00000000       0.00000000       0.04440506 </v>
   </varray>
  </crystal>
  <varray name="positions" >
   <v>       0.26092069       0.47878037       0.29519774 </v>
   <v>       0.35488056       0.38482051       0.42557357 </v>
   <v>       0.07300096       0.16670012       0.03444608 </v>
   <v>       0.16696082       0.07274025       0.16482191 </v>
   <v>       0.18027919       0.42731887       0.00000000 </v>
   <v>       0.27423906       0.33335901       0.13037583 </v>
   <v>       0.36819893       0.23939914       0.26075166 </v>
   <v>       0.46215879       0.14543927       0.39112749 </v>
   <v>       0.00030194       0.37150214       0.26075166 </v>
   <v>       0.09426180       0.27754227       0.39112749 </v>
   <v>       0.18822167       0.18358240       0.52150332 </v>
   <v>       0.40634206       0.46546200       0.13037583 </v>
   <v>       0.31238219       0.05942188       0.00000000 </v>
   <v>       0.76092069       0.47878037       0.29519774 </v>
   <v>       0.85488056       0.38482051       0.42557357 </v>
   <v>       0.66696082       0.07274025       0.16482191 </v>
   <v>       0.68027919       0.42731887       0.00000000 </v>
   <v>       0.77423906       0.33335901       0.13037583 </v>
   <v>       0.86819893       0.23939914       0.26075166 </v>
   <v>       0.96215879       0.14543927       0.39112749 </v>
   <v>       0.50030194       0.37150214       0.26075166 </v>
   <v>       0.59426180       0.27754227       0.39112749 </v>
   <v>       0.68822167       0.18358240       0.52150332 </v>
   <v>       0.90634206       0.46546200       0.13037583 </v>
   <v>       0.81238219       0.05942188       0.00000000 </v>
   <v>       0.26092069       0.97878037       0.29519774 </v>
   <v>       0.35488056       0.88482051       0.42557357 </v>
   <v>       0.16696082       0.57274025       0.16482191 </v>
   <v>       0.05611868       0.55147941       0.52150332 </v>
   <v>       0.27423906       0.83335901       0.13037583 </v>
   <v>       0.36819893       0.73939914       0.26075166 </v>
   <v>       0.46215879       0.64543927       0.39112749 </v>
   <v>       0.00030194       0.87150214       0.26075166 </v>
   <v>       0.09426180       0.77754227       0.39112749 </v>
   <v>       0.18822167       0.68358240       0.52150332 </v>
   <v>       0.40634206       0.96546200       0.13037583 </v>
   <v>       0.31238219       0.55942188       0.00000000 </v>
   <v>       0.76092069       0.97878037       0.29519774 </v>
   <v>       0.85488056       0.88482051       0.42557357 </v>
   <v>       0.66696082       0.57274025       0.16482191 </v>
   <v>       0.68027919       0.92731887       0.00000000 </v>
   <v>       0.77423906       0.83335901       0.13037583 </v>
   <v>       0.86819893       0.73939914       0.26075166 </v>
   <v>       0.96215879       0.64543927       0.39112749 </v>
   <v>       0.50030194       0.87150214       0.26075166 </v>
   <v>       0.59426180       0.77754227       0.39112749 </v>
   <v>       0.90634206       0.96546200       0.13037583 </v>
   <v>       0.81238219       0.55942188       0.00000000 </v>
   <v>       0.07287763       0.16682345       0.31134756 </v>
   <v>       0.16683750       0.07286358       0.44172340 </v>
   <v>       0.38495788       0.35474318       0.05059591 </v>
   <v>       0.47891775       0.26078331       0.18097173 </v>
   <v>       0.03023342       0.37768265       0.48558574 </v>
   <v>       0.43627354       0.47164252       0.35520991 </v>
   <v>       0.24835381       0.15956227       0.09445824 </v>
   <v>       0.34231367       0.06560240       0.22483408 </v>
   <v>       0.08013881       0.49134726       0.09445824 </v>
   <v>       0.17409868       0.39738739       0.22483408 </v>
   <v>       0.26805854       0.30342752       0.35520991 </v>
   <v>       0.36201841       0.20946766       0.48558574 </v>
   <v>       0.57287763       0.16682345       0.31134756 </v>
   <v>       0.66683750       0.07286358       0.44172340 </v>
   <v>       0.88495788       0.35474318       0.05059591 </v>
   <v>       0.97891775       0.26078331       0.18097173 </v>
   <v>       0.53023342       0.37768265       0.48558574 </v>
   <v>       0.93627354       0.47164252       0.35520991 </v>
   <v>       0.74835381       0.15956227       0.09445824 </v>
   <v>       0.84231367       0.06560240       0.22483408 </v>
   <v>       0.58013881       0.49134726       0.09445824 </v>
   <v>       0.67409868       0.39738739       0.22483408 </v>
   <v>       0.76805854       0.30342752       0.35520991 </v>
   <v>       0.86201841       0.20946766       0.48558574 </v>
   <v>       0.07287763       0.66682345       0.31134756 </v>
   <v>       0.16683750       0.57286358       0.44172340 </v>
   <v>       0.38495788       0.85474318       0.05059591 </v>
   <v>       0.47891775       0.76078331       0.18097173 </v>
   <v>       0.03023342       0.87768265       0.48558574 </v>
   <v>       0.43627354       0.97164252       0.35520991 </v>
   <v>       0.24835381       0.65956227       0.09445824 </v>
   <v>       0.34231367       0.56560240       0.22483408 </v>
   <v>       0.08013881       0.99134726       0.09445824 </v>
   <v>       0.17409868       0.89738739       0.22483408 </v>
   <v>       0.26805854       0.80342752       0.35520991 </v>
   <v>       0.36201841       0.70946766       0.48558574 </v>
   <v>       0.57287763       0.66682345       0.31134756 </v>
   <v>       0.66683750       0.57286358       0.44172340 </v>
   <v>       0.88495788       0.85474318       0.05059591 </v>
   <v>       0.97891775       0.76078331       0.18097173 </v>
   <v>       0.53023342       0.87768265       0.48558574 </v>
   <v>       0.93627354       0.97164252       0.35520991 </v>
   <v>       0.74835381       0.65956227       0.09445824 </v>
   <v>       0.84231367       0.56560240       0.22483408 </v>
   <v>       0.58013881       0.99134726       0.09445824 </v>
   <v>       0.67409868       0.89738739       0.22483408 </v>
   <v>       0.76805854       0.80342752       0.35520991 </v>
   <v>       0.86201841       0.70946766       0.48558574 </v>
  </varray>
 </structure>
</modeling>
