
72 atoms
2 atom types
   0.0000000000   10.0797329849 xlo xhi
   0.0000000000    9.4251025535 ylo yhi
   0.0000000000   20.4938792703 zlo zhi
   3.5732980427    0.0000000000    0.0000000000 xy xz yz

Atoms # atomic

     1      1    6.4580091030    7.0816658841    1.9426372363
     2      1    7.4357214002    5.6653697479    4.5681396292
     3      1    8.4134337038    4.2490736023    7.1936420221
     4      1    9.3911460010    2.8327774662    9.8191444150
     5      1    6.7839132037    1.7424616121    0.1923022872
     6      1    7.7616254973    0.3261654665    2.8178047006
     7      1    3.2106151560    6.9186757383    8.0688094864
     8      1   12.3126358473    8.3349718839    5.4433070935
     9      1    2.5588069595    2.9957676025    3.6929721649
    10      1    3.5365192567    1.5794714664    6.3184745578
    11      1    4.5142315604    0.1631753208    8.9439769507
    12      1   11.6608276407    4.4120637481    1.0674697720
    13      1    0.5138172559    1.0909966952    8.4317974450
    14      1    7.6604133427    5.3398851131    0.5552902458
    15      1    8.6381256399    3.9235889769    3.1807926592
    16      1    9.6158379435    2.5072928313    5.8062950521
    17      1    3.4353071021    6.5931911129    4.0559601235
    18      1    4.4130193957    5.1768949673    6.6814625164
    19      1    5.3907316929    3.7605988312    9.3069649093
    20      1   12.5373277797    8.0094872491    1.4304577306
    21      1    3.7612111993    1.2539868315    2.3056251949
    22      1    8.3122215391    9.2627932489    4.9311275878
    23      1    9.2899338363    7.8464971127    7.5566299807
    24      1   10.2676461400    6.4302009671   10.1821323736
    25      1    1.7162214971    3.2069713986    9.1254709300
    26      1    8.8628175738    7.4558598165    1.2489637513
    27      1    9.8405298811    6.0395636804    3.8744661442
    28      1   10.8182421783    4.6232675442    6.4999685371
    29      1   10.1664339818    0.7003594084    2.1241312156
    30      1    4.6377113333    8.7091658163    4.7496336085
    31      1    5.6154236405    7.2928696802    7.3751360014
    32      1    6.5931359341    5.8765735346   10.0006383943
    33      1    3.9859031368    4.7862576805    0.3737962665
    34      1    4.9636154340    3.3699615444    2.9992986799
    35      1    5.9413277377    1.9536653988    5.6248010728
    36      1    6.9190400348    0.5373692626    8.2503034657
    37      2    1.5798113594    2.4701759669    6.9932094031
    38      2    2.5575236631    1.0538798213    9.6187117960
    39      2    9.7041197398    5.3027682393    1.7422046173
    40      2   10.6818320471    3.8864721031    4.3677070102
    41      2    4.5013012057    7.9723703847    2.6173720816
    42      2    5.4790134993    6.5560742391    5.2428744745
    43      2    6.4567258065    5.1397781029    7.8683768674
    44      2    7.4344381001    3.7234819573   10.4938792603
    45      2    4.8272053028    2.6331661033    0.8670371530
    46      2    5.8049176000    1.2168699671    3.4925395459
    47      2   10.3559279464    9.2256763751    6.1180419388
    48      2   11.3336402436    7.8093802389    8.7435443317
    49      2    7.1953110314    8.9369826092    0.8832977756
    50      2    8.1730233387    7.5206864730    3.5088001685
    51      2    9.1507356359    6.1043903368    6.1343025614
    52      2   10.1284479396    4.6880941913    8.7598049543
    53      2    8.4989274394    2.1814822011    1.7584652399
    54      2    9.4766397330    0.7651860555    4.3839676328
    55      2    3.9479170981    8.7739924728    7.0094700257
    56      2    4.9256293917    7.3576963272    9.6349724186
    57      2    3.2961088916    4.8510843370    2.6336327042
    58      2    4.2738211953    3.4347881914    5.2591350971
    59      2    5.2515334925    2.0184920553    7.8846374900
    60      2   12.3981295793    6.2673804732    0.0081303113
    61      2    5.6642146296    6.2425798710    0.0000000000
    62      2    6.6419269267    4.8262837348    2.6255023929
    63      2    7.6196392304    3.4099875892    5.2510047858
    64      2    8.5973515276    1.9936914530    7.8765071787
    65      2    2.4168206826    6.0795897252    6.1261722501
    66      2    3.3945329798    4.6632935890    8.7516746430
    67      2   10.5411290666    8.9121820070    0.8751674643
    68      2   11.5188413739    7.4958858708    3.5006698572
    69      2    1.7650124861    2.1566815894    1.7503349286
    70      2    2.7427247833    0.7403854532    4.3758373215
    71      2    7.2937351232    8.7491918706    7.0013397144
    72      2    8.2714474269    7.3328957250    9.6268421073
