LAMMPS (5 Jun 2019)
OMP_NUM_THREADS environment is not set. Defaulting to 1 thread. (../comm.cpp:88)
  using 1 OpenMP thread(s) per MPI task
Reading data file ...
  triclinic box = (0 0 0) to (9.57841 8.8693 19.0111) with tilt (-4.7892 0 0)
  1 by 1 by 1 MPI processor grid
  reading atoms ...
  54 atoms
  read_data CPU = 0.000733998 secs
29 atoms in group bulk
WARNING: Using 'neigh_modify every 1 delay 0 check yes' setting during minimization (../min.cpp:168)
Neighbor list info ...
  update every 1 steps, delay 0 steps, check yes
  max neighbors/atom: 2000, page size: 100000
  master list distance cutoff = 8.5
  ghost atom cutoff = 8.5
  binsize = 4.25, bins = 4 3 5
  1 neighbor lists, perpetual/occasional/extra = 1 0 0
  (1) pair eam/alloy, perpetual
      attributes: half, newton on
      pair build: half/bin/newton/tri
      stencil: half/bin/3d/newton/tri
      bin: standard
Setting up cg style minimization ...
  Unit style    : metal
  Current step  : 0
Per MPI rank memory allocation (min/avg/max) = 4.118 | 4.118 | 4.118 Mbytes
Step Temp E_pair E_mol TotEng Press 
       0            0   -224.90307            0   -224.90307   -120919.02 
      57            0   -244.73612            0   -244.73612   -30583.091 
Loop time of 0.028546 on 1 procs for 57 steps with 54 atoms

99.8% CPU use with 1 MPI tasks x 1 OpenMP threads

Minimization stats:
  Stopping criterion = energy tolerance
  Energy initial, next-to-last, final = 
         -224.90307186     -244.734229787     -244.736123583
  Force two-norm initial, final = 11.3038 0.209323
  Force max component initial, final = 3.55819 0.06269
  Final line search alpha, max atom move = 0.36535 0.0229038
  Iterations, force evaluations = 57 91

MPI task timing breakdown:
Section |  min time  |  avg time  |  max time  |%varavg| %total
---------------------------------------------------------------
Pair    | 0.026498   | 0.026498   | 0.026498   |   0.0 | 92.82
Neigh   | 0.00067536 | 0.00067536 | 0.00067536 |   0.0 |  2.37
Comm    | 0.00076406 | 0.00076406 | 0.00076406 |   0.0 |  2.68
Output  | 0          | 0          | 0          |   0.0 |  0.00
Modify  | 5.8815e-05 | 5.8815e-05 | 5.8815e-05 |   0.0 |  0.21
Other   |            | 0.0005501  |            |       |  1.93

Nlocal:    54 ave 54 max 54 min
Histogram: 1 0 0 0 0 0 0 0 0 0
Nghost:    885 ave 885 max 885 min
Histogram: 1 0 0 0 0 0 0 0 0 0
Neighs:    3281 ave 3281 max 3281 min
Histogram: 1 0 0 0 0 0 0 0 0 0

Total # of neighbors = 3281
Ave neighs/atom = 60.7593
Neighbor list builds = 2
Dangerous builds = 0
System init for write_data ...
Total wall time: 0:00:00
