 vasp.5.4.4.18Apr17-6-g9f103f2a35 (build Aug 13 2019 17:33:20) gamma-only       
  
 executed on             LinuxIFC date 2020.05.11  17:47:03
 running on   12 total cores
 distrk:  each k-point on   12 cores,    1 groups
 distr:  one band on NCORES_PER_BAND=   6 cores,    2 groups


--------------------------------------------------------------------------------------------------------


 INCAR:
 POTCAR:    PAW_PBE Ni_pv 06Sep2000               
 POTCAR:    PAW_PBE S 06Sep2000                   
 POTCAR:    PAW_PBE Ni_pv 06Sep2000               
   VRHFIN =Ni:                                                                  
   LEXCH  = PE                                                                  
   EATOM  =  3501.1230 eV,  257.3253 Ry                                         
                                                                                
   TITEL  = PAW_PBE Ni_pv 06Sep2000                                             
   LULTRA =        F    use ultrasoft PP ?                                      
   IUNSCR =        1    unscreen: 0-lin 1-nonlin 2-no                           
   RPACOR =    1.500    partial core radius                                     
   POMASS =   58.690; ZVAL   =   16.000    mass and valenz                      
   RCORE  =    2.000    outmost cutoff radius                                   
   RWIGS  =    2.000; RWIGS  =    1.058    wigner-seitz radius (au A)           
   ENMAX  =  367.986; ENMIN  =  275.989 eV                                      
   RCLOC  =    1.301    cutoff for local pot                                    
   LCOR   =        T    correct aug charges                                     
   LPAW   =        T    paw PP                                                  
   EAUG   =  703.443                                                            
   DEXC   =    0.000                                                            
   RMAX   =    2.041    core radius for proj-oper                               
   RAUG   =    1.300    factor for augmentation sphere                          
   RDEP   =    2.103    radius for radial grids                                 
   RDEPT  =    1.618    core radius for aug-charge                              
                                                                                
   Atomic configuration                                                         
    8 entries                                                                   
     n  l   j            E        occ.                                          
     1  0  0.50     -8206.4253   2.0000                                         
     2  0  0.50      -976.1748   2.0000                                         
     2  1  1.50      -839.0571   6.0000                                         
     3  0  0.50      -105.9991   2.0000                                         
     3  1  1.50       -66.4603   6.0000                                         
     3  2  2.50        -4.6458   9.0000                                         
     4  0  0.50        -4.4926   1.0000                                         
     4  3  2.50        -1.3606   0.0000                                         
   Description                                                                  
     l       E           TYP  RCUT    TYP  RCUT                                 
     1    -66.4602962     23  1.700                                             
     1     -1.3605826     23  1.700                                             
     2     -4.6457867     23  2.000                                             
     2     -6.0063693     23  2.000                                             
     0     -4.4925576     23  1.900                                             
     0     16.3626226     23  1.900                                             
  local pseudopotential read in
  partial core-charges read in
  partial kinetic energy density read in
  atomic valenz-charges read in
  non local Contribution for L=           1  read in
    real space projection operators read in
  non local Contribution for L=           1  read in
    real space projection operators read in
  non local Contribution for L=           2  read in
    real space projection operators read in
  non local Contribution for L=           2  read in
    real space projection operators read in
  non local Contribution for L=           0  read in
    real space projection operators read in
  non local Contribution for L=           0  read in
    real space projection operators read in
    PAW grid and wavefunctions read in
 
   number of l-projection  operators is LMAX  =           6
   number of lm-projection operators is LMMAX =          18
 
 POTCAR:    PAW_PBE S 06Sep2000                   
   VRHFIN =S : s2p4                                                             
   LEXCH  = PE                                                                  
   EATOM  =   276.8230 eV,   20.3459 Ry                                         
                                                                                
   TITEL  = PAW_PBE S 06Sep2000                                                 
   LULTRA =        F    use ultrasoft PP ?                                      
   IUNSCR =        1    unscreen: 0-lin 1-nonlin 2-no                           
   RPACOR =    1.500    partial core radius                                     
   POMASS =   32.066; ZVAL   =    6.000    mass and valenz                      
   RCORE  =    1.900    outmost cutoff radius                                   
   RWIGS  =    2.200; RWIGS  =    1.164    wigner-seitz radius (au A)           
   ENMAX  =  258.689; ENMIN  =  194.016 eV                                      
   ICORE  =        2    local potential                                         
   LCOR   =        T    correct aug charges                                     
   LPAW   =        T    paw PP                                                  
   EAUG   =  335.092                                                            
   DEXC   =    0.000                                                            
   RMAX   =    1.942    core radius for proj-oper                               
   RAUG   =    1.300    factor for augmentation sphere                          
   RDEP   =    1.954    radius for radial grids                                 
   RDEPT  =    1.744    core radius for aug-charge                              
                                                                                
   Atomic configuration                                                         
    6 entries                                                                   
     n  l   j            E        occ.                                          
     1  0  0.50     -2405.8406   2.0000                                         
     2  0  0.50      -211.7007   2.0000                                         
     2  1  1.50      -156.4958   6.0000                                         
     3  0  0.50       -17.2562   2.0000                                         
     3  1  0.50        -7.0085   4.0000                                         
     3  2  1.50        -6.8029   0.0000                                         
   Description                                                                  
     l       E           TYP  RCUT    TYP  RCUT                                 
     0    -17.2561641     23  1.900                                             
     0    -15.8743224     23  1.900                                             
     1     -7.0085400     23  1.900                                             
     1     -2.7779785     23  1.900                                             
     2     -6.8029130     23  1.900                                             
  local pseudopotential read in
  partial core-charges read in
  partial kinetic energy density read in
  atomic valenz-charges read in
  non local Contribution for L=           0  read in
    real space projection operators read in
  non local Contribution for L=           0  read in
    real space projection operators read in
  non local Contribution for L=           1  read in
    real space projection operators read in
  non local Contribution for L=           1  read in
    real space projection operators read in
    PAW grid and wavefunctions read in
 
   number of l-projection  operators is LMAX  =           4
   number of lm-projection operators is LMMAX =           8
 
 Optimization of the real space projectors (new method)

 maximal supplied QI-value         = 18.90
 optimisation between [QCUT,QGAM] = [ 10.77, 21.73] = [ 32.49,132.25] Ry 
 Optimized for a Real-space Cutoff    1.38 Angstroem

   l    n(q)    QCUT    max X(q) W(low)/X(q) W(high)/X(q)  e(spline) 
   1      8    10.771     2.836    0.40E-04    0.29E-04    0.12E-06
   1      8    10.771     4.023    0.10E-03    0.48E-04    0.29E-06
   2      8    10.771    73.368    0.42E-03    0.97E-04    0.44E-06
   2      8    10.771    69.010    0.42E-03    0.99E-04    0.45E-06
   0      9    10.771    54.797    0.10E-03    0.56E-04    0.74E-07
   0      9    10.771    24.266    0.89E-04    0.49E-04    0.67E-07
 Optimization of the real space projectors (new method)

 maximal supplied QI-value         = 19.84
 optimisation between [QCUT,QGAM] = [ 10.71, 21.63] = [ 32.15,130.99] Ry 
 Optimized for a Real-space Cutoff    1.19 Angstroem

   l    n(q)    QCUT    max X(q) W(low)/X(q) W(high)/X(q)  e(spline) 
   0      8    10.715   187.594    0.41E-03    0.53E-04    0.66E-07
   0      8    10.715   164.243    0.41E-03    0.53E-04    0.65E-07
   1      7    10.715    67.533    0.19E-03    0.59E-03    0.68E-07
   1      7    10.715    50.729    0.19E-03    0.58E-03    0.67E-07
  PAW_PBE Ni_pv 06Sep2000               :
 energy of atom  1       EATOM=-3501.1230
 kinetic energy error for atom=    0.0925 (will be added to EATOM!!)
  PAW_PBE S 06Sep2000                   :
 energy of atom  2       EATOM= -276.8230
 kinetic energy error for atom=    0.0033 (will be added to EATOM!!)
 
 
 POSCAR: Type_036 Type_136                       
  positions in cartesian coordinates
  No initial velocities read in
 exchange correlation table for  LEXCH =        8
   RHO(1)=    0.500       N(1)  =     2000
   RHO(2)=  100.500       N(2)  =     4000
 


--------------------------------------------------------------------------------------------------------


 ion  position               nearest neighbor table
   1  0.780  0.145  0.121-  63 2.07  49 2.07  41 2.15  50 2.36  64 2.36
   2  0.802  0.145  0.290-  37 2.05  64 2.07  50 2.07  42 2.10
   3  0.215  0.621  0.096-  43 2.03  44 2.11  61 2.17   4 2.40  51 2.50  14 2.51
   4  0.297  0.645  0.216-  52 2.13  62 2.15  44 2.25  51 2.26  61 2.26   3 2.40  28 2.53  15 2.53

   5  0.388  0.124  0.126-  45 2.04  46 2.14  67 2.19   6 2.42  53 2.46  17 2.53
   6  0.470  0.145  0.248-  68 2.12  54 2.12  53 2.13  46 2.25  67 2.26   5 2.42  30 2.53  18 2.53

   7  0.952  0.645  0.152-  66 2.08  56 2.08  47 2.25  55 2.36  65 2.36   8 2.48  31 2.53  19 2.53

   8  0.954  0.645  0.306-  48 2.01  55 2.04  65 2.04   7 2.48
   9  0.125  0.145  0.184-  71 2.09  57 2.10  58 2.16  72 2.16  38 2.25  33 2.53  21 2.53
  10  0.570  0.646  0.161-  39 2.01  40 2.16  59 2.20  69 2.21  11 2.28
  11  0.642  0.645  0.280-  60 2.03  70 2.03  40 2.25  59 2.26  69 2.26  10 2.28  36 2.53  24 2.53

  12  0.910  0.006  0.117-  63 2.06  56 2.10  64 2.11  38 2.19  13 2.52
  13  0.941  0.009  0.269-  37 2.05  38 2.09  64 2.11  55 2.17  12 2.52
  14  0.358  0.644  0.058-  39 2.01  61 2.04  51 2.05  27 2.49   3 2.51
  15  0.425  0.513  0.191-  62 2.13  53 2.15  39 2.26  61 2.26  40 2.36  16 2.39  28 2.53   4 2.53

  16  0.471  0.455  0.326-  54 1.99  62 2.06  40 2.09  15 2.39
  17  0.534  0.154  0.101-  41 2.05  67 2.06  53 2.07  30 2.52   5 2.53
  18  0.597  0.013  0.223-  68 2.07  42 2.13  41 2.19  59 2.25  67 2.26   6 2.53  30 2.53
  19  0.080  0.513  0.127-  43 2.07  57 2.08  66 2.10  44 2.36  65 2.36  20 2.39   7 2.53  31 2.53

  20  0.122  0.461  0.265-  58 2.01  44 2.07  65 2.07  19 2.39
  21  0.252  0.013  0.159-  45 2.07  71 2.11  72 2.19  51 2.25  46 2.36   9 2.53  33 2.53  22 2.53

  22  0.295  0.973  0.307-  52 2.02  72 2.04  46 2.04  21 2.53
  23  0.775  0.433  0.118-  49 2.02  50 2.14  47 2.23  69 2.29  24 2.34
  24  0.770  0.513  0.254-  70 2.03  48 2.08  50 2.25  69 2.26  47 2.26  23 2.34  11 2.53  36 2.53

  25  0.910  0.285  0.116-  49 2.06  66 2.10  50 2.11  38 2.19  26 2.52
  26  0.941  0.281  0.269-  37 2.05  38 2.09  50 2.11  65 2.16  25 2.52
  27  0.415  0.884  0.060-  67 2.09  51 2.10  28 2.36  14 2.49  39 2.54
  28  0.425  0.777  0.191-  52 2.17  67 2.25  39 2.26  51 2.26  27 2.36  40 2.36  29 2.46  15 2.53
                             4 2.53
  29  0.465  0.823  0.335-  68 2.00  52 2.04  40 2.07  28 2.46
  30  0.597  0.277  0.223-  54 2.07  42 2.14  41 2.18  53 2.25  69 2.25  17 2.52   6 2.53  18 2.53

  31  0.080  0.777  0.127-  43 2.06  71 2.08  56 2.10  44 2.36  55 2.36  32 2.43   7 2.53  19 2.53

  32  0.121  0.825  0.268-  72 2.01  55 2.05  44 2.06  31 2.43
  33  0.252  0.277  0.159-  45 2.07  57 2.09  58 2.19  61 2.25  46 2.36  34 2.52   9 2.53  21 2.53

  34  0.297  0.321  0.305-  62 2.02  58 2.04  46 2.05  33 2.52
  35  0.776  0.856  0.118-  63 2.02  64 2.14  47 2.21  59 2.31  36 2.34
  36  0.770  0.777  0.254-  60 2.03  48 2.08  64 2.25  59 2.26  47 2.26  35 2.34  11 2.53  24 2.53

  37  0.904  0.145  0.359-  13 2.05  26 2.05   2 2.05
  38  0.991  0.145  0.182-  26 2.09  13 2.09  12 2.19  25 2.19   9 2.25
  39  0.474  0.645  0.087-  10 2.01  14 2.01  28 2.26  15 2.26  27 2.54
  40  0.509  0.645  0.278-  29 2.07  16 2.09  10 2.16  11 2.25  28 2.36  15 2.36
  41  0.653  0.146  0.129-  17 2.05   1 2.15  30 2.18  18 2.19  42 2.60
  42  0.678  0.144  0.288-   2 2.10  18 2.13  30 2.14  41 2.60
  43  0.112  0.646  0.032-   3 2.03  31 2.06  19 2.07
  44  0.164  0.645  0.214-  32 2.06  20 2.07   3 2.11   4 2.25  31 2.36  19 2.36
  45  0.283  0.145  0.063-   5 2.04  21 2.07  33 2.07
  46  0.336  0.145  0.246-  22 2.04  34 2.05   5 2.14   6 2.25  33 2.36  21 2.36
  47  0.819  0.645  0.151-  35 2.21  23 2.23   7 2.25  36 2.26  24 2.26
  48  0.837  0.645  0.329-   8 2.01  24 2.08  36 2.08
  49  0.816  0.294  0.035-  23 2.02  25 2.06   1 2.07
  50  0.829  0.314  0.214-   2 2.07  26 2.11  25 2.11  23 2.14  24 2.25   1 2.36
  51  0.312  0.814  0.119-  14 2.05  27 2.10  21 2.25   4 2.26  28 2.26   3 2.50
  52  0.351  0.787  0.300-  22 2.02  29 2.04   4 2.13  28 2.17  62 2.71
  53  0.479  0.315  0.163-  17 2.07   6 2.13  15 2.15  30 2.25   5 2.46
  54  0.532  0.276  0.331-  16 1.99  30 2.07   6 2.12  68 2.65
  55  0.001  0.814  0.246-   8 2.04  32 2.05  13 2.17   7 2.36  31 2.36  56 2.76
  56  0.967  0.822  0.079-   7 2.08  12 2.10  31 2.10  55 2.76
  57  0.140  0.326  0.112-  19 2.08  33 2.09   9 2.10  58 2.73
  58  0.182  0.280  0.273-  20 2.01  34 2.04   9 2.16  33 2.19  72 2.62  57 2.73
  59  0.657  0.814  0.183-  10 2.20  18 2.25  36 2.26  11 2.26  35 2.31  60 2.77
  60  0.692  0.797  0.350-  11 2.03  36 2.03  59 2.77
  61  0.312  0.477  0.119-  14 2.04   3 2.17  33 2.25   4 2.26  15 2.26
  62  0.355  0.505  0.301-  34 2.02  16 2.06  15 2.13   4 2.15  52 2.71
  63  0.816  0.997  0.035-  35 2.02  12 2.06   1 2.07
  64  0.829  0.977  0.214-   2 2.07  13 2.11  12 2.11  35 2.14  36 2.25   1 2.36
  65  0.001  0.477  0.246-   8 2.04  20 2.07  26 2.16   7 2.36  19 2.36  66 2.77
  66  0.967  0.469  0.079-   7 2.08  25 2.10  19 2.10  65 2.77
  67  0.484  0.977  0.151-  17 2.06  27 2.09   5 2.19  28 2.25  18 2.26   6 2.26
  68  0.527  0.000  0.327-  29 2.00  18 2.07   6 2.12  54 2.65
  69  0.657  0.477  0.183-  10 2.21  30 2.25  24 2.26  11 2.26  23 2.29  70 2.77
  70  0.692  0.494  0.350-  11 2.03  24 2.03  69 2.77
  71  0.139  0.967  0.112-  31 2.08   9 2.09  21 2.11  72 2.71
  72  0.181  0.006  0.272-  32 2.01  22 2.04   9 2.16  21 2.19  58 2.62  71 2.71
 
  LATTYP: Found a simple orthorhombic cell.
 ALAT       =     9.5784100000
 B/A-ratio  =     1.6880763216
 C/A-ratio  =     1.7627867312
  
  Lattice vectors:
  
 A1 = (   0.0000000000,   9.5784100000,   0.0000000000)
 A2 = (   0.0000000000,   0.0000000000, -16.1690871197)
 A3 = ( -16.8846940542,   0.0000000000,   0.0000000000)


Analysis of symmetry for initial positions (statically):
=====================================================================
 Subroutine PRICEL returns:
 Original cell was already a primitive cell.
 

 Routine SETGRP: Setting up the symmetry group for a 
 simple orthorhombic supercell.


 Subroutine GETGRP returns: Found  1 space group operations
 (whereof  1 operations were pure point group operations)
 out of a pool of  8 trial point group operations.


The static configuration has the point symmetry C_1 .


Analysis of symmetry for dynamics (positions and initial velocities):
=====================================================================
 Subroutine PRICEL returns:
 Original cell was already a primitive cell.
 

 Routine SETGRP: Setting up the symmetry group for a 
 simple orthorhombic supercell.


 Subroutine GETGRP returns: Found  1 space group operations
 (whereof  1 operations were pure point group operations)
 out of a pool of  8 trial point group operations.


The dynamic configuration has the point symmetry C_1 .


 Subroutine INISYM returns: Found  1 space group operations
 (whereof  1 operations are pure point group operations),
 and found     1 'primitive' translations

 
 
 KPOINTS: gamma-point-only calculation. no periodi

Automatic generation of k-mesh.
Space group operators:
 irot       det(A)        alpha          n_x          n_y          n_z        tau_x        tau_y        tau_z
    1     1.000000     0.000000     1.000000     0.000000     0.000000     0.000000     0.000000     0.000000
 
 Subroutine IBZKPT returns following result:
 ===========================================
 
 Found      1 irreducible k-points:
 
 Following reciprocal coordinates:
            Coordinates               Weight
  0.000000  0.000000  0.000000      1.000000
 
 Following cartesian coordinates:
            Coordinates               Weight
  0.000000  0.000000  0.000000      1.000000
 


--------------------------------------------------------------------------------------------------------




 Dimension of arrays:
   k-points           NKPTS =      1   k-points in BZ     NKDIM =      1   number of bands    NBANDS=    476
   number of dos      NEDOS =    301   number of ions     NIONS =     72
   non local maximal  LDIM  =      6   non local SUM 2l+1 LMDIM =     18
   total plane-waves  NPLWV = 378000
   max r-space proj   IRMAX =   1644   max aug-charges    IRDMAX=   4753
   dimension x,y,z NGX =    90 NGY =   50 NGZ =   84
   dimension x,y,z NGXF=   180 NGYF=  100 NGZF=  168
   support grid    NGXF=   180 NGYF=  100 NGZF=  168
   ions per type =              36  36
   NGX,Y,Z   is equivalent  to a cutoff of   8.86,  8.68,  8.64 a.u.
   NGXF,Y,Z  is equivalent  to a cutoff of  17.72, 17.36, 17.27 a.u.

 SYSTEM =  "Millerite NiS"                         
 POSCAR =  Type_036 Type_136                       

 Startparameter for this run:
   NWRITE =      2    write-flag & timer
   PREC   = normal    normal or accurate (medium, high low for compatibility)
   ISTART =      0    job   : 0-new  1-cont  2-samecut
   ICHARG =      2    charge: 1-file 2-atom 10-const
   ISPIN  =      1    spin polarized calculation?
   LNONCOLLINEAR =      F non collinear calculations
   LSORBIT =      F    spin-orbit coupling
   INIWAV =      1    electr: 0-lowe 1-rand  2-diag
   LASPH  =      F    aspherical Exc in radial PAW
   METAGGA=      F    non-selfconsistent MetaGGA calc.

 Electronic Relaxation 1
   ENCUT  =  450.0 eV  33.07 Ry    5.75 a.u.  29.20 16.57 27.97*2*pi/ulx,y,z
   ENINI  =  450.0     initial cutoff
   ENAUG  =  703.4 eV  augmentation charge cutoff
   NELM   =    100;   NELMIN=  2; NELMDL= -5     # of ELM steps 
   EDIFF  = 0.1E-03   stopping-criterion for ELM
   LREAL  =      T    real-space projection
   NLSPLINE    = F    spline interpolate recip. space projectors
   LCOMPAT=      F    compatible to vasp.4.4
   GGA_COMPAT  = T    GGA compatible to vasp.4.4-vasp.4.6
   LMAXPAW     = -100 max onsite density
   LMAXMIX     =    2 max onsite mixed and CHGCAR
   VOSKOWN=      0    Vosko Wilk Nusair interpolation
   ROPT   =   -0.00050  -0.00050
 Ionic relaxation
   EDIFFG = 0.1E-02   stopping-criterion for IOM
   NSW    =      0    number of steps for IOM
   NBLOCK =      1;   KBLOCK =      1    inner block; outer block 
   IBRION =     -1    ionic relax: 0-MD 1-quasi-New 2-CG
   NFREE  =      0    steps in history (QN), initial steepest desc. (CG)
   ISIF   =      2    stress and relaxation
   IWAVPR =     10    prediction:  0-non 1-charg 2-wave 3-comb
   ISYM   =      2    0-nonsym 1-usesym 2-fastsym
   LCORR  =      T    Harris-Foulkes like correction to forces

   POTIM  = 0.5000    time-step for ionic-motion
   TEIN   =    0.0    initial temperature
   TEBEG  =    0.0;   TEEND  =   0.0 temperature during run
   SMASS  =  -3.00    Nose mass-parameter (am)
   estimated Nose-frequenzy (Omega)   =  0.10E-29 period in steps =****** mass=  -0.652E-26a.u.
   SCALEE = 1.0000    scale energy and forces
   NPACO  =    256;   APACO  = 16.0  distance and # of slots for P.C.
   PSTRESS=    0.0 pullay stress

  Mass of Ions in am
   POMASS =  58.69 32.07
  Ionic Valenz
   ZVAL   =  16.00  6.00
  Atomic Wigner-Seitz radii
   RWIGS  =  -1.00 -1.00
  virtual crystal weights 
   VCA    =   1.00  1.00
   NELECT =     792.0000    total number of electrons
   NUPDOWN=      -1.0000    fix difference up-down

 DOS related values:
   EMIN   =  10.00;   EMAX   =-10.00  energy-range for DOS
   EFERMI =   0.00
   ISMEAR =     0;   SIGMA  =   0.20  broadening in eV -4-tet -1-fermi 0-gaus

 Electronic relaxation 2 (details)
   IALGO  =     38    algorithm
   LDIAG  =      T    sub-space diagonalisation (order eigenvalues)
   LSUBROT=      F    optimize rotation matrix (better conditioning)
   TURBO    =      0    0=normal 1=particle mesh
   IRESTART =      0    0=no restart 2=restart with 2 vectors
   NREBOOT  =      0    no. of reboots
   NMIN     =      0    reboot dimension
   EREF     =   0.00    reference energy to select bands
   IMIX   =      4    mixing-type and parameters
     AMIX     =   0.40;   BMIX     =  1.00
     AMIX_MAG =   1.60;   BMIX_MAG =  1.00
     AMIN     =   0.10
     WC   =   100.;   INIMIX=   1;  MIXPRE=   1;  MAXMIX= -45

 Intra band minimization:
   WEIMIN = 0.0000     energy-eigenvalue tresh-hold
   EBREAK =  0.53E-07  absolut break condition
   DEPER  =   0.30     relativ break condition  

   TIME   =   0.40     timestep for ELM

  volume/ion in A,a.u.               =      36.32       245.10
  Fermi-wavevector in a.u.,A,eV,Ry     =   1.099409  2.077581 16.445356  1.208700
  Thomas-Fermi vector in A             =   2.235803
 
 Write flags
   LWAVE        =      F    write WAVECAR
   LDOWNSAMPLE  =      F    k-point downsampling of WAVECAR
   LCHARG       =      F    write CHGCAR
   LVTOT        =      F    write LOCPOT, total local potential
   LVHAR        =      F    write LOCPOT, Hartree potential only
   LELF         =      F    write electronic localiz. function (ELF)
   LORBIT       =      0    0 simple, 1 ext, 2 COOP (PROOUT), +10 PAW based schemes


 Dipole corrections
   LMONO  =      F    monopole corrections only (constant potential shift)
   LDIPOL =      F    correct potential (dipole corrections)
   IDIPOL =      0    1-x, 2-y, 3-z, 4-all directions 
   EPSILON=  1.0000000 bulk dielectric constant

 Exchange correlation treatment:
   GGA     =    --    GGA type
   LEXCH   =     8    internal setting for exchange type
   VOSKOWN=      0    Vosko Wilk Nusair interpolation
   LHFCALC =     F    Hartree Fock is set to
   LHFONE  =     F    Hartree Fock one center treatment
   AEXX    =    0.0000 exact exchange contribution

 Linear response parameters
   LEPSILON=     F    determine dielectric tensor
   LRPA    =     F    only Hartree local field effects (RPA)
   LNABLA  =     F    use nabla operator in PAW spheres
   LVEL    =     F    velocity operator in full k-point grid
   LINTERFAST=   F  fast interpolation
   KINTER  =     0    interpolate to denser k-point grid
   CSHIFT  =0.1000    complex shift for real part using Kramers Kronig
   OMEGAMAX=  -1.0    maximum frequency
   DEG_THRESHOLD= 0.2000000E-02 threshold for treating states as degnerate
   RTIME   =   -0.100 relaxation time in fs
  (WPLASMAI=    0.000 imaginary part of plasma frequency in eV, 0.658/RTIME)
   DFIELD  = 0.0000000 0.0000000 0.0000000 field for delta impulse in time
 
 Orbital magnetization related:
   ORBITALMAG=     F  switch on orbital magnetization
   LCHIMAG   =     F  perturbation theory with respect to B field
   DQ        =  0.001000  dq finite difference perturbation B field
   LLRAUG    =     F  two centre corrections for induced B field



--------------------------------------------------------------------------------------------------------


 Static calculation
 charge density and potential will be updated during run
 non-spin polarized calculation
 Variant of blocked Davidson
 Davidson routine will perform the subspace rotation
 perform sub-space diagonalisation
    after iterative eigenvector-optimisation
 modified Broyden-mixing scheme, WC =      100.0
 initial mixing is a Kerker type mixing with AMIX =  0.4000 and BMIX =      1.0000
 Hartree-type preconditioning will be used
 using additional bands           80
 real space projection scheme for non local part
 use partial core corrections
 calculate Harris-corrections to forces 
   (improved forces if not selfconsistent)
 use gradient corrections 
 use of overlap-Matrix (Vanderbilt PP)
 Gauss-broadening in eV      SIGMA  =   0.20


--------------------------------------------------------------------------------------------------------


  energy-cutoff  :      450.00
  volume of cell :     2615.00
      direct lattice vectors                 reciprocal lattice vectors
    16.884694054  0.000000000  0.000000000     0.059225237  0.000000000  0.000000000
     0.000000000  9.578410000  0.000000000     0.000000000  0.104401461  0.000000000
     0.000000000  0.000000000 16.169087120     0.000000000  0.000000000  0.061846411

  length of vectors
    16.884694054  9.578410000 16.169087120     0.059225237  0.104401461  0.061846411


 
 k-points in units of 2pi/SCALE and weight: gamma-point-only calculation. no periodi
   0.00000000  0.00000000  0.00000000       1.000
 
 k-points in reciprocal lattice and weights: gamma-point-only calculation. no periodi
   0.00000000  0.00000000  0.00000000       1.000
 
 position of ions in fractional coordinates (direct lattice) 
   0.78004631  0.14529695  0.12058499
   0.80231122  0.14528382  0.29017340
   0.21477317  0.62060448  0.09584801
   0.29733029  0.64529695  0.21596896
   0.38761394  0.12437828  0.12573640
   0.46975828  0.14529695  0.24776362
   0.95247430  0.64529695  0.15237965
   0.95369823  0.64532819  0.30598106
   0.12490229  0.14529695  0.18417431
   0.57009651  0.64595609  0.16054037
   0.64218627  0.64529695  0.27955828
   0.91040405  0.00588308  0.11651871
   0.94117858  0.00931143  0.26916452
   0.35827930  0.64430772  0.05797416
   0.42486676  0.51319395  0.19076795
   0.47135382  0.45450424  0.32612549
   0.53448557  0.15442416  0.10128008
   0.59729475  0.01319395  0.22256260
   0.08001077  0.51319395  0.12717863
   0.12235021  0.46118243  0.26490938
   0.25243876  0.01319395  0.15897329
   0.29516956  0.97324940  0.30732658
   0.77496663  0.43321505  0.11804747
   0.76972274  0.51319395  0.25435726
   0.91027141  0.28472979  0.11649767
   0.94122217  0.28136802  0.26912209
   0.41462976  0.88440004  0.05956763
   0.42486676  0.77739995  0.19076795
   0.46533374  0.82264319  0.33465308
   0.59729475  0.27739995  0.22256260
   0.08001077  0.77739995  0.12717863
   0.12089970  0.82458638  0.26846643
   0.25243876  0.27739995  0.15897329
   0.29681253  0.32131584  0.30519096
   0.77627580  0.85644600  0.11779543
   0.76972274  0.77739995  0.25435726
   0.90441345  0.14538707  0.35889896
   0.99146121  0.14529695  0.18240970
   0.47417723  0.64529695  0.08702573
   0.50874518  0.64529695  0.27779368
   0.65279660  0.14595141  0.12891535
   0.67790620  0.14413586  0.28765715
   0.11232024  0.64558053  0.03199793
   0.16388920  0.64529695  0.21420436
   0.28327432  0.14514403  0.06289507
   0.33631719  0.14529695  0.24599902
   0.81903321  0.64529695  0.15061505
   0.83650915  0.64528073  0.32930964
   0.81619850  0.29380722  0.03516321
   0.82906105  0.31351195  0.21449973
   0.31177708  0.81351195  0.11911576
   0.35079138  0.78725784  0.30026035
   0.47851775  0.31489300  0.16340965
   0.53211995  0.27634996  0.33128386
   0.00148905  0.81351195  0.24629439
   0.96727407  0.82182005  0.07914567
   0.14008663  0.32579810  0.11216941
   0.18240018  0.28013819  0.27259679
   0.65663306  0.81351195  0.18270508
   0.69233083  0.79676813  0.34968633
   0.31177708  0.47708195  0.11911576
   0.35510017  0.50476969  0.30065121
   0.81641527  0.99712422  0.03506861
   0.82906105  0.97708195  0.21449973
   0.00148905  0.47708195  0.24629439
   0.96702814  0.46882039  0.07908249
   0.48420507  0.97708195  0.15091042
   0.52692535  0.00023981  0.32686248
   0.65663306  0.47708195  0.18270508
   0.69222451  0.49360871  0.34964097
   0.13906981  0.96659404  0.11169835
   0.18087499  0.00637444  0.27152842
 
 position of ions in cartesian coordinates  (Angst):
  13.17084324  1.39171380  1.94974924
  13.54677954  1.39158801  4.69183899
   3.62637919  5.94440415  1.54977479
   5.02033090  6.18091880  3.49202101
   6.54474272  1.19134619  2.03304273
   7.93172480  1.39171380  4.00611161
  16.08223715  6.18091880  2.46383984
  16.10290277  6.18121798  4.94743441
   2.10893700  1.39171380  2.97793043
   9.62590508  6.18723227  2.59579121
  10.84311871  6.18091880  4.52020220
  15.37189379  0.05635058  1.88400122
  15.89151232  0.08918872  4.35214451
   6.04943641  6.17144352  0.93738925
   7.17374517  4.91558210  3.08454355
   7.95866508  4.35342791  5.27315149
   9.02462532  1.47913791  1.63760641
  10.08513906  0.12637710  3.59863415
   1.35095736  4.91558210  2.05636238
   2.06584584  4.41739440  4.28334280
   4.26235126  0.12637710  2.57045296
   4.98384769  9.32218176  4.96919031
  13.08507437  4.14951140  1.90871981
  12.99653297  4.91558210  4.11272474
  15.36965424  2.72725862  1.88366095
  15.89224841  2.69505826  4.35145856
   7.00089672  8.47114623  0.96315424
   7.17374517  7.44625549  3.08454355
   7.85701780  7.87961375  5.41103484
  10.08513906  2.65705049  3.59863415
   1.35095736  7.44625549  2.05636238
   2.04135440  7.89822643  4.34085702
   4.26235126  2.65705049  2.57045296
   5.01158870  3.07769482  4.93465928
  13.10717942  8.20339094  1.90464455
  12.99653297  7.44625549  4.11272474
  15.27074440  1.39257695  5.80306852
  16.74051913  1.39171380  2.94939840
   8.00633741  6.18091880  1.40712661
   8.59000678  6.18091880  4.49167018
  11.02227092  1.39798244  2.08444352
  11.44623872  1.38059235  4.65115348
   1.89649293  6.18363505  0.51737738
   2.76721897  6.18091880  3.46348899
   4.78300030  1.39024906  1.01695591
   5.67861288  1.39171380  3.97757959
  13.82912522  6.18091880  2.43530780
  14.12420113  6.18076344  5.32463630
  13.78126189  2.81420603  0.56855708
  13.99844227  3.00294604  3.46826489
   5.26426054  7.79215104  1.92599312
   5.92300513  7.54067833  4.85493577
   8.07962586  3.01617421  2.64218482
   8.98468254  2.64699323  5.35655761
   0.02514210  7.79215104  3.98235548
  16.33212671  7.87172937  1.27971327
   2.36531990  3.12062781  1.81367695
   3.07977127  2.68327843  4.40764119
  11.08704836  7.79215104  2.95417429
  11.68979426  7.63177187  5.65410877
   5.26426054  4.56968656  1.92599312
   5.99575765  4.83489106  4.86125553
  13.78492211  9.55086459  0.56702736
  13.99844227  9.35889156  3.46826489
   0.02514210  4.56968656  3.98235548
  16.32797424  4.49055387  1.27869169
   8.17565445  9.35889156  2.44008371
   8.89697330  0.00229704  5.28506792
  11.08704836  4.56968656  2.95417429
  11.68799912  4.72798659  5.65337535
   2.34815112  9.25843401  1.80606036
   3.05401884  0.06105696  4.39036674
 


--------------------------------------------------------------------------------------------------------


 use parallel FFT for orbitals z direction half grid
 k-point  1 :   0.0000 0.0000 0.0000  plane waves:   28369

 maximum and minimum number of plane-waves per node :      4733     4722

 maximum number of plane-waves:     28369
 maximum index in each direction: 
   IXMAX=   29   IYMAX=   16   IZMAX=   27
   IXMIN=  -29   IYMIN=  -16   IZMIN=    0


 real space projection operators:
  total allocation   :      10066.33 KBytes
  max/ min on nodes  :       1681.44       1671.70


 parallel 3D FFT for wavefunctions:
    minimum data exchange during FFTs selected (reduces bandwidth)
 parallel 3D FFT for charge:
    minimum data exchange during FFTs selected (reduces bandwidth)


 total amount of memory used by VASP MPI-rank0    77168. kBytes
=======================================================================

   base      :      30000. kBytes
   nonlr-proj:       2059. kBytes
   fftplans  :       9935. kBytes
   grid      :      16773. kBytes
   one-center:         93. kBytes
   wavefun   :      18308. kBytes
 
     INWAV:  cpu time    0.0000: real time    0.0000
 Broyden mixing: mesh for mixing (old mesh)
   NGX = 59   NGY = 33   NGZ = 55
  (NGX  =180   NGY  =100   NGZ  =168)
  gives a total of 107085 points

 initial charge density was supplied:
 charge density of overlapping atoms calculated
 number of electron     792.0000000 magnetization 
 keeping initial charge density in first step


--------------------------------------------------------------------------------------------------------


 Maximum index for non-local projection operator          266
 Maximum index for augmentation-charges          427 (set IRDMAX)


--------------------------------------------------------------------------------------------------------


 First call to EWALD:  gamma=   0.129
 Maximum number of real-space cells 2x 4x 2
 Maximum number of reciprocal cells 3x 2x 3

    FEWALD:  cpu time    0.0050: real time    0.0050


--------------------------------------- Iteration      1(   1)  ---------------------------------------


    POTLOK:  cpu time    0.3251: real time    0.3251
    SETDIJ:  cpu time    0.0169: real time    0.0170
     EDDAV:  cpu time    8.3555: real time    8.3572
       DOS:  cpu time    0.0026: real time    0.0026
    --------------------------------------------
      LOOP:  cpu time    8.7003: real time    8.7021

 eigenvalue-minimisations  :  1176
 total energy-change (2. order) : 0.8906290E+04  (-0.5063601E+05)
 number of electron     792.0000000 magnetization 
 augmentation part      792.0000000 magnetization 

 Free energy of the ion-electron system (eV)
  ---------------------------------------------------
  alpha Z        PSCENC =      1422.52235994
  Ewald energy   TEWEN  =    155019.05544804
  -Hartree energ DENC   =   -275292.02919852
  -exchange      EXHF   =         0.00000000
  -V(xc)+E(xc)   XCENC  =      3683.86616668
  PAW double counting   =    112729.53333415  -117641.51188735
  entropy T*S    EENTRO =        -0.45414581
  eigenvalues    EBANDS =     -7017.29693280
  atomic energy  EATOM  =    136002.60505376
  Solvation  Ediel_sol  =         0.00000000
  ---------------------------------------------------
  free energy    TOTEN  =      8906.29019809 eV

  energy without entropy =     8906.74434390  energy(sigma->0) =     8906.51727099


--------------------------------------------------------------------------------------------------------




--------------------------------------- Iteration      1(   2)  ---------------------------------------


     EDDAV:  cpu time    7.6767: real time    7.6782
       DOS:  cpu time    0.0011: real time    0.0011
    --------------------------------------------
      LOOP:  cpu time    7.6778: real time    7.6793

 eigenvalue-minimisations  :  1012
 total energy-change (2. order) :-0.8412118E+04  (-0.8129392E+04)
 number of electron     792.0000000 magnetization 
 augmentation part      792.0000000 magnetization 

 Free energy of the ion-electron system (eV)
  ---------------------------------------------------
  alpha Z        PSCENC =      1422.52235994
  Ewald energy   TEWEN  =    155019.05544804
  -Hartree energ DENC   =   -275292.02919852
  -exchange      EXHF   =         0.00000000
  -V(xc)+E(xc)   XCENC  =      3683.86616668
  PAW double counting   =    112729.53333415  -117641.51188735
  entropy T*S    EENTRO =        -0.70567632
  eigenvalues    EBANDS =    -15429.16389864
  atomic energy  EATOM  =    136002.60505376
  Solvation  Ediel_sol  =         0.00000000
  ---------------------------------------------------
  free energy    TOTEN  =       494.17170174 eV

  energy without entropy =      494.87737806  energy(sigma->0) =      494.52453990


--------------------------------------------------------------------------------------------------------




--------------------------------------- Iteration      1(   3)  ---------------------------------------


     EDDAV:  cpu time    8.0040: real time    8.0061
       DOS:  cpu time    0.0011: real time    0.0011
    --------------------------------------------
      LOOP:  cpu time    8.0051: real time    8.0072

 eigenvalue-minimisations  :  1112
 total energy-change (2. order) :-0.8419026E+03  (-0.8076640E+03)
 number of electron     792.0000000 magnetization 
 augmentation part      792.0000000 magnetization 

 Free energy of the ion-electron system (eV)
  ---------------------------------------------------
  alpha Z        PSCENC =      1422.52235994
  Ewald energy   TEWEN  =    155019.05544804
  -Hartree energ DENC   =   -275292.02919852
  -exchange      EXHF   =         0.00000000
  -V(xc)+E(xc)   XCENC  =      3683.86616668
  PAW double counting   =    112729.53333415  -117641.51188735
  entropy T*S    EENTRO =        -1.07377606
  eigenvalues    EBANDS =    -16270.69842408
  atomic energy  EATOM  =    136002.60505376
  Solvation  Ediel_sol  =         0.00000000
  ---------------------------------------------------
  free energy    TOTEN  =      -347.73092344 eV

  energy without entropy =     -346.65714738  energy(sigma->0) =     -347.19403541


--------------------------------------------------------------------------------------------------------




--------------------------------------- Iteration      1(   4)  ---------------------------------------


     EDDAV:  cpu time    7.8813: real time    7.8829
       DOS:  cpu time    0.0013: real time    0.0013
    --------------------------------------------
      LOOP:  cpu time    7.8827: real time    7.8842

 eigenvalue-minimisations  :  1088
 total energy-change (2. order) :-0.4377455E+02  (-0.4324228E+02)
 number of electron     792.0000000 magnetization 
 augmentation part      792.0000000 magnetization 

 Free energy of the ion-electron system (eV)
  ---------------------------------------------------
  alpha Z        PSCENC =      1422.52235994
  Ewald energy   TEWEN  =    155019.05544804
  -Hartree energ DENC   =   -275292.02919852
  -exchange      EXHF   =         0.00000000
  -V(xc)+E(xc)   XCENC  =      3683.86616668
  PAW double counting   =    112729.53333415  -117641.51188735
  entropy T*S    EENTRO =        -1.08166503
  eigenvalues    EBANDS =    -16314.46508782
  atomic energy  EATOM  =    136002.60505376
  Solvation  Ediel_sol  =         0.00000000
  ---------------------------------------------------
  free energy    TOTEN  =      -391.50547615 eV

  energy without entropy =     -390.42381112  energy(sigma->0) =     -390.96464363


--------------------------------------------------------------------------------------------------------




--------------------------------------- Iteration      1(   5)  ---------------------------------------


     EDDAV:  cpu time    8.5658: real time    8.5672
       DOS:  cpu time    0.0014: real time    0.0014
    CHARGE:  cpu time    0.2642: real time    0.2642
    MIXING:  cpu time    0.0097: real time    0.0097
    --------------------------------------------
      LOOP:  cpu time    8.8411: real time    8.8426

 eigenvalue-minimisations  :  1200
 total energy-change (2. order) :-0.1695273E+01  (-0.1692399E+01)
 number of electron     791.9998207 magnetization 
 augmentation part      286.3233942 magnetization 

 Broyden mixing:
  rms(total) = 0.99185E+01    rms(broyden)= 0.99110E+01
  rms(prec ) = 0.10433E+02
  weight for this iteration     100.00

 Free energy of the ion-electron system (eV)
  ---------------------------------------------------
  alpha Z        PSCENC =      1422.52235994
  Ewald energy   TEWEN  =    155019.05544804
  -Hartree energ DENC   =   -275292.02919852
  -exchange      EXHF   =         0.00000000
  -V(xc)+E(xc)   XCENC  =      3683.86616668
  PAW double counting   =    112729.53333415  -117641.51188735
  entropy T*S    EENTRO =        -1.07273220
  eigenvalues    EBANDS =    -16316.16929369
  atomic energy  EATOM  =    136002.60505376
  Solvation  Ediel_sol  =         0.00000000
  ---------------------------------------------------
  free energy    TOTEN  =      -393.20074919 eV

  energy without entropy =     -392.12801698  energy(sigma->0) =     -392.66438309


--------------------------------------------------------------------------------------------------------




--------------------------------------- Iteration      1(   6)  ---------------------------------------


    POTLOK:  cpu time    0.3098: real time    0.3099
    SETDIJ:  cpu time    0.0170: real time    0.0170
     EDDAV:  cpu time    8.7835: real time    8.7853
       DOS:  cpu time    0.0012: real time    0.0012
    CHARGE:  cpu time    0.2532: real time    0.2532
    MIXING:  cpu time    0.0116: real time    0.0116
    --------------------------------------------
      LOOP:  cpu time    9.3763: real time    9.3783

 eigenvalue-minimisations  :  1200
 total energy-change (2. order) :-0.6638103E+02  (-0.9704088E+02)
 number of electron     791.9997765 magnetization 
 augmentation part      346.2196071 magnetization 

 Broyden mixing:
  rms(total) = 0.16144E+02    rms(broyden)= 0.16142E+02
  rms(prec ) = 0.16848E+02
  weight for this iteration     100.00

 eigenvalues of (default mixing * dielectric matrix)
  average eigenvalue GAMMA=   0.2281
  0.2281

 Free energy of the ion-electron system (eV)
  ---------------------------------------------------
  alpha Z        PSCENC =      1422.52235994
  Ewald energy   TEWEN  =    155019.05544804
  -Hartree energ DENC   =   -272654.63968418
  -exchange      EXHF   =         0.00000000
  -V(xc)+E(xc)   XCENC  =      3610.53480261
  PAW double counting   =    118067.43843661  -122749.34529535
  entropy T*S    EENTRO =        -0.87507621
  eigenvalues    EBANDS =    -19176.87781984
  atomic energy  EATOM  =    136002.60505376
  Solvation  Ediel_sol  =         0.00000000
  ---------------------------------------------------
  free energy    TOTEN  =      -459.58177462 eV

  energy without entropy =     -458.70669841  energy(sigma->0) =     -459.14423651


--------------------------------------------------------------------------------------------------------




--------------------------------------- Iteration      1(   7)  ---------------------------------------


    POTLOK:  cpu time    0.3138: real time    0.3141
    SETDIJ:  cpu time    0.0174: real time    0.0174
     EDDAV:  cpu time    7.8443: real time    7.8465
       DOS:  cpu time    0.0011: real time    0.0011
    CHARGE:  cpu time    0.2585: real time    0.2585
    MIXING:  cpu time    0.0104: real time    0.0104
    --------------------------------------------
      LOOP:  cpu time    8.4456: real time    8.4481

 eigenvalue-minimisations  :  1088
 total energy-change (2. order) : 0.9804013E+02  (-0.1928608E+02)
 number of electron     791.9997910 magnetization 
 augmentation part      331.2792387 magnetization 

 Broyden mixing:
  rms(total) = 0.69164E+01    rms(broyden)= 0.69156E+01
  rms(prec ) = 0.72982E+01
  weight for this iteration     100.00

 eigenvalues of (default mixing * dielectric matrix)
  average eigenvalue GAMMA=   0.5618
  0.6046  0.5190

 Free energy of the ion-electron system (eV)
  ---------------------------------------------------
  alpha Z        PSCENC =      1422.52235994
  Ewald energy   TEWEN  =    155019.05544804
  -Hartree energ DENC   =   -273680.80330710
  -exchange      EXHF   =         0.00000000
  -V(xc)+E(xc)   XCENC  =      3636.27597225
  PAW double counting   =    122678.64555725  -127500.30100005
  entropy T*S    EENTRO =        -0.83571457
  eigenvalues    EBANDS =    -17938.70601097
  atomic energy  EATOM  =    136002.60505376
  Solvation  Ediel_sol  =         0.00000000
  ---------------------------------------------------
  free energy    TOTEN  =      -361.54164145 eV

  energy without entropy =     -360.70592688  energy(sigma->0) =     -361.12378416


--------------------------------------------------------------------------------------------------------




--------------------------------------- Iteration      1(   8)  ---------------------------------------


    POTLOK:  cpu time    0.3696: real time    0.3696
    SETDIJ:  cpu time    0.0370: real time    0.0370
     EDDAV:  cpu time    9.2648: real time    9.2668
       DOS:  cpu time    0.0014: real time    0.0014
    CHARGE:  cpu time    0.2616: real time    0.2616
    MIXING:  cpu time    0.0109: real time    0.0109
    --------------------------------------------
      LOOP:  cpu time    9.9453: real time    9.9473

 eigenvalue-minimisations  :  1328
 total energy-change (2. order) :-0.2141791E+02  (-0.2309605E+02)
 number of electron     791.9997932 magnetization 
 augmentation part      302.3171609 magnetization 

 Broyden mixing:
  rms(total) = 0.11466E+02    rms(broyden)= 0.11464E+02
  rms(prec ) = 0.13683E+02
  weight for this iteration     100.00

 eigenvalues of (default mixing * dielectric matrix)
  average eigenvalue GAMMA=   0.4855
  0.8464  0.4324  0.1777

 Free energy of the ion-electron system (eV)
  ---------------------------------------------------
  alpha Z        PSCENC =      1422.52235994
  Ewald energy   TEWEN  =    155019.05544804
  -Hartree energ DENC   =   -274788.03828677
  -exchange      EXHF   =         0.00000000
  -V(xc)+E(xc)   XCENC  =      3663.72787930
  PAW double counting   =    131461.59013239  -136431.07307035
  entropy T*S    EENTRO =        -0.96708263
  eigenvalues    EBANDS =    -16732.38198378
  atomic energy  EATOM  =    136002.60505376
  Solvation  Ediel_sol  =         0.00000000
  ---------------------------------------------------
  free energy    TOTEN  =      -382.95955012 eV

  energy without entropy =     -381.99246749  energy(sigma->0) =     -382.47600880


--------------------------------------------------------------------------------------------------------




--------------------------------------- Iteration      1(   9)  ---------------------------------------


    POTLOK:  cpu time    0.3112: real time    0.3114
    SETDIJ:  cpu time    0.0171: real time    0.0171
     EDDAV:  cpu time    8.9618: real time    8.9633
       DOS:  cpu time    0.0015: real time    0.0015
    CHARGE:  cpu time    0.2641: real time    0.2641
    MIXING:  cpu time    0.0126: real time    0.0126
    --------------------------------------------
      LOOP:  cpu time    9.5683: real time    9.5700

 eigenvalue-minimisations  :  1256
 total energy-change (2. order) : 0.2048416E+02  (-0.1065617E+02)
 number of electron     791.9998152 magnetization 
 augmentation part      303.4519471 magnetization 

 Broyden mixing:
  rms(total) = 0.52878E+01    rms(broyden)= 0.52844E+01
  rms(prec ) = 0.61432E+01
  weight for this iteration     100.00

 eigenvalues of (default mixing * dielectric matrix)
  average eigenvalue GAMMA=   0.6709
  1.7238  0.4197  0.4197  0.1203

 Free energy of the ion-electron system (eV)
  ---------------------------------------------------
  alpha Z        PSCENC =      1422.52235994
  Ewald energy   TEWEN  =    155019.05544804
  -Hartree energ DENC   =   -274743.53688968
  -exchange      EXHF   =         0.00000000
  -V(xc)+E(xc)   XCENC  =      3661.83136698
  PAW double counting   =    133495.48177006  -138471.50625982
  entropy T*S    EENTRO =        -1.05304740
  eigenvalues    EBANDS =    -16747.87519513
  atomic energy  EATOM  =    136002.60505376
  Solvation  Ediel_sol  =         0.00000000
  ---------------------------------------------------
  free energy    TOTEN  =      -362.47539325 eV

  energy without entropy =     -361.42234586  energy(sigma->0) =     -361.94886956


--------------------------------------------------------------------------------------------------------




--------------------------------------- Iteration      1(  10)  ---------------------------------------


    POTLOK:  cpu time    0.3136: real time    0.3138
    SETDIJ:  cpu time    0.0167: real time    0.0167
     EDDAV:  cpu time    9.3399: real time    9.3418
       DOS:  cpu time    0.0012: real time    0.0012
    CHARGE:  cpu time    0.2590: real time    0.2590
    MIXING:  cpu time    0.0111: real time    0.0114
    --------------------------------------------
      LOOP:  cpu time    9.9414: real time    9.9439

 eigenvalue-minimisations  :  1320
 total energy-change (2. order) :-0.3489876E+02  (-0.9052821E+01)
 number of electron     791.9998165 magnetization 
 augmentation part      302.1897900 magnetization 

 Broyden mixing:
  rms(total) = 0.11531E+02    rms(broyden)= 0.11529E+02
  rms(prec ) = 0.14251E+02
  weight for this iteration     100.00

 eigenvalues of (default mixing * dielectric matrix)
  average eigenvalue GAMMA=   0.6584
  2.1904  0.4323  0.4323  0.1187  0.1187

 Free energy of the ion-electron system (eV)
  ---------------------------------------------------
  alpha Z        PSCENC =      1422.52235994
  Ewald energy   TEWEN  =    155019.05544804
  -Hartree energ DENC   =   -274608.34503579
  -exchange      EXHF   =         0.00000000
  -V(xc)+E(xc)   XCENC  =      3657.85411326
  PAW double counting   =    139578.02801909  -144581.76195587
  entropy T*S    EENTRO =        -0.97252702
  eigenvalues    EBANDS =    -16886.35962816
  atomic energy  EATOM  =    136002.60505376
  Solvation  Ediel_sol  =         0.00000000
  ---------------------------------------------------
  free energy    TOTEN  =      -397.37415275 eV

  energy without entropy =     -396.40162572  energy(sigma->0) =     -396.88788924


--------------------------------------------------------------------------------------------------------




--------------------------------------- Iteration      1(  11)  ---------------------------------------


    POTLOK:  cpu time    0.3124: real time    0.3124
    SETDIJ:  cpu time    0.0168: real time    0.0168
     EDDAV:  cpu time    9.0623: real time    9.0639
       DOS:  cpu time    0.0017: real time    0.0017
    CHARGE:  cpu time    0.3042: real time    0.3042
    MIXING:  cpu time    0.0115: real time    0.0115
    --------------------------------------------
      LOOP:  cpu time    9.7089: real time    9.7106

 eigenvalue-minimisations  :  1296
 total energy-change (2. order) : 0.3504397E+02  (-0.4982903E+01)
 number of electron     791.9998078 magnetization 
 augmentation part      310.6351335 magnetization 

 Broyden mixing:
  rms(total) = 0.51073E+01    rms(broyden)= 0.51039E+01
  rms(prec ) = 0.62749E+01
  weight for this iteration     100.00

 eigenvalues of (default mixing * dielectric matrix)
  average eigenvalue GAMMA=   0.6009
  2.2988  0.4315  0.4315  0.2110  0.1428  0.0900

 Free energy of the ion-electron system (eV)
  ---------------------------------------------------
  alpha Z        PSCENC =      1422.52235994
  Ewald energy   TEWEN  =    155019.05544804
  -Hartree energ DENC   =   -274448.57588647
  -exchange      EXHF   =         0.00000000
  -V(xc)+E(xc)   XCENC  =      3654.07169078
  PAW double counting   =    143347.03017239  -148363.03319799
  entropy T*S    EENTRO =        -1.00420072
  eigenvalues    EBANDS =    -16995.00162361
  atomic energy  EATOM  =    136002.60505376
  Solvation  Ediel_sol  =         0.00000000
  ---------------------------------------------------
  free energy    TOTEN  =      -362.33018389 eV

  energy without entropy =     -361.32598317  energy(sigma->0) =     -361.82808353


--------------------------------------------------------------------------------------------------------




--------------------------------------- Iteration      1(  12)  ---------------------------------------


    POTLOK:  cpu time    0.3147: real time    0.3147
    SETDIJ:  cpu time    0.0168: real time    0.0168
     EDDAV:  cpu time    9.0614: real time    9.0631
       DOS:  cpu time    0.0018: real time    0.0018
    CHARGE:  cpu time    0.2528: real time    0.2529
    MIXING:  cpu time    0.0120: real time    0.0120
    --------------------------------------------
      LOOP:  cpu time    9.6595: real time    9.6612

 eigenvalue-minimisations  :  1320
 total energy-change (2. order) : 0.9293209E+01  (-0.3015124E+01)
 number of electron     791.9998094 magnetization 
 augmentation part      312.3640384 magnetization 

 Broyden mixing:
  rms(total) = 0.33192E+01    rms(broyden)= 0.33163E+01
  rms(prec ) = 0.40899E+01
  weight for this iteration     100.00

 eigenvalues of (default mixing * dielectric matrix)
  average eigenvalue GAMMA=   0.5763
  2.3176  0.4438  0.4438  0.4476  0.1617  0.1098  0.1098

 Free energy of the ion-electron system (eV)
  ---------------------------------------------------
  alpha Z        PSCENC =      1422.52235994
  Ewald energy   TEWEN  =    155019.05544804
  -Hartree energ DENC   =   -274433.39897846
  -exchange      EXHF   =         0.00000000
  -V(xc)+E(xc)   XCENC  =      3653.36527008
  PAW double counting   =    144293.83012844  -149314.73413309
  entropy T*S    EENTRO =        -1.07136808
  eigenvalues    EBANDS =    -16995.21075602
  atomic energy  EATOM  =    136002.60505376
  Solvation  Ediel_sol  =         0.00000000
  ---------------------------------------------------
  free energy    TOTEN  =      -353.03697539 eV

  energy without entropy =     -351.96560731  energy(sigma->0) =     -352.50129135


--------------------------------------------------------------------------------------------------------




--------------------------------------- Iteration      1(  13)  ---------------------------------------


    POTLOK:  cpu time    0.3159: real time    0.3159
    SETDIJ:  cpu time    0.0167: real time    0.0167
     EDDAV:  cpu time    9.2711: real time    9.2727
       DOS:  cpu time    0.0012: real time    0.0012
    CHARGE:  cpu time    0.2540: real time    0.2541
    MIXING:  cpu time    0.0136: real time    0.0136
    --------------------------------------------
      LOOP:  cpu time    9.8725: real time    9.8743

 eigenvalue-minimisations  :  1288
 total energy-change (2. order) : 0.2099075E+01  (-0.2030970E+01)
 number of electron     791.9998075 magnetization 
 augmentation part      312.2103045 magnetization 

 Broyden mixing:
  rms(total) = 0.33499E+01    rms(broyden)= 0.33481E+01
  rms(prec ) = 0.43599E+01
  weight for this iteration     100.00

 eigenvalues of (default mixing * dielectric matrix)
  average eigenvalue GAMMA=   0.5674
  2.2472  0.8313  0.4512  0.4512  0.1980  0.1331  0.1331  0.0942

 Free energy of the ion-electron system (eV)
  ---------------------------------------------------
  alpha Z        PSCENC =      1422.52235994
  Ewald energy   TEWEN  =    155019.05544804
  -Hartree energ DENC   =   -274453.82112673
  -exchange      EXHF   =         0.00000000
  -V(xc)+E(xc)   XCENC  =      3653.78165243
  PAW double counting   =    144315.97209296  -149338.87991292
  entropy T*S    EENTRO =        -0.97947114
  eigenvalues    EBANDS =    -16971.19399689
  atomic energy  EATOM  =    136002.60505376
  Solvation  Ediel_sol  =         0.00000000
  ---------------------------------------------------
  free energy    TOTEN  =      -350.93790055 eV

  energy without entropy =     -349.95842941  energy(sigma->0) =     -350.44816498


--------------------------------------------------------------------------------------------------------




--------------------------------------- Iteration      1(  14)  ---------------------------------------


    POTLOK:  cpu time    0.3138: real time    0.3138
    SETDIJ:  cpu time    0.0177: real time    0.0177
     EDDAV:  cpu time    9.1868: real time    9.1885
       DOS:  cpu time    0.0017: real time    0.0016
    CHARGE:  cpu time    0.2534: real time    0.2535
    MIXING:  cpu time    0.0135: real time    0.0135
    --------------------------------------------
      LOOP:  cpu time    9.7868: real time    9.7886

 eigenvalue-minimisations  :  1296
 total energy-change (2. order) : 0.4689595E+01  (-0.1102531E+01)
 number of electron     791.9998063 magnetization 
 augmentation part      312.2934109 magnetization 

 Broyden mixing:
  rms(total) = 0.22230E+01    rms(broyden)= 0.22214E+01
  rms(prec ) = 0.26775E+01
  weight for this iteration     100.00

 eigenvalues of (default mixing * dielectric matrix)
  average eigenvalue GAMMA=   0.5262
  2.2209  0.7154  0.4609  0.4609  0.3645  0.1479  0.1479  0.1227  0.0947

 Free energy of the ion-electron system (eV)
  ---------------------------------------------------
  alpha Z        PSCENC =      1422.52235994
  Ewald energy   TEWEN  =    155019.05544804
  -Hartree energ DENC   =   -274482.05117880
  -exchange      EXHF   =         0.00000000
  -V(xc)+E(xc)   XCENC  =      3653.84689828
  PAW double counting   =    143808.54595905  -148828.26134272
  entropy T*S    EENTRO =        -1.05859956
  eigenvalues    EBANDS =    -16941.45290352
  atomic energy  EATOM  =    136002.60505376
  Solvation  Ediel_sol  =         0.00000000
  ---------------------------------------------------
  free energy    TOTEN  =      -346.24830554 eV

  energy without entropy =     -345.18970597  energy(sigma->0) =     -345.71900575


--------------------------------------------------------------------------------------------------------




--------------------------------------- Iteration      1(  15)  ---------------------------------------


    POTLOK:  cpu time    0.3123: real time    0.3123
    SETDIJ:  cpu time    0.0168: real time    0.0168
     EDDAV:  cpu time    9.4020: real time    9.4038
       DOS:  cpu time    0.0012: real time    0.0012
    CHARGE:  cpu time    0.2546: real time    0.2546
    MIXING:  cpu time    0.0138: real time    0.0138
    --------------------------------------------
      LOOP:  cpu time   10.0006: real time   10.0025

 eigenvalue-minimisations  :  1336
 total energy-change (2. order) : 0.1588256E+01  (-0.4153078E+00)
 number of electron     791.9998060 magnetization 
 augmentation part      312.4924307 magnetization 

 Broyden mixing:
  rms(total) = 0.16833E+01    rms(broyden)= 0.16826E+01
  rms(prec ) = 0.20161E+01
  weight for this iteration     100.00

 eigenvalues of (default mixing * dielectric matrix)
  average eigenvalue GAMMA=   0.5270
  2.1995  0.7473  0.7473  0.4391  0.4391  0.1733  0.1733  0.1286  0.1286  0.0939

 Free energy of the ion-electron system (eV)
  ---------------------------------------------------
  alpha Z        PSCENC =      1422.52235994
  Ewald energy   TEWEN  =    155019.05544804
  -Hartree energ DENC   =   -274490.89888333
  -exchange      EXHF   =         0.00000000
  -V(xc)+E(xc)   XCENC  =      3654.01975335
  PAW double counting   =    143560.13831526  -148578.22042952
  entropy T*S    EENTRO =        -1.08081250
  eigenvalues    EBANDS =    -16932.80085472
  atomic energy  EATOM  =    136002.60505376
  Solvation  Ediel_sol  =         0.00000000
  ---------------------------------------------------
  free energy    TOTEN  =      -344.66004972 eV

  energy without entropy =     -343.57923721  energy(sigma->0) =     -344.11964347


--------------------------------------------------------------------------------------------------------




--------------------------------------- Iteration      1(  16)  ---------------------------------------


    POTLOK:  cpu time    0.3147: real time    0.3147
    SETDIJ:  cpu time    0.0167: real time    0.0167
     EDDAV:  cpu time    9.3699: real time    9.3718
       DOS:  cpu time    0.0014: real time    0.0014
    CHARGE:  cpu time    0.2543: real time    0.2543
    MIXING:  cpu time    0.0142: real time    0.0142
    --------------------------------------------
      LOOP:  cpu time    9.9712: real time    9.9731

 eigenvalue-minimisations  :  1328
 total energy-change (2. order) : 0.6215467E+00  (-0.1456846E+00)
 number of electron     791.9998062 magnetization 
 augmentation part      312.4764246 magnetization 

 Broyden mixing:
  rms(total) = 0.14113E+01    rms(broyden)= 0.14110E+01
  rms(prec ) = 0.17112E+01
  weight for this iteration     100.00

 eigenvalues of (default mixing * dielectric matrix)
  average eigenvalue GAMMA=   0.5202
  2.1932  0.8721  0.8721  0.4380  0.4380  0.2076  0.2076  0.0944  0.1396  0.1396
  0.1198

 Free energy of the ion-electron system (eV)
  ---------------------------------------------------
  alpha Z        PSCENC =      1422.52235994
  Ewald energy   TEWEN  =    155019.05544804
  -Hartree energ DENC   =   -274501.14384702
  -exchange      EXHF   =         0.00000000
  -V(xc)+E(xc)   XCENC  =      3654.25961903
  PAW double counting   =    143309.50810073  -148325.50077892
  entropy T*S    EENTRO =        -1.07200943
  eigenvalues    EBANDS =    -16924.27244918
  atomic energy  EATOM  =    136002.60505376
  Solvation  Ediel_sol  =         0.00000000
  ---------------------------------------------------
  free energy    TOTEN  =      -344.03850305 eV

  energy without entropy =     -342.96649363  energy(sigma->0) =     -343.50249834


--------------------------------------------------------------------------------------------------------




--------------------------------------- Iteration      1(  17)  ---------------------------------------


    POTLOK:  cpu time    0.3168: real time    0.3168
    SETDIJ:  cpu time    0.0167: real time    0.0168
     EDDAV:  cpu time    9.0759: real time    9.1069
       DOS:  cpu time    0.0012: real time    0.0012
    CHARGE:  cpu time    0.2518: real time    0.2518
    MIXING:  cpu time    0.0150: real time    0.0150
    --------------------------------------------
      LOOP:  cpu time    9.6774: real time    9.7085

 eigenvalue-minimisations  :  1320
 total energy-change (2. order) : 0.3571604E+00  (-0.5985153E-01)
 number of electron     791.9998057 magnetization 
 augmentation part      312.2545609 magnetization 

 Broyden mixing:
  rms(total) = 0.12807E+01    rms(broyden)= 0.12806E+01
  rms(prec ) = 0.15915E+01
  weight for this iteration     100.00

 eigenvalues of (default mixing * dielectric matrix)
  average eigenvalue GAMMA=   0.5323
  2.2019  1.0236  1.0236  0.4378  0.4378  0.3868  0.2153  0.0941  0.1564  0.1564
  0.1266  0.1266

 Free energy of the ion-electron system (eV)
  ---------------------------------------------------
  alpha Z        PSCENC =      1422.52235994
  Ewald energy   TEWEN  =    155019.05544804
  -Hartree energ DENC   =   -274511.70947932
  -exchange      EXHF   =         0.00000000
  -V(xc)+E(xc)   XCENC  =      3654.39901223
  PAW double counting   =    143131.80638648  -148145.99155959
  entropy T*S    EENTRO =        -1.09886063
  eigenvalues    EBANDS =    -16915.26970359
  atomic energy  EATOM  =    136002.60505376
  Solvation  Ediel_sol  =         0.00000000
  ---------------------------------------------------
  free energy    TOTEN  =      -343.68134268 eV

  energy without entropy =     -342.58248206  energy(sigma->0) =     -343.13191237


--------------------------------------------------------------------------------------------------------




--------------------------------------- Iteration      1(  18)  ---------------------------------------


    POTLOK:  cpu time    0.4026: real time    0.4026
    SETDIJ:  cpu time    0.0366: real time    0.0367
     EDDAV:  cpu time    8.9760: real time    8.9779
       DOS:  cpu time    0.0012: real time    0.0012
    CHARGE:  cpu time    0.2520: real time    0.2521
    MIXING:  cpu time    0.0159: real time    0.0159
    --------------------------------------------
      LOOP:  cpu time    9.6844: real time    9.6864

 eigenvalue-minimisations  :  1288
 total energy-change (2. order) : 0.3328440E+00  (-0.3702470E-01)
 number of electron     791.9998062 magnetization 
 augmentation part      312.0816227 magnetization 

 Broyden mixing:
  rms(total) = 0.11550E+01    rms(broyden)= 0.11549E+01
  rms(prec ) = 0.14077E+01
  weight for this iteration     100.00

 eigenvalues of (default mixing * dielectric matrix)
  average eigenvalue GAMMA=   0.5552
  2.1804  1.2757  1.2757  0.4482  0.4482  0.4734  0.2820  0.1715  0.1715  0.0942
  0.1355  0.1355  0.1257

 Free energy of the ion-electron system (eV)
  ---------------------------------------------------
  alpha Z        PSCENC =      1422.52235994
  Ewald energy   TEWEN  =    155019.05544804
  -Hartree energ DENC   =   -274527.70104953
  -exchange      EXHF   =         0.00000000
  -V(xc)+E(xc)   XCENC  =      3654.47987455
  PAW double counting   =    142900.12050555  -147911.57362776
  entropy T*S    EENTRO =        -1.08671369
  eigenvalues    EBANDS =    -16901.77034954
  atomic energy  EATOM  =    136002.60505376
  Solvation  Ediel_sol  =         0.00000000
  ---------------------------------------------------
  free energy    TOTEN  =      -343.34849869 eV

  energy without entropy =     -342.26178500  energy(sigma->0) =     -342.80514185


--------------------------------------------------------------------------------------------------------




--------------------------------------- Iteration      1(  19)  ---------------------------------------


    POTLOK:  cpu time    0.3180: real time    0.3180
    SETDIJ:  cpu time    0.0167: real time    0.0168
     EDDAV:  cpu time    9.7157: real time    9.7175
       DOS:  cpu time    0.0012: real time    0.0012
    CHARGE:  cpu time    0.2524: real time    0.2525
    MIXING:  cpu time    0.0168: real time    0.0168
    --------------------------------------------
      LOOP:  cpu time   10.3207: real time   10.3226

 eigenvalue-minimisations  :  1368
 total energy-change (2. order) : 0.4464064E+00  (-0.3234306E-01)
 number of electron     791.9998054 magnetization 
 augmentation part      311.8463194 magnetization 

 Broyden mixing:
  rms(total) = 0.97527E+00    rms(broyden)= 0.97516E+00
  rms(prec ) = 0.12075E+01
  weight for this iteration     100.00

 eigenvalues of (default mixing * dielectric matrix)
  average eigenvalue GAMMA=   0.5941
  2.1717  1.6017  1.6017  0.5072  0.5072  0.4546  0.4546  0.1861  0.1861  0.0942
  0.1485  0.1485  0.1278  0.1278

 Free energy of the ion-electron system (eV)
  ---------------------------------------------------
  alpha Z        PSCENC =      1422.52235994
  Ewald energy   TEWEN  =    155019.05544804
  -Hartree energ DENC   =   -274546.10118856
  -exchange      EXHF   =         0.00000000
  -V(xc)+E(xc)   XCENC  =      3654.59791269
  PAW double counting   =    142535.76257259  -147543.46635308
  entropy T*S    EENTRO =        -1.09909939
  eigenvalues    EBANDS =    -16886.77879832
  atomic energy  EATOM  =    136002.60505376
  Solvation  Ediel_sol  =         0.00000000
  ---------------------------------------------------
  free energy    TOTEN  =      -342.90209233 eV

  energy without entropy =     -341.80299294  energy(sigma->0) =     -342.35254264


--------------------------------------------------------------------------------------------------------




--------------------------------------- Iteration      1(  20)  ---------------------------------------


    POTLOK:  cpu time    0.3187: real time    0.3187
    SETDIJ:  cpu time    0.0167: real time    0.0167
     EDDAV:  cpu time    9.4810: real time    9.4832
       DOS:  cpu time    0.0013: real time    0.0013
    CHARGE:  cpu time    0.2524: real time    0.2525
    MIXING:  cpu time    0.0188: real time    0.0189
    --------------------------------------------
      LOOP:  cpu time   10.0889: real time   10.0912

 eigenvalue-minimisations  :  1344
 total energy-change (2. order) : 0.4827626E+00  (-0.3151464E-01)
 number of electron     791.9998053 magnetization 
 augmentation part      311.9745446 magnetization 

 Broyden mixing:
  rms(total) = 0.66950E+00    rms(broyden)= 0.66936E+00
  rms(prec ) = 0.79747E+00
  weight for this iteration     100.00

 eigenvalues of (default mixing * dielectric matrix)
  average eigenvalue GAMMA=   0.6141
  2.1654  1.8386  1.8386  0.5960  0.5960  0.4404  0.4404  0.2885  0.2058  0.0942
  0.1578  0.1578  0.1298  0.1298  0.1329

 Free energy of the ion-electron system (eV)
  ---------------------------------------------------
  alpha Z        PSCENC =      1422.52235994
  Ewald energy   TEWEN  =    155019.05544804
  -Hartree energ DENC   =   -274564.10025026
  -exchange      EXHF   =         0.00000000
  -V(xc)+E(xc)   XCENC  =      3654.69308948
  PAW double counting   =    142106.01098946  -147109.15055290
  entropy T*S    EENTRO =        -1.07702820
  eigenvalues    EBANDS =    -16872.97843907
  atomic energy  EATOM  =    136002.60505376
  Solvation  Ediel_sol  =         0.00000000
  ---------------------------------------------------
  free energy    TOTEN  =      -342.41932976 eV

  energy without entropy =     -341.34230156  energy(sigma->0) =     -341.88081566


--------------------------------------------------------------------------------------------------------




--------------------------------------- Iteration      1(  21)  ---------------------------------------


    POTLOK:  cpu time    0.3219: real time    0.3219
    SETDIJ:  cpu time    0.0169: real time    0.0169
     EDDAV:  cpu time    9.2018: real time    9.2034
       DOS:  cpu time    0.0011: real time    0.0011
    CHARGE:  cpu time    0.2526: real time    0.2527
    MIXING:  cpu time    0.0191: real time    0.0191
    --------------------------------------------
      LOOP:  cpu time    9.8135: real time    9.8151

 eigenvalue-minimisations  :  1296
 total energy-change (2. order) : 0.2337040E+00  (-0.4167269E-01)
 number of electron     791.9998040 magnetization 
 augmentation part      311.7846512 magnetization 

 Broyden mixing:
  rms(total) = 0.42287E+00    rms(broyden)= 0.42254E+00
  rms(prec ) = 0.48520E+00
  weight for this iteration     100.00

 eigenvalues of (default mixing * dielectric matrix)
  average eigenvalue GAMMA=   0.6186
  2.1698  1.9471  1.9471  0.6944  0.6944  0.4404  0.4404  0.3701  0.2143  0.0942
  0.1691  0.1691  0.1485  0.1423  0.1283  0.1283

 Free energy of the ion-electron system (eV)
  ---------------------------------------------------
  alpha Z        PSCENC =      1422.52235994
  Ewald energy   TEWEN  =    155019.05544804
  -Hartree energ DENC   =   -274589.85849631
  -exchange      EXHF   =         0.00000000
  -V(xc)+E(xc)   XCENC  =      3654.86507880
  PAW double counting   =    141643.34011413  -146641.57070917
  entropy T*S    EENTRO =        -1.07744639
  eigenvalues    EBANDS =    -16852.06702855
  atomic energy  EATOM  =    136002.60505376
  Solvation  Ediel_sol  =         0.00000000
  ---------------------------------------------------
  free energy    TOTEN  =      -342.18562575 eV

  energy without entropy =     -341.10817935  energy(sigma->0) =     -341.64690255


--------------------------------------------------------------------------------------------------------




--------------------------------------- Iteration      1(  22)  ---------------------------------------


    POTLOK:  cpu time    0.3198: real time    0.3198
    SETDIJ:  cpu time    0.0171: real time    0.0171
     EDDAV:  cpu time    8.8953: real time    8.8971
       DOS:  cpu time    0.0012: real time    0.0012
    CHARGE:  cpu time    0.5056: real time    0.5056
    MIXING:  cpu time    0.0185: real time    0.0185
    --------------------------------------------
      LOOP:  cpu time    9.7574: real time    9.7592

 eigenvalue-minimisations  :  1280
 total energy-change (2. order) : 0.7145687E-01  (-0.2111044E-01)
 number of electron     791.9998042 magnetization 
 augmentation part      311.7751224 magnetization 

 Broyden mixing:
  rms(total) = 0.25881E+00    rms(broyden)= 0.25862E+00
  rms(prec ) = 0.28303E+00
  weight for this iteration     100.00

 eigenvalues of (default mixing * dielectric matrix)
  average eigenvalue GAMMA=   0.6201
  2.1565  1.9929  1.9929  0.7765  0.7765  0.4445  0.4445  0.4364  0.3472  0.1876
  0.1876  0.0942  0.1554  0.1554  0.1290  0.1290  0.1351

 Free energy of the ion-electron system (eV)
  ---------------------------------------------------
  alpha Z        PSCENC =      1422.52235994
  Ewald energy   TEWEN  =    155019.05544804
  -Hartree energ DENC   =   -274602.71415136
  -exchange      EXHF   =         0.00000000
  -V(xc)+E(xc)   XCENC  =      3654.87732646
  PAW double counting   =    141431.36601257  -146427.15799730
  entropy T*S    EENTRO =        -1.06961602
  eigenvalues    EBANDS =    -16841.59860496
  atomic energy  EATOM  =    136002.60505376
  Solvation  Ediel_sol  =         0.00000000
  ---------------------------------------------------
  free energy    TOTEN  =      -342.11416887 eV

  energy without entropy =     -341.04455285  energy(sigma->0) =     -341.57936086


--------------------------------------------------------------------------------------------------------




--------------------------------------- Iteration      1(  23)  ---------------------------------------


    POTLOK:  cpu time    0.3214: real time    0.3214
    SETDIJ:  cpu time    0.0171: real time    0.0171
     EDDAV:  cpu time    8.6423: real time    8.6442
       DOS:  cpu time    0.0014: real time    0.0014
    CHARGE:  cpu time    0.2513: real time    0.2515
    MIXING:  cpu time    0.0196: real time    0.0196
    --------------------------------------------
      LOOP:  cpu time    9.2532: real time    9.2551

 eigenvalue-minimisations  :  1224
 total energy-change (2. order) : 0.5157436E-02  (-0.8186146E-02)
 number of electron     791.9998040 magnetization 
 augmentation part      311.8029095 magnetization 

 Broyden mixing:
  rms(total) = 0.23973E+00    rms(broyden)= 0.23965E+00
  rms(prec ) = 0.26632E+00
  weight for this iteration     100.00

 eigenvalues of (default mixing * dielectric matrix)
  average eigenvalue GAMMA=   0.6291
  2.1477  1.9931  1.9931  0.9834  0.9834  0.5115  0.4493  0.4493  0.4221  0.2104
  0.2104  0.0942  0.1600  0.1600  0.1618  0.1289  0.1289  0.1365

 Free energy of the ion-electron system (eV)
  ---------------------------------------------------
  alpha Z        PSCENC =      1422.52235994
  Ewald energy   TEWEN  =    155019.05544804
  -Hartree energ DENC   =   -274611.92098298
  -exchange      EXHF   =         0.00000000
  -V(xc)+E(xc)   XCENC  =      3654.89721027
  PAW double counting   =    141291.96213196  -146286.43796999
  entropy T*S    EENTRO =        -1.06986265
  eigenvalues    EBANDS =    -16833.72239978
  atomic energy  EATOM  =    136002.60505376
  Solvation  Ediel_sol  =         0.00000000
  ---------------------------------------------------
  free energy    TOTEN  =      -342.10901143 eV

  energy without entropy =     -341.03914878  energy(sigma->0) =     -341.57408011


--------------------------------------------------------------------------------------------------------




--------------------------------------- Iteration      1(  24)  ---------------------------------------


    POTLOK:  cpu time    0.3201: real time    0.3201
    SETDIJ:  cpu time    0.0168: real time    0.0168
     EDDAV:  cpu time    8.0647: real time    8.0662
       DOS:  cpu time    0.0016: real time    0.0016
    CHARGE:  cpu time    0.2592: real time    0.2592
    MIXING:  cpu time    0.0201: real time    0.0201
    --------------------------------------------
      LOOP:  cpu time    8.6825: real time    8.6839

 eigenvalue-minimisations  :  1088
 total energy-change (2. order) : 0.1368557E-01  (-0.6417862E-02)
 number of electron     791.9998039 magnetization 
 augmentation part      311.9332770 magnetization 

 Broyden mixing:
  rms(total) = 0.18205E+00    rms(broyden)= 0.18197E+00
  rms(prec ) = 0.20326E+00
  weight for this iteration     100.00

 eigenvalues of (default mixing * dielectric matrix)
  average eigenvalue GAMMA=   0.6423
  2.0267  1.6198  1.6198  1.5693  1.5693  0.6005  0.6005  0.4468  0.4468  0.3567
  0.0942  0.1964  0.1846  0.1289  0.1289  0.1357  0.1563  0.1563  0.1660

 Free energy of the ion-electron system (eV)
  ---------------------------------------------------
  alpha Z        PSCENC =      1422.52235994
  Ewald energy   TEWEN  =    155019.05544804
  -Hartree energ DENC   =   -274618.22824027
  -exchange      EXHF   =         0.00000000
  -V(xc)+E(xc)   XCENC  =      3654.89317998
  PAW double counting   =    141205.64423315  -146199.42745534
  entropy T*S    EENTRO =        -1.06049630
  eigenvalues    EBANDS =    -16828.09940881
  atomic energy  EATOM  =    136002.60505376
  Solvation  Ediel_sol  =         0.00000000
  ---------------------------------------------------
  free energy    TOTEN  =      -342.09532586 eV

  energy without entropy =     -341.03482956  energy(sigma->0) =     -341.56507771


--------------------------------------------------------------------------------------------------------




--------------------------------------- Iteration      1(  25)  ---------------------------------------


    POTLOK:  cpu time    0.3231: real time    0.3231
    SETDIJ:  cpu time    0.0167: real time    0.0167
     EDDAV:  cpu time    9.2225: real time    9.2242
       DOS:  cpu time    0.0011: real time    0.0011
    CHARGE:  cpu time    0.2542: real time    0.2543
    MIXING:  cpu time    0.0214: real time    0.0214
    --------------------------------------------
      LOOP:  cpu time    9.8390: real time    9.8409

 eigenvalue-minimisations  :  1304
 total energy-change (2. order) :-0.6793285E-02  (-0.6713188E-02)
 number of electron     791.9998039 magnetization 
 augmentation part      312.0079220 magnetization 

 Broyden mixing:
  rms(total) = 0.20501E+00    rms(broyden)= 0.20491E+00
  rms(prec ) = 0.23632E+00
  weight for this iteration     100.00

 eigenvalues of (default mixing * dielectric matrix)
  average eigenvalue GAMMA=   0.6597
  2.2427  2.2427  1.7855  1.7855  0.8712  0.7374  0.7374  0.4463  0.4463  0.3607
  0.0942  0.2087  0.1929  0.1289  0.1289  0.1356  0.1759  0.1563  0.1563  0.1614

 Free energy of the ion-electron system (eV)
  ---------------------------------------------------
  alpha Z        PSCENC =      1422.52235994
  Ewald energy   TEWEN  =    155019.05544804
  -Hartree energ DENC   =   -274629.58165193
  -exchange      EXHF   =         0.00000000
  -V(xc)+E(xc)   XCENC  =      3654.91126821
  PAW double counting   =    141122.38757149  -146115.83984678
  entropy T*S    EENTRO =        -1.05755774
  eigenvalues    EBANDS =    -16817.10476414
  atomic energy  EATOM  =    136002.60505376
  Solvation  Ediel_sol  =         0.00000000
  ---------------------------------------------------
  free energy    TOTEN  =      -342.10211915 eV

  energy without entropy =     -341.04456141  energy(sigma->0) =     -341.57334028


--------------------------------------------------------------------------------------------------------




[...]
    FORCOR:  cpu time    0.4215: real time    0.4215
    FORHAR:  cpu time    0.1869: real time    0.1869
    MIXING:  cpu time    0.0845: real time    0.0845
    OFIELD:  cpu time    0.0001: real time    0.0001

  FORCE on cell =-STRESS in cart. coord.  units (eV):
  Direction    XX          YY          ZZ          XY          YZ          ZX
  --------------------------------------------------------------------------------------
  Alpha Z  1422.52236  1422.52236  1422.52236
  Ewald  205142.60195205907.52574************   640.72514   -26.56010  1701.98416
  Hartree238694.52912239865.95010************   583.22919   -12.55136  1323.67035
  E(xc)   -5054.93194 -5055.36982 -5064.58285    -0.00523    -0.00514     0.82283
  Local  ************************447268.89683 -1224.26844    41.58690 -3005.08665
  n-local  -575.41141  -581.39624  -594.46042    -2.40374    -1.88397     1.43037
  augment  5774.64914  5791.84197  5812.28444     0.96807    -0.29561    -9.48192
  Kinetic 11066.96124 11096.45444 11222.77746     1.35598    -1.38534   -14.59237
  Fock        0.00000     0.00000     0.00000     0.00000     0.00000     0.00000
  -------------------------------------------------------------------------------------
  Total     122.85635   130.55451   144.93576    -0.39904    -1.09461    -1.25322
  in kB      75.27246    79.98901    88.80021    -0.24449    -0.67065    -0.76783
  external pressure =       81.35 kB  Pullay stress =        0.00 kB


 VOLUME and BASIS-vectors are now :
 -----------------------------------------------------------------------------
  energy-cutoff  :      450.00
  volume of cell :     2615.00
      direct lattice vectors                 reciprocal lattice vectors
    16.884694054  0.000000000  0.000000000     0.059225237  0.000000000  0.000000000
     0.000000000  9.578410000  0.000000000     0.000000000  0.104401461  0.000000000
     0.000000000  0.000000000 16.169087120     0.000000000  0.000000000  0.061846411

  length of vectors
    16.884694054  9.578410000 16.169087120     0.059225237  0.104401461  0.061846411


 FORCES acting on ions
    electron-ion (+dipol)            ewald-force                    non-local-force                 convergence-correction
 -----------------------------------------------------------------------------------------------
   0.681E+03 -.233E+01 0.210E+04   -.684E+03 0.236E+01 -.210E+04   0.361E+01 -.394E-01 0.534E+01   0.272E-02 0.517E-02 0.373E-02
   0.456E+03 -.249E+01 -.282E+04   -.461E+03 0.264E+01 0.283E+04   0.253E+01 -.149E+00 -.551E+01   0.123E-02 0.560E-02 -.244E-02
   0.187E+03 0.966E+02 0.285E+04   -.187E+03 -.971E+02 -.286E+04   0.116E+01 0.953E+00 0.678E+01   0.185E-01 0.520E-02 0.843E-03
   0.621E+03 0.492E+02 -.122E+04   -.624E+03 -.497E+02 0.122E+04   0.264E+01 0.291E+00 -.339E+01   0.342E-02 0.124E-01 -.557E-02
   0.871E+01 -.422E+03 0.235E+04   -.930E+01 0.422E+03 -.236E+04   0.143E+01 -.559E-01 0.803E+01   0.916E-03 -.708E-02 -.703E-02
   0.193E+03 -.611E+02 -.180E+04   -.196E+03 0.607E+02 0.181E+04   0.283E+01 0.301E+00 -.633E+01   -.350E-02 0.832E-02 -.897E-02
   0.535E+03 -.588E+00 0.132E+04   -.540E+03 0.579E+00 -.132E+04   0.508E+01 0.357E-02 0.347E+01   -.530E-02 -.842E-02 0.161E-01
   -.122E+03 0.522E+01 -.322E+04   0.119E+03 -.530E+01 0.322E+04   0.334E+01 0.864E-01 0.126E+01   0.360E-02 -.385E-02 0.125E-01
   0.750E+03 0.203E+01 0.269E+03   -.757E+03 -.199E+01 -.271E+03   0.575E+01 0.266E-02 0.347E+01   -.221E-02 -.401E-02 0.482E-02
   -.559E+03 0.964E+02 0.190E+04   0.562E+03 -.962E+02 -.190E+04   -.293E+01 -.148E+00 0.323E+01   -.764E-02 -.873E-02 -.130E-01
   0.824E+02 0.848E+01 -.220E+04   -.852E+02 -.838E+01 0.220E+04   0.212E+01 -.680E-01 -.641E+01   -.137E-02 -.222E-01 -.200E-02
   -.561E+03 0.186E+03 0.242E+04   0.567E+03 -.188E+03 -.243E+04   -.502E+01 0.282E+01 0.560E+01   -.925E-02 0.126E-01 0.301E-02
   -.511E+03 0.376E+03 -.234E+04   0.515E+03 -.380E+03 0.235E+04   -.268E+01 0.269E+01 -.399E+01   -.483E-02 0.180E-02 0.347E-02
   -.129E+03 0.463E+03 0.397E+04   0.127E+03 -.464E+03 -.398E+04   0.102E+01 0.745E+00 0.489E+01   0.122E-01 0.781E-02 -.281E-02
   -.301E+03 0.595E+03 0.556E+03   0.300E+03 -.598E+03 -.558E+03   0.762E+00 0.325E+01 0.272E+00   0.225E-02 0.526E-02 -.210E-01
   -.187E+03 0.129E+03 -.347E+04   0.190E+03 -.133E+03 0.347E+04   -.314E+01 0.417E+01 -.300E-01   0.698E-02 -.206E-02 0.330E-02
   -.507E+03 -.269E+03 0.345E+04   0.508E+03 0.270E+03 -.345E+04   -.102E+01 -.943E+00 0.433E+01   0.357E-03 0.452E-02 -.891E-02
   -.643E+03 0.505E+03 -.600E+03   0.647E+03 -.511E+03 0.602E+03   -.322E+01 0.547E+01 -.308E+01   0.328E-02 0.104E-01 -.151E-01
   0.236E+03 0.585E+03 0.197E+04   -.238E+03 -.589E+03 -.198E+04   0.141E+01 0.345E+01 0.404E+01   0.171E-03 -.106E-01 0.111E-01
   0.915E+02 0.151E+03 -.258E+04   -.900E+02 -.153E+03 0.258E+04   -.190E+01 0.225E+01 -.714E+00   -.643E-02 0.452E-02 0.831E-02
   0.383E+03 0.292E+03 0.122E+04   -.384E+03 -.295E+03 -.122E+04   0.854E+00 0.277E+01 0.448E+01   0.863E-02 -.185E-01 0.417E-03
   0.313E+03 0.262E+02 -.334E+04   -.311E+03 -.301E+02 0.334E+04   -.214E+01 0.424E+01 0.165E+01   -.674E-02 -.276E-02 -.351E-02
   0.487E+03 -.409E+03 0.260E+04   -.489E+03 0.411E+03 -.261E+04   0.146E+01 -.170E+01 0.734E+01   -.159E-02 -.970E-02 -.121E-02
   -.215E+03 0.347E+03 -.161E+04   0.216E+03 -.350E+03 0.161E+04   -.135E+01 0.245E+01 -.452E+01   -.449E-02 -.124E-01 0.455E-02
   -.554E+03 -.191E+03 0.242E+04   0.560E+03 0.193E+03 -.243E+04   -.487E+01 -.288E+01 0.551E+01   -.637E-02 -.357E-02 0.205E-02
   -.509E+03 -.378E+03 -.234E+04   0.513E+03 0.382E+03 0.235E+04   -.271E+01 -.285E+01 -.410E+01   -.407E-02 0.329E-02 -.189E-02
   -.427E+03 -.294E+03 0.390E+04   0.425E+03 0.295E+03 -.390E+04   0.251E+01 -.695E+00 -.202E+01   -.539E-02 -.140E-01 -.577E-02
   -.364E+03 -.261E+03 0.393E+02   0.364E+03 0.263E+03 -.376E+02   0.307E+00 -.246E+01 -.156E+01   -.126E-01 -.345E-02 -.253E-01
   -.176E+03 -.105E+03 -.366E+04   0.178E+03 0.109E+03 0.366E+04   -.250E+01 -.413E+01 0.200E+01   -.110E-01 -.636E-02 0.209E-02
   -.613E+03 -.554E+03 -.549E+03   0.616E+03 0.560E+03 0.549E+03   -.259E+01 -.561E+01 -.151E+01   0.653E-02 0.116E-01 -.566E-02
   0.134E+03 -.599E+03 0.198E+04   -.134E+03 0.603E+03 -.198E+04   0.928E+00 -.377E+01 0.422E+01   0.810E-02 0.319E-02 0.582E-02
   0.761E+02 -.139E+03 -.262E+04   -.747E+02 0.141E+03 0.262E+04   -.176E+01 -.255E+01 0.706E-01   0.728E-02 -.151E-02 0.991E-02
   0.130E+03 -.355E+03 0.131E+04   -.129E+03 0.359E+03 -.132E+04   0.538E+00 -.310E+01 0.468E+01   0.257E-02 -.217E-02 -.620E-02
   0.269E+03 -.623E+02 -.324E+04   -.266E+03 0.669E+02 0.324E+04   -.277E+01 -.493E+01 0.120E+01   -.229E-02 -.278E-02 0.564E-02
   0.472E+03 0.412E+03 0.260E+04   -.474E+03 -.415E+03 -.261E+04   0.141E+01 0.176E+01 0.742E+01   -.118E-02 0.571E-02 -.537E-02
   -.216E+03 -.344E+03 -.161E+04   0.218E+03 0.347E+03 0.161E+04   -.134E+01 -.249E+01 -.455E+01   0.102E-01 0.997E-03 -.780E-02
   -.122E+03 -.792E+00 -.169E+04   0.123E+03 0.827E+00 0.169E+04   0.483E-01 -.829E-02 -.719E+00   -.265E-02 0.262E-03 -.215E-02
   -.335E+03 0.419E+00 0.240E+03   0.337E+03 -.586E+00 -.241E+03   0.151E+00 0.199E+00 -.103E+01   -.558E-02 0.228E-02 -.468E-03
   -.424E+03 0.172E+03 0.137E+04   0.428E+03 -.174E+03 -.138E+04   -.282E+01 0.269E+01 0.270E+01   -.624E-02 0.752E-03 -.263E-02
   -.168E+03 0.123E+02 -.869E+03   0.168E+03 -.125E+02 0.874E+03   0.102E+01 0.880E-01 -.410E+01   0.116E-02 -.453E-02 -.446E-02
   -.168E+03 -.609E+01 0.946E+03   0.168E+03 0.575E+01 -.950E+03   0.262E+00 0.238E+00 0.262E+01   0.231E-02 0.419E-02 -.188E-02
   -.105E+03 -.425E+00 -.107E+04   0.107E+03 0.271E+00 0.107E+04   -.903E+00 0.154E+00 -.257E+01   0.625E-02 0.690E-02 -.149E-02
   0.119E+03 -.290E+02 0.172E+04   -.120E+03 0.291E+02 -.173E+04   0.240E+00 -.454E-01 0.196E+01   0.127E-02 -.168E-02 -.518E-02
   -.125E+02 -.246E+02 -.478E+03   0.131E+02 0.246E+02 0.484E+03   0.602E+00 0.137E+00 -.382E+01   0.885E-03 -.196E-02 0.699E-02
   0.147E+03 -.917E+02 0.163E+04   -.148E+03 0.920E+02 -.163E+04   0.143E+01 -.139E+00 0.167E+01   0.154E-02 -.551E-02 -.468E-02
   -.123E+02 -.459E+02 -.653E+03   0.131E+02 0.460E+02 0.658E+03   0.824E+00 -.192E+00 -.446E+01   -.760E-03 -.775E-02 0.176E-02
   -.660E+01 0.523E+01 0.721E+03   0.786E+01 -.535E+01 -.724E+03   -.607E+00 0.591E-01 0.224E+01   -.195E-02 -.843E-03 -.189E-02
   -.927E+02 0.841E+00 -.141E+04   0.955E+02 -.769E+00 0.142E+04   -.172E+01 -.544E-01 -.242E+01   0.970E-02 -.219E-02 0.176E-02
   0.990E+02 -.941E+02 0.169E+04   -.989E+02 0.954E+02 -.170E+04   -.466E+00 -.471E+00 0.255E+01   0.605E-03 -.850E-03 0.448E-02
   0.940E+02 -.135E+03 -.321E+03   -.942E+02 0.137E+03 0.324E+03   -.880E+00 0.502E-02 -.175E+01   -.800E-04 -.385E-02 -.168E-02
   0.312E+03 -.199E+03 0.790E+03   -.315E+03 0.201E+03 -.790E+03   0.152E+01 -.133E+01 0.139E+00   0.487E-02 -.790E-03 -.225E-02
   0.244E+03 0.733E+02 -.124E+04   -.246E+03 -.724E+02 0.125E+04   0.305E+00 -.468E+00 -.275E+01   -.805E-02 0.225E-02 -.382E-02
   -.270E+02 -.269E+03 0.615E+03   0.260E+02 0.271E+03 -.617E+03   0.180E+00 -.823E+00 0.940E+00   0.269E-02 0.244E-02 -.318E-02
   -.178E+03 0.581E+02 -.147E+04   0.179E+03 -.566E+02 0.147E+04   -.104E+01 -.128E+01 -.232E+01   0.314E-02 0.301E-02 -.149E-02
   0.415E+02 -.146E+03 -.624E+03   -.419E+02 0.148E+03 0.626E+03   -.604E-01 -.921E+00 -.113E+01   -.295E-02 -.308E-02 0.893E-02
   0.773E+02 -.713E+02 0.132E+04   -.786E+02 0.711E+02 -.133E+04   0.874E+00 0.901E+00 0.397E+01   -.405E-02 0.349E-02 -.199E-02
   0.158E+03 0.105E+03 0.108E+04   -.159E+03 -.107E+03 -.109E+04   0.216E+00 0.147E+01 0.530E+01   -.341E-02 0.235E-02 -.163E-02
   0.254E+03 0.907E+02 -.106E+04   -.255E+03 -.894E+02 0.106E+04   0.174E+00 -.666E+00 -.302E+01   -.546E-02 0.343E-02 0.502E-02
   0.165E+02 -.961E+02 0.440E+03   -.185E+02 0.983E+02 -.443E+03   0.163E+01 -.130E+01 0.172E+01   0.111E-02 -.216E-02 -.569E-02
   -.632E+01 -.252E+03 -.151E+04   0.527E+01 0.255E+03 0.152E+04   0.688E+00 -.155E+01 -.128E+01   0.127E-02 -.239E-02 0.136E-02
   0.769E+01 0.374E+03 0.896E+03   -.786E+01 -.377E+03 -.898E+03   -.591E+00 0.149E+01 0.238E+01   0.723E-02 0.710E-02 -.515E-02
   0.224E+03 -.595E+02 -.124E+04   -.225E+03 0.586E+02 0.125E+04   -.896E-01 0.393E+00 -.294E+01   -.112E-02 0.351E-02 -.328E-03
   0.972E+02 0.897E+02 0.169E+04   -.970E+02 -.910E+02 -.170E+04   -.435E+00 0.448E+00 0.252E+01   -.170E-02 0.156E-02 0.274E-02
   0.941E+02 0.133E+03 -.322E+03   -.944E+02 -.135E+03 0.325E+03   -.816E+00 -.834E-01 -.169E+01   0.242E-03 0.509E-02 -.654E-03
   0.390E+02 0.143E+03 -.634E+03   -.394E+02 -.144E+03 0.636E+03   0.104E+00 0.857E+00 -.118E+01   0.453E-03 0.226E-02 0.671E-02
   0.823E+02 0.707E+02 0.132E+04   -.838E+02 -.704E+02 -.133E+04   0.103E+01 -.899E+00 0.397E+01   -.286E-02 -.644E-02 0.383E-03
   -.257E+03 0.170E+03 0.533E+03   0.258E+03 -.173E+03 -.534E+03   -.174E+01 0.144E+01 0.323E+00   -.362E-02 -.297E-02 -.681E-02
   -.174E+03 -.479E+02 -.142E+04   0.175E+03 0.468E+02 0.143E+04   -.100E+01 0.839E+00 -.201E+01   -.113E-02 0.452E-02 0.120E-02
   0.413E+02 0.101E+03 0.453E+03   -.435E+02 -.103E+03 -.455E+03   0.179E+01 0.152E+01 0.169E+01   -.157E-02 -.368E-02 -.346E-03
   -.651E+01 0.252E+03 -.151E+04   0.553E+01 -.255E+03 0.152E+04   0.662E+00 0.151E+01 -.123E+01   -.137E-02 -.451E-02 0.105E-02
   0.167E+03 -.768E+02 0.108E+04   -.168E+03 0.782E+02 -.108E+04   0.430E+00 -.134E+01 0.494E+01   0.629E-02 0.773E-03 -.382E-03
   0.266E+03 -.855E+02 -.103E+04   -.267E+03 0.840E+02 0.104E+04   0.467E+00 0.914E+00 -.307E+01   0.543E-02 -.402E-02 0.215E-02
 -----------------------------------------------------------------------------------------------
   -.109E+01 -.287E+01 -.396E+02   0.455E-12 -.256E-12 -.455E-12   0.125E+01 0.292E+01 0.397E+02   0.460E-02 -.387E-01 -.676E-01
 
 
 POSITION                                       TOTAL-FORCE (eV/Angst)
 -----------------------------------------------------------------------------------
     13.17084      1.39171      1.94975         0.345889      0.004900      1.004629
     13.54678      1.39159      4.69184        -1.932632      0.008160      0.542640
      3.62638      5.94440      1.54977         1.043697      0.476775     -0.373559
      5.02033      6.18092      3.49202        -0.134692     -0.237425     -0.199982
      6.54474      1.19135      2.03304         0.836035      0.278352     -0.401349
      7.93172      1.39171      4.00611        -0.599778     -0.063397      0.165607
     16.08224      6.18092      2.46384        -0.396169     -0.013531      1.636526
     16.10290      6.18122      4.94743         0.065434      0.007107      1.132416
      2.10894      1.39171      2.97793        -1.198531      0.040674      0.798784
      9.62591      6.18723      2.59579         0.395626      0.049304     -0.622237
     10.84312      6.18092      4.52020        -0.636823      0.014579     -0.821608
     15.37189      0.05635      1.88400         0.916471      0.741209     -0.148858
     15.89151      0.08919      4.35214         0.800657     -1.252320      0.322455
      6.04944      6.17144      0.93739        -0.454680     -0.040958     -1.624678
      7.17375      4.91558      3.08454         0.479282      0.189404     -1.345336
      7.95867      4.35343      5.27315        -0.228774      0.760374      0.980002
      9.02463      1.47914      1.63761        -0.125529      0.098680     -1.901303
     10.08514      0.12638      3.59863         1.335967     -0.779545     -1.162673
      1.35096      4.91558      2.05636        -0.258929     -0.125920      0.596156
      2.06585      4.41739      4.28334        -0.411953      0.558820      1.108557
      4.26235      0.12638      2.57045         0.354843     -0.890914      0.613952
      4.98385      9.32218      4.96919        -0.033110      0.356909      0.758048
     13.08507      4.14951      1.90872        -1.009776      0.830712      0.295710
     12.99653      4.91558      4.11272         0.401537     -0.248151     -1.445926
     15.36965      2.72726      1.88366         1.021185     -0.764294     -0.146913
     15.89225      2.69506      4.35146         0.800314      1.229602      0.280882
      7.00090      8.47115      0.96315         0.253825      0.162604     -0.732309
      7.17375      7.44626      3.08454         0.706029     -0.434412      0.119070
      7.85702      7.87961      5.41103        -0.068307     -0.528627      0.687940
     10.08514      2.65705      3.59863         1.057206      0.834040     -1.076022
      1.35096      7.44626      2.05636         0.138641      0.189802      0.951351
      2.04135      7.89823      4.34086        -0.282250     -0.577953      0.979112
      4.26235      2.65705      2.57045         0.861785      0.628659      0.598851
      5.01159      3.07769      4.93466        -0.025749     -0.357813      0.673735
     13.10718      8.20339      1.90464        -1.032899     -0.837767      0.288424
     12.99653      7.44626      4.11272         0.350957      0.272795     -1.482066
     15.27074      1.39258      5.80307         0.587490      0.027591      4.532063
     16.74052      1.39171      2.94940         2.054429      0.033782     -1.622085
      8.00634      6.18092      1.40713         1.183014      0.422504     -2.639751
      8.59001      6.18092      4.49167         1.543209     -0.068633      1.199871
     11.02227      1.39798      2.08444         0.523932     -0.097644     -1.681302
     11.44624      1.38059      4.65115         0.675879      0.006249      2.229810
      1.89649      6.18364      0.51738         0.060845      0.068443     -3.746387
      2.76722      6.18092      3.46349         1.166494      0.041785      1.760135
      4.78300      1.39025      1.01696         0.335775      0.167940     -4.081252
      5.67861      1.39171      3.97758         1.656864     -0.046265      1.096031
     13.82913      6.18092      2.43531         0.649384     -0.065992     -1.512219
     14.12420      6.18076      5.32464         1.090359      0.016152      2.724835
     13.78126      2.81421      0.56856        -0.297679      0.817016     -3.955478
     13.99844      3.00295      3.46826        -1.122917      1.613590      0.810036
      5.26426      7.79215      1.92599        -1.681397      1.041979     -0.525221
      5.92301      7.54068      4.85494        -1.156283      0.466956      1.857374
      8.07963      3.01617      2.64218        -0.729252      0.906627     -1.253022
      8.98468      2.64699      5.35656         0.125342      0.154407      2.784988
      0.02514      7.79215      3.98236        -0.458605      0.668782      1.001774
     16.33213      7.87173      1.27971        -0.447525      0.671847     -2.853839
      2.36532      3.12063      1.81368        -0.747555     -0.330511     -2.842964
      3.07977      2.68328      4.40764        -0.967329      0.690354      2.160552
     11.08705      7.79215      2.95417        -0.318168      0.890182     -1.021675
     11.68979      7.63177      5.65411        -0.356855      1.643195      3.541422
      5.26426      4.56969      1.92599        -0.754780     -1.650075     -0.187834
      5.99576      4.83489      4.86126        -1.344746     -0.455373      2.126478
     13.78492      9.55086      0.56703        -0.314674     -0.825764     -3.968226
     13.99844      9.35889      3.46826        -1.145370     -1.600360      0.809067
      0.02514      4.56969      3.98236        -0.311280     -0.613743      1.093586
     16.32797      4.49055      1.27869        -0.440175     -0.617669     -2.842736
      8.17565      9.35889      2.44008        -0.237019     -1.196439     -0.394195
      8.89697      0.00230      5.28507        -0.057035     -0.287849      2.690835
     11.08705      4.56969      2.95417        -0.416058     -0.856893     -1.005053
     11.68800      4.72799      5.65338        -0.330694     -1.678460      3.565172
      2.34815      9.25843      1.80606        -0.592503      0.092286     -2.933918
      3.05402      0.06106      4.39037        -0.759919     -0.630431      2.033099
 -----------------------------------------------------------------------------------
    total drift:                                0.163527      0.011308     -0.008650


--------------------------------------------------------------------------------------------------------



  FREE ENERGIE OF THE ION-ELECTRON SYSTEM (eV)
  ---------------------------------------------------
  free  energy   TOTEN  =      -342.08485025 eV

  energy  without entropy=     -341.02914634  energy(sigma->0) =     -341.55699830
 


--------------------------------------------------------------------------------------------------------


    POTLOK:  cpu time    0.3348: real time    0.3348


--------------------------------------------------------------------------------------------------------


     LOOP+:  cpu time  380.6432: real time  380.8227
    4ORBIT:  cpu time    0.0000: real time    0.0000

 total amount of memory used by VASP MPI-rank0    77168. kBytes
=======================================================================

   base      :      30000. kBytes
   nonlr-proj:       2059. kBytes
   fftplans  :       9935. kBytes
   grid      :      16773. kBytes
   one-center:         93. kBytes
   wavefun   :      18308. kBytes
 
  
  
 General timing and accounting informations for this job:
 ========================================================
  
                  Total CPU time used (sec):      384.032
                            User time (sec):      383.554
                          System time (sec):        0.478
                         Elapsed time (sec):      384.449
  
                   Maximum memory used (kb):      212048.
                   Average memory used (kb):           0.
  
                          Minor page faults:       136238
                          Major page faults:            0
                 Voluntary context switches:          225
