 vasp.6.1.0 28Jan20 (build Mar 31 2020 17:42:31) gamma-only                     
  
 executed on             LinuxIFC date 2020.04.12  19:46:26
 running on   48 total cores
 distrk:  each k-point on   48 cores,    1 groups
 distr:  one band on NCORE=   6 cores,    8 groups


--------------------------------------------------------------------------------------------------------


 INCAR:
 POTCAR:    PAW_PBE Ni_pv 06Sep2000               
 POTCAR:    PAW_PBE S 06Sep2000                   
 POTCAR:    PAW_PBE Ni_pv 06Sep2000               
   VRHFIN =Ni:                                                                                      
   LEXCH  = PE                                                                                      
   EATOM  =  3501.1230 eV,  257.3253 Ry                                                             
                                                                                                    
   TITEL  = PAW_PBE Ni_pv 06Sep2000                                                                 
   LULTRA =        F    use ultrasoft PP ?                                                          
   IUNSCR =        1    unscreen: 0-lin 1-nonlin 2-no                                               
   RPACOR =    1.500    partial core radius                                                         
   POMASS =   58.690; ZVAL   =   16.000    mass and valenz                                          
   RCORE  =    2.000    outmost cutoff radius                                                       
   RWIGS  =    2.000; RWIGS  =    1.058    wigner-seitz radius (au A)                               
   ENMAX  =  367.986; ENMIN  =  275.989 eV                                                          
   RCLOC  =    1.301    cutoff for local pot                                                        
   LCOR   =        T    correct aug charges                                                         
   LPAW   =        T    paw PP                                                                      
   EAUG   =  703.443                                                                                
   DEXC   =    0.000                                                                                
   RMAX   =    2.041    core radius for proj-oper                                                   
   RAUG   =    1.300    factor for augmentation sphere                                              
   RDEP   =    2.103    radius for radial grids                                                     
   RDEPT  =    1.618    core radius for aug-charge                                                  
                                                                                                    
   Atomic configuration                                                                             
    8 entries                                                                                       
     n  l   j            E        occ.                                                              
     1  0  0.50     -8206.4253   2.0000                                                             
     2  0  0.50      -976.1748   2.0000                                                             
     2  1  1.50      -839.0571   6.0000                                                             
     3  0  0.50      -105.9991   2.0000                                                             
     3  1  1.50       -66.4603   6.0000                                                             
     3  2  2.50        -4.6458   9.0000                                                             
     4  0  0.50        -4.4926   1.0000                                                             
     4  3  2.50        -1.3606   0.0000                                                             
   Description                                                                                      
     l       E           TYP  RCUT    TYP  RCUT                                                     
     1    -66.4602962     23  1.700                                                                 
     1     -1.3605826     23  1.700                                                                 
     2     -4.6457867     23  2.000                                                                 
     2     -6.0063693     23  2.000                                                                 
     0     -4.4925576     23  1.900                                                                 
     0     16.3626226     23  1.900                                                                 
  local pseudopotential read in
  partial core-charges read in
  partial kinetic energy density read in
  atomic valenz-charges read in
  non local Contribution for L=           1  read in
    real space projection operators read in
  non local Contribution for L=           1  read in
    real space projection operators read in
  non local Contribution for L=           2  read in
    real space projection operators read in
  non local Contribution for L=           2  read in
    real space projection operators read in
  non local Contribution for L=           0  read in
    real space projection operators read in
  non local Contribution for L=           0  read in
    real space projection operators read in
    PAW grid and wavefunctions read in
 
   number of l-projection  operators is LMAX  =           6
   number of lm-projection operators is LMMAX =          18
 
 POTCAR:    PAW_PBE S 06Sep2000                   
   VRHFIN =S : s2p4                                                                                 
   LEXCH  = PE                                                                                      
   EATOM  =   276.8230 eV,   20.3459 Ry                                                             
                                                                                                    
   TITEL  = PAW_PBE S 06Sep2000                                                                     
   LULTRA =        F    use ultrasoft PP ?                                                          
   IUNSCR =        1    unscreen: 0-lin 1-nonlin 2-no                                               
   RPACOR =    1.500    partial core radius                                                         
   POMASS =   32.066; ZVAL   =    6.000    mass and valenz                                          
   RCORE  =    1.900    outmost cutoff radius                                                       
   RWIGS  =    2.200; RWIGS  =    1.164    wigner-seitz radius (au A)                               
   ENMAX  =  258.689; ENMIN  =  194.016 eV                                                          
   ICORE  =        2    local potential                                                             
   LCOR   =        T    correct aug charges                                                         
   LPAW   =        T    paw PP                                                                      
   EAUG   =  335.092                                                                                
   DEXC   =    0.000                                                                                
   RMAX   =    1.942    core radius for proj-oper                                                   
   RAUG   =    1.300    factor for augmentation sphere                                              
   RDEP   =    1.954    radius for radial grids                                                     
   RDEPT  =    1.744    core radius for aug-charge                                                  
                                                                                                    
   Atomic configuration                                                                             
    6 entries                                                                                       
     n  l   j            E        occ.                                                              
     1  0  0.50     -2405.8406   2.0000                                                             
     2  0  0.50      -211.7007   2.0000                                                             
     2  1  1.50      -156.4958   6.0000                                                             
     3  0  0.50       -17.2562   2.0000                                                             
     3  1  0.50        -7.0085   4.0000                                                             
     3  2  1.50        -6.8029   0.0000                                                             
   Description                                                                                      
     l       E           TYP  RCUT    TYP  RCUT                                                     
     0    -17.2561641     23  1.900                                                                 
     0    -15.8743224     23  1.900                                                                 
     1     -7.0085400     23  1.900                                                                 
     1     -2.7779785     23  1.900                                                                 
     2     -6.8029130     23  1.900                                                                 
  local pseudopotential read in
  partial core-charges read in
  partial kinetic energy density read in
  atomic valenz-charges read in
  non local Contribution for L=           0  read in
    real space projection operators read in
  non local Contribution for L=           0  read in
    real space projection operators read in
  non local Contribution for L=           1  read in
    real space projection operators read in
  non local Contribution for L=           1  read in
    real space projection operators read in
    PAW grid and wavefunctions read in
 
   number of l-projection  operators is LMAX  =           4
   number of lm-projection operators is LMMAX =           8
 
 Optimization of the real space projectors (new method)

 maximal supplied QI-value         = 18.90
 optimisation between [QCUT,QGAM] = [ 10.77, 21.73] = [ 32.49,132.25] Ry 
 Optimized for a Real-space Cutoff    1.38 Angstroem

   l    n(q)    QCUT    max X(q) W(low)/X(q) W(high)/X(q)  e(spline) 
   1      8    10.771     2.836    0.40E-04    0.29E-04    0.12E-06
   1      8    10.771     4.023    0.10E-03    0.48E-04    0.29E-06
   2      8    10.771    73.368    0.42E-03    0.97E-04    0.44E-06
   2      8    10.771    69.010    0.42E-03    0.99E-04    0.45E-06
   0      9    10.771    54.797    0.10E-03    0.56E-04    0.74E-07
   0      9    10.771    24.266    0.89E-04    0.49E-04    0.67E-07
 Optimization of the real space projectors (new method)

 maximal supplied QI-value         = 19.84
 optimisation between [QCUT,QGAM] = [ 10.71, 21.63] = [ 32.15,130.99] Ry 
 Optimized for a Real-space Cutoff    1.19 Angstroem

   l    n(q)    QCUT    max X(q) W(low)/X(q) W(high)/X(q)  e(spline) 
   0      8    10.715   187.594    0.41E-03    0.53E-04    0.66E-07
   0      8    10.715   164.243    0.41E-03    0.53E-04    0.65E-07
   1      7    10.715    67.533    0.19E-03    0.59E-03    0.68E-07
   1      7    10.715    50.729    0.19E-03    0.58E-03    0.67E-07
  PAW_PBE Ni_pv 06Sep2000               :
 energy of atom  1       EATOM=-3501.1230
 kinetic energy error for atom=    0.0925 (will be added to EATOM!!)
  PAW_PBE S 06Sep2000                   :
 energy of atom  2       EATOM= -276.8230
 kinetic energy error for atom=    0.0033 (will be added to EATOM!!)
 
 
 POSCAR: Structure 18 made from -211-9.xsd file
  positions in direct lattice
  No initial velocities read in
 exchange correlation table for  LEXCH =        8
   RHO(1)=    0.500       N(1)  =     2000
   RHO(2)=  100.500       N(2)  =     4000
 


--------------------------------------------------------------------------------------------------------


 ion  position               nearest neighbor table
   1  0.247  0.945  0.000-  41 2.25  49 2.36  61 2.36
   2  0.397  0.795  0.127-  42 2.25  49 2.26  61 2.26  50 2.36  62 2.36  14 2.53  26 2.53
   3  0.547  0.645  0.254-  43 2.25  62 2.26  50 2.26  63 2.36  51 2.36  27 2.53  15 2.53
   4  0.698  0.494  0.381-  44 2.25  51 2.26  63 2.26  52 2.36  64 2.36  16 2.53  28 2.53
   5  0.848  0.344  0.508-  64 2.26  52 2.26  17 2.53  25 2.53
   6  0.114  0.412  0.169-  45 2.25  68 2.26  53 2.26  65 2.36  54 2.36  29 2.53  18 2.53
   7  0.264  0.261  0.296-  46 2.25  65 2.26  54 2.26  55 2.36  66 2.36  19 2.53  30 2.53
   8  0.414  0.111  0.423-  47 2.25  55 2.26  66 2.26  56 2.36  67 2.36  31 2.53  20 2.53
   9  0.964  0.562  0.042-  48 2.25  53 2.36  68 2.36  22 2.53
  10  0.131  0.728  0.465-  37 2.25  72 2.26  58 2.26  59 2.36  35 2.53
  11  0.680  0.178  0.085-  38 2.25  69 2.26  70 2.36  60 2.36  36 2.53
  12  0.831  0.028  0.212-  39 2.25  60 2.26  70 2.26  57 2.36  71 2.36  23 2.53  33 2.53
  13  0.981  0.878  0.338-  40 2.25  57 2.26  71 2.26  58 2.36  72 2.36  34 2.53  24 2.53
  14  0.357  0.570  0.093-  53 2.25  61 2.26  62 2.36  38 2.36   2 2.53  26 2.53
  15  0.508  0.420  0.220-  54 2.25  62 2.26  38 2.26  39 2.36  63 2.36  27 2.53   3 2.53
  16  0.658  0.270  0.347-  55 2.25  63 2.26  39 2.26  64 2.36  40 2.36   4 2.53  28 2.53
  17  0.808  0.120  0.474-  56 2.25  40 2.26  64 2.26  37 2.36   5 2.53  25 2.53
  18  0.074  0.187  0.136-  60 2.25  68 2.26  41 2.26  42 2.36  65 2.36   6 2.53  29 2.53
  19  0.224  0.037  0.263-  57 2.25  42 2.26  65 2.26  66 2.36  43 2.36   7 2.53  30 2.53
  20  0.375  0.886  0.390-  58 2.25  66 2.26  43 2.26  44 2.36  67 2.36  31 2.53   8 2.53
  21  0.525  0.736  0.517-  59 2.25  67 2.26  44 2.26  32 2.53
  22  0.924  0.337  0.009-  41 2.36  68 2.36   9 2.53
  23  0.791  0.804  0.178-  50 2.25  70 2.26  48 2.26  71 2.36  45 2.36  12 2.53  33 2.53
  24  0.941  0.653  0.305-  51 2.25  71 2.26  45 2.26  46 2.36  72 2.36  34 2.53  13 2.53
  25  0.033  0.159  0.441-  66 2.25  40 2.26  52 2.26  37 2.36  17 2.53   5 2.53
  26  0.582  0.610  0.060-  49 2.26  50 2.36  38 2.36   2 2.53  14 2.53
  27  0.732  0.460  0.187-  68 2.25  50 2.26  38 2.26  51 2.36  39 2.36  15 2.53   3 2.53
  28  0.882  0.310  0.314-  65 2.25  39 2.26  51 2.26  40 2.36  52 2.36   4 2.53  16 2.53
  29  0.299  0.227  0.102-  69 2.25  53 2.26  41 2.26  54 2.36  42 2.36   6 2.53  18 2.53
  30  0.449  0.076  0.229-  70 2.25  42 2.26  54 2.26  55 2.36  43 2.36  19 2.53   7 2.53
  31  0.599  0.926  0.356-  71 2.25  55 2.26  43 2.26  56 2.36  44 2.36   8 2.53  20 2.53
  32  0.749  0.776  0.483-  72 2.25  56 2.26  44 2.26  21 2.53
  33  0.015  0.843  0.144-  61 2.25  48 2.26  60 2.26  45 2.36  57 2.36  23 2.53  12 2.53
  34  0.166  0.693  0.271-  62 2.25  57 2.26  45 2.26  46 2.36  58 2.36  13 2.53  24 2.53
  35  0.316  0.543  0.398-  63 2.25  58 2.26  46 2.26  47 2.36  59 2.36  10 2.53
  36  0.865  0.994  0.018-  60 2.36  48 2.36  11 2.53
  37  0.037  0.955  0.498-  10 2.25  17 2.36  25 2.36
  38  0.586  0.406  0.117-  11 2.25  15 2.26  27 2.26  26 2.36  14 2.36
  39  0.736  0.256  0.244-  12 2.25  28 2.26  16 2.26  15 2.36  27 2.36
  40  0.886  0.105  0.371-  13 2.25  25 2.26  17 2.26  16 2.36  28 2.36
  41  0.152  0.173  0.033-   1 2.25  18 2.26  29 2.26  22 2.36
  42  0.303  0.023  0.160-   2 2.25  30 2.26  19 2.26  18 2.36  29 2.36
  43  0.453  0.872  0.286-   3 2.25  20 2.26  31 2.26  19 2.36  30 2.36
  44  0.603  0.722  0.413-   4 2.25  21 2.26  32 2.26  31 2.36  20 2.36
  45  0.019  0.639  0.202-   6 2.25  24 2.26  34 2.26  23 2.36  33 2.36
  46  0.170  0.489  0.329-   7 2.25  35 2.26  34 2.36  24 2.36
  47  0.320  0.339  0.456-   8 2.25  35 2.36
  48  0.869  0.789  0.075-   9 2.25  33 2.26  23 2.26  36 2.36
  49  0.486  0.842  0.033-   2 2.26  26 2.26   1 2.36
  50  0.636  0.692  0.160-  23 2.25  27 2.26   3 2.26   2 2.36  26 2.36
  51  0.787  0.542  0.287-  24 2.25   4 2.26  28 2.26  27 2.36   3 2.36
  52  0.937  0.391  0.414-   5 2.26  25 2.26   4 2.36  28 2.36
  53  0.203  0.459  0.075-  14 2.25  29 2.26   6 2.26   9 2.36
  54  0.353  0.308  0.202-  15 2.25   7 2.26  30 2.26  29 2.36   6 2.36
  55  0.503  0.158  0.329-  16 2.25   8 2.26  31 2.26   7 2.36  30 2.36
  56  0.654  0.008  0.456-  17 2.25  32 2.26  31 2.36   8 2.36
  57  0.070  0.925  0.245-  19 2.25  34 2.26  13 2.26  12 2.36  33 2.36
  58  0.220  0.775  0.372-  20 2.25  10 2.26  35 2.26  34 2.36  13 2.36
  59  0.370  0.624  0.498-  21 2.25  35 2.36  10 2.36
  60  0.920  0.075  0.118-  18 2.25  12 2.26  33 2.26  36 2.36  11 2.36
  61  0.200  0.792  0.076-  33 2.25  14 2.26   2 2.26   1 2.36
  62  0.350  0.641  0.203-  34 2.25  15 2.26   3 2.26  14 2.36   2 2.36
  63  0.501  0.491  0.330-  35 2.25   4 2.26  16 2.26   3 2.36  15 2.36
  64  0.651  0.341  0.457-   5 2.26  17 2.26  16 2.36   4 2.36
  65  0.067  0.258  0.245-  28 2.25   7 2.26  19 2.26   6 2.36  18 2.36
  66  0.218  0.108  0.372-  25 2.25  20 2.26   8 2.26  19 2.36   7 2.36
  67  0.368  0.957  0.499-  21 2.26  20 2.36   8 2.36
  68  0.917  0.408  0.118-  27 2.25  18 2.26   6 2.26  22 2.36   9 2.36
  69  0.483  0.175  0.033-  29 2.25  11 2.26
  70  0.634  0.025  0.160-  30 2.25  12 2.26  23 2.26  11 2.36
  71  0.784  0.874  0.287-  31 2.25  24 2.26  13 2.26  23 2.36  12 2.36
  72  0.934  0.724  0.414-  32 2.25  10 2.26  13 2.36  24 2.36
 
  LATTYP: Found a base centered orthorhombic cell.
 ALAT       =    11.4527836704
 B/A-ratio  =     1.4485816945
 C/A-ratio  =     1.8059804630
  
  Lattice vectors:
  
 A1 = (   9.4251025535,   3.5732980427,   0.0000000000)
 A2 = (   0.0000000000, -10.0797329849,   0.0000000000)
 A3 = (   0.0000000000,   0.0000000000, -20.6835035552)


Analysis of symmetry for initial positions (statically):
=====================================================================
 Subroutine PRICEL returns:
 Original cell was already a primitive cell.
 

 Routine SETGRP: Setting up the symmetry group for a 
 base centered orthorhombic supercell.


 Subroutine GETGRP returns: Found  1 space group operations
 (whereof  1 operations were pure point group operations)
 out of a pool of  8 trial point group operations.


The static configuration has the point symmetry C_1 .


Analysis of symmetry for dynamics (positions and initial velocities):
=====================================================================
 Subroutine PRICEL returns:
 Original cell was already a primitive cell.
 

 Routine SETGRP: Setting up the symmetry group for a 
 base centered orthorhombic supercell.


 Subroutine GETGRP returns: Found  1 space group operations
 (whereof  1 operations were pure point group operations)
 out of a pool of  8 trial point group operations.


The dynamic configuration has the point symmetry C_1 .


 Subroutine INISYM returns: Found  1 space group operations
 (whereof  1 operations are pure point group operations),
 and found     1 'primitive' translations


----------------------------------------------------------------------------------------

                                     Primitive cell                                     

  volume of cell :    1964.9849

  direct lattice vectors                    reciprocal lattice vectors
     9.425102554  3.573298043  0.000000000     0.106099641  0.000000000  0.000000000
     0.000000000 10.079732985  0.000000000    -0.037612667  0.099208977  0.000000000
     0.000000000  0.000000000 20.683503555     0.000000000  0.000000000  0.048347708

  length of vectors
    10.079732985 10.079732985 20.683503555     0.106099641  0.106099641  0.048347708

  position of ions in fractional coordinates (direct lattice)
     0.246790380  0.945220301  0.000000000
     0.397058892  0.794951789  0.126937024
     0.547327404  0.644683277  0.253874049
     0.697595917  0.494414764  0.380811073
     0.847864429  0.344146252  0.507748097
     0.113815063  0.411528951  0.169249366
     0.264083575  0.261260439  0.296186390
     0.414352088  0.110991927  0.423123414
     0.963546550  0.561797464  0.042312341
     0.131108258  0.727569089  0.465435756
     0.680302721  0.178374626  0.084624683
     0.830571234  0.028106114  0.211561707
     0.980839746  0.877837602  0.338498732
     0.357357049  0.570447632  0.093399501
     0.507625562  0.420179119  0.220336525
     0.657894074  0.269910607  0.347273550
     0.808162587  0.119642094  0.474210574
     0.074113220  0.187024794  0.135711842
     0.224381733  0.036756282  0.262648867
     0.374650245  0.886487769  0.389585891
     0.524918757  0.736219257  0.516522915
     0.923844708  0.337293306  0.008774818
     0.790869391  0.803601957  0.178024184
     0.941137903  0.653333444  0.304961208
     0.032666744  0.159343937  0.440673050
     0.581861207  0.610149474  0.059861977
     0.732129719  0.459880962  0.186799002
     0.882398232  0.309612449  0.313736026
     0.298617378  0.226726637  0.102174319
     0.448885890  0.076458124  0.229111343
     0.599154402  0.926189612  0.356048368
     0.749422915  0.775921099  0.482985392
     0.015373548  0.843303799  0.144486660
     0.165642061  0.693035287  0.271423685
     0.315910573  0.542766774  0.398360709
     0.865105036  0.993572312  0.017549636
     0.036604831  0.955193850  0.498057640
     0.585799294  0.405999387  0.117246567
     0.736067806  0.255730875  0.244183592
     0.886336318  0.105462363  0.371120616
     0.152286952  0.172845062  0.032621884
     0.302555464  0.022576550  0.159558909
     0.452823977  0.872308037  0.286495933
     0.603092489  0.722039525  0.413432957
     0.019311635  0.639153712  0.201871250
     0.169580148  0.488885200  0.328808274
     0.319848660  0.338616688  0.455745299
     0.869043123  0.789422225  0.074934226
     0.486085617  0.842143064  0.033014966
     0.636354129  0.691874552  0.159951990
     0.786622642  0.541606039  0.286889015
     0.936891154  0.391337527  0.413826039
     0.202841788  0.458720227  0.075327307
     0.353110300  0.308451714  0.202264332
     0.503378812  0.158183202  0.329201356
     0.653647325  0.007914689  0.456138380
     0.069866471  0.925028877  0.244576673
     0.220134983  0.774760364  0.371513698
     0.370403496  0.624491852  0.498450722
     0.919597958  0.075297389  0.117639649
     0.200210452  0.791588228  0.075720389
     0.350478965  0.641319716  0.202657413
     0.500747477  0.491051204  0.329594438
     0.651015990  0.340782691  0.456531462
     0.067235136  0.257896879  0.244969755
     0.217503648  0.107628366  0.371906779
     0.367772160  0.957359854  0.498843804
     0.916966623  0.408165391  0.118032731
     0.483454282  0.175011066  0.033408048
     0.633722794  0.024742554  0.160345072
     0.783991306  0.874474041  0.287282096
     0.934259819  0.724205529  0.414219121

  ion indices of the primitive-cell ions
   primitive index   ion index
                 1           1
                 2           2
                 3           3
                 4           4
                 5           5
                 6           6
                 7           7
                 8           8
                 9           9
                10          10
                11          11
                12          12
                13          13
                14          14
                15          15
                16          16
                17          17
                18          18
                19          19
                20          20
                21          21
                22          22
                23          23
                24          24
                25          25
                26          26
                27          27
                28          28
                29          29
                30          30
                31          31
                32          32
                33          33
                34          34
                35          35
                36          36
                37          37
                38          38
                39          39
                40          40
                41          41
                42          42
                43          43
                44          44
                45          45
                46          46
                47          47
                48          48
                49          49
                50          50
                51          51
                52          52
                53          53
                54          54
                55          55
                56          56
                57          57
                58          58
                59          59
                60          60
                61          61
                62          62
                63          63
                64          64
                65          65
                66          66
                67          67
                68          68
                69          69
                70          70
                71          71
                72          72

----------------------------------------------------------------------------------------

 
 
 KPOINTS: gamma-point-only calculation. no periodi

Automatic generation of k-mesh.
Space group operators:
 irot       det(A)        alpha          n_x          n_y          n_z        tau_x        tau_y        tau_z
    1     1.000000     0.000000     1.000000     0.000000     0.000000     0.000000     0.000000     0.000000
 
 Subroutine IBZKPT returns following result:
 ===========================================
 
 Found      1 irreducible k-points:
 
 Following reciprocal coordinates:
            Coordinates               Weight
  0.000000  0.000000  0.000000      1.000000
 
 Following cartesian coordinates:
            Coordinates               Weight
  0.000000  0.000000  0.000000      1.000000
 


--------------------------------------------------------------------------------------------------------




 Dimension of arrays:
   k-points           NKPTS =      1   k-points in BZ     NKDIM =      1   number of bands    NBANDS=    480
   number of dos      NEDOS =    301   number of ions     NIONS =     72
   non local maximal  LDIM  =      6   non local SUM 2l+1 LMDIM =     18
   total plane-waves  NPLWV = 314928
   max r-space proj   IRMAX =   1817   max aug-charges    IRDMAX=   5248
   dimension x,y,z NGX =    54 NGY =   54 NGZ =  108
   dimension x,y,z NGXF=   108 NGYF=  108 NGZF=  216
   support grid    NGXF=   108 NGYF=  108 NGZF=  216
   ions per type =              36  36
   NGX,Y,Z   is equivalent  to a cutoff of   8.91,  8.91,  8.68 a.u.
   NGXF,Y,Z  is equivalent  to a cutoff of  17.81, 17.81, 17.36 a.u.

 SYSTEM =  "Millerite NiS"                         
 POSCAR =  Structure 18 made from -211-9.xsd file  

 Startparameter for this run:
   NWRITE =      2    write-flag & timer
   PREC   = normal    normal or accurate (medium, high low for compatibility)
   ISTART =      0    job   : 0-new  1-cont  2-samecut
   ICHARG =      2    charge: 1-file 2-atom 10-const
   ISPIN  =      1    spin polarized calculation?
   LNONCOLLINEAR =      F non collinear calculations
   LSORBIT =      F    spin-orbit coupling
   INIWAV =      1    electr: 0-lowe 1-rand  2-diag
   LASPH  =      F    aspherical Exc in radial PAW
   METAGGA=      F    non-selfconsistent MetaGGA calc.

 Electronic Relaxation 1
   ENCUT  =  450.0 eV  33.07 Ry    5.75 a.u.  17.43 17.43 35.78*2*pi/ulx,y,z
   ENINI  =  450.0     initial cutoff
   ENAUG  =  703.4 eV  augmentation charge cutoff
   NELM   =    100;   NELMIN=  2; NELMDL= -5     # of ELM steps 
   EDIFF  = 0.1E-03   stopping-criterion for ELM
   LREAL  =      T    real-space projection
   NLSPLINE    = F    spline interpolate recip. space projectors
   LCOMPAT=      F    compatible to vasp.4.4
   GGA_COMPAT  = T    GGA compatible to vasp.4.4-vasp.4.6
   LMAXPAW     = -100 max onsite density
   LMAXMIX     =    2 max onsite mixed and CHGCAR
   VOSKOWN=      0    Vosko Wilk Nusair interpolation
   ROPT   =   -0.00050  -0.00050
 Ionic relaxation
   EDIFFG = 0.1E-02   stopping-criterion for IOM
   NSW    =      0    number of steps for IOM
   NBLOCK =      1;   KBLOCK =      1    inner block; outer block 
   IBRION =     -1    ionic relax: 0-MD 1-quasi-New 2-CG
   NFREE  =      0    steps in history (QN), initial steepest desc. (CG)
   ISIF   =      2    stress and relaxation
   IWAVPR =     10    prediction:  0-non 1-charg 2-wave 3-comb
   ISYM   =      2    0-nonsym 1-usesym 2-fastsym
   LCORR  =      T    Harris-Foulkes like correction to forces

   POTIM  = 0.5000    time-step for ionic-motion
   TEIN   =    0.0    initial temperature
   TEBEG  =    0.0;   TEEND  =   0.0 temperature during run
   SMASS  =  -3.00    Nose mass-parameter (am)
   estimated Nose-frequenzy (Omega)   =  0.10E-29 period in steps = 0.13E+47 mass=  -0.232E-26a.u.
   SCALEE = 1.0000    scale energy and forces
   NPACO  =    256;   APACO  = 16.0  distance and # of slots for P.C.
   PSTRESS=    0.0 pullay stress

  Mass of Ions in am
   POMASS =  58.69 32.07
  Ionic Valenz
   ZVAL   =  16.00  6.00
  Atomic Wigner-Seitz radii
   RWIGS  =  -1.00 -1.00
  virtual crystal weights 
   VCA    =   1.00  1.00
   NELECT =     792.0000    total number of electrons
   NUPDOWN=      -1.0000    fix difference up-down

 DOS related values:
   EMIN   =  10.00;   EMAX   =-10.00  energy-range for DOS
   EFERMI =   0.00
   ISMEAR =     0;   SIGMA  =   0.20  broadening in eV -4-tet -1-fermi 0-gaus

 Electronic relaxation 2 (details)
   IALGO  =     38    algorithm
   LDIAG  =      T    sub-space diagonalisation (order eigenvalues)
   LSUBROT=      F    optimize rotation matrix (better conditioning)
   TURBO    =      0    0=normal 1=particle mesh
   IRESTART =      0    0=no restart 2=restart with 2 vectors
   NREBOOT  =      0    no. of reboots
   NMIN     =      0    reboot dimension
   EREF     =   0.00    reference energy to select bands
   IMIX   =      4    mixing-type and parameters
     AMIX     =   0.40;   BMIX     =  1.00
     AMIX_MAG =   1.60;   BMIX_MAG =  1.00
     AMIN     =   0.10
     WC   =   100.;   INIMIX=   1;  MIXPRE=   1;  MAXMIX= -45

 Intra band minimization:
   WEIMIN = 0.0000     energy-eigenvalue tresh-hold
   EBREAK =  0.52E-07  absolut break condition
   DEPER  =   0.30     relativ break condition  

   TIME   =   0.40     timestep for ELM

  volume/ion in A,a.u.               =      27.29       184.17
  Fermi-wavevector in a.u.,A,eV,Ry     =   1.209289  2.285225 19.896891  1.462380
  Thomas-Fermi vector in A             =   2.344871
 
 Write flags
   LWAVE        =      F    write WAVECAR
   LDOWNSAMPLE  =      F    k-point downsampling of WAVECAR
   LCHARG       =      F    write CHGCAR
   LVTOT        =      F    write LOCPOT, total local potential
   LVHAR        =      F    write LOCPOT, Hartree potential only
   LELF         =      F    write electronic localiz. function (ELF)
   LORBIT       =      0    0 simple, 1 ext, 2 COOP (PROOUT), +10 PAW based schemes


 Dipole corrections
   LMONO  =      F    monopole corrections only (constant potential shift)
   LDIPOL =      F    correct potential (dipole corrections)
   IDIPOL =      0    1-x, 2-y, 3-z, 4-all directions 
   EPSILON=  1.0000000 bulk dielectric constant

 Exchange correlation treatment:
   GGA     =    --    GGA type
   LEXCH   =     8    internal setting for exchange type
   VOSKOWN=      0    Vosko Wilk Nusair interpolation
   LHFCALC =     F    Hartree Fock is set to
   LHFONE  =     F    Hartree Fock one center treatment
   AEXX    =    0.0000 exact exchange contribution

 Linear response parameters
   LEPSILON=     F    determine dielectric tensor
   LRPA    =     F    only Hartree local field effects (RPA)
   LNABLA  =     F    use nabla operator in PAW spheres
   LVEL    =     F    velocity operator in full k-point grid
   LINTERFAST=   F  fast interpolation
   KINTER  =     0    interpolate to denser k-point grid
   CSHIFT  =0.1000    complex shift for real part using Kramers Kronig
   OMEGAMAX=  -1.0    maximum frequency
   DEG_THRESHOLD= 0.2000000E-02 threshold for treating states as degnerate
   RTIME   =   -0.100 relaxation time in fs
  (WPLASMAI=    0.000 imaginary part of plasma frequency in eV, 0.658/RTIME)
   DFIELD  = 0.0000000 0.0000000 0.0000000 field for delta impulse in time
 
 Orbital magnetization related:
   ORBITALMAG=     F  switch on orbital magnetization
   LCHIMAG   =     F  perturbation theory with respect to B field
   DQ        =  0.001000  dq finite difference perturbation B field
   LLRAUG    =     F  two centre corrections for induced B field



--------------------------------------------------------------------------------------------------------


 Static calculation
 charge density and potential will be updated during run
 non-spin polarized calculation
 Variant of blocked Davidson
 Davidson routine will perform the subspace rotation
 perform sub-space diagonalisation
    after iterative eigenvector-optimisation
 modified Broyden-mixing scheme, WC =      100.0
 initial mixing is a Kerker type mixing with AMIX =  0.4000 and BMIX =      1.0000
 Hartree-type preconditioning will be used
 using additional bands           84
 real space projection scheme for non local part
 use partial core corrections
 calculate Harris-corrections to forces 
   (improved forces if not selfconsistent)
 use gradient corrections 
 use of overlap-Matrix (Vanderbilt PP)
 Gauss-broadening in eV      SIGMA  =   0.20


--------------------------------------------------------------------------------------------------------


  energy-cutoff  :      450.00
  volume of cell :     1964.98
      direct lattice vectors                 reciprocal lattice vectors
     9.425102554  3.573298043  0.000000000     0.106099641  0.000000000  0.000000000
     0.000000000 10.079732985  0.000000000    -0.037612667  0.099208977  0.000000000
     0.000000000  0.000000000 20.683503555     0.000000000  0.000000000  0.048347708

  length of vectors
    10.079732985 10.079732985 20.683503555     0.106099641  0.106099641  0.048347708


 
 k-points in units of 2pi/SCALE and weight: gamma-point-only calculation. no periodi
   0.00000000  0.00000000  0.00000000       1.000
 
 k-points in reciprocal lattice and weights: gamma-point-only calculation. no periodi
   0.00000000  0.00000000  0.00000000       1.000
 
 position of ions in fractional coordinates (direct lattice) 
   0.24679038  0.94522030  0.00000000
   0.39705889  0.79495179  0.12693702
   0.54732740  0.64468328  0.25387405
   0.69759592  0.49441476  0.38081107
   0.84786443  0.34414625  0.50774810
   0.11381506  0.41152895  0.16924937
   0.26408358  0.26126044  0.29618639
   0.41435209  0.11099193  0.42312341
   0.96354655  0.56179746  0.04231234
   0.13110826  0.72756909  0.46543576
   0.68030272  0.17837463  0.08462468
   0.83057123  0.02810611  0.21156171
   0.98083975  0.87783760  0.33849873
   0.35735705  0.57044763  0.09339950
   0.50762556  0.42017912  0.22033653
   0.65789407  0.26991061  0.34727355
   0.80816259  0.11964209  0.47421057
   0.07411322  0.18702479  0.13571184
   0.22438173  0.03675628  0.26264887
   0.37465024  0.88648777  0.38958589
   0.52491876  0.73621926  0.51652292
   0.92384471  0.33729331  0.00877482
   0.79086939  0.80360196  0.17802418
   0.94113790  0.65333344  0.30496121
   0.03266674  0.15934394  0.44067305
   0.58186121  0.61014947  0.05986198
   0.73212972  0.45988096  0.18679900
   0.88239823  0.30961245  0.31373603
   0.29861738  0.22672664  0.10217432
   0.44888589  0.07645812  0.22911134
   0.59915440  0.92618961  0.35604837
   0.74942291  0.77592110  0.48298539
   0.01537355  0.84330380  0.14448666
   0.16564206  0.69303529  0.27142369
   0.31591057  0.54276677  0.39836071
   0.86510504  0.99357231  0.01754964
   0.03660483  0.95519385  0.49805764
   0.58579929  0.40599939  0.11724657
   0.73606781  0.25573087  0.24418359
   0.88633632  0.10546236  0.37112062
   0.15228695  0.17284506  0.03262188
   0.30255546  0.02257655  0.15955891
   0.45282398  0.87230804  0.28649593
   0.60309249  0.72203952  0.41343296
   0.01931164  0.63915371  0.20187125
   0.16958015  0.48888520  0.32880827
   0.31984866  0.33861669  0.45574530
   0.86904312  0.78942223  0.07493423
   0.48608562  0.84214306  0.03301497
   0.63635413  0.69187455  0.15995199
   0.78662264  0.54160604  0.28688901
   0.93689115  0.39133753  0.41382604
   0.20284179  0.45872023  0.07532731
   0.35311030  0.30845171  0.20226433
   0.50337881  0.15818320  0.32920136
   0.65364733  0.00791469  0.45613838
   0.06986647  0.92502888  0.24457667
   0.22013498  0.77476036  0.37151370
   0.37040350  0.62449185  0.49845072
   0.91959796  0.07529739  0.11763965
   0.20021045  0.79158823  0.07572039
   0.35047897  0.64131972  0.20265741
   0.50074748  0.49105120  0.32959444
   0.65101599  0.34078269  0.45653146
   0.06723514  0.25789688  0.24496975
   0.21750365  0.10762837  0.37190678
   0.36777216  0.95735985  0.49884380
   0.91696662  0.40816539  0.11803273
   0.48345428  0.17501107  0.03340805
   0.63372279  0.02474255  0.16034507
   0.78399131  0.87447404  0.28728210
   0.93425982  0.72420553  0.41421912
 
 position of ions in cartesian coordinates  (Angst):
   2.32602464 10.40942383  0.00000000
   3.74232078  9.43171153  2.62550239
   5.15861691  8.45399923  5.25100480
   6.57491306  7.47628693  7.87650718
   7.99120919  6.49857463 10.50200957
   1.07271864  4.55479708  3.50066986
   2.48901478  3.57708479  6.12617225
   3.90531092  2.59937249  8.75167464
   9.08152505  9.10580743  0.87516746
   1.23570878  7.80219103  9.62684211
   6.41192291  4.22889298  1.75033493
   7.82821906  3.25118069  4.37583732
   9.24451519 12.35320138  7.00133973
   3.36812684  7.02690306  1.93182891
   4.78442298  6.04919075  4.55733130
   6.20071912  5.07147846  7.18283371
   7.61701526  4.09376615  9.80833609
   0.69852470  2.14998861  2.80699637
   2.11482084  1.17227632  5.43249877
   3.53111698 10.27429699  8.05800116
   4.94741312  9.29658470 10.68350355
   8.70733112  6.70099895  0.18149398
   7.45402512 10.92610520  3.68216384
   8.87032125  9.94839289  6.30766623
   0.30788741  1.72287235  9.11466260
   5.48410155  8.22930729  1.23815541
   6.90039768  7.25159499  3.86365782
   8.31669383  6.27388269  6.48916021
   2.81449941  3.35239285  2.11332289
   4.23079555  2.37468055  4.73882528
   5.64709168 11.47670123  7.36432769
   7.06338783 10.49898893  9.98983007
   0.14489727  8.55521139  2.98849035
   1.56119341  7.57749909  5.61399275
   2.97748955  6.59978679  8.23949514
   8.15370368 13.10622174  0.36298796
   0.34500429  9.75889893 10.30157697
   5.52121842  6.18560088  2.42506979
   6.93751456  5.20788859  5.05057219
   8.35381069  4.23017629  7.67607458
   1.43532014  2.28639874  0.67473485
   2.85161628  1.30868644  3.30023726
   4.26791242 10.41070712  5.92573965
   5.68420856  9.43299483  8.55124204
   0.18201414  6.51150498  4.17540472
   1.59831029  5.53379269  6.80090710
   3.01460642  4.55608039  9.42640951
   8.19082056 11.06251533  1.54990233
   4.58140679 10.22550600  0.68286517
   5.99770293  9.24779371  3.30836755
   7.41399907  8.27008140  5.93386996
   8.83029521  7.29236911  8.55937235
   1.91180465  5.34859157  1.55803262
   3.32810079  4.37087926  4.18353503
   4.74439693  3.39316696  6.80903742
   6.16069307  2.41545466  9.43453980
   0.65849865  9.57369781  5.05870249
   2.07479479  8.59598550  7.68420489
   3.49109094  7.61827321 10.30970728
   8.66730506  4.04497516  2.43320010
   1.88700404  8.69440959  1.56616294
   3.30330019  7.71669729  4.19166532
   4.71959632  6.73898500  6.81716773
   6.13589247  5.76127269  9.44267012
   0.63369805  2.83978286  5.06683280
   2.04999419  1.86207055  7.69233519
   3.46629032 10.96409124 10.31783759
   8.64250446  7.39079319  2.44133041
   4.55660619  3.49159105  0.69099548
   5.97290232  2.51387876  3.31649787
   7.38919846 11.61589943  5.94200025
   8.80549461 10.63818714  8.56750266
 


--------------------------------------------------------------------------------------------------------


 use parallel FFT for orbitals z direction half grid
 k-point   1 :   0.0000 0.0000 0.0000  plane waves:   21301

 maximum and minimum number of plane-waves per node :      3554     3548

 maximum number of plane-waves:     21301
 maximum index in each direction: 
   IXMAX=   17   IYMAX=   17   IZMAX=   35
   IXMIN=  -17   IYMIN=  -17   IZMIN=    0


 real space projection operators:
  total allocation   :      11163.14 KBytes
  max/ min on nodes  :       1864.05       1856.34


 parallel 3D FFT for wavefunctions:
    minimum data exchange during FFTs selected (reduces bandwidth)
 parallel 3D FFT for charge:
    minimum data exchange during FFTs selected (reduces bandwidth)


 total amount of memory used by VASP MPI-rank0    45295. kBytes
=======================================================================

   base      :      30000. kBytes
   nonlr-proj:       2281. kBytes
   fftplans  :       3383. kBytes
   grid      :       6052. kBytes
   one-center:         93. kBytes
   wavefun   :       3486. kBytes
 
     INWAV:  cpu time    0.0000: real time    0.0000
 Broyden mixing: mesh for mixing (old mesh)
   NGX = 35   NGY = 35   NGZ = 71
  (NGX  =108   NGY  =108   NGZ  =216)
  gives a total of  86975 points

 initial charge density was supplied:
 charge density of overlapping atoms calculated
 number of electron     792.0000000 magnetization 
 keeping initial charge density in first step


--------------------------------------------------------------------------------------------------------


 Maximum index for non-local projection operator          301
 Maximum index for augmentation-charges          468 (set IRDMAX)


--------------------------------------------------------------------------------------------------------


 First call to EWALD:  gamma=   0.142
 Maximum number of real-space cells 3x 3x 2
 Maximum number of reciprocal cells 2x 2x 4

    FEWALD:  cpu time    0.0031: real time    0.0031


--------------------------------------- Iteration      1(   1)  ---------------------------------------


    POTLOK:  cpu time    0.0536: real time    0.0559
    SETDIJ:  cpu time    0.0055: real time    0.0087
     EDDAV:  cpu time    2.0094: real time    2.0158
       DOS:  cpu time    0.0014: real time    0.0014
    --------------------------------------------
      LOOP:  cpu time    2.0699: real time    2.0819

 eigenvalue-minimisations  :  1168
 total energy-change (2. order) : 0.9693668E+04  (-0.5081242E+05)
 number of electron     792.0000000 magnetization 
 augmentation part      792.0000000 magnetization 

 Free energy of the ion-electron system (eV)
  ---------------------------------------------------
  alpha Z        PSCENC =      1893.09323658
  Ewald energy   TEWEN  =    160601.66674399
  -Hartree energ DENC   =   -283194.48786989
  -exchange      EXHF   =         0.00000000
  -V(xc)+E(xc)   XCENC  =      3650.39514800
  PAW double counting   =    112729.53333415  -117641.51188735
  entropy T*S    EENTRO =        -0.45649998
  eigenvalues    EBANDS =     -4347.16931709
  atomic energy  EATOM  =    136002.60505376
  Solvation  Ediel_sol  =         0.00000000
  ---------------------------------------------------
  free energy    TOTEN  =      9693.66794217 eV

  energy without entropy =     9694.12444215  energy(sigma->0) =     9693.89619216


--------------------------------------------------------------------------------------------------------




--------------------------------------- Iteration      1(   2)  ---------------------------------------


     EDDAV:  cpu time    1.8190: real time    1.8254
       DOS:  cpu time    0.0007: real time    0.0007
    --------------------------------------------
      LOOP:  cpu time    1.8197: real time    1.8261

 eigenvalue-minimisations  :  1016
 total energy-change (2. order) :-0.9097024E+04  (-0.8767979E+04)
 number of electron     792.0000000 magnetization 
 augmentation part      792.0000000 magnetization 

 Free energy of the ion-electron system (eV)
  ---------------------------------------------------
  alpha Z        PSCENC =      1893.09323658
  Ewald energy   TEWEN  =    160601.66674399
  -Hartree energ DENC   =   -283194.48786989
  -exchange      EXHF   =         0.00000000
  -V(xc)+E(xc)   XCENC  =      3650.39514800
  PAW double counting   =    112729.53333415  -117641.51188735
  entropy T*S    EENTRO =        -0.82090802
  eigenvalues    EBANDS =    -13443.82858382
  atomic energy  EATOM  =    136002.60505376
  Solvation  Ediel_sol  =         0.00000000
  ---------------------------------------------------
  free energy    TOTEN  =       596.64426740 eV

  energy without entropy =      597.46517542  energy(sigma->0) =      597.05472141


--------------------------------------------------------------------------------------------------------




--------------------------------------- Iteration      1(   3)  ---------------------------------------


     EDDAV:  cpu time    1.9147: real time    1.9216
       DOS:  cpu time    0.0007: real time    0.0007
    --------------------------------------------
      LOOP:  cpu time    1.9154: real time    1.9223

 eigenvalue-minimisations  :  1112
 total energy-change (2. order) :-0.9381410E+03  (-0.8842388E+03)
 number of electron     792.0000000 magnetization 
 augmentation part      792.0000000 magnetization 

 Free energy of the ion-electron system (eV)
  ---------------------------------------------------
  alpha Z        PSCENC =      1893.09323658
  Ewald energy   TEWEN  =    160601.66674399
  -Hartree energ DENC   =   -283194.48786989
  -exchange      EXHF   =         0.00000000
  -V(xc)+E(xc)   XCENC  =      3650.39514800
  PAW double counting   =    112729.53333415  -117641.51188735
  entropy T*S    EENTRO =        -1.20916915
  eigenvalues    EBANDS =    -14381.58134785
  atomic energy  EATOM  =    136002.60505376
  Solvation  Ediel_sol  =         0.00000000
  ---------------------------------------------------
  free energy    TOTEN  =      -341.49675776 eV

  energy without entropy =     -340.28758861  energy(sigma->0) =     -340.89217318


--------------------------------------------------------------------------------------------------------




--------------------------------------- Iteration      1(   4)  ---------------------------------------


     EDDAV:  cpu time    1.9797: real time    1.9874
       DOS:  cpu time    0.0009: real time    0.0009
    --------------------------------------------
      LOOP:  cpu time    1.9806: real time    1.9883

 eigenvalue-minimisations  :  1136
 total energy-change (2. order) :-0.6028537E+02  (-0.5952481E+02)
 number of electron     792.0000000 magnetization 
 augmentation part      792.0000000 magnetization 

 Free energy of the ion-electron system (eV)
  ---------------------------------------------------
  alpha Z        PSCENC =      1893.09323658
  Ewald energy   TEWEN  =    160601.66674399
  -Hartree energ DENC   =   -283194.48786989
  -exchange      EXHF   =         0.00000000
  -V(xc)+E(xc)   XCENC  =      3650.39514800
  PAW double counting   =    112729.53333415  -117641.51188735
  entropy T*S    EENTRO =        -1.27665622
  eigenvalues    EBANDS =    -14441.79922876
  atomic energy  EATOM  =    136002.60505376
  Solvation  Ediel_sol  =         0.00000000
  ---------------------------------------------------
  free energy    TOTEN  =      -401.78212573 eV

  energy without entropy =     -400.50546951  energy(sigma->0) =     -401.14379762


--------------------------------------------------------------------------------------------------------




--------------------------------------- Iteration      1(   5)  ---------------------------------------


     EDDAV:  cpu time    2.0697: real time    2.0765
       DOS:  cpu time    0.0008: real time    0.0008
    CHARGE:  cpu time    0.0396: real time    0.0399
    MIXING:  cpu time    0.0024: real time    0.0027
    --------------------------------------------
      LOOP:  cpu time    2.1125: real time    2.1199

 eigenvalue-minimisations  :  1232
 total energy-change (2. order) :-0.2174506E+01  (-0.2171005E+01)
 number of electron     792.0000150 magnetization 
 augmentation part      286.0930875 magnetization 

 Broyden mixing:
  rms(total) = 0.81963E+01    rms(broyden)= 0.81817E+01
  rms(prec ) = 0.86186E+01
  weight for this iteration     100.00

 Free energy of the ion-electron system (eV)
  ---------------------------------------------------
  alpha Z        PSCENC =      1893.09323658
  Ewald energy   TEWEN  =    160601.66674399
  -Hartree energ DENC   =   -283194.48786989
  -exchange      EXHF   =         0.00000000
  -V(xc)+E(xc)   XCENC  =      3650.39514800
  PAW double counting   =    112729.53333415  -117641.51188735
  entropy T*S    EENTRO =        -1.27813454
  eigenvalues    EBANDS =    -14443.97225685
  atomic energy  EATOM  =    136002.60505376
  Solvation  Ediel_sol  =         0.00000000
  ---------------------------------------------------
  free energy    TOTEN  =      -403.95663215 eV

  energy without entropy =     -402.67849760  energy(sigma->0) =     -403.31756487


--------------------------------------------------------------------------------------------------------




--------------------------------------- Iteration      1(   6)  ---------------------------------------


    POTLOK:  cpu time    0.0432: real time    0.0433
    SETDIJ:  cpu time    0.0046: real time    0.0063
     EDDAV:  cpu time    1.9613: real time    1.9661
       DOS:  cpu time    0.0007: real time    0.0007
    CHARGE:  cpu time    0.0411: real time    0.0412
    MIXING:  cpu time    0.0020: real time    0.0021
    --------------------------------------------
      LOOP:  cpu time    2.0528: real time    2.0597

 eigenvalue-minimisations  :  1152
 total energy-change (2. order) :-0.8751004E+02  (-0.9777762E+02)
 number of electron     792.0000174 magnetization 
 augmentation part      354.0338459 magnetization 

 Broyden mixing:
  rms(total) = 0.15837E+02    rms(broyden)= 0.15834E+02
  rms(prec ) = 0.16488E+02
  weight for this iteration     100.00

 eigenvalues of (default mixing * dielectric matrix)
  average eigenvalue GAMMA=   0.2265
  0.2265

 Free energy of the ion-electron system (eV)
  ---------------------------------------------------
  alpha Z        PSCENC =      1893.09323658
  Ewald energy   TEWEN  =    160601.66674399
  -Hartree energ DENC   =   -280458.68577690
  -exchange      EXHF   =         0.00000000
  -V(xc)+E(xc)   XCENC  =      3573.07403364
  PAW double counting   =    114404.65002528  -119075.26040714
  entropy T*S    EENTRO =        -0.93035251
  eigenvalues    EBANDS =    -17431.67923320
  atomic energy  EATOM  =    136002.60505376
  Solvation  Ediel_sol  =         0.00000000
  ---------------------------------------------------
  free energy    TOTEN  =      -491.46667650 eV

  energy without entropy =     -490.53632399  energy(sigma->0) =     -491.00150025


--------------------------------------------------------------------------------------------------------




--------------------------------------- Iteration      1(   7)  ---------------------------------------


    POTLOK:  cpu time    0.0423: real time    0.0424
    SETDIJ:  cpu time    0.0049: real time    0.0049
     EDDAV:  cpu time    1.9929: real time    2.0004
       DOS:  cpu time    0.0006: real time    0.0006
    CHARGE:  cpu time    0.0378: real time    0.0379
    MIXING:  cpu time    0.0020: real time    0.0020
    --------------------------------------------
      LOOP:  cpu time    2.0804: real time    2.0881

 eigenvalue-minimisations  :  1152
 total energy-change (2. order) : 0.1184253E+03  (-0.1735295E+02)
 number of electron     792.0000172 magnetization 
 augmentation part      332.2688271 magnetization 

 Broyden mixing:
  rms(total) = 0.63114E+01    rms(broyden)= 0.63101E+01
  rms(prec ) = 0.66532E+01
  weight for this iteration     100.00

 eigenvalues of (default mixing * dielectric matrix)
  average eigenvalue GAMMA=   0.5151
  0.5151  0.5151

 Free energy of the ion-electron system (eV)
  ---------------------------------------------------
  alpha Z        PSCENC =      1893.09323658
  Ewald energy   TEWEN  =    160601.66674399
  -Hartree energ DENC   =   -281706.55650355
  -exchange      EXHF   =         0.00000000
  -V(xc)+E(xc)   XCENC  =      3603.12166799
  PAW double counting   =    118546.12264135  -123364.60526952
  entropy T*S    EENTRO =        -0.88658362
  eigenvalues    EBANDS =    -15947.60238637
  atomic energy  EATOM  =    136002.60505376
  Solvation  Ediel_sol  =         0.00000000
  ---------------------------------------------------
  free energy    TOTEN  =      -373.04139939 eV

  energy without entropy =     -372.15481577  energy(sigma->0) =     -372.59810758


--------------------------------------------------------------------------------------------------------




--------------------------------------- Iteration      1(   8)  ---------------------------------------


    POTLOK:  cpu time    0.0435: real time    0.0458
    SETDIJ:  cpu time    0.0045: real time    0.0063
     EDDAV:  cpu time    2.2264: real time    2.2324
       DOS:  cpu time    0.0006: real time    0.0006
    CHARGE:  cpu time    0.0382: real time    0.0383
    MIXING:  cpu time    0.0018: real time    0.0018
    --------------------------------------------
      LOOP:  cpu time    2.3150: real time    2.3252

 eigenvalue-minimisations  :  1328
 total energy-change (2. order) :-0.9711996E+02  (-0.1513150E+02)
 number of electron     792.0000166 magnetization 
 augmentation part      303.3720637 magnetization 

 Broyden mixing:
  rms(total) = 0.16999E+02    rms(broyden)= 0.16996E+02
  rms(prec ) = 0.21502E+02
  weight for this iteration     100.00

 eigenvalues of (default mixing * dielectric matrix)
  average eigenvalue GAMMA=   0.4044
  0.6761  0.4543  0.0827

 Free energy of the ion-electron system (eV)
  ---------------------------------------------------
  alpha Z        PSCENC =      1893.09323658
  Ewald energy   TEWEN  =    160601.66674399
  -Hartree energ DENC   =   -282270.13513650
  -exchange      EXHF   =         0.00000000
  -V(xc)+E(xc)   XCENC  =      3624.16820027
  PAW double counting   =    123905.31220745  -128829.05060950
  entropy T*S    EENTRO =        -0.84161978
  eigenvalues    EBANDS =    -15396.97944006
  atomic energy  EATOM  =    136002.60505376
  Solvation  Ediel_sol  =         0.00000000
  ---------------------------------------------------
  free energy    TOTEN  =      -470.16136380 eV

  energy without entropy =     -469.31974401  energy(sigma->0) =     -469.74055390


--------------------------------------------------------------------------------------------------------




--------------------------------------- Iteration      1(   9)  ---------------------------------------


    POTLOK:  cpu time    0.0434: real time    0.0453
    SETDIJ:  cpu time    0.0067: real time    0.0067
     EDDAV:  cpu time    2.0265: real time    2.0312
       DOS:  cpu time    0.0006: real time    0.0006
    CHARGE:  cpu time    0.0382: real time    0.0383
    MIXING:  cpu time    0.0018: real time    0.0018
    --------------------------------------------
      LOOP:  cpu time    2.1170: real time    2.1238

 eigenvalue-minimisations  :  1192
 total energy-change (2. order) : 0.1007126E+03  (-0.1260977E+02)
 number of electron     792.0000166 magnetization 
 augmentation part      308.6268616 magnetization 

 Broyden mixing:
  rms(total) = 0.71029E+01    rms(broyden)= 0.70947E+01
  rms(prec ) = 0.79355E+01
  weight for this iteration     100.00

 eigenvalues of (default mixing * dielectric matrix)
  average eigenvalue GAMMA=   0.3896
  0.8739  0.3868  0.2243  0.0736

 Free energy of the ion-electron system (eV)
  ---------------------------------------------------
  alpha Z        PSCENC =      1893.09323658
  Ewald energy   TEWEN  =    160601.66674399
  -Hartree energ DENC   =   -282409.43130785
  -exchange      EXHF   =         0.00000000
  -V(xc)+E(xc)   XCENC  =      3624.51883608
  PAW double counting   =    125319.64069011  -130257.59643763
  entropy T*S    EENTRO =        -1.13166354
  eigenvalues    EBANDS =    -15142.81390528
  atomic energy  EATOM  =    136002.60505376
  Solvation  Ediel_sol  =         0.00000000
  ---------------------------------------------------
  free energy    TOTEN  =      -369.44875379 eV

  energy without entropy =     -368.31709024  energy(sigma->0) =     -368.88292201


--------------------------------------------------------------------------------------------------------




--------------------------------------- Iteration      1(  10)  ---------------------------------------


    POTLOK:  cpu time    0.0429: real time    0.0430
    SETDIJ:  cpu time    0.0049: real time    0.0049
     EDDAV:  cpu time    2.2360: real time    2.2416
       DOS:  cpu time    0.0006: real time    0.0006
    CHARGE:  cpu time    0.0383: real time    0.0384
    MIXING:  cpu time    0.0019: real time    0.0019
    --------------------------------------------
      LOOP:  cpu time    2.3246: real time    2.3304

 eigenvalue-minimisations  :  1352
 total energy-change (2. order) :-0.1096010E+01  (-0.6176529E+01)
 number of electron     792.0000149 magnetization 
 augmentation part      307.4993333 magnetization 

 Broyden mixing:
  rms(total) = 0.52794E+01    rms(broyden)= 0.52753E+01
  rms(prec ) = 0.58774E+01
  weight for this iteration     100.00

 eigenvalues of (default mixing * dielectric matrix)
  average eigenvalue GAMMA=   0.5279
  1.6346  0.4083  0.4083  0.0943  0.0943

 Free energy of the ion-electron system (eV)
  ---------------------------------------------------
  alpha Z        PSCENC =      1893.09323658
  Ewald energy   TEWEN  =    160601.66674399
  -Hartree energ DENC   =   -282448.80478393
  -exchange      EXHF   =         0.00000000
  -V(xc)+E(xc)   XCENC  =      3623.94413102
  PAW double counting   =    126584.86757536  -131533.99633825
  entropy T*S    EENTRO =        -1.30273966
  eigenvalues    EBANDS =    -15092.61764308
  atomic energy  EATOM  =    136002.60505376
  Solvation  Ediel_sol  =         0.00000000
  ---------------------------------------------------
  free energy    TOTEN  =      -370.54476422 eV

  energy without entropy =     -369.24202456  energy(sigma->0) =     -369.89339439


--------------------------------------------------------------------------------------------------------




--------------------------------------- Iteration      1(  11)  ---------------------------------------


    POTLOK:  cpu time    0.0430: real time    0.0431
    SETDIJ:  cpu time    0.0049: real time    0.0050
     EDDAV:  cpu time    2.1636: real time    2.1689
       DOS:  cpu time    0.0006: real time    0.0006
    CHARGE:  cpu time    0.0395: real time    0.0396
    MIXING:  cpu time    0.0019: real time    0.0019
    --------------------------------------------
      LOOP:  cpu time    2.2535: real time    2.2590

 eigenvalue-minimisations  :  1288
 total energy-change (2. order) :-0.2612796E+01  (-0.4584021E+01)
 number of electron     792.0000170 magnetization 
 augmentation part      309.7032456 magnetization 

 Broyden mixing:
  rms(total) = 0.52250E+01    rms(broyden)= 0.52226E+01
  rms(prec ) = 0.59753E+01
  weight for this iteration     100.00

 eigenvalues of (default mixing * dielectric matrix)
  average eigenvalue GAMMA=   0.5058
  1.8405  0.4123  0.4123  0.1451  0.1451  0.0791

 Free energy of the ion-electron system (eV)
  ---------------------------------------------------
  alpha Z        PSCENC =      1893.09323658
  Ewald energy   TEWEN  =    160601.66674399
  -Hartree energ DENC   =   -282440.93343915
  -exchange      EXHF   =         0.00000000
  -V(xc)+E(xc)   XCENC  =      3620.49556814
  PAW double counting   =    129965.26906559  -134937.54024099
  entropy T*S    EENTRO =        -1.19884541
  eigenvalues    EBANDS =    -15076.61470252
  atomic energy  EATOM  =    136002.60505376
  Solvation  Ediel_sol  =         0.00000000
  ---------------------------------------------------
  free energy    TOTEN  =      -373.15756001 eV

  energy without entropy =     -371.95871460  energy(sigma->0) =     -372.55813730


--------------------------------------------------------------------------------------------------------




--------------------------------------- Iteration      1(  12)  ---------------------------------------


    POTLOK:  cpu time    0.0428: real time    0.0429
    SETDIJ:  cpu time    0.0049: real time    0.0049
     EDDAV:  cpu time    2.0128: real time    2.0190
       DOS:  cpu time    0.0006: real time    0.0006
    CHARGE:  cpu time    0.0396: real time    0.0397
    MIXING:  cpu time    0.0024: real time    0.0024
    --------------------------------------------
      LOOP:  cpu time    2.1032: real time    2.1095

 eigenvalue-minimisations  :  1160
 total energy-change (2. order) : 0.9675744E+01  (-0.2765385E+01)
 number of electron     792.0000178 magnetization 
 augmentation part      311.6503904 magnetization 

 Broyden mixing:
  rms(total) = 0.42149E+01    rms(broyden)= 0.42119E+01
  rms(prec ) = 0.49857E+01
  weight for this iteration     100.00

 eigenvalues of (default mixing * dielectric matrix)
  average eigenvalue GAMMA=   0.4848
  1.9440  0.4086  0.4086  0.2230  0.2230  0.0829  0.1037

 Free energy of the ion-electron system (eV)
  ---------------------------------------------------
  alpha Z        PSCENC =      1893.09323658
  Ewald energy   TEWEN  =    160601.66674399
  -Hartree energ DENC   =   -282377.97640023
  -exchange      EXHF   =         0.00000000
  -V(xc)+E(xc)   XCENC  =      3620.11760090
  PAW double counting   =    130942.18453219  -135923.47517444
  entropy T*S    EENTRO =        -1.14128607
  eigenvalues    EBANDS =    -15120.55612311
  atomic energy  EATOM  =    136002.60505376
  Solvation  Ediel_sol  =         0.00000000
  ---------------------------------------------------
  free energy    TOTEN  =      -363.48181642 eV

  energy without entropy =     -362.34053034  energy(sigma->0) =     -362.91117338


--------------------------------------------------------------------------------------------------------




--------------------------------------- Iteration      1(  13)  ---------------------------------------


    POTLOK:  cpu time    0.0436: real time    0.0447
    SETDIJ:  cpu time    0.0051: real time    0.0076
     EDDAV:  cpu time    2.1954: real time    2.2024
       DOS:  cpu time    0.0007: real time    0.0007
    CHARGE:  cpu time    0.0396: real time    0.0397
    MIXING:  cpu time    0.0023: real time    0.0023
    --------------------------------------------
      LOOP:  cpu time    2.2866: real time    2.2974

 eigenvalue-minimisations  :  1296
 total energy-change (2. order) :-0.6349592E+01  (-0.2882712E+01)
 number of electron     792.0000125 magnetization 
 augmentation part      311.3200014 magnetization 

 Broyden mixing:
  rms(total) = 0.73388E+01    rms(broyden)= 0.73374E+01
  rms(prec ) = 0.84536E+01
  weight for this iteration     100.00

 eigenvalues of (default mixing * dielectric matrix)
  average eigenvalue GAMMA=   0.4828
  2.0403  0.4908  0.4512  0.4512  0.1568  0.0798  0.0961  0.0961

 Free energy of the ion-electron system (eV)
  ---------------------------------------------------
  alpha Z        PSCENC =      1893.09323658
  Ewald energy   TEWEN  =    160601.66674399
  -Hartree energ DENC   =   -282351.68563162
  -exchange      EXHF   =         0.00000000
  -V(xc)+E(xc)   XCENC  =      3620.05824132
  PAW double counting   =    131444.47751610  -136430.38835327
  entropy T*S    EENTRO =        -1.06762111
  eigenvalues    EBANDS =    -15148.59059388
  atomic energy  EATOM  =    136002.60505376
  Solvation  Ediel_sol  =         0.00000000
  ---------------------------------------------------
  free energy    TOTEN  =      -369.83140813 eV

  energy without entropy =     -368.76378702  energy(sigma->0) =     -369.29759757


--------------------------------------------------------------------------------------------------------




--------------------------------------- Iteration      1(  14)  ---------------------------------------


    POTLOK:  cpu time    0.0434: real time    0.0435
    SETDIJ:  cpu time    0.0056: real time    0.0056
     EDDAV:  cpu time    2.1836: real time    2.1888
       DOS:  cpu time    0.0006: real time    0.0006
    CHARGE:  cpu time    0.0394: real time    0.0395
    MIXING:  cpu time    0.0022: real time    0.0022
    --------------------------------------------
      LOOP:  cpu time    2.2748: real time    2.2802

 eigenvalue-minimisations  :  1304
 total energy-change (2. order) : 0.1185852E+02  (-0.8574847E+00)
 number of electron     792.0000157 magnetization 
 augmentation part      313.7114338 magnetization 

 Broyden mixing:
  rms(total) = 0.31722E+01    rms(broyden)= 0.31710E+01
  rms(prec ) = 0.35572E+01
  weight for this iteration     100.00

 eigenvalues of (default mixing * dielectric matrix)
  average eigenvalue GAMMA=   0.4498
  2.0407  0.4442  0.4442  0.4542  0.2789  0.1205  0.0813  0.0920  0.0920

 Free energy of the ion-electron system (eV)
  ---------------------------------------------------
  alpha Z        PSCENC =      1893.09323658
  Ewald energy   TEWEN  =    160601.66674399
  -Hartree energ DENC   =   -282342.79002176
  -exchange      EXHF   =         0.00000000
  -V(xc)+E(xc)   XCENC  =      3619.81751942
  PAW double counting   =    131920.01889782  -136911.10866882
  entropy T*S    EENTRO =        -1.13399144
  eigenvalues    EBANDS =    -15140.14165496
  atomic energy  EATOM  =    136002.60505376
  Solvation  Ediel_sol  =         0.00000000
  ---------------------------------------------------
  free energy    TOTEN  =      -357.97288540 eV

  energy without entropy =     -356.83889396  energy(sigma->0) =     -357.40588968


--------------------------------------------------------------------------------------------------------




--------------------------------------- Iteration      1(  15)  ---------------------------------------


    POTLOK:  cpu time    0.0428: real time    0.0429
    SETDIJ:  cpu time    0.0049: real time    0.0049
     EDDAV:  cpu time    2.1525: real time    2.1577
       DOS:  cpu time    0.0006: real time    0.0006
    CHARGE:  cpu time    0.0394: real time    0.0395
    MIXING:  cpu time    0.0023: real time    0.0023
    --------------------------------------------
      LOOP:  cpu time    2.2424: real time    2.2478

 eigenvalue-minimisations  :  1280
 total energy-change (2. order) : 0.1027016E+01  (-0.1295223E+01)
 number of electron     792.0000160 magnetization 
 augmentation part      313.9025077 magnetization 

 Broyden mixing:
  rms(total) = 0.21901E+01    rms(broyden)= 0.21882E+01
  rms(prec ) = 0.25030E+01
  weight for this iteration     100.00

 eigenvalues of (default mixing * dielectric matrix)
  average eigenvalue GAMMA=   0.4336
  1.9857  0.5048  0.5048  0.4202  0.4202  0.1201  0.1201  0.0803  0.0901  0.0901

 Free energy of the ion-electron system (eV)
  ---------------------------------------------------
  alpha Z        PSCENC =      1893.09323658
  Ewald energy   TEWEN  =    160601.66674399
  -Hartree energ DENC   =   -282371.92549008
  -exchange      EXHF   =         0.00000000
  -V(xc)+E(xc)   XCENC  =      3620.13525314
  PAW double counting   =    131861.00398053  -136852.06387902
  entropy T*S    EENTRO =        -0.95416326
  eigenvalues    EBANDS =    -15110.50660487
  atomic energy  EATOM  =    136002.60505376
  Solvation  Ediel_sol  =         0.00000000
  ---------------------------------------------------
  free energy    TOTEN  =      -356.94586922 eV

  energy without entropy =     -355.99170596  energy(sigma->0) =     -356.46878759


--------------------------------------------------------------------------------------------------------




--------------------------------------- Iteration      1(  16)  ---------------------------------------


    POTLOK:  cpu time    0.0432: real time    0.0433
    SETDIJ:  cpu time    0.0049: real time    0.0049
     EDDAV:  cpu time    2.1608: real time    2.1660
       DOS:  cpu time    0.0006: real time    0.0006
    CHARGE:  cpu time    0.0424: real time    0.0425
    MIXING:  cpu time    0.0025: real time    0.0025
    --------------------------------------------
      LOOP:  cpu time    2.2543: real time    2.2596

 eigenvalue-minimisations  :  1280
 total energy-change (2. order) : 0.2096624E+01  (-0.2031662E+00)
 number of electron     792.0000164 magnetization 
 augmentation part      313.1160101 magnetization 

 Broyden mixing:
  rms(total) = 0.15200E+01    rms(broyden)= 0.15191E+01
  rms(prec ) = 0.17448E+01
  weight for this iteration     100.00

 eigenvalues of (default mixing * dielectric matrix)
  average eigenvalue GAMMA=   0.4287
  1.9752  0.5886  0.5886  0.4128  0.4128  0.1800  0.1800  0.1068  0.0812  0.0947
  0.0947

 Free energy of the ion-electron system (eV)
  ---------------------------------------------------
  alpha Z        PSCENC =      1893.09323658
  Ewald energy   TEWEN  =    160601.66674399
  -Hartree energ DENC   =   -282384.81872956
  -exchange      EXHF   =         0.00000000
  -V(xc)+E(xc)   XCENC  =      3620.91213302
  PAW double counting   =    131655.50228643  -136645.92591981
  entropy T*S    EENTRO =        -1.01526020
  eigenvalues    EBANDS =    -15096.86878943
  atomic energy  EATOM  =    136002.60505376
  Solvation  Ediel_sol  =         0.00000000
  ---------------------------------------------------
  free energy    TOTEN  =      -354.84924522 eV

  energy without entropy =     -353.83398502  energy(sigma->0) =     -354.34161512


--------------------------------------------------------------------------------------------------------




--------------------------------------- Iteration      1(  17)  ---------------------------------------


    POTLOK:  cpu time    0.0434: real time    0.0435
    SETDIJ:  cpu time    0.0048: real time    0.0048
     EDDAV:  cpu time    2.0642: real time    2.0692
       DOS:  cpu time    0.0008: real time    0.0008
    CHARGE:  cpu time    0.0416: real time    0.0417
    MIXING:  cpu time    0.0025: real time    0.0025
    --------------------------------------------
      LOOP:  cpu time    2.1573: real time    2.1624

 eigenvalue-minimisations  :  1208
 total energy-change (2. order) :-0.3300415E-01  (-0.1794878E+00)
 number of electron     792.0000159 magnetization 
 augmentation part      312.6818893 magnetization 

 Broyden mixing:
  rms(total) = 0.15276E+01    rms(broyden)= 0.15268E+01
  rms(prec ) = 0.17695E+01
  weight for this iteration     100.00

 eigenvalues of (default mixing * dielectric matrix)
  average eigenvalue GAMMA=   0.4379
  1.9828  0.7085  0.7085  0.4198  0.4198  0.3448  0.1694  0.1217  0.0945  0.0945
  0.1093  0.0810

 Free energy of the ion-electron system (eV)
  ---------------------------------------------------
  alpha Z        PSCENC =      1893.09323658
  Ewald energy   TEWEN  =    160601.66674399
  -Hartree energ DENC   =   -282412.92238231
  -exchange      EXHF   =         0.00000000
  -V(xc)+E(xc)   XCENC  =      3621.15373278
  PAW double counting   =    131532.66752223  -136520.78341392
  entropy T*S    EENTRO =        -1.00728903
  eigenvalues    EBANDS =    -15071.35545345
  atomic energy  EATOM  =    136002.60505376
  Solvation  Ediel_sol  =         0.00000000
  ---------------------------------------------------
  free energy    TOTEN  =      -354.88224937 eV

  energy without entropy =     -353.87496034  energy(sigma->0) =     -354.37860486


--------------------------------------------------------------------------------------------------------




--------------------------------------- Iteration      1(  18)  ---------------------------------------


    POTLOK:  cpu time    0.0433: real time    0.0434
    SETDIJ:  cpu time    0.0049: real time    0.0049
     EDDAV:  cpu time    2.1826: real time    2.1878
       DOS:  cpu time    0.0008: real time    0.0008
    CHARGE:  cpu time    0.0422: real time    0.0423
    MIXING:  cpu time    0.0025: real time    0.0025
    --------------------------------------------
      LOOP:  cpu time    2.2764: real time    2.2818

 eigenvalue-minimisations  :  1296
 total energy-change (2. order) : 0.6900174E+00  (-0.7408950E-01)
 number of electron     792.0000158 magnetization 
 augmentation part      312.4269772 magnetization 

 Broyden mixing:
  rms(total) = 0.11580E+01    rms(broyden)= 0.11576E+01
  rms(prec ) = 0.13213E+01
  weight for this iteration     100.00

 eigenvalues of (default mixing * dielectric matrix)
  average eigenvalue GAMMA=   0.4612
  2.0185  0.8910  0.8910  0.4513  0.4513  0.4053  0.2210  0.1454  0.1454  0.0944
  0.0944  0.1060  0.0811

 Free energy of the ion-electron system (eV)
  ---------------------------------------------------
  alpha Z        PSCENC =      1893.09323658
  Ewald energy   TEWEN  =    160601.66674399
  -Hartree energ DENC   =   -282407.48287941
  -exchange      EXHF   =         0.00000000
  -V(xc)+E(xc)   XCENC  =      3621.32567550
  PAW double counting   =    131454.01779421  -136440.17305147
  entropy T*S    EENTRO =        -1.03374058
  eigenvalues    EBANDS =    -15078.21106455
  atomic energy  EATOM  =    136002.60505376
  Solvation  Ediel_sol  =         0.00000000
  ---------------------------------------------------
  free energy    TOTEN  =      -354.19223196 eV

  energy without entropy =     -353.15849138  energy(sigma->0) =     -353.67536167


--------------------------------------------------------------------------------------------------------




--------------------------------------- Iteration      1(  19)  ---------------------------------------


    POTLOK:  cpu time    0.0434: real time    0.0435
    SETDIJ:  cpu time    0.0048: real time    0.0049
     EDDAV:  cpu time    2.1000: real time    2.1050
       DOS:  cpu time    0.0008: real time    0.0008
    CHARGE:  cpu time    0.0422: real time    0.0423
    MIXING:  cpu time    0.0027: real time    0.0027
    --------------------------------------------
      LOOP:  cpu time    2.1938: real time    2.1991

 eigenvalue-minimisations  :  1232
 total energy-change (2. order) : 0.5502221E-01  (-0.5932104E-01)
 number of electron     792.0000161 magnetization 
 augmentation part      312.4925429 magnetization 

 Broyden mixing:
  rms(total) = 0.10754E+01    rms(broyden)= 0.10749E+01
  rms(prec ) = 0.12131E+01
  weight for this iteration     100.00

 eigenvalues of (default mixing * dielectric matrix)
  average eigenvalue GAMMA=   0.4859
  2.0073  1.1407  1.1407  0.4737  0.4737  0.4211  0.3411  0.1521  0.1521  0.0811
  0.0944  0.0944  0.1061  0.1241

 Free energy of the ion-electron system (eV)
  ---------------------------------------------------
  alpha Z        PSCENC =      1893.09323658
  Ewald energy   TEWEN  =    160601.66674399
  -Hartree energ DENC   =   -282407.52977500
  -exchange      EXHF   =         0.00000000
  -V(xc)+E(xc)   XCENC  =      3621.19341740
  PAW double counting   =    131395.71730247  -136379.23860276
  entropy T*S    EENTRO =        -1.07841107
  eigenvalues    EBANDS =    -15080.56617512
  atomic energy  EATOM  =    136002.60505376
  Solvation  Ediel_sol  =         0.00000000
  ---------------------------------------------------
  free energy    TOTEN  =      -354.13720975 eV

  energy without entropy =     -353.05879868  energy(sigma->0) =     -353.59800421


--------------------------------------------------------------------------------------------------------




--------------------------------------- Iteration      1(  20)  ---------------------------------------


    POTLOK:  cpu time    0.0432: real time    0.0433
    SETDIJ:  cpu time    0.0049: real time    0.0049
     EDDAV:  cpu time    2.2620: real time    2.2698
       DOS:  cpu time    0.0007: real time    0.0007
    CHARGE:  cpu time    0.0418: real time    0.0419
    MIXING:  cpu time    0.0033: real time    0.0033
    --------------------------------------------
      LOOP:  cpu time    2.3559: real time    2.3639

 eigenvalue-minimisations  :  1328
 total energy-change (2. order) : 0.2385768E+00  (-0.5008070E-01)
 number of electron     792.0000160 magnetization 
 augmentation part      312.1965020 magnetization 

 Broyden mixing:
  rms(total) = 0.10882E+01    rms(broyden)= 0.10876E+01
  rms(prec ) = 0.12360E+01
  weight for this iteration     100.00

 eigenvalues of (default mixing * dielectric matrix)
  average eigenvalue GAMMA=   0.4898
  2.0096  1.2746  1.2746  0.4875  0.4875  0.4020  0.2945  0.2945  0.1676  0.0811
  0.0944  0.0944  0.1396  0.1396  0.1050

 Free energy of the ion-electron system (eV)
  ---------------------------------------------------
  alpha Z        PSCENC =      1893.09323658
  Ewald energy   TEWEN  =    160601.66674399
  -Hartree energ DENC   =   -282412.27177301
  -exchange      EXHF   =         0.00000000
  -V(xc)+E(xc)   XCENC  =      3621.29478500
  PAW double counting   =    131128.75780354  -136107.26534841
  entropy T*S    EENTRO =        -1.12925669
  eigenvalues    EBANDS =    -15080.64987772
  atomic energy  EATOM  =    136002.60505376
  Solvation  Ediel_sol  =         0.00000000
  ---------------------------------------------------
  free energy    TOTEN  =      -353.89863297 eV

  energy without entropy =     -352.76937627  energy(sigma->0) =     -353.33400462


--------------------------------------------------------------------------------------------------------




--------------------------------------- Iteration      1(  21)  ---------------------------------------


    POTLOK:  cpu time    0.0433: real time    0.0452
    SETDIJ:  cpu time    0.0052: real time    0.0059
     EDDAV:  cpu time    2.2150: real time    2.2203
       DOS:  cpu time    0.0010: real time    0.0009
    CHARGE:  cpu time    0.0388: real time    0.0389
    MIXING:  cpu time    0.0031: real time    0.0031
    --------------------------------------------
      LOOP:  cpu time    2.3063: real time    2.3143

 eigenvalue-minimisations  :  1304
 total energy-change (2. order) : 0.1009900E+00  (-0.4129265E-01)
 number of electron     792.0000159 magnetization 
 augmentation part      312.2546385 magnetization 

 Broyden mixing:
  rms(total) = 0.85861E+00    rms(broyden)= 0.85811E+00
  rms(prec ) = 0.96224E+00
  weight for this iteration     100.00

 eigenvalues of (default mixing * dielectric matrix)
  average eigenvalue GAMMA=   0.4941
  2.0023  1.3535  1.3535  0.5235  0.5235  0.4066  0.4066  0.3858  0.1718  0.0811
  0.0944  0.0944  0.1431  0.1431  0.1042  0.1185

 Free energy of the ion-electron system (eV)
  ---------------------------------------------------
  alpha Z        PSCENC =      1893.09323658
  Ewald energy   TEWEN  =    160601.66674399
  -Hartree energ DENC   =   -282422.57903888
  -exchange      EXHF   =         0.00000000
  -V(xc)+E(xc)   XCENC  =      3621.28159932
  PAW double counting   =    130969.68388818  -135945.17180181
  entropy T*S    EENTRO =        -1.11001566
  eigenvalues    EBANDS =    -15073.26730844
  atomic energy  EATOM  =    136002.60505376
  Solvation  Ediel_sol  =         0.00000000
  ---------------------------------------------------
  free energy    TOTEN  =      -353.79764296 eV

  energy without entropy =     -352.68762730  energy(sigma->0) =     -353.24263513


--------------------------------------------------------------------------------------------------------




--------------------------------------- Iteration      1(  22)  ---------------------------------------


    POTLOK:  cpu time    0.0442: real time    0.0454
    SETDIJ:  cpu time    0.0059: real time    0.0059
     EDDAV:  cpu time    2.1925: real time    2.1977
[...]
    FORCOR:  cpu time    0.0551: real time    0.0554
    FORHAR:  cpu time    0.0242: real time    0.0244
    MIXING:  cpu time    0.0045: real time    0.0045
    OFIELD:  cpu time    0.0002: real time    0.0002

  FORCE on cell =-STRESS in cart. coord.  units (eV):
  Direction    XX          YY          ZZ          XY          YZ          ZX
  --------------------------------------------------------------------------------------
  Alpha Z  1893.09324  1893.09324  1893.09324
  Ewald  209202.51549209138.69577************ -1281.42154  -321.77388   656.11865
  Hartree246484.58074246391.00483************ -1001.03353  -226.25549   455.62780
  E(xc)   -5025.96426 -5025.69123 -5029.66600    -0.69400    -0.51472     0.78663
  Local  ************************455110.51403  2262.93808   531.66314 -1081.28400
  n-local  -692.00473  -690.82585  -697.25027    -3.06998    -2.06731     2.07964
  augment  5791.59164  5787.11659  5801.57608     9.48159     6.62536   -10.74833
  Kinetic 10970.25043 10958.23038 10997.82984    17.09966    19.58831   -32.77224
  Fock        0.00000     0.00000     0.00000     0.00000     0.00000     0.00000
  -------------------------------------------------------------------------------------
  Total     -30.42147   -34.85904   -27.04504     3.30029     7.26539   -10.19186
  in kB     -24.80456   -28.42280   -22.05154     2.69093     5.92394    -8.31007
  external pressure =      -25.09 kB  Pullay stress =        0.00 kB


 VOLUME and BASIS-vectors are now :
 -----------------------------------------------------------------------------
  energy-cutoff  :      450.00
  volume of cell :     1964.98
      direct lattice vectors                 reciprocal lattice vectors
     9.425102554  3.573298043  0.000000000     0.106099641  0.000000000  0.000000000
     0.000000000 10.079732985  0.000000000    -0.037612667  0.099208977  0.000000000
     0.000000000  0.000000000 20.683503555     0.000000000  0.000000000  0.048347708

  length of vectors
    10.079732985 10.079732985 20.683503555     0.106099641  0.106099641  0.048347708


 FORCES acting on ions
    electron-ion (+dipol)            ewald-force                    non-local-force                 convergence-correction
 -----------------------------------------------------------------------------------------------
   -.780E+02 0.675E+02 0.469E+04   0.803E+02 -.648E+02 -.468E+04   -.206E+01 -.263E+01 -.870E+01   0.799E-01 -.593E-01 -.118E+00
   0.331E+02 -.426E+03 0.271E+04   -.339E+02 0.427E+03 -.272E+04   0.674E+00 -.144E+01 0.278E+01   -.731E-01 0.398E-01 0.358E+00
   0.136E+03 -.409E+03 -.145E+03   -.138E+03 0.410E+03 0.144E+03   0.127E+01 -.113E+01 0.675E+00   -.112E-01 -.420E-01 0.401E+00
   0.732E+02 -.423E+03 -.296E+04   -.731E+02 0.423E+03 0.296E+04   0.978E-01 -.509E+00 -.285E+00   0.116E-01 -.138E-01 0.123E+00
   -.117E+03 -.567E+03 -.492E+04   0.116E+03 0.561E+03 0.490E+04   0.234E+00 0.619E+01 0.139E+02   -.364E-01 -.352E-01 -.333E-01
   0.114E+03 -.455E+03 0.170E+04   -.114E+03 0.457E+03 -.171E+04   0.282E+00 -.168E+01 0.109E+01   0.282E-01 0.592E-01 0.493E+00
   0.206E+03 -.533E+03 -.129E+04   -.207E+03 0.535E+03 0.129E+04   0.102E+01 -.208E+01 -.770E-01   -.161E-01 -.369E-02 0.217E+00
   0.263E+03 -.645E+03 -.400E+04   -.264E+03 0.649E+03 0.400E+04   0.117E+01 -.280E+01 -.308E+01   0.584E-01 -.107E+00 0.176E-01
   0.668E+02 -.413E+03 0.446E+04   -.669E+02 0.412E+03 -.445E+04   0.325E+00 -.642E-01 -.411E+01   0.905E-01 0.254E+00 0.131E+00
   0.136E+03 0.326E+03 -.450E+04   -.136E+03 -.322E+03 0.450E+04   0.577E-01 -.410E+01 0.134E+01   -.369E-01 0.471E-01 -.561E-01
   0.326E+03 -.754E+02 0.380E+04   -.331E+03 0.734E+02 -.380E+04   0.397E+01 0.132E+01 0.273E+01   -.118E+00 0.233E-01 0.350E+00
   0.217E+03 -.355E+03 0.859E+03   -.220E+03 0.355E+03 -.861E+03   0.196E+01 -.479E+00 0.771E+00   0.332E-01 0.663E-02 0.517E+00
   0.947E+02 -.276E+03 -.207E+04   -.958E+02 0.276E+03 0.207E+04   0.953E+00 -.693E+00 -.429E+00   0.222E-01 -.971E-02 0.218E+00
   0.239E+03 0.451E+03 0.387E+04   -.241E+03 -.451E+03 -.387E+04   0.181E+01 0.328E+00 0.103E+01   -.785E-01 -.206E-02 0.281E+00
   0.302E+03 0.464E+03 0.843E+03   -.303E+03 -.464E+03 -.843E+03   0.127E+01 0.332E+00 -.854E-01   -.226E-01 0.339E-01 0.456E+00
   0.369E+03 0.420E+03 -.202E+04   -.369E+03 -.420E+03 0.202E+04   0.102E+01 0.409E+00 0.875E-01   0.696E-01 0.655E-01 0.197E+00
   0.291E+03 0.428E+03 -.448E+04   -.290E+03 -.429E+03 0.447E+04   -.823E+00 0.379E+00 0.707E+00   0.470E-01 0.381E-01 -.214E-01
   0.257E+03 0.385E+03 0.261E+04   -.258E+03 -.385E+03 -.262E+04   0.745E+00 0.602E+00 0.151E+01   0.111E+00 -.456E-01 0.506E+00
   0.259E+03 0.397E+03 -.144E+03   -.260E+03 -.397E+03 0.143E+03   0.945E+00 0.366E+00 0.638E+00   -.495E-02 -.230E-01 0.343E+00
   0.306E+03 0.389E+03 -.288E+04   -.308E+03 -.389E+03 0.288E+04   0.129E+01 0.575E-01 -.158E+01   0.972E-02 -.757E-01 0.107E+00
   0.732E+02 0.261E+03 -.477E+04   -.782E+02 -.257E+03 0.476E+04   0.363E+01 -.359E+01 0.667E+01   0.674E-01 0.109E-02 -.324E-01
   0.327E+03 0.130E+03 0.475E+04   -.319E+03 -.124E+03 -.474E+04   -.689E+01 -.562E+01 -.874E+01   0.445E-01 0.945E-02 -.101E+00
   0.392E+03 0.371E+03 0.196E+04   -.394E+03 -.370E+03 -.196E+04   0.206E+01 -.493E+00 0.142E+01   0.553E-02 -.491E-01 0.475E+00
   0.118E+03 0.543E+03 -.129E+04   -.118E+03 -.544E+03 0.129E+04   0.221E+00 0.111E+01 -.678E+00   0.176E-01 0.307E-01 0.290E+00
   -.675E+03 -.244E+03 -.382E+04   0.674E+03 0.242E+03 0.382E+04   0.110E+01 0.931E+00 0.393E+00   -.136E+00 -.517E-01 0.314E-01
   -.421E+03 0.756E+01 0.460E+04   0.414E+03 -.353E+01 -.460E+04   0.661E+01 -.382E+01 -.306E+01   -.104E+00 0.579E-01 0.151E+00
   -.448E+03 -.764E+01 0.183E+04   0.449E+03 0.826E+01 -.184E+04   -.523E+00 -.488E+00 0.111E+01   -.456E-01 0.152E-01 0.543E+00
   -.542E+03 -.883E+02 -.107E+04   0.543E+03 0.886E+02 0.107E+04   -.482E+00 -.383E+00 0.801E+00   -.473E-01 -.373E-02 0.303E+00
   -.621E+03 -.798E+02 0.372E+04   0.625E+03 0.810E+02 -.372E+04   -.362E+01 -.940E+00 0.410E+01   0.669E-02 -.168E-01 0.340E+00
   -.515E+03 -.593E+01 0.951E+03   0.517E+03 0.663E+01 -.953E+03   -.166E+01 -.563E+00 0.197E+01   -.456E-01 -.103E-01 0.401E+00
   -.467E+03 -.114E+02 -.194E+04   0.468E+03 0.122E+02 0.194E+04   -.972E+00 -.692E+00 0.420E+00   0.479E-01 -.450E-01 0.177E+00
   -.550E+03 0.365E+02 -.448E+04   0.545E+03 -.340E+02 0.447E+04   0.481E+01 -.182E+01 0.621E+01   -.367E-01 -.424E-01 -.108E-02
   -.396E+03 0.775E+02 0.277E+04   0.398E+03 -.777E+02 -.277E+04   -.124E+01 0.232E+00 0.252E+01   0.118E+00 -.359E-01 0.439E+00
   -.454E+03 0.123E+03 -.181E+03   0.455E+03 -.124E+03 0.180E+03   -.131E+01 0.832E+00 0.368E+00   -.107E-01 0.144E-01 0.356E+00
   -.923E+02 0.435E+03 -.317E+04   0.926E+02 -.438E+03 0.317E+04   -.802E+00 0.276E+01 -.140E+01   0.822E-02 0.123E+00 -.549E-02
   0.890E+02 0.204E+03 0.480E+04   -.919E+02 -.205E+03 -.479E+04   0.303E+01 0.660E+00 -.124E+02   0.576E-01 -.120E+00 -.911E-01
   -.976E+02 0.519E+02 -.181E+04   0.982E+02 -.512E+02 0.182E+04   -.120E+01 0.310E+00 -.367E+01   -.323E-01 0.695E-02 -.167E-01
   -.102E+02 0.152E+03 0.134E+04   0.103E+02 -.154E+03 -.134E+04   -.183E+00 0.192E+01 -.158E+00   -.394E-01 0.768E-02 0.177E+00
   -.224E+02 0.129E+03 0.243E+03   0.225E+02 -.131E+03 -.245E+03   -.114E+00 0.202E+01 0.171E+01   -.103E-01 0.217E-01 0.178E+00
   -.436E+02 0.112E+03 -.804E+03   0.438E+02 -.114E+03 0.802E+03   -.287E+00 0.233E+01 0.213E+01   -.440E-02 -.102E-02 0.784E-01
   -.749E+02 -.244E+02 0.181E+04   0.755E+02 0.250E+02 -.181E+04   -.151E+01 -.137E+01 0.152E+01   0.130E+00 -.707E-01 0.115E-01
   -.859E+02 0.114E+03 0.945E+03   0.867E+02 -.115E+03 -.946E+03   -.588E+00 0.157E+01 0.142E+01   0.123E-02 -.126E-01 0.161E+00
   -.380E+02 0.118E+03 -.105E+03   0.388E+02 -.120E+03 0.104E+03   -.752E+00 0.196E+01 0.923E+00   -.942E-02 -.187E-01 0.104E+00
   -.671E+02 0.125E+03 -.113E+04   0.674E+02 -.126E+03 0.113E+04   0.189E+00 0.158E+01 0.248E+01   0.117E-01 -.185E-01 0.640E-01
   -.317E+02 0.130E+03 0.576E+03   0.325E+02 -.131E+03 -.578E+03   -.829E+00 0.151E+01 0.171E+01   0.226E-01 0.665E-03 0.180E+00
   0.304E+02 0.148E+03 -.722E+03   -.315E+02 -.150E+03 0.724E+03   0.125E+01 0.226E+01 -.182E+01   -.890E-02 0.292E-01 0.614E-01
   0.125E+03 -.398E+02 -.168E+04   -.127E+03 0.398E+02 0.168E+04   0.279E+01 0.428E+00 -.416E+01   0.108E-02 0.222E-01 -.711E-02
   0.147E+03 0.824E+02 0.162E+04   -.149E+03 -.837E+02 -.162E+04   0.265E+01 0.106E+01 0.402E+00   0.117E-01 -.324E-01 0.907E-01
   -.209E+03 -.232E+03 0.176E+04   0.211E+03 0.235E+03 -.176E+04   -.325E+01 -.390E+01 0.191E+00   -.474E-01 0.184E-01 -.230E-01
   -.787E+02 -.198E+03 0.905E+03   0.795E+02 0.200E+03 -.905E+03   -.975E+00 -.226E+01 -.249E+00   -.112E-01 -.756E-03 0.189E+00
   -.110E+03 -.160E+03 -.223E+03   0.111E+03 0.163E+03 0.223E+03   -.123E+01 -.225E+01 -.913E-02   -.742E-02 -.747E-02 0.136E+00
   -.280E+03 -.346E+03 -.127E+04   0.284E+03 0.351E+03 0.127E+04   -.376E+01 -.586E+01 0.990E+00   -.455E-01 -.184E-01 0.294E-01
   -.824E+02 -.133E+03 0.164E+04   0.828E+02 0.134E+03 -.164E+04   -.477E+00 -.277E+00 0.229E+01   0.212E-01 0.303E-01 0.853E-01
   -.840E+02 -.151E+03 0.510E+03   0.853E+02 0.153E+03 -.510E+03   -.123E+01 -.257E+01 0.386E+00   -.974E-03 0.138E-01 0.171E+00
   -.411E+02 -.173E+03 -.573E+03   0.424E+02 0.175E+03 0.574E+03   -.144E+01 -.217E+01 -.287E+00   0.126E-01 0.140E-01 0.606E-01
   0.180E+02 -.117E+03 -.162E+04   -.184E+02 0.117E+03 0.162E+04   0.593E+00 -.124E+01 -.163E+01   0.507E-01 -.671E-02 0.195E-01
   -.737E+02 -.134E+03 0.147E+03   0.753E+02 0.137E+03 -.148E+03   -.152E+01 -.220E+01 0.453E+00   0.182E-01 -.120E-01 0.170E+00
   -.551E+02 -.658E+02 -.912E+03   0.564E+02 0.682E+02 0.911E+03   -.119E+01 -.286E+01 0.457E+00   -.150E-01 -.139E-01 0.391E-01
   -.117E+01 0.204E+03 -.177E+04   0.183E+01 -.205E+03 0.178E+04   -.140E+01 0.115E+01 -.268E+01   0.286E-01 0.438E-01 -.117E-01
   -.792E+01 -.111E+03 0.119E+04   0.907E+01 0.113E+03 -.119E+04   -.185E+01 -.166E+01 -.159E+01   0.484E-01 -.118E-01 0.194E+00
   0.126E+03 0.728E+02 0.155E+04   -.127E+03 -.741E+02 -.155E+04   0.190E+01 0.160E+01 0.934E+00   0.142E-01 0.153E-01 0.529E-01
   0.164E+03 0.190E+00 0.430E+03   -.167E+03 0.221E+00 -.430E+03   0.271E+01 -.116E+00 0.215E+00   -.327E-02 -.762E-02 0.182E+00
   0.202E+03 0.154E+02 -.664E+03   -.204E+03 -.152E+02 0.665E+03   0.215E+01 -.165E+00 -.143E+01   0.121E-01 0.139E-01 0.764E-01
   0.359E+03 0.111E+02 -.166E+04   -.365E+03 -.109E+02 0.166E+04   0.618E+01 -.182E+00 -.229E+01   0.600E-01 0.116E-01 0.126E-03
   0.156E+03 -.407E+02 0.365E+02   -.159E+03 0.409E+02 -.361E+02   0.256E+01 -.127E+00 -.682E+00   0.405E-02 -.152E-02 0.161E+00
   0.177E+03 -.907E+02 -.102E+04   -.179E+03 0.914E+02 0.102E+04   0.208E+01 -.393E+00 -.824E+00   -.250E-01 -.236E-01 0.276E-01
   0.195E+03 -.142E+03 -.187E+04   -.199E+03 0.143E+03 0.188E+04   0.385E+01 -.139E+01 -.375E+01   0.284E-01 -.473E-01 0.669E-02
   0.175E+03 -.453E+02 0.112E+04   -.176E+03 0.452E+02 -.112E+04   0.135E+01 0.189E+00 -.252E+01   0.477E-02 0.406E-01 0.252E+00
   -.255E+02 0.275E+02 0.180E+04   0.254E+02 -.284E+02 -.181E+04   0.973E+00 0.114E+01 0.430E+01   -.390E-01 -.158E-01 -.133E-01
   0.165E+03 0.402E+02 0.970E+03   -.167E+03 -.416E+02 -.972E+03   0.235E+01 0.144E+01 0.284E+01   -.318E-01 -.184E-01 0.180E+00
   0.156E+03 0.233E+01 -.272E+03   -.159E+03 -.216E+01 0.273E+03   0.248E+01 -.279E+00 -.118E+01   0.297E-01 -.688E-02 0.144E+00
   -.199E+02 0.196E+03 -.134E+04   0.194E+02 -.197E+03 0.134E+04   0.868E+00 0.134E+01 -.961E+00   -.131E-01 0.143E-01 0.176E-01
 -----------------------------------------------------------------------------------------------
   -.335E+02 0.272E+02 -.152E+02   0.814E-12 -.540E-12 -.227E-12   0.333E+02 -.270E+02 0.415E+01   0.277E+00 -.155E-01 0.110E+02
 
 
 POSITION                                       TOTAL-FORCE (eV/Angst)
 -----------------------------------------------------------------------------------
      2.32602     10.40942      0.00000         0.283551      0.065379      1.868383
      3.74232      9.43171      2.62550        -0.233432      0.099444     -0.339159
      5.15862      8.45400      5.25100        -0.015563     -0.159707     -0.069233
      6.57491      7.47629      7.87651         0.196738     -0.238096      0.483540
      7.99121      6.49857     10.50201        -0.599830     -0.141097     -1.950357
      1.07272      4.55480      3.50067         0.028139      0.154614     -0.167188
      2.48901      3.57708      6.12617        -0.010711     -0.048686     -0.134924
      3.90531      2.59937      8.75167         0.015843      0.317643      0.640396
      9.08153      9.10581      0.87517         0.253752     -0.064351      1.355766
      1.23571      7.80219      9.62684         0.394319      0.576848     -0.681195
      6.41192      4.22889      1.75033        -0.684131     -0.576842      0.022414
      7.82822      3.25118      4.37584        -0.273959     -0.065760      0.007400
      9.24452     12.35320      7.00134        -0.163959     -0.246918      0.124058
      3.36813      7.02690      1.93183        -0.527373     -0.157060      0.382206
      4.78442      6.04919      4.55733        -0.110654      0.131283     -0.024862
      6.20072      5.07148      7.18283         0.325358      0.018813      0.155427
      7.61702      4.09377      9.80834         0.264628     -0.599234     -0.785486
      0.69852      2.14999      2.80700        -0.023331     -0.116624     -0.170784
      2.11482      1.17228      5.43250         0.076589      0.081987      0.008640
      3.53112     10.27430      8.05800         0.032435     -0.053451      0.527193
      4.94741      9.29658     10.68350        -1.304175      0.377453     -1.697966
      8.70733      6.70100      0.18149         1.135626      0.100398      1.807280
      7.45403     10.92611      3.68216        -0.090034      0.147409     -0.149933
      8.87032      9.94839      6.30767         0.287227      0.029820      0.264495
      0.30789      1.72287      9.11466        -0.385855     -0.703040     -0.459371
      5.48410      8.22931      1.23816        -0.155347      0.268631      0.860731
      6.90040      7.25159      3.86366        -0.186776      0.141065     -0.235117
      8.31669      6.27388      6.48916        -0.067402     -0.111111      0.208051
      2.81450      3.35239      2.11332         0.330123      0.217670     -0.519868
      4.23080      2.37468      4.73883         0.025729      0.125263     -0.059386
      5.64709     11.47670      7.36433         0.151231      0.059366      0.171987
      7.06339     10.49899      9.98983        -0.572958      0.622130     -1.817589
      0.14490      8.55521      2.98849        -0.025198     -0.034134     -0.298557
      1.56119      7.57750      5.61399        -0.046372     -0.212670     -0.040635
      2.97749      6.59979      8.23950        -0.423805     -0.374637      0.589581
      8.15370     13.10622      0.36299         0.207194     -0.458489      2.082078
      0.34500      9.75890     10.30158        -0.664446      1.027809      0.305044
      5.52122      6.18560      2.42507        -0.104280      0.182656     -1.513379
      6.93751      5.20789      5.05057         0.003446      0.077578      0.056337
      8.35381      4.23018      7.67607        -0.067977      0.293199      0.022442
      1.43532      2.28640      0.67473        -0.754743     -0.850005     -1.161931
      2.85162      1.30869      3.30024         0.144443      0.131672     -0.020330
      4.26791     10.41071      5.92574         0.064882     -0.004999      0.180383
      5.68421      9.43299      8.55124         0.428471      0.088759      1.030112
      0.18201      6.51150      4.17540        -0.061857      0.022317      0.121166
      1.59831      5.53379      6.80091         0.161749      0.544528      0.188448
      3.01461      4.55608      9.42641         0.465173      0.502068      0.083066
      8.19082     11.06252      1.54990         0.391062     -0.258883     -1.531598
      4.58141     10.22551      0.68287        -0.622096     -0.745464     -0.321184
      5.99770      9.24779      3.30837        -0.143447     -0.033896     -0.069424
      7.41400      8.27008      5.93387         0.150470      0.097422      0.100386
      8.83030      7.29237      8.55937         0.107497     -0.258925      1.102783
      1.91180      5.34859      1.55803         0.014440      0.458693     -0.286107
      3.32810      4.37088      4.18354         0.058174     -0.266584      0.155162
      4.74440      3.39317      6.80904        -0.104978     -0.077452      0.111986
      6.16069      2.41545      9.43454         0.307086     -0.497314      0.708089
      0.65850      9.57370      5.05870         0.072231      0.070963      0.182110
      2.07479      8.59599      7.68420         0.069941     -0.560052      0.101439
      3.49109      7.61827     10.30971        -0.706742     -0.177932     -0.053775
      8.66731      4.04498      2.43320        -0.653427      0.144106     -1.053900
      1.88700      8.69441      1.56616         0.529922      0.275721     -0.822577
      3.30330      7.71670      4.19167         0.261396      0.284507      0.055280
      4.71960      6.73898      6.81717         0.074850      0.004299     -0.037330
      6.13589      5.76127      9.44267         0.563649      0.040787      0.702326
      0.63370      2.83978      5.06683         0.034811      0.058057     -0.167191
      2.04999      1.86207      7.69234         0.085499      0.215804      0.120578
      3.46629     10.96409     10.31784         0.435387     -0.414988     -0.529755
      8.64250      7.39079      2.44133        -0.158909      0.181716     -1.325612
      4.55661      3.49159      0.69100         0.750341      0.222458      0.736313
      5.97290      2.51388      3.31650         0.324485      0.061181      0.361221
      7.38920     11.61590      5.94200         0.138949     -0.119201     -0.190132
      8.80549     10.63819      8.56750         0.296935      0.106088      0.701536
 -----------------------------------------------------------------------------------
    total drift:                                0.081407      0.194554     -0.092158


--------------------------------------------------------------------------------------------------------



  FREE ENERGIE OF THE ION-ELECTRON SYSTEM (eV)
  ---------------------------------------------------
  free  energy   TOTEN  =      -353.46660743 eV

  energy  without entropy=     -352.35608303  energy(sigma->0) =     -352.91134523
 


--------------------------------------------------------------------------------------------------------


    POTLOK:  cpu time    0.0482: real time    0.0484


--------------------------------------------------------------------------------------------------------


     LOOP+:  cpu time   81.5307: real time   81.8228
    4ORBIT:  cpu time    0.0000: real time    0.0000

 total amount of memory used by VASP MPI-rank0    45295. kBytes
=======================================================================

   base      :      30000. kBytes
   nonlr-proj:       2281. kBytes
   fftplans  :       3383. kBytes
   grid      :       6052. kBytes
   one-center:         93. kBytes
   wavefun   :       3486. kBytes
 
  
  
 General timing and accounting informations for this job:
 ========================================================
  
                  Total CPU time used (sec):       83.456
                            User time (sec):       82.884
                          System time (sec):        0.573
                         Elapsed time (sec):       84.444
  
                   Maximum memory used (kb):      227756.
                   Average memory used (kb):           0.
  
                          Minor page faults:        85436
                          Major page faults:            0
                 Voluntary context switches:          967
