LAMMPS data file via write_data, version 5 Jun 2019, timestep = 83

72 atoms
2 atom types

0.0000000000000000e+00 1.6884694054200001e+01 xlo xhi
0.0000000000000000e+00 9.5784099999999999e+00 ylo yhi
0.0000000000000000e+00 1.6173863021300001e+01 zlo zhi
0.0000000000000000e+00 0.0000000000000000e+00 0.0000000000000000e+00 xy xz yz

Masses

1 58.71
2 32.06

Atoms # atomic

1 1 1.1963280455628822e+00 8.7457327529692943e+00 4.5860557381420781e+00 0 0 0
2 1 1.6807120366999999e+00 8.8448295298000001e+00 1.9259931187999999e+00 0 0 0
3 1 9.4606165407392275e+00 2.6297963550005621e+00 2.5750647185905189e+00 0 0 0
4 1 1.0517327953354037e+01 3.9634165244537929e+00 7.1750298854720318e-01 0 0 0
5 1 4.0084365668000004e+00 4.0556245298000002e+00 4.4964460856999997e+00 0 0 0
6 1 4.5558842540945337e+00 3.9915173185540254e+00 1.7602297206157462e+00 0 0 0
7 1 1.3349850239437494e+01 8.1656090183303984e+00 5.2105653230450271e+00 0 0 0
8 1 1.2742618274500002e+01 8.8448295298000001e+00 2.9541742925999999e+00 0 0 0
9 1 6.9198304750000004e+00 8.8448295298000001e+00 3.9823554826000001e+00 0 0 0
10 1 7.6171985135675371e+00 8.1659626563708194e+00 1.7385721784979296e+00 0 0 0
11 1 1.5730666358205436e+01 3.2080180949326653e+00 4.6548164423450560e+00 0 0 0
12 1 1.5654012182700001e+01 4.0556245298000002e+00 2.4400837057000002e+00 0 0 0
13 1 6.3565758560692922e+00 6.5334584317674871e+00 4.5194577573284640e+00 0 0 0
14 1 9.0985462538479336e+00 5.5128916007475137e+00 2.0011537509181045e+00 0 0 0
15 1 1.5828322453000000e+01 5.3175622600000005e-01 4.6030592091000004e+00 0 0 0
16 1 1.6411991831000002e+01 5.3175622600000005e-01 1.5185156554000001e+00 0 0 0
17 1 1.8550223070000005e+00 5.3209612259999997e+00 4.0889686222000003e+00 0 0 0
18 1 2.4018466290925846e+00 5.3217717700725968e+00 1.3191748870788775e+00 0 0 0
19 1 9.2027681716686356e+00 7.5018485929380918e-01 4.4857248006566603e+00 0 0 0
20 1 1.0589204014700000e+01 5.3175622600000005e-01 2.5466968454000001e+00 0 0 0
21 1 4.7664161983000000e+00 5.3175622600000005e-01 3.5748780191999971e+00 0 0 0
22 1 4.7833162711895945e+00 5.3789397394609717e-01 1.0855639217721809e+00 0 0 0
23 1 1.4475759149641148e+01 5.3216062820473748e+00 4.6402963498630907e+00 0 0 0
24 1 1.3318411010029900e+01 5.2999552276935509e+00 2.3428698111718633e+00 0 0 0
25 1 1.2156621289404419e+00 1.9239439585710458e+00 4.5749464172823266e+00 0 0 0
26 1 1.6807120366999999e+00 1.7970929222000001e+00 1.9259931187999999e+00 0 0 0
27 1 9.8913147390120333e+00 7.7518755397067762e+00 2.4202237486091058e+00 0 0 0
28 1 1.0968116684513442e+01 6.6465726690394842e+00 5.4932785867859013e-01 0 0 0
29 1 4.0084365668000004e+00 6.5862979222000009e+00 4.4964460856999997e+00 0 0 0
30 1 4.5736834235461057e+00 6.6580582430945743e+00 1.7779055491671005e+00 0 0 0
31 1 1.1608632070576993e+01 5.1747805940333891e-01 5.0853624393743919e+00 0 0 0
32 1 1.2742618274500002e+01 1.7970929222000001e+00 2.9541742925999999e+00 0 0 0
33 1 6.9009101855370245e+00 1.7554429331855701e+00 3.7222811216501888e+00 0 0 0
34 1 7.4713889950999670e+00 1.9221847448501219e+00 1.2657604412149659e+00 0 0 0
35 1 1.5699945912678988e+01 7.4587932713313378e+00 4.6495052324733912e+00 0 0 0
36 1 1.5662406126201537e+01 6.4409495456918844e+00 2.4478876017871976e+00 0 0 0
37 2 3.6173791290832047e-01 1.9788472799029060e+00 3.9954372362687457e-01 0 0 0
38 2 8.1128792998644137e+00 6.9634026906876425e+00 3.4033939803619693e+00 0 0 0
39 2 8.9599488787260402e+00 7.0517188662125498e+00 6.0329347280056178e-01 0 0 0
40 2 1.6572928902492762e+01 1.9132622353278017e+00 5.9641576046288893e+00 0 0 0
41 2 1.6655921460300000e+01 2.1429884642000001e+00 3.0845435538000001e+00 0 0 0
42 2 2.1213768286833483e+00 6.9934509171577171e+00 5.2836681423337835e+00 0 0 0
43 2 2.6826213141999999e+00 6.9321934642000000e+00 2.5704529668999982e+00 0 0 0
44 2 1.0833133660800000e+01 2.1429884642000001e+00 4.1127247437000003e+00 0 0 0
45 2 1.1281374509915535e+01 2.1877261965324850e+00 1.4380149102610673e+00 0 0 0
46 2 5.0741719907927703e+00 2.2569851842350177e+00 4.6852304402222567e+00 0 0 0
47 2 5.5940152224000004e+00 2.1429884642000001e+00 2.0563623799999999e+00 0 0 0
48 2 1.3744527569000001e+01 6.9321934642000000e+00 3.5986341568000002e+00 0 0 0
49 2 2.5133042869000000e+00 5.3175622600000005e-01 3.6034100559999978e+00 0 0 0
50 2 2.7982307547837877e+00 5.3193844218309549e-01 7.1609748863126199e-01 0 0 0
51 2 1.1247485994600000e+01 5.3209612259999997e+00 2.0611382790999997e+00 0 0 0
52 2 5.1095863746963923e+00 5.3538466118394670e+00 5.7088658465395863e+00 0 0 0
53 2 5.4246981781999999e+00 5.3209612259999997e+00 3.0893194690999999e+00 0 0 0
54 2 4.1529993838883978e+00 5.3332290345531552e+00 2.6977723559505862e-01 0 0 0
55 2 1.3575210524799999e+01 5.3175622600000005e-01 4.6315912459000002e+00 0 0 0
56 2 1.4176304411442853e+01 5.6106058381283297e-01 2.0015967209277936e+00 0 0 0
57 2 3.3883720155810598e-01 5.2578333037351674e+00 1.5691144926950553e+00 0 0 0
58 2 7.3912590575506192e+00 6.8211372721455765e-01 5.4222332546137801e+00 0 0 0
59 2 8.3360920864000008e+00 5.3175622600000005e-01 2.5752288659999998e+00 0 0 0
60 2 1.6486604432899998e+01 5.3209612259999997e+00 4.1175006428999952e+00 0 0 0
61 2 3.7306628702096012e-01 8.6785838783026357e+00 3.9095200958726817e-01 0 0 0
62 2 8.4988272487074301e+00 3.7217096463314268e+00 1.0716427412425089e+00 0 0 0
63 2 1.6554842404242414e+01 8.7371118245337787e+00 5.9824413758857178e+00 0 0 0
64 2 1.6655921460300000e+01 8.4989339878999992e+00 3.0845435538000001e+00 0 0 0
65 2 2.1486229041521767e+00 3.6618678814949730e+00 5.2955366523043086e+00 0 0 0
66 2 2.6826213141999999e+00 3.7097289879000002e+00 2.5704529668999982e+00 0 0 0
67 2 1.0833133660800000e+01 8.4989339878999992e+00 4.1127247437000003e+00 0 0 0
68 2 1.1473588890769506e+01 8.5539291142502929e+00 1.2861110195526066e+00 0 0 0
69 2 5.1302758583652386e+00 8.3099300260322710e+00 4.8474647148581793e+00 0 0 0
70 2 5.5940152224000004e+00 8.4989339878999992e+00 2.0563623799999999e+00 0 0 0
71 2 1.3744527569000001e+01 3.7097289879000002e+00 3.5986341568000002e+00 0 0 0
72 2 1.4781096560691426e+01 5.2523685719776898e+00 9.6307760832650935e-01 0 0 0

Velocities

1 0.0000000000000000e+00 0.0000000000000000e+00 0.0000000000000000e+00
2 0.0000000000000000e+00 0.0000000000000000e+00 0.0000000000000000e+00
3 0.0000000000000000e+00 0.0000000000000000e+00 0.0000000000000000e+00
4 0.0000000000000000e+00 0.0000000000000000e+00 0.0000000000000000e+00
5 0.0000000000000000e+00 0.0000000000000000e+00 0.0000000000000000e+00
6 0.0000000000000000e+00 0.0000000000000000e+00 0.0000000000000000e+00
7 0.0000000000000000e+00 0.0000000000000000e+00 0.0000000000000000e+00
8 0.0000000000000000e+00 0.0000000000000000e+00 0.0000000000000000e+00
9 0.0000000000000000e+00 0.0000000000000000e+00 0.0000000000000000e+00
10 0.0000000000000000e+00 0.0000000000000000e+00 0.0000000000000000e+00
11 0.0000000000000000e+00 0.0000000000000000e+00 0.0000000000000000e+00
12 0.0000000000000000e+00 0.0000000000000000e+00 0.0000000000000000e+00
13 0.0000000000000000e+00 0.0000000000000000e+00 0.0000000000000000e+00
14 0.0000000000000000e+00 0.0000000000000000e+00 0.0000000000000000e+00
15 0.0000000000000000e+00 0.0000000000000000e+00 0.0000000000000000e+00
16 0.0000000000000000e+00 0.0000000000000000e+00 0.0000000000000000e+00
17 0.0000000000000000e+00 0.0000000000000000e+00 0.0000000000000000e+00
18 0.0000000000000000e+00 0.0000000000000000e+00 0.0000000000000000e+00
19 0.0000000000000000e+00 0.0000000000000000e+00 0.0000000000000000e+00
20 0.0000000000000000e+00 0.0000000000000000e+00 0.0000000000000000e+00
21 0.0000000000000000e+00 0.0000000000000000e+00 0.0000000000000000e+00
22 0.0000000000000000e+00 0.0000000000000000e+00 0.0000000000000000e+00
23 0.0000000000000000e+00 0.0000000000000000e+00 0.0000000000000000e+00
24 0.0000000000000000e+00 0.0000000000000000e+00 0.0000000000000000e+00
25 0.0000000000000000e+00 0.0000000000000000e+00 0.0000000000000000e+00
26 0.0000000000000000e+00 0.0000000000000000e+00 0.0000000000000000e+00
27 0.0000000000000000e+00 0.0000000000000000e+00 0.0000000000000000e+00
28 0.0000000000000000e+00 0.0000000000000000e+00 0.0000000000000000e+00
29 0.0000000000000000e+00 0.0000000000000000e+00 0.0000000000000000e+00
30 0.0000000000000000e+00 0.0000000000000000e+00 0.0000000000000000e+00
31 0.0000000000000000e+00 0.0000000000000000e+00 0.0000000000000000e+00
32 0.0000000000000000e+00 0.0000000000000000e+00 0.0000000000000000e+00
33 0.0000000000000000e+00 0.0000000000000000e+00 0.0000000000000000e+00
34 0.0000000000000000e+00 0.0000000000000000e+00 0.0000000000000000e+00
35 0.0000000000000000e+00 0.0000000000000000e+00 0.0000000000000000e+00
36 0.0000000000000000e+00 0.0000000000000000e+00 0.0000000000000000e+00
37 0.0000000000000000e+00 0.0000000000000000e+00 0.0000000000000000e+00
38 0.0000000000000000e+00 0.0000000000000000e+00 0.0000000000000000e+00
39 0.0000000000000000e+00 0.0000000000000000e+00 0.0000000000000000e+00
40 0.0000000000000000e+00 0.0000000000000000e+00 0.0000000000000000e+00
41 0.0000000000000000e+00 0.0000000000000000e+00 0.0000000000000000e+00
42 0.0000000000000000e+00 0.0000000000000000e+00 0.0000000000000000e+00
43 0.0000000000000000e+00 0.0000000000000000e+00 0.0000000000000000e+00
44 0.0000000000000000e+00 0.0000000000000000e+00 0.0000000000000000e+00
45 0.0000000000000000e+00 0.0000000000000000e+00 0.0000000000000000e+00
46 0.0000000000000000e+00 0.0000000000000000e+00 0.0000000000000000e+00
47 0.0000000000000000e+00 0.0000000000000000e+00 0.0000000000000000e+00
48 0.0000000000000000e+00 0.0000000000000000e+00 0.0000000000000000e+00
49 0.0000000000000000e+00 0.0000000000000000e+00 0.0000000000000000e+00
50 0.0000000000000000e+00 0.0000000000000000e+00 0.0000000000000000e+00
51 0.0000000000000000e+00 0.0000000000000000e+00 0.0000000000000000e+00
52 0.0000000000000000e+00 0.0000000000000000e+00 0.0000000000000000e+00
53 0.0000000000000000e+00 0.0000000000000000e+00 0.0000000000000000e+00
54 0.0000000000000000e+00 0.0000000000000000e+00 0.0000000000000000e+00
55 0.0000000000000000e+00 0.0000000000000000e+00 0.0000000000000000e+00
56 0.0000000000000000e+00 0.0000000000000000e+00 0.0000000000000000e+00
57 0.0000000000000000e+00 0.0000000000000000e+00 0.0000000000000000e+00
58 0.0000000000000000e+00 0.0000000000000000e+00 0.0000000000000000e+00
59 0.0000000000000000e+00 0.0000000000000000e+00 0.0000000000000000e+00
60 0.0000000000000000e+00 0.0000000000000000e+00 0.0000000000000000e+00
61 0.0000000000000000e+00 0.0000000000000000e+00 0.0000000000000000e+00
62 0.0000000000000000e+00 0.0000000000000000e+00 0.0000000000000000e+00
63 0.0000000000000000e+00 0.0000000000000000e+00 0.0000000000000000e+00
64 0.0000000000000000e+00 0.0000000000000000e+00 0.0000000000000000e+00
65 0.0000000000000000e+00 0.0000000000000000e+00 0.0000000000000000e+00
66 0.0000000000000000e+00 0.0000000000000000e+00 0.0000000000000000e+00
67 0.0000000000000000e+00 0.0000000000000000e+00 0.0000000000000000e+00
68 0.0000000000000000e+00 0.0000000000000000e+00 0.0000000000000000e+00
69 0.0000000000000000e+00 0.0000000000000000e+00 0.0000000000000000e+00
70 0.0000000000000000e+00 0.0000000000000000e+00 0.0000000000000000e+00
71 0.0000000000000000e+00 0.0000000000000000e+00 0.0000000000000000e+00
72 0.0000000000000000e+00 0.0000000000000000e+00 0.0000000000000000e+00
