       N       E                     dE             d eps       ncg     rms          rms(c)
DAV:   1     0.981478011369E+04    0.98148E+04   -0.50783E+05  1168   0.164E+03
DAV:   2     0.625285469882E+03   -0.91895E+04   -0.88548E+04  1016   0.526E+02
DAV:   3    -0.341314764453E+03   -0.96660E+03   -0.91101E+03  1120   0.182E+02
DAV:   4    -0.404524406319E+03   -0.63210E+02   -0.62421E+02  1160   0.407E+01
DAV:   5    -0.406683840677E+03   -0.21594E+01   -0.21563E+01  1208   0.800E+00    0.823E+01
DAV:   6    -0.494831154112E+03   -0.88147E+02   -0.97242E+02  1168   0.118E+02    0.159E+02
DAV:   7    -0.376333389625E+03    0.11850E+03   -0.17691E+02  1120   0.644E+01    0.628E+01
DAV:   8    -0.447737740867E+03   -0.71404E+02   -0.15871E+02  1352   0.754E+01    0.158E+02
DAV:   9    -0.383292148568E+03    0.64446E+02   -0.10425E+02  1208   0.456E+01    0.101E+02
DAV:  10    -0.373974849293E+03    0.93173E+01   -0.65127E+01  1296   0.312E+01    0.499E+01
DAV:  11    -0.380211929828E+03   -0.62371E+01   -0.36735E+01  1312   0.409E+01    0.762E+01
DAV:  12    -0.366643396180E+03    0.13569E+02   -0.50305E+01  1296   0.368E+01    0.394E+01
DAV:  13    -0.363961968191E+03    0.26814E+01   -0.20374E+01  1304   0.288E+01    0.348E+01
DAV:  14    -0.359807701676E+03    0.41543E+01   -0.10947E+01  1280   0.214E+01    0.238E+01
DAV:  15    -0.358298180914E+03    0.15095E+01   -0.44035E+00  1192   0.138E+01    0.181E+01
DAV:  16    -0.357452213839E+03    0.84597E+00   -0.15155E+00  1280   0.731E+00    0.145E+01
DAV:  17    -0.357113533896E+03    0.33868E+00   -0.80963E-01  1232   0.558E+00    0.130E+01
DAV:  18    -0.356842245667E+03    0.27129E+00   -0.62388E-01  1320   0.479E+00    0.117E+01
DAV:  19    -0.356489223013E+03    0.35302E+00   -0.37189E-01  1288   0.396E+00    0.907E+00
DAV:  20    -0.356403392091E+03    0.85831E-01   -0.37049E-01  1288   0.377E+00    0.846E+00
DAV:  21    -0.356163921037E+03    0.23947E+00   -0.18802E-01  1288   0.241E+00    0.595E+00
DAV:  22    -0.356139275628E+03    0.24645E-01   -0.22222E-01  1312   0.302E+00    0.564E+00
DAV:  23    -0.356028763420E+03    0.11051E+00   -0.25332E-01  1392   0.314E+00    0.284E+00
DAV:  24    -0.356028769951E+03   -0.65317E-05   -0.18241E-01  1160   0.225E+00    0.336E+00
DAV:  25    -0.355998258868E+03    0.30511E-01   -0.86171E-02  1176   0.129E+00    0.174E+00
DAV:  26    -0.356003496034E+03   -0.52372E-02   -0.47257E-02  1304   0.144E+00    0.183E+00
DAV:  27    -0.356000243876E+03    0.32522E-02   -0.39440E-02  1344   0.114E+00    0.151E+00
DAV:  28    -0.355995485196E+03    0.47587E-02   -0.22500E-02  1288   0.116E+00    0.938E-01
DAV:  29    -0.355995537891E+03   -0.52695E-04   -0.12833E-02  1256   0.777E-01    0.980E-01
DAV:  30    -0.355992385620E+03    0.31523E-02   -0.59620E-03  1216   0.581E-01    0.494E-01
DAV:  31    -0.355992626565E+03   -0.24095E-03   -0.26481E-03  1240   0.331E-01    0.444E-01
DAV:  32    -0.355992225410E+03    0.40116E-03   -0.13458E-03  1024   0.258E-01    0.203E-01
DAV:  33    -0.355992604544E+03   -0.37913E-03   -0.64975E-04   944   0.178E-01    0.265E-01
DAV:  34    -0.355992681923E+03   -0.77379E-04   -0.51869E-04   872   0.178E-01
   1 F= -.35599268E+03 E0= -.35539032E+03  d E =-.120473E+01
