<?xml version="1.0" encoding="ISO-8859-1"?>
<modeling>
 <generator>
  <i name="program" type="string">vasp </i>
  <i name="version" type="string">6.1.0  </i>
  <i name="subversion" type="string">28Jan20 (build Mar 31 2020 17:42:31) gamma-only                       parallel </i>
  <i name="platform" type="string">LinuxIFC </i>
  <i name="date" type="string">2020 04 12 </i>
  <i name="time" type="string">09:59:45 </i>
 </generator>
 <incar>
  <i type="string" name="SYSTEM">"Millerite NiS"</i>
  <i type="int" name="NSIM">     4</i>
  <i type="int" name="NELM">   100</i>
  <i name="ENCUT">    450.00000000</i>
  <i type="string" name="LREAL">A</i>
  <i type="int" name="ISMEAR">     0</i>
  <i type="int" name="NWRITE">     2</i>
  <i type="logical" name="LWAVE"> F  </i>
  <i type="logical" name="LCHARG"> F  </i>
  <i type="int" name="NCORE">     6</i>
  <i type="int" name="NELM">   100</i>
 </incar>
 <structure name="primitive_cell" >
  <crystal>
   <varray name="basis" >
    <v>      16.88469405       0.00000000       0.00000000 </v>
    <v>       0.00000000       9.57841000       0.00000000 </v>
    <v>       0.00000000       0.00000000      16.16908712 </v>
   </varray>
   <i name="volume">   2615.00256803 </i>
   <varray name="rec_basis" >
    <v>       0.05922524       0.00000000       0.00000000 </v>
    <v>       0.00000000       0.10440146       0.00000000 </v>
    <v>       0.00000000       0.00000000       0.06184641 </v>
   </varray>
  </crystal>
  <varray name="positions" >
   <v>       0.78004631       0.14529695       0.12058499 </v>
   <v>       0.81461426       0.14529695       0.31135294 </v>
   <v>       0.26276233       0.64529695       0.02520102 </v>
   <v>       0.29733029       0.64529695       0.21596897 </v>
   <v>       0.43519032       0.14529695       0.05699568 </v>
   <v>       0.46975828       0.14529695       0.24776362 </v>
   <v>       0.95247430       0.64529695       0.15237965 </v>
   <v>       0.98704226       0.64529695       0.34314760 </v>
   <v>       0.12490229       0.14529695       0.18417431 </v>
   <v>       0.15947025       0.14529695       0.37494226 </v>
   <v>       0.60761831       0.64529695       0.08879033 </v>
   <v>       0.64218627       0.64529695       0.27955828 </v>
   <v>       0.90758278       0.01319395       0.09538397 </v>
   <v>       0.94215073       0.01319395       0.28615192 </v>
   <v>       0.42486675       0.51319395       0.19076795 </v>
   <v>       0.45943471       0.51319395       0.38153589 </v>
   <v>       0.59729475       0.01319395       0.22256261 </v>
   <v>       0.08001077       0.51319395       0.12717863 </v>
   <v>       0.11457873       0.51319395       0.31794658 </v>
   <v>       0.25243876       0.01319395       0.15897329 </v>
   <v>       0.28700672       0.01319395       0.34974124 </v>
   <v>       0.73515478       0.51319395       0.06358932 </v>
   <v>       0.76972274       0.51319395       0.25435726 </v>
   <v>       0.90758278       0.27739995       0.09538397 </v>
   <v>       0.94215073       0.27739995       0.28615192 </v>
   <v>       0.39029880       0.77739995       0.00000000 </v>
   <v>       0.42486675       0.77739995       0.19076795 </v>
   <v>       0.45943471       0.77739995       0.38153589 </v>
   <v>       0.56272679       0.27739995       0.03179466 </v>
   <v>       0.59729475       0.27739995       0.22256261 </v>
   <v>       0.08001077       0.77739995       0.12717863 </v>
   <v>       0.11457873       0.77739995       0.31794658 </v>
   <v>       0.25243876       0.27739995       0.15897329 </v>
   <v>       0.28700672       0.27739995       0.34974124 </v>
   <v>       0.73515478       0.77739995       0.06358932 </v>
   <v>       0.76972274       0.77739995       0.25435726 </v>
   <v>       0.02602916       0.14529695       0.37317765 </v>
   <v>       0.99146121       0.14529695       0.18240970 </v>
   <v>       0.47417723       0.64529695       0.08702573 </v>
   <v>       0.50874518       0.64529695       0.27779368 </v>
   <v>       0.64660522       0.14529695       0.11882039 </v>
   <v>       0.68117318       0.14529695       0.30958834 </v>
   <v>       0.12932124       0.64529695       0.02343641 </v>
   <v>       0.16388920       0.64529695       0.21420436 </v>
   <v>       0.30174923       0.14529695       0.05523107 </v>
   <v>       0.33631719       0.14529695       0.24599902 </v>
   <v>       0.81903321       0.64529695       0.15061505 </v>
   <v>       0.85360117       0.64529695       0.34138299 </v>
   <v>       0.79449310       0.31351195       0.02373179 </v>
   <v>       0.82906105       0.31351195       0.21449973 </v>
   <v>       0.31177708       0.81351195       0.11911576 </v>
   <v>       0.34634503       0.81351195       0.30988371 </v>
   <v>       0.48420507       0.31351195       0.15091042 </v>
   <v>       0.51877303       0.31351195       0.34167837 </v>
   <v>       0.00148905       0.81351195       0.24629439 </v>
   <v>       0.96692109       0.81351195       0.05552644 </v>
   <v>       0.13934908       0.31351195       0.08732110 </v>
   <v>       0.17391704       0.31351195       0.27808905 </v>
   <v>       0.65663306       0.81351195       0.18270508 </v>
   <v>       0.69120102       0.81351195       0.37347302 </v>
   <v>       0.31177708       0.47708195       0.11911576 </v>
   <v>       0.34634503       0.47708195       0.30988371 </v>
   <v>       0.79449310       0.97708195       0.02373179 </v>
   <v>       0.82906105       0.97708195       0.21449973 </v>
   <v>       0.00148905       0.47708195       0.24629439 </v>
   <v>       0.96692109       0.47708195       0.05552644 </v>
   <v>       0.48420507       0.97708195       0.15091042 </v>
   <v>       0.51877303       0.97708195       0.34167837 </v>
   <v>       0.65663306       0.47708195       0.18270508 </v>
   <v>       0.69120102       0.47708195       0.37347302 </v>
   <v>       0.13934908       0.97708195       0.08732110 </v>
   <v>       0.17391704       0.97708195       0.27808905 </v>
  </varray>
 </structure>
 <varray name="primitive_index" >
  <v type="int" >        1 </v>
  <v type="int" >        2 </v>
  <v type="int" >        3 </v>
  <v type="int" >        4 </v>
  <v type="int" >        5 </v>
  <v type="int" >        6 </v>
  <v type="int" >        7 </v>
  <v type="int" >        8 </v>
  <v type="int" >        9 </v>
  <v type="int" >       10 </v>
  <v type="int" >       11 </v>
  <v type="int" >       12 </v>
  <v type="int" >       13 </v>
  <v type="int" >       14 </v>
  <v type="int" >       15 </v>
  <v type="int" >       16 </v>
  <v type="int" >       17 </v>
  <v type="int" >       18 </v>
  <v type="int" >       19 </v>
  <v type="int" >       20 </v>
  <v type="int" >       21 </v>
  <v type="int" >       22 </v>
  <v type="int" >       23 </v>
  <v type="int" >       24 </v>
  <v type="int" >       25 </v>
  <v type="int" >       26 </v>
  <v type="int" >       27 </v>
  <v type="int" >       28 </v>
  <v type="int" >       29 </v>
  <v type="int" >       30 </v>
  <v type="int" >       31 </v>
  <v type="int" >       32 </v>
  <v type="int" >       33 </v>
  <v type="int" >       34 </v>
  <v type="int" >       35 </v>
  <v type="int" >       36 </v>
  <v type="int" >       37 </v>
  <v type="int" >       38 </v>
  <v type="int" >       39 </v>
  <v type="int" >       40 </v>
  <v type="int" >       41 </v>
  <v type="int" >       42 </v>
  <v type="int" >       43 </v>
  <v type="int" >       44 </v>
  <v type="int" >       45 </v>
  <v type="int" >       46 </v>
  <v type="int" >       47 </v>
  <v type="int" >       48 </v>
  <v type="int" >       49 </v>
  <v type="int" >       50 </v>
  <v type="int" >       51 </v>
  <v type="int" >       52 </v>
  <v type="int" >       53 </v>
  <v type="int" >       54 </v>
  <v type="int" >       55 </v>
  <v type="int" >       56 </v>
  <v type="int" >       57 </v>
  <v type="int" >       58 </v>
  <v type="int" >       59 </v>
  <v type="int" >       60 </v>
  <v type="int" >       61 </v>
  <v type="int" >       62 </v>
  <v type="int" >       63 </v>
  <v type="int" >       64 </v>
  <v type="int" >       65 </v>
  <v type="int" >       66 </v>
  <v type="int" >       67 </v>
  <v type="int" >       68 </v>
  <v type="int" >       69 </v>
  <v type="int" >       70 </v>
  <v type="int" >       71 </v>
  <v type="int" >       72 </v>
 </varray>
 <kpoints>
  <generation param="Gamma">
   <v type="int" name="divisions">       1        1        1 </v>
   <v name="usershift">      0.00000000       0.00000000       0.00000000 </v>
   <v name="genvec1">      1.00000000       0.00000000       0.00000000 </v>
   <v name="genvec2">      0.00000000       1.00000000       0.00000000 </v>
   <v name="genvec3">      0.00000000       0.00000000       1.00000000 </v>
   <v name="shift">      0.00000000       0.00000000       0.00000000 </v>
  </generation>
  <varray name="kpointlist" >
   <v>       0.00000000       0.00000000       0.00000000 </v>
  </varray>
  <varray name="weights" >
   <v>       1.00000000 </v>
  </varray>
 </kpoints>
 <parameters>
  <separator name="general" >
   <i type="string" name="SYSTEM">"Millerite NiS"</i>
   <i type="logical" name="LCOMPAT"> F  </i>
  </separator>
  <separator name="electronic" >
   <i type="string" name="PREC">normal</i>
   <i name="ENMAX">    450.00000000</i>
   <i name="ENAUG">    703.44300000</i>
   <i name="EDIFF">      0.00010000</i>
   <i type="int" name="IALGO">    38</i>
   <i type="int" name="IWAVPR">    10</i>
   <i type="int" name="NBANDS">   480</i>
   <i type="int" name="NBANDSLOW">    -1</i>
   <i type="int" name="NBANDSHIGH">    -1</i>
   <i name="NELECT">    792.00000000</i>
   <i type="int" name="TURBO">     0</i>
   <i type="int" name="IRESTART">     0</i>
   <i type="int" name="NREBOOT">     0</i>
   <i type="int" name="NMIN">     0</i>
   <i name="EREF">      0.00000000</i>
   <separator name="electronic smearing" >
    <i type="int" name="ISMEAR">     0</i>
    <i name="SIGMA">      0.20000000</i>
    <i name="KSPACING">      0.50000000</i>
    <i type="logical" name="KGAMMA"> T  </i>
    <i type="logical" name="KBLOWUP"> T  </i>
   </separator>
   <separator name="electronic projectors" >
    <i type="logical" name="LREAL"> T  </i>
    <v name="ROPT">     -0.00050000     -0.00050000</v>
    <i type="int" name="LMAXPAW">  -100</i>
    <i type="int" name="LMAXMIX">     2</i>
    <i type="logical" name="NLSPLINE"> F  </i>
   </separator>
   <separator name="electronic startup" >
    <i type="int" name="ISTART">     0</i>
    <i type="int" name="ICHARG">     2</i>
    <i type="int" name="INIWAV">     1</i>
   </separator>
   <separator name="electronic spin" >
    <i type="int" name="ISPIN">     1</i>
    <i type="logical" name="LNONCOLLINEAR"> F  </i>
    <v name="MAGMOM">      1.00000000      1.00000000      1.00000000      1.00000000      1.00000000      1.00000000      1.00000000      1.00000000      1.00000000      1.00000000      1.00000000      1.00000000      1.00000000      1.00000000      1.00000000      1.00000000      1.00000000      1.00000000      1.00000000      1.00000000
      1.00000000      1.00000000      1.00000000      1.00000000      1.00000000      1.00000000      1.00000000      1.00000000      1.00000000      1.00000000      1.00000000      1.00000000      1.00000000      1.00000000      1.00000000      1.00000000      1.00000000      1.00000000      1.00000000      1.00000000
      1.00000000      1.00000000      1.00000000      1.00000000      1.00000000      1.00000000      1.00000000      1.00000000      1.00000000      1.00000000      1.00000000      1.00000000      1.00000000      1.00000000      1.00000000      1.00000000      1.00000000      1.00000000      1.00000000      1.00000000
      1.00000000      1.00000000      1.00000000      1.00000000      1.00000000      1.00000000      1.00000000      1.00000000      1.00000000      1.00000000      1.00000000      1.00000000</v>
    <i name="NUPDOWN">     -1.00000000</i>
    <i type="logical" name="LSORBIT"> F  </i>
    <v name="SAXIS">      0.00000000      0.00000000      1.00000000</v>
    <i type="logical" name="LSPIRAL"> F  </i>
    <v name="QSPIRAL">      0.00000000      0.00000000      0.00000000</v>
    <i type="logical" name="LZEROZ"> F  </i>
   </separator>
   <separator name="electronic exchange-correlation" >
    <i type="logical" name="LASPH"> F  </i>
    <i type="logical" name="LMETAGGA"> F  </i>
   </separator>
   <separator name="electronic convergence" >
    <i type="int" name="NELM">   100</i>
    <i type="int" name="NELMDL">    -5</i>
    <i type="int" name="NELMIN">     2</i>
    <i name="ENINI">    450.00000000</i>
    <separator name="electronic convergence detail" >
     <i type="logical" name="LDIAG"> T  </i>
     <i type="logical" name="LSUBROT"> F  </i>
     <i name="WEIMIN">      0.00000000</i>
     <i name="EBREAK">      0.00000005</i>
     <i name="DEPER">      0.30000000</i>
     <i type="int" name="NRMM">     4</i>
     <i name="TIME">      0.40000000</i>
    </separator>
   </separator>
   <separator name="electronic mixer" >
    <i name="AMIX">      0.40000000</i>
    <i name="BMIX">      1.00000000</i>
    <i name="AMIN">      0.10000000</i>
    <i name="AMIX_MAG">      1.60000000</i>
    <i name="BMIX_MAG">      1.00000000</i>
    <separator name="electronic mixer details" >
     <i type="int" name="IMIX">     4</i>
     <i type="logical" name="MIXFIRST"> F  </i>
     <i type="int" name="MAXMIX">   -45</i>
     <i name="WC">    100.00000000</i>
     <i type="int" name="INIMIX">     1</i>
     <i type="int" name="MIXPRE">     1</i>
     <i type="int" name="MREMOVE">     5</i>
    </separator>
   </separator>
   <separator name="electronic dipolcorrection" >
    <i type="logical" name="LDIPOL"> F  </i>
    <i type="logical" name="LMONO"> F  </i>
    <i type="int" name="IDIPOL">     0</i>
    <i name="EPSILON">      1.00000000</i>
    <v name="DIPOL">   -100.00000000   -100.00000000   -100.00000000</v>
    <i name="EFIELD">      0.00000000</i>
   </separator>
  </separator>
  <separator name="grids" >
   <i type="int" name="NGX">    90</i>
   <i type="int" name="NGY">    50</i>
   <i type="int" name="NGZ">    84</i>
   <i type="int" name="NGXF">   180</i>
   <i type="int" name="NGYF">   100</i>
   <i type="int" name="NGZF">   168</i>
   <i type="logical" name="ADDGRID"> F  </i>
  </separator>
  <separator name="ionic" >
   <i type="int" name="NSW">     0</i>
   <i type="int" name="IBRION">    -1</i>
   <i type="int" name="MDALGO">     0</i>
   <i type="int" name="ISIF">     2</i>
   <i name="PSTRESS">      0.00000000</i>
   <i name="EDIFFG">      0.00100000</i>
   <i type="int" name="NFREE">     0</i>
   <i name="POTIM">      0.50000000</i>
   <i name="SMASS">     -3.00000000</i>
   <i name="SCALEE">      1.00000000</i>
  </separator>
  <separator name="ionic md" >
   <i name="TEBEG">      0.00010000</i>
   <i name="TEEND">      0.00010000</i>
   <i type="int" name="NBLOCK">     1</i>
   <i type="int" name="KBLOCK">     1</i>
   <i type="int" name="NPACO">   256</i>
   <i name="APACO">     16.00000000</i>
  </separator>
  <separator name="symmetry" >
   <i type="int" name="ISYM">     2</i>
   <i name="SYMPREC">      0.00001000</i>
  </separator>
  <separator name="dos" >
   <i type="int" name="LORBIT">     0</i>
   <v name="RWIGS">     -1.00000000     -1.00000000</v>
   <i type="int" name="NEDOS">   301</i>
   <i name="EMIN">     10.00000000</i>
   <i name="EMAX">    -10.00000000</i>
   <i name="EFERMI">      0.00000000</i>
  </separator>
  <separator name="writing" >
   <i type="int" name="NWRITE">     2</i>
   <i type="logical" name="LWAVE"> F  </i>
   <i type="logical" name="LDOWNSAMPLE"> F  </i>
   <i type="logical" name="LCHARG"> F  </i>
   <i type="logical" name="LPARD"> F  </i>
   <i type="logical" name="LVTOT"> F  </i>
   <i type="logical" name="LVHAR"> F  </i>
   <i type="logical" name="LELF"> F  </i>
   <i type="logical" name="LOPTICS"> F  </i>
   <v name="STM">      0.00000000      0.00000000      0.00000000      0.00000000      0.00000000      0.00000000      0.00000000</v>
  </separator>
  <separator name="performance" >
   <i type="int" name="NPAR">     8</i>
   <i type="int" name="NSIM">     4</i>
   <i type="int" name="NBLK">    -1</i>
   <i type="logical" name="LPLANE"> T  </i>
   <i type="logical" name="LSCALAPACK"> T  </i>
   <i type="logical" name="LSCAAWARE"> F  </i>
   <i type="logical" name="LSCALU"> F  </i>
   <i type="logical" name="LASYNC"> F  </i>
   <i type="logical" name="LORBITALREAL"> F  </i>
  </separator>
  <separator name="miscellaneous" >
   <i type="int" name="IDIOT">     3</i>
   <i type="int" name="PHON_NSTRUCT">    -1</i>
   <i type="logical" name="LMUSIC"> F  </i>
   <v name="POMASS">     58.69000000     32.06600000</v>
   <v name="DARWINR">      0.00000000      0.00000000</v>
   <v name="DARWINV">      1.00000000      1.00000000</v>
   <i type="logical" name="LCORR"> T  </i>
  </separator>
  <i type="logical" name="GGA_COMPAT"> T  </i>
  <i type="logical" name="LBERRY"> F  </i>
  <i type="int" name="ICORELEVEL">     0</i>
  <i type="logical" name="LDAU"> F  </i>
  <i type="int" name="I_CONSTRAINED_M">     0</i>
  <separator name="electronic exchange-correlation" >
   <i type="string" name="GGA">--</i>
   <i type="int" name="VOSKOWN">     0</i>
   <i type="logical" name="LHFCALC"> F  </i>
   <i type="string" name="PRECFOCK"></i>
   <i type="logical" name="LSYMGRAD"> F  </i>
   <i type="logical" name="LHFONE"> F  </i>
   <i type="logical" name="LRHFCALC"> F  </i>
   <i type="logical" name="LTHOMAS"> F  </i>
   <i type="logical" name="LMODELHF"> F  </i>
   <i type="logical" name="LFOCKACE"> F  </i>
   <i name="ENCUT4O">     -1.00000000</i>
   <i type="int" name="EXXOEP">     0</i>
   <i type="int" name="FOURORBIT">     0</i>
   <i name="AEXX">      0.00000000</i>
   <i name="HFALPHA">      0.00000000</i>
   <i name="MCALPHA">      0.00000000</i>
   <i name="ALDAX">      1.00000000</i>
   <i name="AGGAX">      1.00000000</i>
   <i name="ALDAC">      1.00000000</i>
   <i name="AGGAC">      1.00000000</i>
   <i type="int" name="NKREDX">     1</i>
   <i type="int" name="NKREDY">     1</i>
   <i type="int" name="NKREDZ">     1</i>
   <i type="logical" name="SHIFTRED"> F  </i>
   <i type="logical" name="ODDONLY"> F  </i>
   <i type="logical" name="EVENONLY"> F  </i>
   <i type="int" name="LMAXFOCK">     0</i>
   <i type="int" name="NMAXFOCKAE">     0</i>
   <i type="logical" name="LFOCKAEDFT"> F  </i>
   <i name="HFSCREEN">      0.00000000</i>
   <i name="HFSCREENC">      0.00000000</i>
   <i type="int" name="NBANDSGWLOW">     0</i>
  </separator>
  <separator name="vdW DFT" >
   <i type="logical" name="LUSE_VDW"> F  </i>
   <i name="Zab_VDW">     -0.84910000</i>
   <i name="PARAM1">      0.12340000</i>
   <i name="PARAM2">      1.00000000</i>
   <i name="PARAM3">      0.00000000</i>
  </separator>
  <separator name="model GW" >
   <i type="int" name="MODEL_GW">     0</i>
   <i name="MODEL_EPS0">     21.79168807</i>
   <i name="MODEL_ALPHA">      1.00000000</i>
  </separator>
  <separator name="linear response parameters" >
   <i type="logical" name="LEPSILON"> F  </i>
   <i type="logical" name="LRPA"> F  </i>
   <i type="logical" name="LNABLA"> F  </i>
   <i type="logical" name="LVEL"> F  </i>
   <i type="int" name="KINTER">     0</i>
   <i name="CSHIFT">      0.10000000</i>
   <i name="OMEGAMAX">     -1.00000000</i>
   <i name="DEG_THRESHOLD">      0.00200000</i>
   <i name="RTIME">     -0.10000000</i>
   <i name="WPLASMAI">      0.00000000</i>
   <v name="DFIELD">      0.00000000      0.00000000      0.00000000</v>
   <v name="WPLASMA">      0.00000000      0.00000000      0.00000000      0.00000000      0.00000000      0.00000000      0.00000000      0.00000000      0.00000000</v>
  </separator>
  <separator name="orbital magnetization" >
   <i type="logical" name="NUCIND"> F  </i>
   <v name="MAGPOS">      0.00000000      0.00000000      0.00000000</v>
   <i type="logical" name="LNICSALL"> T  </i>
   <i type="logical" name="ORBITALMAG"> F  </i>
   <i type="logical" name="LMAGBLOCH"> F  </i>
   <i type="logical" name="LCHIMAG"> F  </i>
   <i type="logical" name="LGAUGE"> T  </i>
   <i type="int" name="MAGATOM">     0</i>
   <v name="MAGDIPOL">      0.00000000      0.00000000      0.00000000</v>
   <v name="AVECCONST">      0.00000000      0.00000000      0.00000000</v>
  </separator>
  <separator name="response functions" >
   <i type="logical" name="LFINITE_TEMPERATURE"> F  </i>
   <i type="logical" name="LADDER"> F  </i>
   <i type="logical" name="LRPAFORCE"> F  </i>
   <i type="logical" name="LFXC"> F  </i>
   <i type="logical" name="LHARTREE"> T  </i>
   <i type="int" name="IBSE">     0</i>
   <v type="int" name="KPOINT">    -1     0     0     0</v>
   <i type="logical" name="LTCTC"> F  </i>
   <i type="logical" name="LTCTE"> F  </i>
   <i type="logical" name="LTETE"> F  </i>
   <i type="logical" name="LTRIPLET"> F  </i>
   <i type="logical" name="LFXCEPS"> F  </i>
   <i type="logical" name="LFXHEG"> F  </i>
   <i type="int" name="NATURALO">     2</i>
   <i type="logical" name="LHOLEGF"> F  </i>
   <i type="logical" name="L2ORDER"> F  </i>
   <i type="logical" name="LDMP1"> F  </i>
   <i type="logical" name="LMP2LT"> F  </i>
   <i type="logical" name="LSMP2LT"> F  </i>
   <i type="logical" name="LGWLF"> F  </i>
   <i name="ENCUTGW">     -2.00000000</i>
   <i name="ENCUTGWSOFT">     -2.00000000</i>
   <i name="ENCUTLF">     -1.00000000</i>
   <i type="logical" name="LESF_SPLINES"> F  </i>
   <i type="int" name="LMAXMP2">    -1</i>
   <i name="SCISSOR">      0.00000000</i>
   <i type="int" name="NOMEGA">     0</i>
   <i type="int" name="NOMEGAR">     0</i>
   <i type="int" name="NBANDSGW">    -1</i>
   <i type="int" name="NBANDSO">    -1</i>
   <i type="int" name="NBANDSV">    -1</i>
   <i type="int" name="NELM">   100</i>
   <i type="int" name="NELMHF">     1</i>
   <i type="int" name="DIM">     3</i>
   <i type="int" name="IESPILON">     4</i>
   <i type="int" name="ANTIRES">     0</i>
   <i name="OMEGAMAX">    -30.00000000</i>
   <i name="OMEGAMIN">    -30.00000000</i>
   <i name="OMEGATL">   -200.00000000</i>
   <i type="int" name="OMEGAGRID">     0</i>
   <i name="CSHIFT">     -0.10000000</i>
   <i type="logical" name="LSELFENERGY"> F  </i>
   <i type="logical" name="LSPECTRAL"> F  </i>
   <i type="logical" name="LSPECTRALGW"> F  </i>
   <i type="logical" name="LSINGLES"> F  </i>
   <i type="logical" name="LFERMIGW"> F  </i>
   <i type="logical" name="ODDONLYGW"> F  </i>
   <i type="logical" name="EVENONLYGW"> F  </i>
   <i type="int" name="NKREDLFX">     1</i>
   <i type="int" name="NKREDLFY">     1</i>
   <i type="int" name="NKREDLFZ">     1</i>
   <i type="int" name="MAXMEM">  2800</i>
   <i type="int" name="TELESCOPE">     0</i>
   <i type="int" name="NTAUPAR">    -1</i>
   <i type="int" name="NOMEGAPAR">    -1</i>
   <i name="LAMBDA">      1.00000000</i>
  </separator>
  <separator name="External order field" >
   <i name="OFIELD_KAPPA">      0.00000000</i>
   <v name="OFIELD_K">      0.00000000      0.00000000      0.00000000</v>
   <i name="OFIELD_Q6_NEAR">      0.00000000</i>
   <i name="OFIELD_Q6_FAR">      0.00000000</i>
   <i name="OFIELD_A">      0.00000000</i>
  </separator>
 </parameters>
 <atominfo>
  <atoms>      72 </atoms>
  <types>       2 </types>
  <array name="atoms" >
   <dimension dim="1">ion</dimension>
   <field type="string">element</field>
   <field type="int">atomtype</field>
   <set>
    <rc><c>Ni</c><c>   1</c></rc>
    <rc><c>Ni</c><c>   1</c></rc>
    <rc><c>Ni</c><c>   1</c></rc>
    <rc><c>Ni</c><c>   1</c></rc>
    <rc><c>Ni</c><c>   1</c></rc>
    <rc><c>Ni</c><c>   1</c></rc>
    <rc><c>Ni</c><c>   1</c></rc>
    <rc><c>Ni</c><c>   1</c></rc>
    <rc><c>Ni</c><c>   1</c></rc>
    <rc><c>Ni</c><c>   1</c></rc>
    <rc><c>Ni</c><c>   1</c></rc>
    <rc><c>Ni</c><c>   1</c></rc>
    <rc><c>Ni</c><c>   1</c></rc>
    <rc><c>Ni</c><c>   1</c></rc>
    <rc><c>Ni</c><c>   1</c></rc>
    <rc><c>Ni</c><c>   1</c></rc>
    <rc><c>Ni</c><c>   1</c></rc>
    <rc><c>Ni</c><c>   1</c></rc>
    <rc><c>Ni</c><c>   1</c></rc>
    <rc><c>Ni</c><c>   1</c></rc>
    <rc><c>Ni</c><c>   1</c></rc>
    <rc><c>Ni</c><c>   1</c></rc>
    <rc><c>Ni</c><c>   1</c></rc>
    <rc><c>Ni</c><c>   1</c></rc>
    <rc><c>Ni</c><c>   1</c></rc>
    <rc><c>Ni</c><c>   1</c></rc>
    <rc><c>Ni</c><c>   1</c></rc>
    <rc><c>Ni</c><c>   1</c></rc>
    <rc><c>Ni</c><c>   1</c></rc>
    <rc><c>Ni</c><c>   1</c></rc>
    <rc><c>Ni</c><c>   1</c></rc>
    <rc><c>Ni</c><c>   1</c></rc>
    <rc><c>Ni</c><c>   1</c></rc>
    <rc><c>Ni</c><c>   1</c></rc>
    <rc><c>Ni</c><c>   1</c></rc>
    <rc><c>Ni</c><c>   1</c></rc>
    <rc><c>S </c><c>   2</c></rc>
    <rc><c>S </c><c>   2</c></rc>
    <rc><c>S </c><c>   2</c></rc>
    <rc><c>S </c><c>   2</c></rc>
    <rc><c>S </c><c>   2</c></rc>
    <rc><c>S </c><c>   2</c></rc>
    <rc><c>S </c><c>   2</c></rc>
    <rc><c>S </c><c>   2</c></rc>
    <rc><c>S </c><c>   2</c></rc>
    <rc><c>S </c><c>   2</c></rc>
    <rc><c>S </c><c>   2</c></rc>
    <rc><c>S </c><c>   2</c></rc>
    <rc><c>S </c><c>   2</c></rc>
    <rc><c>S </c><c>   2</c></rc>
    <rc><c>S </c><c>   2</c></rc>
    <rc><c>S </c><c>   2</c></rc>
    <rc><c>S </c><c>   2</c></rc>
    <rc><c>S </c><c>   2</c></rc>
    <rc><c>S </c><c>   2</c></rc>
    <rc><c>S </c><c>   2</c></rc>
    <rc><c>S </c><c>   2</c></rc>
    <rc><c>S </c><c>   2</c></rc>
    <rc><c>S </c><c>   2</c></rc>
    <rc><c>S </c><c>   2</c></rc>
    <rc><c>S </c><c>   2</c></rc>
    <rc><c>S </c><c>   2</c></rc>
    <rc><c>S </c><c>   2</c></rc>
    <rc><c>S </c><c>   2</c></rc>
    <rc><c>S </c><c>   2</c></rc>
    <rc><c>S </c><c>   2</c></rc>
    <rc><c>S </c><c>   2</c></rc>
    <rc><c>S </c><c>   2</c></rc>
    <rc><c>S </c><c>   2</c></rc>
    <rc><c>S </c><c>   2</c></rc>
    <rc><c>S </c><c>   2</c></rc>
    <rc><c>S </c><c>   2</c></rc>
   </set>
  </array>
  <array name="atomtypes" >
   <dimension dim="1">type</dimension>
   <field type="int">atomspertype</field>
   <field type="string">element</field>
   <field>mass</field>
   <field>valence</field>
   <field type="string">pseudopotential</field>
   <set>
    <rc><c>  36</c><c>Ni</c><c>     58.69000000</c><c>     16.00000000</c><c>  PAW_PBE Ni_pv 06Sep2000               </c></rc>
    <rc><c>  36</c><c>S </c><c>     32.06600000</c><c>      6.00000000</c><c>  PAW_PBE S 06Sep2000                   </c></rc>
   </set>
  </array>
 </atominfo>
 <structure name="initialpos" >
  <crystal>
   <varray name="basis" >
    <v>      16.88469405       0.00000000       0.00000000 </v>
    <v>       0.00000000       9.57841000       0.00000000 </v>
    <v>       0.00000000       0.00000000      16.16908712 </v>
   </varray>
   <i name="volume">   2615.00256803 </i>
   <varray name="rec_basis" >
    <v>       0.05922524       0.00000000       0.00000000 </v>
    <v>       0.00000000       0.10440146       0.00000000 </v>
    <v>       0.00000000       0.00000000       0.06184641 </v>
   </varray>
  </crystal>
  <varray name="positions" >
   <v>       0.78004631       0.14529695       0.12058499 </v>
   <v>       0.81461426       0.14529695       0.31135294 </v>
   <v>       0.26276233       0.64529695       0.02520102 </v>
   <v>       0.29733029       0.64529695       0.21596897 </v>
   <v>       0.43519032       0.14529695       0.05699568 </v>
   <v>       0.46975828       0.14529695       0.24776362 </v>
   <v>       0.95247430       0.64529695       0.15237965 </v>
   <v>       0.98704226       0.64529695       0.34314760 </v>
   <v>       0.12490229       0.14529695       0.18417431 </v>
   <v>       0.15947025       0.14529695       0.37494226 </v>
   <v>       0.60761831       0.64529695       0.08879033 </v>
   <v>       0.64218627       0.64529695       0.27955828 </v>
   <v>       0.90758278       0.01319395       0.09538397 </v>
   <v>       0.94215073       0.01319395       0.28615192 </v>
   <v>       0.42486675       0.51319395       0.19076795 </v>
   <v>       0.45943471       0.51319395       0.38153589 </v>
   <v>       0.59729475       0.01319395       0.22256261 </v>
   <v>       0.08001077       0.51319395       0.12717863 </v>
   <v>       0.11457873       0.51319395       0.31794658 </v>
   <v>       0.25243876       0.01319395       0.15897329 </v>
   <v>       0.28700672       0.01319395       0.34974124 </v>
   <v>       0.73515478       0.51319395       0.06358932 </v>
   <v>       0.76972274       0.51319395       0.25435726 </v>
   <v>       0.90758278       0.27739995       0.09538397 </v>
   <v>       0.94215073       0.27739995       0.28615192 </v>
   <v>       0.39029880       0.77739995       0.00000000 </v>
   <v>       0.42486675       0.77739995       0.19076795 </v>
   <v>       0.45943471       0.77739995       0.38153589 </v>
   <v>       0.56272679       0.27739995       0.03179466 </v>
   <v>       0.59729475       0.27739995       0.22256261 </v>
   <v>       0.08001077       0.77739995       0.12717863 </v>
   <v>       0.11457873       0.77739995       0.31794658 </v>
   <v>       0.25243876       0.27739995       0.15897329 </v>
   <v>       0.28700672       0.27739995       0.34974124 </v>
   <v>       0.73515478       0.77739995       0.06358932 </v>
   <v>       0.76972274       0.77739995       0.25435726 </v>
   <v>       0.02602916       0.14529695       0.37317765 </v>
   <v>       0.99146121       0.14529695       0.18240970 </v>
   <v>       0.47417723       0.64529695       0.08702573 </v>
   <v>       0.50874518       0.64529695       0.27779368 </v>
   <v>       0.64660522       0.14529695       0.11882039 </v>
   <v>       0.68117318       0.14529695       0.30958834 </v>
   <v>       0.12932124       0.64529695       0.02343641 </v>
   <v>       0.16388920       0.64529695       0.21420436 </v>
   <v>       0.30174923       0.14529695       0.05523107 </v>
   <v>       0.33631719       0.14529695       0.24599902 </v>
   <v>       0.81903321       0.64529695       0.15061505 </v>
   <v>       0.85360117       0.64529695       0.34138299 </v>
   <v>       0.79449310       0.31351195       0.02373179 </v>
   <v>       0.82906105       0.31351195       0.21449973 </v>
   <v>       0.31177708       0.81351195       0.11911576 </v>
   <v>       0.34634503       0.81351195       0.30988371 </v>
   <v>       0.48420507       0.31351195       0.15091042 </v>
   <v>       0.51877303       0.31351195       0.34167837 </v>
   <v>       0.00148905       0.81351195       0.24629439 </v>
   <v>       0.96692109       0.81351195       0.05552644 </v>
   <v>       0.13934908       0.31351195       0.08732110 </v>
   <v>       0.17391704       0.31351195       0.27808905 </v>
   <v>       0.65663306       0.81351195       0.18270508 </v>
   <v>       0.69120102       0.81351195       0.37347302 </v>
   <v>       0.31177708       0.47708195       0.11911576 </v>
   <v>       0.34634503       0.47708195       0.30988371 </v>
   <v>       0.79449310       0.97708195       0.02373179 </v>
   <v>       0.82906105       0.97708195       0.21449973 </v>
   <v>       0.00148905       0.47708195       0.24629439 </v>
   <v>       0.96692109       0.47708195       0.05552644 </v>
   <v>       0.48420507       0.97708195       0.15091042 </v>
   <v>       0.51877303       0.97708195       0.34167837 </v>
   <v>       0.65663306       0.47708195       0.18270508 </v>
   <v>       0.69120102       0.47708195       0.37347302 </v>
   <v>       0.13934908       0.97708195       0.08732110 </v>
   <v>       0.17391704       0.97708195       0.27808905 </v>
  </varray>
 </structure>
 <calculation>
  <scstep>
   <time name="dav">    2.52    2.53</time>
   <time name="total">    2.58    2.59</time>
   <energy>
    <i name="alphaZ">   1422.52235994 </i>
    <i name="ewald"> 105162.80320532 </i>
    <i name="hartreedc">-226017.58288499 </i>
    <i name="XCdc">   3640.19710295 </i>
    <i name="pawpsdc"> 112729.53333415 </i>
    <i name="pawaedc">-117641.51188735 </i>
    <i name="eentropy">     -0.40074949 </i>
    <i name="bandstr">  -6674.48012629 </i>
    <i name="atom"> 136002.60505376 </i>
    <i name="e_fr_energy">   8623.68540801 </i>
    <i name="e_wo_entrp">   8624.08615750 </i>
    <i name="e_0_energy">   8623.88578275 </i>
   </energy>
  </scstep>
  <scstep>
   <time name="dav">    2.22    2.22</time>
   <time name="total">    2.22    2.23</time>
   <energy>
    <i name="e_fr_energy">    476.63529044 </i>
    <i name="e_wo_entrp">    477.52559831 </i>
    <i name="e_0_energy">    477.08044438 </i>
   </energy>
  </scstep>
  <scstep>
   <time name="dav">    2.39    2.40</time>
   <time name="total">    2.40    2.40</time>
   <energy>
    <i name="e_fr_energy">   -348.78903575 </i>
    <i name="e_wo_entrp">   -347.43414474 </i>
    <i name="e_0_energy">   -348.11159024 </i>
   </energy>
  </scstep>
  <scstep>
   <time name="dav">    2.39    2.40</time>
   <time name="total">    2.40    2.40</time>
   <energy>
    <i name="e_fr_energy">   -397.88586038 </i>
    <i name="e_wo_entrp">   -396.50721278 </i>
    <i name="e_0_energy">   -397.19653658 </i>
   </energy>
  </scstep>
  <scstep>
   <time name="dav">    2.54    2.54</time>
   <time name="total">    2.59    2.60</time>
   <energy>
    <i name="e_fr_energy">   -399.58695332 </i>
    <i name="e_wo_entrp">   -398.20919286 </i>
    <i name="e_0_energy">   -398.89807309 </i>
   </energy>
  </scstep>
  <scstep>
   <time name="dav">    2.44    2.44</time>
   <time name="total">    2.56    2.57</time>
   <energy>
    <i name="e_fr_energy">   -508.47275001 </i>
    <i name="e_wo_entrp">   -507.42678829 </i>
    <i name="e_0_energy">   -507.94976915 </i>
   </energy>
  </scstep>
  <scstep>
   <time name="dav">    2.53    2.54</time>
   <time name="total">    2.65    2.66</time>
   <energy>
    <i name="e_fr_energy">   -377.98831830 </i>
    <i name="e_wo_entrp">   -376.78333677 </i>
    <i name="e_0_energy">   -377.38582753 </i>
   </energy>
  </scstep>
  <scstep>
   <time name="dav">    2.87    2.88</time>
   <time name="total">    2.98    3.00</time>
   <energy>
    <i name="e_fr_energy">   -389.41857769 </i>
    <i name="e_wo_entrp">   -387.98504376 </i>
    <i name="e_0_energy">   -388.70181073 </i>
   </energy>
  </scstep>
  <scstep>
   <time name="dav">    2.81    2.82</time>
   <time name="total">    2.93    2.93</time>
   <energy>
    <i name="e_fr_energy">   -365.07946583 </i>
    <i name="e_wo_entrp">   -364.00417984 </i>
    <i name="e_0_energy">   -364.54182284 </i>
   </energy>
  </scstep>
  <scstep>
   <time name="dav">    2.78    2.78</time>
   <time name="total">    2.89    2.90</time>
   <energy>
    <i name="e_fr_energy">   -360.03286481 </i>
    <i name="e_wo_entrp">   -358.45349997 </i>
    <i name="e_0_energy">   -359.24318239 </i>
   </energy>
  </scstep>
  <scstep>
   <time name="dav">    2.88    2.89</time>
   <time name="total">    2.99    3.00</time>
   <energy>
    <i name="e_fr_energy">   -360.35706602 </i>
    <i name="e_wo_entrp">   -358.97275378 </i>
    <i name="e_0_energy">   -359.66490990 </i>
   </energy>
  </scstep>
  <scstep>
   <time name="dav">    2.80    2.81</time>
   <time name="total">    2.91    2.92</time>
   <energy>
    <i name="e_fr_energy">   -356.98526842 </i>
    <i name="e_wo_entrp">   -355.64757773 </i>
    <i name="e_0_energy">   -356.31642307 </i>
   </energy>
  </scstep>
  <scstep>
   <time name="dav">    2.75    2.75</time>
   <time name="total">    2.85    2.86</time>
   <energy>
    <i name="e_fr_energy">   -357.61443015 </i>
    <i name="e_wo_entrp">   -356.70526850 </i>
    <i name="e_0_energy">   -357.15984933 </i>
   </energy>
  </scstep>
  <scstep>
   <time name="dav">    2.55    2.55</time>
   <time name="total">    2.66    2.66</time>
   <energy>
    <i name="e_fr_energy">   -351.27849412 </i>
    <i name="e_wo_entrp">   -350.22597479 </i>
    <i name="e_0_energy">   -350.75223446 </i>
   </energy>
  </scstep>
  <scstep>
   <time name="dav">    2.74    2.75</time>
   <time name="total">    2.85    2.85</time>
   <energy>
    <i name="e_fr_energy">   -350.12478629 </i>
    <i name="e_wo_entrp">   -348.84626649 </i>
    <i name="e_0_energy">   -349.48552639 </i>
   </energy>
  </scstep>
  <scstep>
   <time name="dav">    2.73    2.74</time>
   <time name="total">    2.84    2.84</time>
   <energy>
    <i name="e_fr_energy">   -348.60237860 </i>
    <i name="e_wo_entrp">   -347.56582928 </i>
    <i name="e_0_energy">   -348.08410394 </i>
   </energy>
  </scstep>
  <scstep>
   <time name="dav">    2.64    2.65</time>
   <time name="total">    2.75    2.75</time>
   <energy>
    <i name="e_fr_energy">   -347.48660921 </i>
    <i name="e_wo_entrp">   -346.30527455 </i>
    <i name="e_0_energy">   -346.89594188 </i>
   </energy>
  </scstep>
  <scstep>
   <time name="dav">    2.76    2.77</time>
   <time name="total">    2.87    2.88</time>
   <energy>
    <i name="e_fr_energy">   -347.02458769 </i>
    <i name="e_wo_entrp">   -345.95120693 </i>
    <i name="e_0_energy">   -346.48789731 </i>
   </energy>
  </scstep>
  <scstep>
   <time name="dav">    2.81    2.82</time>
   <time name="total">    2.92    2.93</time>
   <energy>
    <i name="e_fr_energy">   -346.60305365 </i>
    <i name="e_wo_entrp">   -345.43234670 </i>
    <i name="e_0_energy">   -346.01770018 </i>
   </energy>
  </scstep>
  <scstep>
   <time name="dav">    2.68    2.69</time>
   <time name="total">    2.79    2.80</time>
   <energy>
    <i name="e_fr_energy">   -346.49677712 </i>
    <i name="e_wo_entrp">   -345.34767639 </i>
    <i name="e_0_energy">   -345.92222675 </i>
   </energy>
  </scstep>
  <scstep>
   <time name="dav">    2.71    2.72</time>
   <time name="total">    2.82    2.82</time>
   <energy>
    <i name="e_fr_energy">   -346.40395134 </i>
    <i name="e_wo_entrp">   -345.21326257 </i>
    <i name="e_0_energy">   -345.80860695 </i>
   </energy>
  </scstep>
  <scstep>
   <time name="dav">    2.72    2.73</time>
   <time name="total">    2.83    2.84</time>
   <energy>
    <i name="e_fr_energy">   -346.33898973 </i>
    <i name="e_wo_entrp">   -345.08565526 </i>
    <i name="e_0_energy">   -345.71232250 </i>
   </energy>
  </scstep>
  <scstep>
   <time name="dav">    2.75    2.75</time>
   <time name="total">    2.85    2.86</time>
   <energy>
    <i name="e_fr_energy">   -346.29723891 </i>
    <i name="e_wo_entrp">   -345.01681378 </i>
    <i name="e_0_energy">   -345.65702635 </i>
   </energy>
  </scstep>
  <scstep>
   <time name="dav">    2.68    2.68</time>
   <time name="total">    2.78    2.79</time>
   <energy>
    <i name="e_fr_energy">   -346.26686992 </i>
    <i name="e_wo_entrp">   -345.01442312 </i>
    <i name="e_0_energy">   -345.64064652 </i>
   </energy>
  </scstep>
  <scstep>
   <time name="dav">    2.56    2.57</time>
   <time name="total">    2.67    2.68</time>
   <energy>
    <i name="e_fr_energy">   -346.19953514 </i>
    <i name="e_wo_entrp">   -344.93234325 </i>
    <i name="e_0_energy">   -345.56593920 </i>
   </energy>
  </scstep>
  <scstep>
   <time name="dav">    2.68    2.69</time>
   <time name="total">    2.79    2.80</time>
   <energy>
    <i name="e_fr_energy">   -346.21397261 </i>
    <i name="e_wo_entrp">   -344.95512321 </i>
    <i name="e_0_energy">   -345.58454791 </i>
   </energy>
  </scstep>
  <scstep>
   <time name="dav">    2.72    2.73</time>
   <time name="total">    2.83    2.84</time>
   <energy>
    <i name="e_fr_energy">   -346.20215372 </i>
    <i name="e_wo_entrp">   -344.93089128 </i>
    <i name="e_0_energy">   -345.56652250 </i>
   </energy>
  </scstep>
  <scstep>
   <time name="dav">    2.65    2.65</time>
   <time name="total">    2.75    2.76</time>
   <energy>
    <i name="e_fr_energy">   -346.19232849 </i>
    <i name="e_wo_entrp">   -344.92600946 </i>
    <i name="e_0_energy">   -345.55916897 </i>
   </energy>
  </scstep>
  <scstep>
   <time name="dav">    2.69    2.70</time>
   <time name="total">    2.80    2.81</time>
   <energy>
    <i name="e_fr_energy">   -346.17980657 </i>
    <i name="e_wo_entrp">   -344.92343367 </i>
    <i name="e_0_energy">   -345.55162012 </i>
   </energy>
  </scstep>
  <scstep>
   <time name="dav">    2.70    2.70</time>
   <time name="total">    2.81    2.81</time>
   <energy>
    <i name="e_fr_energy">   -346.17454762 </i>
    <i name="e_wo_entrp">   -344.91987816 </i>
    <i name="e_0_energy">   -345.54721289 </i>
   </energy>
  </scstep>
  <scstep>
   <time name="dav">    2.75    2.76</time>
   <time name="total">    2.86    2.87</time>
   <energy>
    <i name="e_fr_energy">   -346.16890625 </i>
    <i name="e_wo_entrp">   -344.92326113 </i>
    <i name="e_0_energy">   -345.54608369 </i>
   </energy>
  </scstep>
  <scstep>
   <time name="dav">    2.65    2.65</time>
   <time name="total">    2.76    2.77</time>
   <energy>
    <i name="e_fr_energy">   -346.16816982 </i>
    <i name="e_wo_entrp">   -344.92647934 </i>
    <i name="e_0_energy">   -345.54732458 </i>
   </energy>
  </scstep>
  <scstep>
   <time name="dav">    2.66    2.67</time>
   <time name="total">    2.77    2.78</time>
   <energy>
    <i name="e_fr_energy">   -346.16670935 </i>
    <i name="e_wo_entrp">   -344.92778891 </i>
    <i name="e_0_energy">   -345.54724913 </i>
   </energy>
  </scstep>
  <scstep>
   <time name="dav">    2.54    2.55</time>
   <time name="total">    2.65    2.66</time>
   <energy>
    <i name="e_fr_energy">   -346.16680797 </i>
    <i name="e_wo_entrp">   -344.92975973 </i>
    <i name="e_0_energy">   -345.54828385 </i>
   </energy>
  </scstep>
  <scstep>
   <time name="dav">    2.26    2.27</time>
   <time name="total">    2.37    2.38</time>
   <energy>
    <i name="e_fr_energy">   -346.16692170 </i>
    <i name="e_wo_entrp">   -344.92882687 </i>
    <i name="e_0_energy">   -345.54787429 </i>
   </energy>
  </scstep>
  <scstep>
   <time name="dav">    1.99    1.99</time>
   <time name="total">    2.05    2.05</time>
   <energy>
    <i name="alphaZ">   1422.52235994 </i>
    <i name="ewald"> 105162.80320532 </i>
    <i name="hartreedc">-225345.43819535 </i>
    <i name="XCdc">   3611.80894918 </i>
    <i name="pawpsdc"> 128855.35144311 </i>
    <i name="pawaedc">-133824.38965877 </i>
    <i name="eentropy">     -1.23760339 </i>
    <i name="bandstr"> -16230.19251074 </i>
    <i name="atom"> 136002.60505376 </i>
    <i name="e_fr_energy">   -346.16695696 </i>
    <i name="e_wo_entrp">   -344.92935356 </i>
    <i name="e_0_energy">   -345.54815526 </i>
   </energy>
  </scstep>
  <structure>
   <crystal>
    <varray name="basis" >
     <v>      16.88469405       0.00000000       0.00000000 </v>
     <v>       0.00000000       9.57841000       0.00000000 </v>
     <v>       0.00000000       0.00000000      16.16908712 </v>
    </varray>
    <i name="volume">   2615.00256803 </i>
    <varray name="rec_basis" >
     <v>       0.05922524       0.00000000       0.00000000 </v>
     <v>       0.00000000       0.10440146       0.00000000 </v>
     <v>       0.00000000       0.00000000       0.06184641 </v>
    </varray>
   </crystal>
   <varray name="positions" >
    <v>       0.78004631       0.14529695       0.12058499 </v>
    <v>       0.81461426       0.14529695       0.31135294 </v>
    <v>       0.26276233       0.64529695       0.02520102 </v>
    <v>       0.29733029       0.64529695       0.21596897 </v>
    <v>       0.43519032       0.14529695       0.05699568 </v>
    <v>       0.46975828       0.14529695       0.24776362 </v>
    <v>       0.95247430       0.64529695       0.15237965 </v>
    <v>       0.98704226       0.64529695       0.34314760 </v>
    <v>       0.12490229       0.14529695       0.18417431 </v>
    <v>       0.15947025       0.14529695       0.37494226 </v>
    <v>       0.60761831       0.64529695       0.08879033 </v>
    <v>       0.64218627       0.64529695       0.27955828 </v>
    <v>       0.90758278       0.01319395       0.09538397 </v>
    <v>       0.94215073       0.01319395       0.28615192 </v>
    <v>       0.42486675       0.51319395       0.19076795 </v>
    <v>       0.45943471       0.51319395       0.38153589 </v>
    <v>       0.59729475       0.01319395       0.22256261 </v>
    <v>       0.08001077       0.51319395       0.12717863 </v>
    <v>       0.11457873       0.51319395       0.31794658 </v>
    <v>       0.25243876       0.01319395       0.15897329 </v>
    <v>       0.28700672       0.01319395       0.34974124 </v>
    <v>       0.73515478       0.51319395       0.06358932 </v>
    <v>       0.76972274       0.51319395       0.25435726 </v>
    <v>       0.90758278       0.27739995       0.09538397 </v>
    <v>       0.94215073       0.27739995       0.28615192 </v>
    <v>       0.39029880       0.77739995       0.00000000 </v>
    <v>       0.42486675       0.77739995       0.19076795 </v>
    <v>       0.45943471       0.77739995       0.38153589 </v>
    <v>       0.56272679       0.27739995       0.03179466 </v>
    <v>       0.59729475       0.27739995       0.22256261 </v>
    <v>       0.08001077       0.77739995       0.12717863 </v>
    <v>       0.11457873       0.77739995       0.31794658 </v>
    <v>       0.25243876       0.27739995       0.15897329 </v>
    <v>       0.28700672       0.27739995       0.34974124 </v>
    <v>       0.73515478       0.77739995       0.06358932 </v>
    <v>       0.76972274       0.77739995       0.25435726 </v>
    <v>       0.02602916       0.14529695       0.37317765 </v>
    <v>       0.99146121       0.14529695       0.18240970 </v>
    <v>       0.47417723       0.64529695       0.08702573 </v>
    <v>       0.50874518       0.64529695       0.27779368 </v>
    <v>       0.64660522       0.14529695       0.11882039 </v>
    <v>       0.68117318       0.14529695       0.30958834 </v>
    <v>       0.12932124       0.64529695       0.02343641 </v>
    <v>       0.16388920       0.64529695       0.21420436 </v>
    <v>       0.30174923       0.14529695       0.05523107 </v>
    <v>       0.33631719       0.14529695       0.24599902 </v>
    <v>       0.81903321       0.64529695       0.15061505 </v>
    <v>       0.85360117       0.64529695       0.34138299 </v>
    <v>       0.79449310       0.31351195       0.02373179 </v>
    <v>       0.82906105       0.31351195       0.21449973 </v>
    <v>       0.31177708       0.81351195       0.11911576 </v>
    <v>       0.34634503       0.81351195       0.30988371 </v>
    <v>       0.48420507       0.31351195       0.15091042 </v>
    <v>       0.51877303       0.31351195       0.34167837 </v>
    <v>       0.00148905       0.81351195       0.24629439 </v>
    <v>       0.96692109       0.81351195       0.05552644 </v>
    <v>       0.13934908       0.31351195       0.08732110 </v>
    <v>       0.17391704       0.31351195       0.27808905 </v>
    <v>       0.65663306       0.81351195       0.18270508 </v>
    <v>       0.69120102       0.81351195       0.37347302 </v>
    <v>       0.31177708       0.47708195       0.11911576 </v>
    <v>       0.34634503       0.47708195       0.30988371 </v>
    <v>       0.79449310       0.97708195       0.02373179 </v>
    <v>       0.82906105       0.97708195       0.21449973 </v>
    <v>       0.00148905       0.47708195       0.24629439 </v>
    <v>       0.96692109       0.47708195       0.05552644 </v>
    <v>       0.48420507       0.97708195       0.15091042 </v>
    <v>       0.51877303       0.97708195       0.34167837 </v>
    <v>       0.65663306       0.47708195       0.18270508 </v>
    <v>       0.69120102       0.47708195       0.37347302 </v>
    <v>       0.13934908       0.97708195       0.08732110 </v>
    <v>       0.17391704       0.97708195       0.27808905 </v>
   </varray>
  </structure>
  <varray name="forces" >
   <v>       0.23916206       0.04735734      -0.37280167 </v>
   <v>      -1.02783900       0.00691262      -1.53274443 </v>
   <v>      -0.31217151       0.29497483       1.48364832 </v>
   <v>      -0.26474238      -0.20808075       0.18407022 </v>
   <v>      -0.34019189       0.12447355       1.37991469 </v>
   <v>      -0.21989392      -0.18066287       0.21626648 </v>
   <v>      -0.15016904       0.00993059      -0.02003378 </v>
   <v>      -0.84207424      -0.00401879      -1.69183831 </v>
   <v>      -0.14136017      -0.00544150      -0.26302781 </v>
   <v>      -0.60522109       0.00535808      -1.53394578 </v>
   <v>       0.07157252      -0.08997748       0.99715035 </v>
   <v>       0.06998078      -0.00106565       0.64558909 </v>
   <v>      -0.24833517      -0.75968652       0.34461328 </v>
   <v>       0.57189563       0.31297972      -0.45601453 </v>
   <v>      -0.19093859      -0.23672690      -0.08989380 </v>
   <v>      -0.17850925      -0.36770895      -1.99929279 </v>
   <v>       0.05932119      -0.03895189       0.03320840 </v>
   <v>       0.21115085      -0.48151544      -0.27552258 </v>
   <v>      -0.08373856      -0.15463028      -1.41261434 </v>
   <v>       0.10426090      -0.19169560      -0.23257842 </v>
   <v>      -0.17193577      -0.21598007      -1.53021845 </v>
   <v>       0.20519315      -0.36284512       0.90983298 </v>
   <v>       0.24517919      -0.14192648       0.41383657 </v>
   <v>      -0.20974591       0.75133523       0.35378003 </v>
   <v>       0.57210809      -0.32804879      -0.45294944 </v>
   <v>      -0.26220818      -0.71995849       2.05321800 </v>
   <v>       0.09465139       0.33318806       0.11747418 </v>
   <v>      -0.14237384       0.36792741      -2.04292359 </v>
   <v>      -0.17948722      -0.58399960       1.94706936 </v>
   <v>       0.29479274      -0.08292716       0.18309613 </v>
   <v>       0.23697434       0.44577800      -0.28723707 </v>
   <v>      -0.10040961       0.14924884      -1.40096951 </v>
   <v>       0.17367234       0.32008553      -0.21489642 </v>
   <v>      -0.18792263       0.21889437      -1.51619044 </v>
   <v>       0.38307846       0.26926518       0.98026370 </v>
   <v>       0.23875260       0.09841131       0.40317103 </v>
   <v>      -1.09486074       0.01564567       0.01774179 </v>
   <v>      -0.22173653       0.01531379      -0.99387456 </v>
   <v>       0.60954154       0.65880387      -0.92344767 </v>
   <v>      -0.12449734      -0.03301894       1.27626052 </v>
   <v>      -0.34144235       0.70778049      -0.35658944 </v>
   <v>       0.17486424      -0.05728922       0.36612423 </v>
   <v>       1.26901416      -0.04354812       0.12672811 </v>
   <v>       0.07537703       0.01286469       1.10679194 </v>
   <v>       1.30843211      -0.07517588      -0.03480702 </v>
   <v>       0.06680579       0.06140347       0.98420330 </v>
   <v>      -0.57064822       0.02120525      -0.72073031 </v>
   <v>      -0.10653270       0.03030616       0.15255748 </v>
   <v>       0.05528493       0.58630344       0.40859907 </v>
   <v>       0.21044882      -0.41232911       1.24270021 </v>
   <v>      -0.02606146      -0.32479417      -1.33381733 </v>
   <v>       0.40655429       0.05550997       0.70739385 </v>
   <v>       0.12390704      -0.44352753      -1.10916010 </v>
   <v>      -0.03187121      -0.30600696      -0.04636888 </v>
   <v>       0.10860049      -0.22027688       0.93401039 </v>
   <v>      -0.04224133       0.60206222       0.47846505 </v>
   <v>      -0.08704730       0.07539314       0.50789703 </v>
   <v>       0.02567459       0.01198333       1.01872033 </v>
   <v>       0.02414026      -0.43277863      -0.66208732 </v>
   <v>       0.25533109      -0.89668959      -1.27410858 </v>
   <v>      -0.58976000       0.39307202      -0.34300655 </v>
   <v>       0.51365057      -0.07764213       0.76726530 </v>
   <v>       0.11254310      -0.58299683       0.41420418 </v>
   <v>       0.17898536       0.41645779       1.23974004 </v>
   <v>       0.09786976       0.20312046       0.97016286 </v>
   <v>      -0.05322197      -0.59086031       0.47370993 </v>
   <v>      -0.46788140       0.49815210      -0.23019279 </v>
   <v>       0.02565421       0.25035506       0.00942003 </v>
   <v>       0.02089970       0.52233074      -0.66800623 </v>
   <v>       0.25131152       0.89296894      -1.33154343 </v>
   <v>      -0.12250191      -0.07870259       0.50227055 </v>
   <v>       0.05293565      -0.05566805       1.00226437 </v>
  </varray>
  <varray name="stress" >
   <v>     -24.97734624       0.72089433      -6.43266450 </v>
   <v>       0.72089444     -24.89919818       0.40431873 </v>
   <v>      -6.43266437       0.40431874     -35.86052409 </v>
  </varray>
  <energy>
   <i name="e_fr_energy">   -346.16695696 </i>
   <i name="e_wo_entrp">   -344.92935356 </i>
   <i name="e_0_energy">   -345.54815526 </i>
  </energy>
  <time name="totalsc">   99.95  100.27</time>
  <eigenvalues>
   <array>
    <dimension dim="1">band</dimension>
    <dimension dim="2">kpoint</dimension>
    <dimension dim="3">spin</dimension>
    <field>eigene</field>
    <field>occ</field>
    <set>
     <set comment="spin 1">
      <set comment="kpoint 1">
       <r>  -64.4576    1.0000 </r>
       <r>  -64.4317    1.0000 </r>
       <r>  -64.4270    1.0000 </r>
       <r>  -64.4258    1.0000 </r>
       <r>  -64.4188    1.0000 </r>
       <r>  -64.4180    1.0000 </r>
       <r>  -64.4144    1.0000 </r>
       <r>  -64.4029    1.0000 </r>
       <r>  -64.3976    1.0000 </r>
       <r>  -64.3955    1.0000 </r>
       <r>  -64.3869    1.0000 </r>
       <r>  -64.3864    1.0000 </r>
       <r>  -64.3779    1.0000 </r>
       <r>  -64.3733    1.0000 </r>
       <r>  -64.3724    1.0000 </r>
       <r>  -64.3684    1.0000 </r>
       <r>  -64.3632    1.0000 </r>
       <r>  -64.3488    1.0000 </r>
       <r>  -64.3480    1.0000 </r>
       <r>  -64.3329    1.0000 </r>
       <r>  -64.3289    1.0000 </r>
       <r>  -64.3273    1.0000 </r>
       <r>  -64.3254    1.0000 </r>
       <r>  -64.3147    1.0000 </r>
       <r>  -64.3143    1.0000 </r>
       <r>  -64.3136    1.0000 </r>
       <r>  -64.3053    1.0000 </r>
       <r>  -64.3047    1.0000 </r>
       <r>  -64.3041    1.0000 </r>
       <r>  -64.3034    1.0000 </r>
       <r>  -64.2913    1.0000 </r>
       <r>  -64.2884    1.0000 </r>
       <r>  -64.2737    1.0000 </r>
       <r>  -64.2547    1.0000 </r>
       <r>  -64.2544    1.0000 </r>
       <r>  -64.2403    1.0000 </r>
       <r>  -64.2197    1.0000 </r>
       <r>  -64.2170    1.0000 </r>
       <r>  -64.2159    1.0000 </r>
       <r>  -64.2130    1.0000 </r>
       <r>  -64.1677    1.0000 </r>
       <r>  -64.1647    1.0000 </r>
       <r>  -64.1637    1.0000 </r>
       <r>  -64.1598    1.0000 </r>
       <r>  -64.1520    1.0000 </r>
       <r>  -64.1420    1.0000 </r>
       <r>  -64.1384    1.0000 </r>
       <r>  -64.1312    1.0000 </r>
       <r>  -64.1265    1.0000 </r>
       <r>  -64.1239    1.0000 </r>
       <r>  -64.0779    1.0000 </r>
       <r>  -64.0615    1.0000 </r>
       <r>  -64.0574    1.0000 </r>
       <r>  -64.0511    1.0000 </r>
       <r>  -64.0273    1.0000 </r>
       <r>  -64.0192    1.0000 </r>
       <r>  -63.9232    1.0000 </r>
       <r>  -63.9137    1.0000 </r>
       <r>  -63.9001    1.0000 </r>
       <r>  -63.8947    1.0000 </r>
       <r>  -63.8887    1.0000 </r>
       <r>  -63.8440    1.0000 </r>
       <r>  -63.8354    1.0000 </r>
       <r>  -63.8300    1.0000 </r>
       <r>  -63.8161    1.0000 </r>
       <r>  -63.8138    1.0000 </r>
       <r>  -63.7804    1.0000 </r>
       <r>  -63.7732    1.0000 </r>
       <r>  -63.7563    1.0000 </r>
       <r>  -63.7550    1.0000 </r>
       <r>  -63.7509    1.0000 </r>
       <r>  -63.7408    1.0000 </r>
       <r>  -63.6800    1.0000 </r>
       <r>  -63.6782    1.0000 </r>
       <r>  -63.6665    1.0000 </r>
       <r>  -63.6591    1.0000 </r>
       <r>  -63.6538    1.0000 </r>
       <r>  -63.6485    1.0000 </r>
       <r>  -63.6395    1.0000 </r>
       <r>  -63.6332    1.0000 </r>
       <r>  -63.6173    1.0000 </r>
       <r>  -63.6140    1.0000 </r>
       <r>  -63.6128    1.0000 </r>
       <r>  -63.5846    1.0000 </r>
       <r>  -63.5761    1.0000 </r>
       <r>  -63.5475    1.0000 </r>
       <r>  -63.5465    1.0000 </r>
       <r>  -63.5433    1.0000 </r>
       <r>  -63.5417    1.0000 </r>
       <r>  -63.5177    1.0000 </r>
       <r>  -63.5131    1.0000 </r>
       <r>  -63.4755    1.0000 </r>
       <r>  -63.4291    1.0000 </r>
       <r>  -63.4038    1.0000 </r>
       <r>  -63.3718    1.0000 </r>
       <r>  -63.3085    1.0000 </r>
       <r>  -63.3079    1.0000 </r>
       <r>  -63.3029    1.0000 </r>
       <r>  -63.2850    1.0000 </r>
       <r>  -63.2285    1.0000 </r>
       <r>  -63.1926    1.0000 </r>
       <r>  -63.1677    1.0000 </r>
       <r>  -63.0752    1.0000 </r>
       <r>  -63.0606    1.0000 </r>
       <r>  -62.9714    1.0000 </r>
       <r>  -62.9565    1.0000 </r>
       <r>  -62.8479    1.0000 </r>
       <r>  -62.8144    1.0000 </r>
       <r>  -15.2514    1.0000 </r>
       <r>  -14.9803    1.0000 </r>
       <r>  -14.9222    1.0000 </r>
       <r>  -14.5562    1.0000 </r>
       <r>  -14.4535    1.0000 </r>
       <r>  -14.3679    1.0000 </r>
       <r>  -14.2713    1.0000 </r>
       <r>  -14.2006    1.0000 </r>
       <r>  -14.1000    1.0000 </r>
       <r>  -14.0521    1.0000 </r>
       <r>  -13.9938    1.0000 </r>
       <r>  -13.9591    1.0000 </r>
       <r>  -13.7986    1.0000 </r>
       <r>  -13.7685    1.0000 </r>
       <r>  -13.7012    1.0000 </r>
       <r>  -13.6627    1.0000 </r>
       <r>  -13.5462    1.0000 </r>
       <r>  -13.5307    1.0000 </r>
       <r>  -13.4409    1.0000 </r>
       <r>  -13.3432    1.0000 </r>
       <r>  -13.2753    1.0000 </r>
       <r>  -13.1660    1.0000 </r>
       <r>  -13.1093    1.0000 </r>
       <r>  -13.0574    1.0000 </r>
       <r>  -12.9300    1.0000 </r>
       <r>  -12.9216    1.0000 </r>
       <r>  -12.7717    1.0000 </r>
       <r>  -12.6960    1.0000 </r>
       <r>  -12.6920    1.0000 </r>
       <r>  -12.6131    1.0000 </r>
       <r>  -12.4799    1.0000 </r>
       <r>  -12.4610    1.0000 </r>
       <r>  -12.4443    1.0000 </r>
       <r>  -12.4155    1.0000 </r>
       <r>  -12.1081    1.0000 </r>
       <r>  -11.8537    1.0000 </r>
       <r>   -6.9911    1.0000 </r>
       <r>   -6.9634    1.0000 </r>
       <r>   -6.9529    1.0000 </r>
       <r>   -6.8591    1.0000 </r>
       <r>   -6.8317    1.0000 </r>
       <r>   -6.6097    1.0000 </r>
       <r>   -6.5014    1.0000 </r>
       <r>   -6.4727    1.0000 </r>
       <r>   -6.4322    1.0000 </r>
       <r>   -6.3791    1.0000 </r>
       <r>   -6.3471    1.0000 </r>
       <r>   -6.3299    1.0000 </r>
       <r>   -6.2341    1.0000 </r>
       <r>   -6.2026    1.0000 </r>
       <r>   -6.0771    1.0000 </r>
       <r>   -6.0608    1.0000 </r>
       <r>   -6.0217    1.0000 </r>
       <r>   -6.0130    1.0000 </r>
       <r>   -5.9933    1.0000 </r>
       <r>   -5.9221    1.0000 </r>
       <r>   -5.8833    1.0000 </r>
       <r>   -5.8076    1.0000 </r>
       <r>   -5.7632    1.0000 </r>
       <r>   -5.6908    1.0000 </r>
       <r>   -5.6533    1.0000 </r>
       <r>   -5.6428    1.0000 </r>
       <r>   -5.6290    1.0000 </r>
       <r>   -5.6198    1.0000 </r>
       <r>   -5.5899    1.0000 </r>
       <r>   -5.5392    1.0000 </r>
       <r>   -5.5082    1.0000 </r>
       <r>   -5.4925    1.0000 </r>
       <r>   -5.3857    1.0000 </r>
       <r>   -5.3476    1.0000 </r>
       <r>   -5.3193    1.0000 </r>
       <r>   -5.2867    1.0000 </r>
       <r>   -5.2130    1.0000 </r>
       <r>   -5.1967    1.0000 </r>
       <r>   -5.1737    1.0000 </r>
       <r>   -5.0908    1.0000 </r>
       <r>   -5.0096    1.0000 </r>
       <r>   -4.9159    1.0000 </r>
       <r>   -4.8784    1.0000 </r>
       <r>   -4.8503    1.0000 </r>
       <r>   -4.8101    1.0000 </r>
       <r>   -4.7692    1.0000 </r>
       <r>   -4.7209    1.0000 </r>
       <r>   -4.6798    1.0000 </r>
       <r>   -4.6556    1.0000 </r>
       <r>   -4.6299    1.0000 </r>
       <r>   -4.6199    1.0000 </r>
       <r>   -4.5869    1.0000 </r>
       <r>   -4.5512    1.0000 </r>
       <r>   -4.5203    1.0000 </r>
       <r>   -4.5083    1.0000 </r>
       <r>   -4.5048    1.0000 </r>
       <r>   -4.4738    1.0000 </r>
       <r>   -4.4171    1.0000 </r>
       <r>   -4.3712    1.0000 </r>
       <r>   -4.3218    1.0000 </r>
       <r>   -4.2958    1.0000 </r>
       <r>   -4.2266    1.0000 </r>
       <r>   -4.1831    1.0000 </r>
       <r>   -4.1543    1.0000 </r>
       <r>   -4.0818    1.0000 </r>
       <r>   -4.0628    1.0000 </r>
       <r>   -4.0353    1.0000 </r>
       <r>   -4.0206    1.0000 </r>
       <r>   -4.0083    1.0000 </r>
       <r>   -3.9613    1.0000 </r>
       <r>   -3.9279    1.0000 </r>
       <r>   -3.9230    1.0000 </r>
       <r>   -3.9068    1.0000 </r>
       <r>   -3.8934    1.0000 </r>
       <r>   -3.8587    1.0000 </r>
       <r>   -3.7942    1.0000 </r>
       <r>   -3.7467    1.0000 </r>
       <r>   -3.7371    1.0000 </r>
       <r>   -3.7004    1.0000 </r>
       <r>   -3.6889    1.0000 </r>
       <r>   -3.6451    1.0000 </r>
       <r>   -3.6362    1.0000 </r>
       <r>   -3.6171    1.0000 </r>
       <r>   -3.6010    1.0000 </r>
       <r>   -3.5639    1.0000 </r>
       <r>   -3.5136    1.0000 </r>
       <r>   -3.4745    1.0000 </r>
       <r>   -3.4047    1.0000 </r>
       <r>   -3.3880    1.0000 </r>
       <r>   -3.3516    1.0000 </r>
       <r>   -3.3504    1.0000 </r>
       <r>   -3.2590    1.0000 </r>
       <r>   -3.2077    1.0000 </r>
       <r>   -3.1866    1.0000 </r>
       <r>   -3.1768    1.0000 </r>
       <r>   -3.1255    1.0000 </r>
       <r>   -3.0777    1.0000 </r>
       <r>   -3.0647    1.0000 </r>
       <r>   -3.0541    1.0000 </r>
       <r>   -3.0293    1.0000 </r>
       <r>   -3.0042    1.0000 </r>
       <r>   -2.9516    1.0000 </r>
       <r>   -2.9241    1.0000 </r>
       <r>   -2.8718    1.0000 </r>
       <r>   -2.8566    1.0000 </r>
       <r>   -2.8306    1.0000 </r>
       <r>   -2.7833    1.0000 </r>
       <r>   -2.7659    1.0000 </r>
       <r>   -2.7388    1.0000 </r>
       <r>   -2.7092    1.0000 </r>
       <r>   -2.6550    1.0000 </r>
       <r>   -2.6077    1.0000 </r>
       <r>   -2.5937    1.0000 </r>
       <r>   -2.5889    1.0000 </r>
       <r>   -2.5695    1.0000 </r>
       <r>   -2.5582    1.0000 </r>
       <r>   -2.5275    1.0000 </r>
       <r>   -2.4651    1.0000 </r>
       <r>   -2.4457    1.0000 </r>
       <r>   -2.4446    1.0000 </r>
       <r>   -2.3989    1.0000 </r>
       <r>   -2.3952    1.0000 </r>
       <r>   -2.3801    1.0000 </r>
       <r>   -2.3662    1.0000 </r>
       <r>   -2.3584    1.0000 </r>
       <r>   -2.3524    1.0000 </r>
       <r>   -2.3323    1.0000 </r>
       <r>   -2.2940    1.0000 </r>
       <r>   -2.2830    1.0000 </r>
       <r>   -2.2770    1.0000 </r>
       <r>   -2.2683    1.0000 </r>
       <r>   -2.2436    1.0000 </r>
       <r>   -2.2332    1.0000 </r>
       <r>   -2.2190    1.0000 </r>
       <r>   -2.2060    1.0000 </r>
       <r>   -2.1937    1.0000 </r>
       <r>   -2.1839    1.0000 </r>
       <r>   -2.1590    1.0000 </r>
       <r>   -2.1392    1.0000 </r>
       <r>   -2.1161    1.0000 </r>
       <r>   -2.1064    1.0000 </r>
       <r>   -2.1022    1.0000 </r>
       <r>   -2.0940    1.0000 </r>
       <r>   -2.0663    1.0000 </r>
       <r>   -2.0418    1.0000 </r>
       <r>   -2.0181    1.0000 </r>
       <r>   -2.0043    1.0000 </r>
       <r>   -2.0021    1.0000 </r>
       <r>   -1.9842    1.0000 </r>
       <r>   -1.9799    1.0000 </r>
       <r>   -1.9675    1.0000 </r>
       <r>   -1.9456    1.0000 </r>
       <r>   -1.9365    1.0000 </r>
       <r>   -1.9225    1.0000 </r>
       <r>   -1.9203    1.0000 </r>
       <r>   -1.9079    1.0000 </r>
       <r>   -1.9043    1.0000 </r>
       <r>   -1.8927    1.0000 </r>
       <r>   -1.8840    1.0000 </r>
       <r>   -1.8781    1.0000 </r>
       <r>   -1.8551    1.0000 </r>
       <r>   -1.8492    1.0000 </r>
       <r>   -1.8402    1.0000 </r>
       <r>   -1.8360    1.0000 </r>
       <r>   -1.8269    1.0000 </r>
       <r>   -1.8147    1.0000 </r>
       <r>   -1.7918    1.0000 </r>
       <r>   -1.7881    1.0000 </r>
       <r>   -1.7696    1.0000 </r>
       <r>   -1.7668    1.0000 </r>
       <r>   -1.7346    1.0000 </r>
       <r>   -1.7259    1.0000 </r>
       <r>   -1.7182    1.0000 </r>
       <r>   -1.7046    1.0000 </r>
       <r>   -1.6952    1.0000 </r>
       <r>   -1.6797    1.0000 </r>
       <r>   -1.6722    1.0000 </r>
       <r>   -1.6591    1.0000 </r>
       <r>   -1.6433    1.0000 </r>
       <r>   -1.6222    1.0000 </r>
       <r>   -1.6039    1.0000 </r>
       <r>   -1.5902    1.0000 </r>
       <r>   -1.5793    1.0000 </r>
       <r>   -1.5729    1.0000 </r>
       <r>   -1.5583    1.0000 </r>
       <r>   -1.5511    1.0000 </r>
       <r>   -1.5445    1.0000 </r>
       <r>   -1.5209    1.0000 </r>
       <r>   -1.5085    1.0000 </r>
       <r>   -1.5033    1.0000 </r>
       <r>   -1.4809    1.0000 </r>
       <r>   -1.4704    1.0000 </r>
       <r>   -1.4592    1.0000 </r>
       <r>   -1.4574    1.0000 </r>
       <r>   -1.4451    1.0000 </r>
       <r>   -1.4215    1.0000 </r>
       <r>   -1.4085    1.0000 </r>
       <r>   -1.4045    1.0000 </r>
       <r>   -1.3894    1.0000 </r>
       <r>   -1.3688    1.0000 </r>
       <r>   -1.3491    1.0000 </r>
       <r>   -1.3352    1.0000 </r>
       <r>   -1.3336    1.0000 </r>
       <r>   -1.3230    1.0000 </r>
       <r>   -1.3022    1.0000 </r>
       <r>   -1.2958    1.0000 </r>
       <r>   -1.2889    1.0000 </r>
       <r>   -1.2617    1.0000 </r>
       <r>   -1.2458    1.0000 </r>
       <r>   -1.2229    1.0000 </r>
       <r>   -1.2019    1.0000 </r>
       <r>   -1.1860    1.0000 </r>
       <r>   -1.1730    1.0000 </r>
       <r>   -1.1486    1.0000 </r>
       <r>   -1.1328    1.0000 </r>
       <r>   -1.1218    1.0000 </r>
       <r>   -1.1001    1.0000 </r>
       <r>   -1.0899    1.0000 </r>
       <r>   -1.0507    1.0000 </r>
       <r>   -1.0277    1.0000 </r>
       <r>   -1.0145    1.0000 </r>
       <r>   -1.0135    1.0000 </r>
       <r>   -1.0129    1.0000 </r>
       <r>   -0.9664    1.0000 </r>
       <r>   -0.9449    1.0000 </r>
       <r>   -0.9306    1.0000 </r>
       <r>   -0.9231    1.0000 </r>
       <r>   -0.9038    1.0000 </r>
       <r>   -0.8803    1.0000 </r>
       <r>   -0.8483    1.0000 </r>
       <r>   -0.8294    0.9999 </r>
       <r>   -0.8133    0.9999 </r>
       <r>   -0.7888    0.9998 </r>
       <r>   -0.7756    0.9996 </r>
       <r>   -0.7650    0.9995 </r>
       <r>   -0.7399    0.9991 </r>
       <r>   -0.7358    0.9991 </r>
       <r>   -0.6981    0.9977 </r>
       <r>   -0.6752    0.9963 </r>
       <r>   -0.6608    0.9950 </r>
       <r>   -0.6547    0.9944 </r>
       <r>   -0.6110    0.9869 </r>
       <r>   -0.6033    0.9850 </r>
       <r>   -0.5775    0.9766 </r>
       <r>   -0.5525    0.9649 </r>
       <r>   -0.4894    0.9139 </r>
       <r>   -0.4523    0.8649 </r>
       <r>   -0.4382    0.8419 </r>
       <r>   -0.4267    0.8215 </r>
       <r>   -0.3740    0.7084 </r>
       <r>   -0.3563    0.6639 </r>
       <r>   -0.3095    0.5370 </r>
       <r>   -0.2840    0.4652 </r>
       <r>   -0.2592    0.3963 </r>
       <r>   -0.2091    0.2684 </r>
       <r>   -0.1864    0.2183 </r>
       <r>   -0.1748    0.1949 </r>
       <r>   -0.1116    0.0957 </r>
       <r>   -0.0524    0.0422 </r>
       <r>   -0.0150    0.0233 </r>
       <r>    0.0001    0.0180 </r>
       <r>    0.0100    0.0151 </r>
       <r>    0.0431    0.0082 </r>
       <r>    0.0532    0.0067 </r>
       <r>    0.1178    0.0017 </r>
       <r>    0.1599    0.0006 </r>
       <r>    0.2583    0.0000 </r>
       <r>    0.2779    0.0000 </r>
       <r>    0.3053    0.0000 </r>
       <r>    0.3202    0.0000 </r>
       <r>    0.3546    0.0000 </r>
       <r>    0.3845    0.0000 </r>
       <r>    0.4507    0.0000 </r>
       <r>    0.4958    0.0000 </r>
       <r>    0.5206    0.0000 </r>
       <r>    0.5622    0.0000 </r>
       <r>    0.5972    0.0000 </r>
       <r>    0.6321    0.0000 </r>
       <r>    0.6862    0.0000 </r>
       <r>    0.7213    0.0000 </r>
       <r>    0.7431    0.0000 </r>
       <r>    0.7550    0.0000 </r>
       <r>    0.7707    0.0000 </r>
       <r>    0.7811    0.0000 </r>
       <r>    0.8495    0.0000 </r>
       <r>    0.8907    0.0000 </r>
       <r>    0.9113    0.0000 </r>
       <r>    0.9501    0.0000 </r>
       <r>    0.9670    0.0000 </r>
       <r>    0.9773    0.0000 </r>
       <r>    1.0640    0.0000 </r>
       <r>    1.1776    0.0000 </r>
       <r>    1.4516    0.0000 </r>
       <r>    1.5763    0.0000 </r>
       <r>    2.1298    0.0000 </r>
       <r>    2.5087    0.0000 </r>
       <r>    2.8939    0.0000 </r>
       <r>    3.0835    0.0000 </r>
       <r>    3.3332    0.0000 </r>
       <r>    3.4205    0.0000 </r>
       <r>    3.4497    0.0000 </r>
       <r>    3.7463    0.0000 </r>
       <r>    3.8339    0.0000 </r>
       <r>    3.9200    0.0000 </r>
       <r>    3.9768    0.0000 </r>
       <r>    4.1034    0.0000 </r>
       <r>    4.1342    0.0000 </r>
       <r>    4.1463    0.0000 </r>
       <r>    4.1705    0.0000 </r>
       <r>    4.2279    0.0000 </r>
       <r>    4.2767    0.0000 </r>
       <r>    4.3449    0.0000 </r>
       <r>    4.3975    0.0000 </r>
       <r>    4.5240    0.0000 </r>
       <r>    4.5963    0.0000 </r>
       <r>    4.6847    0.0000 </r>
       <r>    4.7321    0.0000 </r>
       <r>    4.7620    0.0000 </r>
       <r>    4.8535    0.0000 </r>
       <r>    4.9910    0.0000 </r>
       <r>    5.0306    0.0000 </r>
       <r>    5.0754    0.0000 </r>
       <r>    5.1776    0.0000 </r>
       <r>    5.2028    0.0000 </r>
       <r>    5.2541    0.0000 </r>
       <r>    5.2762    0.0000 </r>
       <r>    5.3362    0.0000 </r>
       <r>    5.3603    0.0000 </r>
       <r>    5.3911    0.0000 </r>
       <r>    5.4379    0.0000 </r>
       <r>    5.4706    0.0000 </r>
       <r>    5.5163    0.0000 </r>
       <r>    5.5476    0.0000 </r>
       <r>    5.5710    0.0000 </r>
       <r>    5.6114    0.0000 </r>
       <r>    5.6929    0.0000 </r>
      </set>
     </set>
    </set>
   </array>
  </eigenvalues>
  <separator name="orbital magnetization" >
   <v name="MAGDIPOLOUT">      0.00000000      0.00000000      0.00000000</v>
  </separator>
  <dos>
   <i name="efermi">     -0.29640746 </i>
   <total>
    <array>
     <dimension dim="1">gridpoints</dimension>
     <dimension dim="2">spin</dimension>
     <field>energy</field>
     <field>total</field>
     <field>integrated</field>
     <set>
      <set comment="spin 1">
       <r>   -67.9651     0.0000     0.0000 </r>
       <r>   -67.7079     0.0000     0.0000 </r>
       <r>   -67.4507     0.0000     0.0000 </r>
       <r>   -67.1935     0.0000     0.0000 </r>
       <r>   -66.9362     0.0000     0.0000 </r>
       <r>   -66.6790     0.0000     0.0000 </r>
       <r>   -66.4218     0.0000     0.0000 </r>
       <r>   -66.1646     0.0000     0.0000 </r>
       <r>   -65.9074     0.0000     0.0000 </r>
       <r>   -65.6501     0.0000     0.0000 </r>
       <r>   -65.3929     0.0000     0.0000 </r>
       <r>   -65.1357     0.0000     0.0000 </r>
       <r>   -64.8785     0.0647     0.0166 </r>
       <r>   -64.6213    10.3983     2.6913 </r>
       <r>   -64.3641   129.3269    35.9565 </r>
       <r>   -64.1068   216.7998    91.7214 </r>
       <r>   -63.8496   135.6571   126.6149 </r>
       <r>   -63.5924   142.3677   163.2345 </r>
       <r>   -63.3352   106.5740   190.6473 </r>
       <r>   -63.0780    56.2473   205.1151 </r>
       <r>   -62.8207    31.8245   213.3010 </r>
       <r>   -62.5635     9.9854   215.8694 </r>
       <r>   -62.3063     0.5059   215.9995 </r>
       <r>   -62.0491     0.0018   216.0000 </r>
       <r>   -61.7919     0.0000   216.0000 </r>
       <r>   -61.5347     0.0000   216.0000 </r>
       <r>   -61.2774     0.0000   216.0000 </r>
       <r>   -61.0202     0.0000   216.0000 </r>
       <r>   -60.7630     0.0000   216.0000 </r>
       <r>   -60.5058     0.0000   216.0000 </r>
       <r>   -60.2486     0.0000   216.0000 </r>
       <r>   -59.9913     0.0000   216.0000 </r>
       <r>   -59.7341     0.0000   216.0000 </r>
       <r>   -59.4769     0.0000   216.0000 </r>
       <r>   -59.2197     0.0000   216.0000 </r>
       <r>   -58.9625     0.0000   216.0000 </r>
       <r>   -58.7053     0.0000   216.0000 </r>
       <r>   -58.4480     0.0000   216.0000 </r>
       <r>   -58.1908     0.0000   216.0000 </r>
       <r>   -57.9336     0.0000   216.0000 </r>
       <r>   -57.6764     0.0000   216.0000 </r>
       <r>   -57.4192     0.0000   216.0000 </r>
       <r>   -57.1619     0.0000   216.0000 </r>
       <r>   -56.9047     0.0000   216.0000 </r>
       <r>   -56.6475     0.0000   216.0000 </r>
       <r>   -56.3903     0.0000   216.0000 </r>
       <r>   -56.1331     0.0000   216.0000 </r>
       <r>   -55.8759     0.0000   216.0000 </r>
       <r>   -55.6186     0.0000   216.0000 </r>
       <r>   -55.3614     0.0000   216.0000 </r>
       <r>   -55.1042     0.0000   216.0000 </r>
       <r>   -54.8470     0.0000   216.0000 </r>
       <r>   -54.5898     0.0000   216.0000 </r>
       <r>   -54.3325     0.0000   216.0000 </r>
       <r>   -54.0753     0.0000   216.0000 </r>
       <r>   -53.8181     0.0000   216.0000 </r>
       <r>   -53.5609     0.0000   216.0000 </r>
       <r>   -53.3037     0.0000   216.0000 </r>
       <r>   -53.0464     0.0000   216.0000 </r>
       <r>   -52.7892     0.0000   216.0000 </r>
       <r>   -52.5320     0.0000   216.0000 </r>
       <r>   -52.2748     0.0000   216.0000 </r>
       <r>   -52.0176     0.0000   216.0000 </r>
       <r>   -51.7604     0.0000   216.0000 </r>
       <r>   -51.5031     0.0000   216.0000 </r>
       <r>   -51.2459     0.0000   216.0000 </r>
       <r>   -50.9887     0.0000   216.0000 </r>
       <r>   -50.7315     0.0000   216.0000 </r>
       <r>   -50.4743     0.0000   216.0000 </r>
       <r>   -50.2170     0.0000   216.0000 </r>
       <r>   -49.9598     0.0000   216.0000 </r>
       <r>   -49.7026     0.0000   216.0000 </r>
       <r>   -49.4454     0.0000   216.0000 </r>
       <r>   -49.1882     0.0000   216.0000 </r>
       <r>   -48.9310     0.0000   216.0000 </r>
       <r>   -48.6737     0.0000   216.0000 </r>
       <r>   -48.4165     0.0000   216.0000 </r>
       <r>   -48.1593     0.0000   216.0000 </r>
       <r>   -47.9021     0.0000   216.0000 </r>
       <r>   -47.6449     0.0000   216.0000 </r>
       <r>   -47.3876     0.0000   216.0000 </r>
       <r>   -47.1304     0.0000   216.0000 </r>
       <r>   -46.8732     0.0000   216.0000 </r>
       <r>   -46.6160     0.0000   216.0000 </r>
       <r>   -46.3588     0.0000   216.0000 </r>
       <r>   -46.1016     0.0000   216.0000 </r>
       <r>   -45.8443     0.0000   216.0000 </r>
       <r>   -45.5871     0.0000   216.0000 </r>
       <r>   -45.3299     0.0000   216.0000 </r>
       <r>   -45.0727     0.0000   216.0000 </r>
       <r>   -44.8155     0.0000   216.0000 </r>
       <r>   -44.5582     0.0000   216.0000 </r>
       <r>   -44.3010     0.0000   216.0000 </r>
       <r>   -44.0438     0.0000   216.0000 </r>
       <r>   -43.7866     0.0000   216.0000 </r>
       <r>   -43.5294     0.0000   216.0000 </r>
       <r>   -43.2722     0.0000   216.0000 </r>
       <r>   -43.0149     0.0000   216.0000 </r>
       <r>   -42.7577     0.0000   216.0000 </r>
       <r>   -42.5005     0.0000   216.0000 </r>
       <r>   -42.2433     0.0000   216.0000 </r>
       <r>   -41.9861     0.0000   216.0000 </r>
       <r>   -41.7288     0.0000   216.0000 </r>
       <r>   -41.4716     0.0000   216.0000 </r>
       <r>   -41.2144     0.0000   216.0000 </r>
       <r>   -40.9572     0.0000   216.0000 </r>
       <r>   -40.7000     0.0000   216.0000 </r>
       <r>   -40.4427     0.0000   216.0000 </r>
       <r>   -40.1855     0.0000   216.0000 </r>
       <r>   -39.9283     0.0000   216.0000 </r>
       <r>   -39.6711     0.0000   216.0000 </r>
       <r>   -39.4139     0.0000   216.0000 </r>
       <r>   -39.1567     0.0000   216.0000 </r>
       <r>   -38.8994     0.0000   216.0000 </r>
       <r>   -38.6422     0.0000   216.0000 </r>
       <r>   -38.3850     0.0000   216.0000 </r>
       <r>   -38.1278     0.0000   216.0000 </r>
       <r>   -37.8706     0.0000   216.0000 </r>
       <r>   -37.6133     0.0000   216.0000 </r>
       <r>   -37.3561     0.0000   216.0000 </r>
       <r>   -37.0989     0.0000   216.0000 </r>
       <r>   -36.8417     0.0000   216.0000 </r>
       <r>   -36.5845     0.0000   216.0000 </r>
       <r>   -36.3273     0.0000   216.0000 </r>
       <r>   -36.0700     0.0000   216.0000 </r>
       <r>   -35.8128     0.0000   216.0000 </r>
       <r>   -35.5556     0.0000   216.0000 </r>
       <r>   -35.2984     0.0000   216.0000 </r>
       <r>   -35.0412     0.0000   216.0000 </r>
       <r>   -34.7839     0.0000   216.0000 </r>
       <r>   -34.5267     0.0000   216.0000 </r>
       <r>   -34.2695     0.0000   216.0000 </r>
       <r>   -34.0123     0.0000   216.0000 </r>
       <r>   -33.7551     0.0000   216.0000 </r>
       <r>   -33.4979     0.0000   216.0000 </r>
       <r>   -33.2406     0.0000   216.0000 </r>
       <r>   -32.9834     0.0000   216.0000 </r>
       <r>   -32.7262     0.0000   216.0000 </r>
       <r>   -32.4690     0.0000   216.0000 </r>
       <r>   -32.2118     0.0000   216.0000 </r>
       <r>   -31.9545     0.0000   216.0000 </r>
       <r>   -31.6973     0.0000   216.0000 </r>
       <r>   -31.4401     0.0000   216.0000 </r>
       <r>   -31.1829     0.0000   216.0000 </r>
       <r>   -30.9257     0.0000   216.0000 </r>
       <r>   -30.6684     0.0000   216.0000 </r>
       <r>   -30.4112     0.0000   216.0000 </r>
       <r>   -30.1540     0.0000   216.0000 </r>
       <r>   -29.8968     0.0000   216.0000 </r>
       <r>   -29.6396     0.0000   216.0000 </r>
       <r>   -29.3824     0.0000   216.0000 </r>
       <r>   -29.1251     0.0000   216.0000 </r>
       <r>   -28.8679     0.0000   216.0000 </r>
       <r>   -28.6107     0.0000   216.0000 </r>
       <r>   -28.3535     0.0000   216.0000 </r>
       <r>   -28.0963     0.0000   216.0000 </r>
       <r>   -27.8390     0.0000   216.0000 </r>
       <r>   -27.5818     0.0000   216.0000 </r>
       <r>   -27.3246     0.0000   216.0000 </r>
       <r>   -27.0674     0.0000   216.0000 </r>
       <r>   -26.8102     0.0000   216.0000 </r>
       <r>   -26.5530     0.0000   216.0000 </r>
       <r>   -26.2957     0.0000   216.0000 </r>
       <r>   -26.0385     0.0000   216.0000 </r>
       <r>   -25.7813     0.0000   216.0000 </r>
       <r>   -25.5241     0.0000   216.0000 </r>
       <r>   -25.2669     0.0000   216.0000 </r>
       <r>   -25.0096     0.0000   216.0000 </r>
       <r>   -24.7524     0.0000   216.0000 </r>
       <r>   -24.4952     0.0000   216.0000 </r>
       <r>   -24.2380     0.0000   216.0000 </r>
       <r>   -23.9808     0.0000   216.0000 </r>
       <r>   -23.7236     0.0000   216.0000 </r>
       <r>   -23.4663     0.0000   216.0000 </r>
       <r>   -23.2091     0.0000   216.0000 </r>
       <r>   -22.9519     0.0000   216.0000 </r>
       <r>   -22.6947     0.0000   216.0000 </r>
       <r>   -22.4375     0.0000   216.0000 </r>
       <r>   -22.1802     0.0000   216.0000 </r>
       <r>   -21.9230     0.0000   216.0000 </r>
       <r>   -21.6658     0.0000   216.0000 </r>
       <r>   -21.4086     0.0000   216.0000 </r>
       <r>   -21.1514     0.0000   216.0000 </r>
       <r>   -20.8942     0.0000   216.0000 </r>
       <r>   -20.6369     0.0000   216.0000 </r>
       <r>   -20.3797     0.0000   216.0000 </r>
       <r>   -20.1225     0.0000   216.0000 </r>
       <r>   -19.8653     0.0000   216.0000 </r>
       <r>   -19.6081     0.0000   216.0000 </r>
       <r>   -19.3508     0.0000   216.0000 </r>
       <r>   -19.0936     0.0000   216.0000 </r>
       <r>   -18.8364     0.0000   216.0000 </r>
       <r>   -18.5792     0.0000   216.0000 </r>
       <r>   -18.3220     0.0000   216.0000 </r>
       <r>   -18.0647     0.0000   216.0000 </r>
       <r>   -17.8075     0.0000   216.0000 </r>
       <r>   -17.5503     0.0000   216.0000 </r>
       <r>   -17.2931     0.0000   216.0000 </r>
       <r>   -17.0359     0.0000   216.0000 </r>
       <r>   -16.7787     0.0000   216.0000 </r>
       <r>   -16.5214     0.0000   216.0000 </r>
       <r>   -16.2642     0.0000   216.0000 </r>
       <r>   -16.0070     0.0000   216.0000 </r>
       <r>   -15.7498     0.0017   216.0004 </r>
       <r>   -15.4926     0.3423   216.0885 </r>
       <r>   -15.2353     4.2765   217.1885 </r>
       <r>   -14.9781     9.5886   219.6548 </r>
       <r>   -14.7209     9.4891   222.0956 </r>
       <r>   -14.4637    11.9819   225.1775 </r>
       <r>   -14.2065    22.3190   230.9184 </r>
       <r>   -13.9493    27.7866   238.0656 </r>
       <r>   -13.6920    28.4724   245.3892 </r>
       <r>   -13.4348    28.7074   252.7733 </r>
       <r>   -13.1776    25.3673   259.2982 </r>
       <r>   -12.9204    26.0351   265.9949 </r>
       <r>   -12.6632    27.3935   273.0411 </r>
       <r>   -12.4059    30.0405   280.7680 </r>
       <r>   -12.1487    15.1584   284.6671 </r>
       <r>   -11.8915     7.7597   286.6630 </r>
       <r>   -11.6343     4.7250   287.8784 </r>
       <r>   -11.3771     0.4700   287.9992 </r>
       <r>   -11.1199     0.0029   288.0000 </r>
       <r>   -10.8626     0.0000   288.0000 </r>
       <r>   -10.6054     0.0000   288.0000 </r>
       <r>   -10.3482     0.0000   288.0000 </r>
       <r>   -10.0910     0.0000   288.0000 </r>
       <r>    -9.8338     0.0000   288.0000 </r>
       <r>    -9.5765     0.0000   288.0000 </r>
       <r>    -9.3193     0.0000   288.0000 </r>
       <r>    -9.0621     0.0000   288.0000 </r>
       <r>    -8.8049     0.0000   288.0000 </r>
       <r>    -8.5477     0.0000   288.0000 </r>
       <r>    -8.2905     0.0000   288.0000 </r>
       <r>    -8.0332     0.0000   288.0000 </r>
       <r>    -7.7760     0.0000   288.0000 </r>
       <r>    -7.5188     0.0013   288.0003 </r>
       <r>    -7.2616     0.4910   288.1266 </r>
       <r>    -7.0044    10.9594   290.9456 </r>
       <r>    -6.7471    24.2154   297.1742 </r>
       <r>    -6.4899    24.0153   303.3514 </r>
       <r>    -6.2327    38.2982   313.2024 </r>
       <r>    -5.9755    42.1928   324.0552 </r>
       <r>    -5.7183    46.9574   336.1335 </r>
       <r>    -5.4610    54.7407   350.2138 </r>
       <r>    -5.2038    45.5652   361.9340 </r>
       <r>    -4.9466    37.3317   371.5364 </r>
       <r>    -4.6894    49.7475   384.3324 </r>
       <r>    -4.4322    64.3123   400.8747 </r>
       <r>    -4.1750    52.4733   414.3718 </r>
       <r>    -3.9177    64.1844   430.8812 </r>
       <r>    -3.6605    69.4589   448.7473 </r>
       <r>    -3.4033    60.3207   464.2629 </r>
       <r>    -3.1461    55.6286   478.5716 </r>
       <r>    -2.8889    63.7672   494.9737 </r>
       <r>    -2.6316    67.4662   512.3272 </r>
       <r>    -2.3744    92.4317   536.1023 </r>
       <r>    -2.1172   127.0428   568.7801 </r>
       <r>    -1.8600   155.1697   608.6926 </r>
       <r>    -1.6028   162.9580   650.6084 </r>
       <r>    -1.3456   151.2858   689.5218 </r>
       <r>    -1.0883   125.1628   721.7160 </r>
       <r>    -0.8311   107.2579   749.3047 </r>
       <r>    -0.5739    92.3366   773.0554 </r>
       <r>    -0.3167    68.7506   790.7393 </r>
       <r>    -0.0595    59.6344   806.0784 </r>
       <r>     0.1978    54.6237   820.1286 </r>
       <r>     0.4550    52.1358   833.5389 </r>
       <r>     0.7122    57.1458   848.2378 </r>
       <r>     0.9694    58.6682   863.3284 </r>
       <r>     1.2266    29.4189   870.8955 </r>
       <r>     1.4838    10.7457   873.6594 </r>
       <r>     1.7411     8.0154   875.7211 </r>
       <r>     1.9983     2.4440   876.3498 </r>
       <r>     2.2555     5.2469   877.6994 </r>
       <r>     2.5127     5.1465   879.0232 </r>
       <r>     2.7699     5.1301   880.3427 </r>
       <r>     3.0272     7.9315   882.3829 </r>
       <r>     3.2844    10.7512   885.1483 </r>
       <r>     3.5416    15.5458   889.1469 </r>
       <r>     3.7988    13.9940   892.7464 </r>
       <r>     4.0560    26.6641   899.6049 </r>
       <r>     4.3132    37.7287   909.3094 </r>
       <r>     4.5705    28.3999   916.6144 </r>
       <r>     4.8277    27.8204   923.7703 </r>
       <r>     5.0849    28.9191   931.2089 </r>
       <r>     5.3421    42.7980   942.2173 </r>
       <r>     5.5993    47.2512   954.3712 </r>
       <r>     5.8566    20.2126   959.5702 </r>
       <r>     6.1138     1.6573   959.9965 </r>
       <r>     6.3710     0.0137   960.0000 </r>
       <r>     6.6282     0.0000   960.0000 </r>
       <r>     6.8854     0.0000   960.0000 </r>
       <r>     7.1427     0.0000   960.0000 </r>
       <r>     7.3999     0.0000   960.0000 </r>
       <r>     7.6571     0.0000   960.0000 </r>
       <r>     7.9143     0.0000   960.0000 </r>
       <r>     8.1715     0.0000   960.0000 </r>
       <r>     8.4287     0.0000   960.0000 </r>
       <r>     8.6860     0.0000   960.0000 </r>
       <r>     8.9432     0.0000   960.0000 </r>
       <r>     9.2004     0.0000   960.0000 </r>
      </set>
     </set>
    </array>
   </total>
  </dos>
 </calculation>
 <structure name="finalpos" >
  <crystal>
   <varray name="basis" >
    <v>      16.88469405       0.00000000       0.00000000 </v>
    <v>       0.00000000       9.57841000       0.00000000 </v>
    <v>       0.00000000       0.00000000      16.16908712 </v>
   </varray>
   <i name="volume">   2615.00256803 </i>
   <varray name="rec_basis" >
    <v>       0.05922524       0.00000000       0.00000000 </v>
    <v>       0.00000000       0.10440146       0.00000000 </v>
    <v>       0.00000000       0.00000000       0.06184641 </v>
   </varray>
  </crystal>
  <varray name="positions" >
   <v>       0.78004631       0.14529695       0.12058499 </v>
   <v>       0.81461426       0.14529695       0.31135294 </v>
   <v>       0.26276233       0.64529695       0.02520102 </v>
   <v>       0.29733029       0.64529695       0.21596897 </v>
   <v>       0.43519032       0.14529695       0.05699568 </v>
   <v>       0.46975828       0.14529695       0.24776362 </v>
   <v>       0.95247430       0.64529695       0.15237965 </v>
   <v>       0.98704226       0.64529695       0.34314760 </v>
   <v>       0.12490229       0.14529695       0.18417431 </v>
   <v>       0.15947025       0.14529695       0.37494226 </v>
   <v>       0.60761831       0.64529695       0.08879033 </v>
   <v>       0.64218627       0.64529695       0.27955828 </v>
   <v>       0.90758278       0.01319395       0.09538397 </v>
   <v>       0.94215073       0.01319395       0.28615192 </v>
   <v>       0.42486675       0.51319395       0.19076795 </v>
   <v>       0.45943471       0.51319395       0.38153589 </v>
   <v>       0.59729475       0.01319395       0.22256261 </v>
   <v>       0.08001077       0.51319395       0.12717863 </v>
   <v>       0.11457873       0.51319395       0.31794658 </v>
   <v>       0.25243876       0.01319395       0.15897329 </v>
   <v>       0.28700672       0.01319395       0.34974124 </v>
   <v>       0.73515478       0.51319395       0.06358932 </v>
   <v>       0.76972274       0.51319395       0.25435726 </v>
   <v>       0.90758278       0.27739995       0.09538397 </v>
   <v>       0.94215073       0.27739995       0.28615192 </v>
   <v>       0.39029880       0.77739995       0.00000000 </v>
   <v>       0.42486675       0.77739995       0.19076795 </v>
   <v>       0.45943471       0.77739995       0.38153589 </v>
   <v>       0.56272679       0.27739995       0.03179466 </v>
   <v>       0.59729475       0.27739995       0.22256261 </v>
   <v>       0.08001077       0.77739995       0.12717863 </v>
   <v>       0.11457873       0.77739995       0.31794658 </v>
   <v>       0.25243876       0.27739995       0.15897329 </v>
   <v>       0.28700672       0.27739995       0.34974124 </v>
   <v>       0.73515478       0.77739995       0.06358932 </v>
   <v>       0.76972274       0.77739995       0.25435726 </v>
   <v>       0.02602916       0.14529695       0.37317765 </v>
   <v>       0.99146121       0.14529695       0.18240970 </v>
   <v>       0.47417723       0.64529695       0.08702573 </v>
   <v>       0.50874518       0.64529695       0.27779368 </v>
   <v>       0.64660522       0.14529695       0.11882039 </v>
   <v>       0.68117318       0.14529695       0.30958834 </v>
   <v>       0.12932124       0.64529695       0.02343641 </v>
   <v>       0.16388920       0.64529695       0.21420436 </v>
   <v>       0.30174923       0.14529695       0.05523107 </v>
   <v>       0.33631719       0.14529695       0.24599902 </v>
   <v>       0.81903321       0.64529695       0.15061505 </v>
   <v>       0.85360117       0.64529695       0.34138299 </v>
   <v>       0.79449310       0.31351195       0.02373179 </v>
   <v>       0.82906105       0.31351195       0.21449973 </v>
   <v>       0.31177708       0.81351195       0.11911576 </v>
   <v>       0.34634503       0.81351195       0.30988371 </v>
   <v>       0.48420507       0.31351195       0.15091042 </v>
   <v>       0.51877303       0.31351195       0.34167837 </v>
   <v>       0.00148905       0.81351195       0.24629439 </v>
   <v>       0.96692109       0.81351195       0.05552644 </v>
   <v>       0.13934908       0.31351195       0.08732110 </v>
   <v>       0.17391704       0.31351195       0.27808905 </v>
   <v>       0.65663306       0.81351195       0.18270508 </v>
   <v>       0.69120102       0.81351195       0.37347302 </v>
   <v>       0.31177708       0.47708195       0.11911576 </v>
   <v>       0.34634503       0.47708195       0.30988371 </v>
   <v>       0.79449310       0.97708195       0.02373179 </v>
   <v>       0.82906105       0.97708195       0.21449973 </v>
   <v>       0.00148905       0.47708195       0.24629439 </v>
   <v>       0.96692109       0.47708195       0.05552644 </v>
   <v>       0.48420507       0.97708195       0.15091042 </v>
   <v>       0.51877303       0.97708195       0.34167837 </v>
   <v>       0.65663306       0.47708195       0.18270508 </v>
   <v>       0.69120102       0.47708195       0.37347302 </v>
   <v>       0.13934908       0.97708195       0.08732110 </v>
   <v>       0.17391704       0.97708195       0.27808905 </v>
  </varray>
 </structure>
</modeling>
