  74  74   0   0
  0.3639907E+02  0.1688469E-08  0.9578410E-09  0.1665465E-08  0.5000000E-15
  1.000000000000000E-004
  CAR 
 "Millerite NiS"                         
      9.28312135    -68.67721646  301     -0.15697600      1.00000000
    -68.677  0.0000E+00  0.0000E+00
    -68.417  0.0000E+00  0.0000E+00
    -68.157  0.0000E+00  0.0000E+00
    -67.898  0.0000E+00  0.0000E+00
    -67.638  0.0000E+00  0.0000E+00
    -67.378  0.0000E+00  0.0000E+00
    -67.118  0.0000E+00  0.0000E+00
    -66.858  0.0000E+00  0.0000E+00
    -66.598  0.0000E+00  0.0000E+00
    -66.338  0.0000E+00  0.0000E+00
    -66.079  0.1273E-09  0.3308E-10
    -65.819  0.7551E-05  0.1962E-05
    -65.559  0.1837E-01  0.4775E-02
    -65.299  0.2318E+01  0.6072E+00
    -65.039  0.2893E+02  0.8126E+01
    -64.779  0.1097E+03  0.3664E+02
    -64.519  0.2058E+03  0.9011E+02
    -64.259  0.2254E+03  0.1487E+03
    -64.000  0.1544E+03  0.1888E+03
    -63.740  0.7120E+02  0.2073E+03
    -63.480  0.4395E+02  0.2187E+03
    -63.220  0.1207E+02  0.2219E+03
    -62.960  0.4660E+00  0.2220E+03
    -62.700  0.1294E-02  0.2220E+03
    -62.440  0.1761E-06  0.2220E+03
    -62.181  0.9766E-12  0.2220E+03
    -61.921  0.0000E+00  0.2220E+03
    -61.661  0.0000E+00  0.2220E+03
    -61.401  0.0000E+00  0.2220E+03
    -61.141  0.0000E+00  0.2220E+03
    -60.881  0.0000E+00  0.2220E+03
    -60.621  0.0000E+00  0.2220E+03
    -60.361  0.0000E+00  0.2220E+03
    -60.102  0.0000E+00  0.2220E+03
    -59.842  0.0000E+00  0.2220E+03
    -59.582  0.0000E+00  0.2220E+03
    -59.322  0.0000E+00  0.2220E+03
    -59.062  0.0000E+00  0.2220E+03
    -58.802  0.0000E+00  0.2220E+03
    -58.542  0.0000E+00  0.2220E+03
    -58.283  0.0000E+00  0.2220E+03
    -58.023  0.0000E+00  0.2220E+03
    -57.763  0.0000E+00  0.2220E+03
    -57.503  0.0000E+00  0.2220E+03
    -57.243  0.0000E+00  0.2220E+03
    -56.983  0.0000E+00  0.2220E+03
    -56.723  0.0000E+00  0.2220E+03
    -56.463  0.0000E+00  0.2220E+03
    -56.204  0.0000E+00  0.2220E+03
    -55.944  0.0000E+00  0.2220E+03
    -55.684  0.0000E+00  0.2220E+03
    -55.424  0.0000E+00  0.2220E+03
    -55.164  0.0000E+00  0.2220E+03
    -54.904  0.0000E+00  0.2220E+03
    -54.644  0.0000E+00  0.2220E+03
    -54.384  0.0000E+00  0.2220E+03
    -54.125  0.0000E+00  0.2220E+03
    -53.865  0.0000E+00  0.2220E+03
    -53.605  0.0000E+00  0.2220E+03
    -53.345  0.0000E+00  0.2220E+03
    -53.085  0.0000E+00  0.2220E+03
    -52.825  0.0000E+00  0.2220E+03
    -52.565  0.0000E+00  0.2220E+03
    -52.306  0.0000E+00  0.2220E+03
    -52.046  0.0000E+00  0.2220E+03
    -51.786  0.0000E+00  0.2220E+03
    -51.526  0.0000E+00  0.2220E+03
    -51.266  0.0000E+00  0.2220E+03
    -51.006  0.0000E+00  0.2220E+03
    -50.746  0.0000E+00  0.2220E+03
    -50.486  0.0000E+00  0.2220E+03
    -50.227  0.0000E+00  0.2220E+03
    -49.967  0.0000E+00  0.2220E+03
    -49.707  0.0000E+00  0.2220E+03
    -49.447  0.0000E+00  0.2220E+03
    -49.187  0.0000E+00  0.2220E+03
    -48.927  0.0000E+00  0.2220E+03
    -48.667  0.0000E+00  0.2220E+03
    -48.408  0.0000E+00  0.2220E+03
    -48.148  0.0000E+00  0.2220E+03
    -47.888  0.0000E+00  0.2220E+03
    -47.628  0.0000E+00  0.2220E+03
    -47.368  0.0000E+00  0.2220E+03
    -47.108  0.0000E+00  0.2220E+03
    -46.848  0.0000E+00  0.2220E+03
    -46.588  0.0000E+00  0.2220E+03
    -46.329  0.0000E+00  0.2220E+03
    -46.069  0.0000E+00  0.2220E+03
    -45.809  0.0000E+00  0.2220E+03
    -45.549  0.0000E+00  0.2220E+03
    -45.289  0.0000E+00  0.2220E+03
    -45.029  0.0000E+00  0.2220E+03
    -44.769  0.0000E+00  0.2220E+03
    -44.510  0.0000E+00  0.2220E+03
    -44.250  0.0000E+00  0.2220E+03
    -43.990  0.0000E+00  0.2220E+03
    -43.730  0.0000E+00  0.2220E+03
    -43.470  0.0000E+00  0.2220E+03
    -43.210  0.0000E+00  0.2220E+03
    -42.950  0.0000E+00  0.2220E+03
    -42.690  0.0000E+00  0.2220E+03
    -42.431  0.0000E+00  0.2220E+03
    -42.171  0.0000E+00  0.2220E+03
    -41.911  0.0000E+00  0.2220E+03
    -41.651  0.0000E+00  0.2220E+03
    -41.391  0.0000E+00  0.2220E+03
    -41.131  0.0000E+00  0.2220E+03
    -40.871  0.0000E+00  0.2220E+03
    -40.611  0.0000E+00  0.2220E+03
    -40.352  0.0000E+00  0.2220E+03
    -40.092  0.0000E+00  0.2220E+03
    -39.832  0.0000E+00  0.2220E+03
    -39.572  0.0000E+00  0.2220E+03
    -39.312  0.0000E+00  0.2220E+03
    -39.052  0.0000E+00  0.2220E+03
    -38.792  0.0000E+00  0.2220E+03
    -38.533  0.0000E+00  0.2220E+03
    -38.273  0.0000E+00  0.2220E+03
    -38.013  0.0000E+00  0.2220E+03
    -37.753  0.0000E+00  0.2220E+03
    -37.493  0.0000E+00  0.2220E+03
    -37.233  0.0000E+00  0.2220E+03
    -36.973  0.0000E+00  0.2220E+03
    -36.713  0.0000E+00  0.2220E+03
    -36.454  0.0000E+00  0.2220E+03
    -36.194  0.0000E+00  0.2220E+03
    -35.934  0.0000E+00  0.2220E+03
    -35.674  0.0000E+00  0.2220E+03
    -35.414  0.0000E+00  0.2220E+03
    -35.154  0.0000E+00  0.2220E+03
    -34.894  0.0000E+00  0.2220E+03
    -34.635  0.0000E+00  0.2220E+03
    -34.375  0.0000E+00  0.2220E+03
    -34.115  0.0000E+00  0.2220E+03
    -33.855  0.0000E+00  0.2220E+03
    -33.595  0.0000E+00  0.2220E+03
    -33.335  0.0000E+00  0.2220E+03
    -33.075  0.0000E+00  0.2220E+03
    -32.815  0.0000E+00  0.2220E+03
    -32.556  0.0000E+00  0.2220E+03
    -32.296  0.0000E+00  0.2220E+03
    -32.036  0.0000E+00  0.2220E+03
    -31.776  0.0000E+00  0.2220E+03
    -31.516  0.0000E+00  0.2220E+03
    -31.256  0.0000E+00  0.2220E+03
    -30.996  0.0000E+00  0.2220E+03
    -30.737  0.0000E+00  0.2220E+03
    -30.477  0.0000E+00  0.2220E+03
    -30.217  0.0000E+00  0.2220E+03
    -29.957  0.0000E+00  0.2220E+03
    -29.697  0.0000E+00  0.2220E+03
    -29.437  0.0000E+00  0.2220E+03
    -29.177  0.0000E+00  0.2220E+03
    -28.917  0.0000E+00  0.2220E+03
    -28.658  0.0000E+00  0.2220E+03
    -28.398  0.0000E+00  0.2220E+03
    -28.138  0.0000E+00  0.2220E+03
    -27.878  0.0000E+00  0.2220E+03
    -27.618  0.0000E+00  0.2220E+03
    -27.358  0.0000E+00  0.2220E+03
    -27.098  0.0000E+00  0.2220E+03
    -26.839  0.0000E+00  0.2220E+03
    -26.579  0.0000E+00  0.2220E+03
    -26.319  0.0000E+00  0.2220E+03
    -26.059  0.0000E+00  0.2220E+03
    -25.799  0.0000E+00  0.2220E+03
    -25.539  0.0000E+00  0.2220E+03
    -25.279  0.0000E+00  0.2220E+03
    -25.019  0.0000E+00  0.2220E+03
    -24.760  0.0000E+00  0.2220E+03
    -24.500  0.0000E+00  0.2220E+03
    -24.240  0.0000E+00  0.2220E+03
    -23.980  0.0000E+00  0.2220E+03
    -23.720  0.0000E+00  0.2220E+03
    -23.460  0.0000E+00  0.2220E+03
    -23.200  0.0000E+00  0.2220E+03
    -22.940  0.0000E+00  0.2220E+03
    -22.681  0.0000E+00  0.2220E+03
    -22.421  0.0000E+00  0.2220E+03
    -22.161  0.0000E+00  0.2220E+03
    -21.901  0.0000E+00  0.2220E+03
    -21.641  0.0000E+00  0.2220E+03
    -21.381  0.0000E+00  0.2220E+03
    -21.121  0.0000E+00  0.2220E+03
    -20.862  0.0000E+00  0.2220E+03
    -20.602  0.0000E+00  0.2220E+03
    -20.342  0.0000E+00  0.2220E+03
    -20.082  0.0000E+00  0.2220E+03
    -19.822  0.0000E+00  0.2220E+03
    -19.562  0.0000E+00  0.2220E+03
    -19.302  0.0000E+00  0.2220E+03
    -19.042  0.0000E+00  0.2220E+03
    -18.783  0.0000E+00  0.2220E+03
    -18.523  0.0000E+00  0.2220E+03
    -18.263  0.0000E+00  0.2220E+03
    -18.003  0.0000E+00  0.2220E+03
    -17.743  0.4272E-15  0.2220E+03
    -17.483  0.2659E-09  0.2220E+03
    -17.223  0.1077E-04  0.2220E+03
    -16.964  0.1702E-01  0.2220E+03
    -16.704  0.1244E+01  0.2223E+03
    -16.444  0.7116E+01  0.2242E+03
    -16.184  0.9069E+01  0.2265E+03
    -15.924  0.7462E+01  0.2285E+03
    -15.664  0.1046E+02  0.2312E+03
    -15.404  0.2182E+02  0.2369E+03
    -15.144  0.2234E+02  0.2427E+03
    -14.885  0.2101E+02  0.2481E+03
    -14.625  0.2829E+02  0.2555E+03
    -14.365  0.2677E+02  0.2624E+03
    -14.105  0.2882E+02  0.2699E+03
    -13.845  0.3072E+02  0.2779E+03
    -13.585  0.2387E+02  0.2841E+03
    -13.325  0.1911E+02  0.2891E+03
    -13.066  0.1269E+02  0.2924E+03
    -12.806  0.1019E+02  0.2950E+03
    -12.546  0.3638E+01  0.2960E+03
    -12.286  0.1328E+00  0.2960E+03
    -12.026  0.2737E-03  0.2960E+03
    -11.766  0.2368E-07  0.2960E+03
    -11.506  0.7690E-13  0.2960E+03
    -11.246  0.0000E+00  0.2960E+03
    -10.987  0.0000E+00  0.2960E+03
    -10.727  0.0000E+00  0.2960E+03
    -10.467  0.0000E+00  0.2960E+03
    -10.207  0.0000E+00  0.2960E+03
     -9.947  0.0000E+00  0.2960E+03
     -9.687  0.0000E+00  0.2960E+03
     -9.427  0.4580E-12  0.2960E+03
     -9.167  0.9255E-07  0.2960E+03
     -8.908  0.7077E-03  0.2960E+03
     -8.648  0.2313E+00  0.2961E+03
     -8.388  0.4665E+01  0.2973E+03
     -8.128  0.1383E+02  0.3009E+03
     -7.868  0.2269E+02  0.3068E+03
     -7.608  0.3535E+02  0.3159E+03
     -7.348  0.4094E+02  0.3266E+03
     -7.089  0.3981E+02  0.3369E+03
     -6.829  0.3845E+02  0.3469E+03
     -6.569  0.4462E+02  0.3585E+03
     -6.309  0.4352E+02  0.3698E+03
     -6.049  0.4542E+02  0.3816E+03
     -5.789  0.5390E+02  0.3956E+03
     -5.529  0.5603E+02  0.4102E+03
     -5.269  0.6568E+02  0.4273E+03
     -5.010  0.7001E+02  0.4455E+03
     -4.750  0.6619E+02  0.4627E+03
     -4.490  0.6070E+02  0.4784E+03
     -4.230  0.5108E+02  0.4917E+03
     -3.970  0.3898E+02  0.5018E+03
     -3.710  0.4489E+02  0.5135E+03
     -3.450  0.5762E+02  0.5285E+03
     -3.191  0.6417E+02  0.5451E+03
     -2.931  0.7838E+02  0.5655E+03
     -2.671  0.9657E+02  0.5906E+03
     -2.411  0.1117E+03  0.6196E+03
     -2.151  0.1303E+03  0.6535E+03
     -1.891  0.1234E+03  0.6856E+03
     -1.631  0.1113E+03  0.7145E+03
     -1.371  0.9224E+02  0.7385E+03
     -1.112  0.7915E+02  0.7590E+03
     -0.852  0.6831E+02  0.7768E+03
     -0.592  0.5646E+02  0.7915E+03
     -0.332  0.4985E+02  0.8044E+03
     -0.072  0.5450E+02  0.8186E+03
      0.188  0.5572E+02  0.8331E+03
      0.448  0.4149E+02  0.8438E+03
      0.707  0.3736E+02  0.8535E+03
      0.967  0.4275E+02  0.8647E+03
      1.227  0.3671E+02  0.8742E+03
      1.487  0.3136E+02  0.8823E+03
      1.747  0.1763E+02  0.8869E+03
      2.007  0.6439E+01  0.8886E+03
      2.267  0.4845E+01  0.8899E+03
      2.527  0.3848E+01  0.8909E+03
      2.786  0.1126E+02  0.8938E+03
      3.046  0.8683E+01  0.8960E+03
      3.306  0.9745E+01  0.8986E+03
      3.566  0.1737E+02  0.9031E+03
      3.826  0.1633E+02  0.9073E+03
      4.086  0.2098E+02  0.9128E+03
      4.346  0.2488E+02  0.9192E+03
      4.606  0.3187E+02  0.9275E+03
      4.865  0.3943E+02  0.9378E+03
      5.125  0.3968E+02  0.9481E+03
      5.385  0.4473E+02  0.9597E+03
      5.645  0.4141E+02  0.9705E+03
      5.905  0.1946E+02  0.9755E+03
      6.165  0.1813E+01  0.9760E+03
      6.425  0.1430E-01  0.9760E+03
      6.684  0.5820E-05  0.9760E+03
      6.944  0.9921E-10  0.9760E+03
      7.204  0.0000E+00  0.9760E+03
      7.464  0.0000E+00  0.9760E+03
      7.724  0.0000E+00  0.9760E+03
      7.984  0.0000E+00  0.9760E+03
      8.244  0.0000E+00  0.9760E+03
      8.504  0.0000E+00  0.9760E+03
      8.763  0.0000E+00  0.9760E+03
      9.023  0.0000E+00  0.9760E+03
      9.283  0.0000E+00  0.9760E+03
