  60  60   0   0
  0.3182702E+02  0.9578410E-09  0.1125646E-08  0.1771136E-08  0.5000000E-15
  1.000000000000000E-004
  CAR 
 "Millerite NiS"                         
      9.97224396    -67.36794694  301      0.30094796      1.00000000
    -67.368  0.0000E+00  0.0000E+00
    -67.110  0.0000E+00  0.0000E+00
    -66.852  0.0000E+00  0.0000E+00
    -66.595  0.0000E+00  0.0000E+00
    -66.337  0.0000E+00  0.0000E+00
    -66.079  0.0000E+00  0.0000E+00
    -65.821  0.0000E+00  0.0000E+00
    -65.563  0.0000E+00  0.0000E+00
    -65.306  0.0000E+00  0.0000E+00
    -65.048  0.0000E+00  0.0000E+00
    -64.790  0.1900E-09  0.4898E-10
    -64.532  0.1119E-04  0.2884E-05
    -64.274  0.3304E-01  0.8522E-02
    -64.017  0.5926E+01  0.1536E+01
    -63.759  0.8549E+02  0.2358E+02
    -63.501  0.1899E+03  0.7254E+02
    -63.243  0.1702E+03  0.1164E+03
    -62.985  0.8042E+02  0.1371E+03
    -62.728  0.7839E+02  0.1574E+03
    -62.470  0.5642E+02  0.1719E+03
    -62.212  0.2202E+02  0.1776E+03
    -61.954  0.8652E+01  0.1798E+03
    -61.696  0.7320E+00  0.1800E+03
    -61.439  0.4361E-02  0.1800E+03
    -61.181  0.1270E-05  0.1800E+03
    -60.923  0.1553E-10  0.1800E+03
    -60.665  0.0000E+00  0.1800E+03
    -60.407  0.0000E+00  0.1800E+03
    -60.150  0.0000E+00  0.1800E+03
    -59.892  0.0000E+00  0.1800E+03
    -59.634  0.0000E+00  0.1800E+03
    -59.376  0.0000E+00  0.1800E+03
    -59.118  0.0000E+00  0.1800E+03
    -58.861  0.0000E+00  0.1800E+03
    -58.603  0.0000E+00  0.1800E+03
    -58.345  0.0000E+00  0.1800E+03
    -58.087  0.0000E+00  0.1800E+03
    -57.829  0.0000E+00  0.1800E+03
    -57.572  0.0000E+00  0.1800E+03
    -57.314  0.0000E+00  0.1800E+03
    -57.056  0.0000E+00  0.1800E+03
    -56.798  0.0000E+00  0.1800E+03
    -56.540  0.0000E+00  0.1800E+03
    -56.283  0.0000E+00  0.1800E+03
    -56.025  0.0000E+00  0.1800E+03
    -55.767  0.0000E+00  0.1800E+03
    -55.509  0.0000E+00  0.1800E+03
    -55.251  0.0000E+00  0.1800E+03
    -54.994  0.0000E+00  0.1800E+03
    -54.736  0.0000E+00  0.1800E+03
    -54.478  0.0000E+00  0.1800E+03
    -54.220  0.0000E+00  0.1800E+03
    -53.962  0.0000E+00  0.1800E+03
    -53.705  0.0000E+00  0.1800E+03
    -53.447  0.0000E+00  0.1800E+03
    -53.189  0.0000E+00  0.1800E+03
    -52.931  0.0000E+00  0.1800E+03
    -52.673  0.0000E+00  0.1800E+03
    -52.416  0.0000E+00  0.1800E+03
    -52.158  0.0000E+00  0.1800E+03
    -51.900  0.0000E+00  0.1800E+03
    -51.642  0.0000E+00  0.1800E+03
    -51.384  0.0000E+00  0.1800E+03
    -51.127  0.0000E+00  0.1800E+03
    -50.869  0.0000E+00  0.1800E+03
    -50.611  0.0000E+00  0.1800E+03
    -50.353  0.0000E+00  0.1800E+03
    -50.095  0.0000E+00  0.1800E+03
    -49.838  0.0000E+00  0.1800E+03
    -49.580  0.0000E+00  0.1800E+03
    -49.322  0.0000E+00  0.1800E+03
    -49.064  0.0000E+00  0.1800E+03
    -48.806  0.0000E+00  0.1800E+03
    -48.549  0.0000E+00  0.1800E+03
    -48.291  0.0000E+00  0.1800E+03
    -48.033  0.0000E+00  0.1800E+03
    -47.775  0.0000E+00  0.1800E+03
    -47.517  0.0000E+00  0.1800E+03
    -47.259  0.0000E+00  0.1800E+03
    -47.002  0.0000E+00  0.1800E+03
    -46.744  0.0000E+00  0.1800E+03
    -46.486  0.0000E+00  0.1800E+03
    -46.228  0.0000E+00  0.1800E+03
    -45.970  0.0000E+00  0.1800E+03
    -45.713  0.0000E+00  0.1800E+03
    -45.455  0.0000E+00  0.1800E+03
    -45.197  0.0000E+00  0.1800E+03
    -44.939  0.0000E+00  0.1800E+03
    -44.681  0.0000E+00  0.1800E+03
    -44.424  0.0000E+00  0.1800E+03
    -44.166  0.0000E+00  0.1800E+03
    -43.908  0.0000E+00  0.1800E+03
    -43.650  0.0000E+00  0.1800E+03
    -43.392  0.0000E+00  0.1800E+03
    -43.135  0.0000E+00  0.1800E+03
    -42.877  0.0000E+00  0.1800E+03
    -42.619  0.0000E+00  0.1800E+03
    -42.361  0.0000E+00  0.1800E+03
    -42.103  0.0000E+00  0.1800E+03
    -41.846  0.0000E+00  0.1800E+03
    -41.588  0.0000E+00  0.1800E+03
    -41.330  0.0000E+00  0.1800E+03
    -41.072  0.0000E+00  0.1800E+03
    -40.814  0.0000E+00  0.1800E+03
    -40.557  0.0000E+00  0.1800E+03
    -40.299  0.0000E+00  0.1800E+03
    -40.041  0.0000E+00  0.1800E+03
    -39.783  0.0000E+00  0.1800E+03
    -39.525  0.0000E+00  0.1800E+03
    -39.268  0.0000E+00  0.1800E+03
    -39.010  0.0000E+00  0.1800E+03
    -38.752  0.0000E+00  0.1800E+03
    -38.494  0.0000E+00  0.1800E+03
    -38.236  0.0000E+00  0.1800E+03
    -37.979  0.0000E+00  0.1800E+03
    -37.721  0.0000E+00  0.1800E+03
    -37.463  0.0000E+00  0.1800E+03
    -37.205  0.0000E+00  0.1800E+03
    -36.947  0.0000E+00  0.1800E+03
    -36.690  0.0000E+00  0.1800E+03
    -36.432  0.0000E+00  0.1800E+03
    -36.174  0.0000E+00  0.1800E+03
    -35.916  0.0000E+00  0.1800E+03
    -35.658  0.0000E+00  0.1800E+03
    -35.401  0.0000E+00  0.1800E+03
    -35.143  0.0000E+00  0.1800E+03
    -34.885  0.0000E+00  0.1800E+03
    -34.627  0.0000E+00  0.1800E+03
    -34.369  0.0000E+00  0.1800E+03
    -34.112  0.0000E+00  0.1800E+03
    -33.854  0.0000E+00  0.1800E+03
    -33.596  0.0000E+00  0.1800E+03
    -33.338  0.0000E+00  0.1800E+03
    -33.080  0.0000E+00  0.1800E+03
    -32.823  0.0000E+00  0.1800E+03
    -32.565  0.0000E+00  0.1800E+03
    -32.307  0.0000E+00  0.1800E+03
    -32.049  0.0000E+00  0.1800E+03
    -31.791  0.0000E+00  0.1800E+03
    -31.534  0.0000E+00  0.1800E+03
    -31.276  0.0000E+00  0.1800E+03
    -31.018  0.0000E+00  0.1800E+03
    -30.760  0.0000E+00  0.1800E+03
    -30.502  0.0000E+00  0.1800E+03
    -30.245  0.0000E+00  0.1800E+03
    -29.987  0.0000E+00  0.1800E+03
    -29.729  0.0000E+00  0.1800E+03
    -29.471  0.0000E+00  0.1800E+03
    -29.213  0.0000E+00  0.1800E+03
    -28.956  0.0000E+00  0.1800E+03
    -28.698  0.0000E+00  0.1800E+03
    -28.440  0.0000E+00  0.1800E+03
    -28.182  0.0000E+00  0.1800E+03
    -27.924  0.0000E+00  0.1800E+03
    -27.667  0.0000E+00  0.1800E+03
    -27.409  0.0000E+00  0.1800E+03
    -27.151  0.0000E+00  0.1800E+03
    -26.893  0.0000E+00  0.1800E+03
    -26.635  0.0000E+00  0.1800E+03
    -26.378  0.0000E+00  0.1800E+03
    -26.120  0.0000E+00  0.1800E+03
    -25.862  0.0000E+00  0.1800E+03
    -25.604  0.0000E+00  0.1800E+03
    -25.346  0.0000E+00  0.1800E+03
    -25.089  0.0000E+00  0.1800E+03
    -24.831  0.0000E+00  0.1800E+03
    -24.573  0.0000E+00  0.1800E+03
    -24.315  0.0000E+00  0.1800E+03
    -24.057  0.0000E+00  0.1800E+03
    -23.800  0.0000E+00  0.1800E+03
    -23.542  0.0000E+00  0.1800E+03
    -23.284  0.0000E+00  0.1800E+03
    -23.026  0.0000E+00  0.1800E+03
    -22.768  0.0000E+00  0.1800E+03
    -22.511  0.0000E+00  0.1800E+03
    -22.253  0.0000E+00  0.1800E+03
    -21.995  0.0000E+00  0.1800E+03
    -21.737  0.0000E+00  0.1800E+03
    -21.479  0.0000E+00  0.1800E+03
    -21.222  0.0000E+00  0.1800E+03
    -20.964  0.0000E+00  0.1800E+03
    -20.706  0.0000E+00  0.1800E+03
    -20.448  0.0000E+00  0.1800E+03
    -20.190  0.0000E+00  0.1800E+03
    -19.933  0.0000E+00  0.1800E+03
    -19.675  0.0000E+00  0.1800E+03
    -19.417  0.0000E+00  0.1800E+03
    -19.159  0.0000E+00  0.1800E+03
    -18.901  0.0000E+00  0.1800E+03
    -18.644  0.0000E+00  0.1800E+03
    -18.386  0.0000E+00  0.1800E+03
    -18.128  0.0000E+00  0.1800E+03
    -17.870  0.0000E+00  0.1800E+03
    -17.612  0.0000E+00  0.1800E+03
    -17.355  0.0000E+00  0.1800E+03
    -17.097  0.0000E+00  0.1800E+03
    -16.839  0.0000E+00  0.1800E+03
    -16.581  0.0000E+00  0.1800E+03
    -16.323  0.0000E+00  0.1800E+03
    -16.066  0.0000E+00  0.1800E+03
    -15.808  0.4654E-11  0.1800E+03
    -15.550  0.4944E-06  0.1800E+03
    -15.292  0.2098E-02  0.1800E+03
    -15.034  0.3924E+00  0.1801E+03
    -14.777  0.4058E+01  0.1811E+03
    -14.519  0.3324E+01  0.1820E+03
    -14.261  0.5903E+01  0.1835E+03
    -14.003  0.1451E+02  0.1873E+03
    -13.745  0.1227E+02  0.1904E+03
    -13.488  0.2111E+02  0.1959E+03
    -13.230  0.2512E+02  0.2023E+03
    -12.972  0.2767E+02  0.2095E+03
    -12.714  0.2421E+02  0.2157E+03
    -12.456  0.2189E+02  0.2214E+03
    -12.199  0.1560E+02  0.2254E+03
    -11.941  0.2115E+02  0.2308E+03
    -11.683  0.1468E+02  0.2346E+03
    -11.425  0.6035E+01  0.2362E+03
    -11.167  0.9126E+01  0.2385E+03
    -10.910  0.5433E+01  0.2399E+03
    -10.652  0.2560E+00  0.2400E+03
    -10.394  0.6726E-03  0.2400E+03
    -10.136  0.8038E-07  0.2400E+03
     -9.878  0.3953E-12  0.2400E+03
     -9.621  0.0000E+00  0.2400E+03
     -9.363  0.0000E+00  0.2400E+03
     -9.105  0.0000E+00  0.2400E+03
     -8.847  0.0000E+00  0.2400E+03
     -8.589  0.0000E+00  0.2400E+03
     -8.332  0.0000E+00  0.2400E+03
     -8.074  0.0000E+00  0.2400E+03
     -7.816  0.0000E+00  0.2400E+03
     -7.558  0.3701E-10  0.2400E+03
     -7.300  0.2345E-05  0.2400E+03
     -7.043  0.6084E-02  0.2400E+03
     -6.785  0.7767E+00  0.2402E+03
     -6.527  0.8673E+01  0.2424E+03
     -6.269  0.2164E+02  0.2480E+03
     -6.011  0.1957E+02  0.2531E+03
     -5.754  0.2635E+02  0.2599E+03
     -5.496  0.3709E+02  0.2694E+03
     -5.238  0.3409E+02  0.2782E+03
     -4.980  0.3344E+02  0.2868E+03
     -4.722  0.3712E+02  0.2964E+03
     -4.465  0.3441E+02  0.3053E+03
     -4.207  0.3921E+02  0.3154E+03
     -3.949  0.4851E+02  0.3279E+03
     -3.691  0.5356E+02  0.3417E+03
     -3.433  0.5826E+02  0.3567E+03
     -3.176  0.5423E+02  0.3707E+03
     -2.918  0.4442E+02  0.3821E+03
     -2.660  0.4569E+02  0.3939E+03
     -2.402  0.4986E+02  0.4068E+03
     -2.144  0.5738E+02  0.4216E+03
     -1.887  0.6800E+02  0.4391E+03
     -1.629  0.8650E+02  0.4614E+03
     -1.371  0.1068E+03  0.4889E+03
     -1.113  0.1410E+03  0.5253E+03
     -0.855  0.1366E+03  0.5605E+03
     -0.598  0.1137E+03  0.5898E+03
     -0.340  0.1034E+03  0.6165E+03
     -0.082  0.8281E+02  0.6378E+03
      0.176  0.5996E+02  0.6533E+03
      0.434  0.5230E+02  0.6668E+03
      0.691  0.4562E+02  0.6785E+03
      0.949  0.4861E+02  0.6911E+03
      1.207  0.4804E+02  0.7035E+03
      1.465  0.3955E+02  0.7136E+03
      1.723  0.2355E+02  0.7197E+03
      1.980  0.1153E+02  0.7227E+03
      2.238  0.8926E+01  0.7250E+03
      2.496  0.3893E+01  0.7260E+03
      2.754  0.4339E+01  0.7271E+03
      3.012  0.1147E+02  0.7301E+03
      3.269  0.7331E+01  0.7320E+03
      3.527  0.7694E+01  0.7339E+03
      3.785  0.8895E+01  0.7362E+03
      4.043  0.1064E+02  0.7390E+03
      4.301  0.1746E+02  0.7435E+03
      4.558  0.1428E+02  0.7472E+03
      4.816  0.1418E+02  0.7508E+03
      5.074  0.2007E+02  0.7560E+03
      5.332  0.2575E+02  0.7626E+03
      5.590  0.2959E+02  0.7703E+03
      5.847  0.3323E+02  0.7788E+03
      6.105  0.4059E+02  0.7893E+03
      6.363  0.2819E+02  0.7966E+03
      6.621  0.1196E+02  0.7996E+03
      6.879  0.1397E+01  0.8000E+03
      7.136  0.1337E-01  0.8000E+03
      7.394  0.6530E-05  0.8000E+03
      7.652  0.1366E-09  0.8000E+03
      7.910  0.0000E+00  0.8000E+03
      8.168  0.0000E+00  0.8000E+03
      8.425  0.0000E+00  0.8000E+03
      8.683  0.0000E+00  0.8000E+03
      8.941  0.0000E+00  0.8000E+03
      9.199  0.0000E+00  0.8000E+03
      9.457  0.0000E+00  0.8000E+03
      9.714  0.0000E+00  0.8000E+03
      9.972  0.0000E+00  0.8000E+03
