"Millerite NiS"                         
           1
     9.578410    0.000000    0.000000
     0.000000   11.256463    0.000000
     0.000000    0.000000   17.711359
   Ni   S 
    30    30
Direct configuration=     1
   0.08076718  0.43119705  0.01320290
   0.08076718  0.37934512  0.18735913
   0.08076718  0.32749318  0.36151537
   0.58076718  0.15527109  0.10028102
   0.58076718  0.10341916  0.27443725
   0.21287018  0.18804042  0.16435257
   0.21287018  0.13618848  0.33850881
   0.71287018  0.46396638  0.07727446
   0.71287018  0.41211444  0.25143069
   0.71287018  0.36026251  0.42558692
   0.34497318  0.43119705  0.01320290
   0.34497318  0.37934512  0.18735913
   0.34497318  0.32749318  0.36151537
   0.84497318  0.15527109  0.10028102
   0.84497318  0.10341916  0.27443725
   0.08076718  0.93119705  0.01320290
   0.08076718  0.87934512  0.18735913
   0.08076718  0.82749318  0.36151537
   0.58076718  0.65527109  0.10028102
   0.58076718  0.60341916  0.27443725
   0.21287018  0.68804042  0.16435257
   0.21287018  0.63618848  0.33850881
   0.71287018  0.96396638  0.07727446
   0.71287018  0.91211444  0.25143069
   0.71287018  0.86026251  0.42558692
   0.34497318  0.93119705  0.01320290
   0.34497318  0.87934512  0.18735913
   0.34497318  0.82749318  0.36151537
   0.84497318  0.65527109  0.10028102
   0.84497318  0.60341916  0.27443725
   0.38108518  0.25904302  0.08707812
   0.38108518  0.20719108  0.26123435
   0.38108518  0.15533915  0.43539058
   0.88108518  0.48311704  0.17415623
   0.88108518  0.43126511  0.34831247
   0.88108518  0.03496899  0.00000000
   0.21287018  0.45079130  0.29053004
   0.21287018  0.00264325  0.11637381
   0.71287018  0.22671728  0.20345193
   0.71287018  0.17486534  0.37760816
   0.04465518  0.25904302  0.08707812
   0.04465518  0.20719108  0.26123435
   0.04465518  0.15533915  0.43539058
   0.54465518  0.48311704  0.17415623
   0.54465518  0.43126511  0.34831247
   0.54465518  0.03496899  0.00000000
   0.38108518  0.70719108  0.26123435
   0.88108518  0.98311704  0.17415623
   0.88108518  0.93126511  0.34831247
   0.88108518  0.53496899  0.00000000
   0.21287018  0.95079130  0.29053004
   0.21287018  0.50264325  0.11637381
   0.71287018  0.77856921  0.02929569
   0.71287018  0.72671728  0.20345193
   0.71287018  0.67486534  0.37760816
   0.04465518  0.75904302  0.08707812
   0.04465518  0.70719108  0.26123435
   0.04465518  0.65533915  0.43539058
   0.54465518  0.98311704  0.17415623
   0.54465518  0.53496899  0.00000000
