"Millerite NiS"                         
           1
    16.884694    0.000000    0.000000
     0.000000    9.578410    0.000000
     0.000000    0.000000   16.169087
   Ni   S 
    36    36
Direct configuration=     1
   0.78004631  0.14529695  0.12058499
   0.81461426  0.14529695  0.31135294
   0.26276233  0.64529695  0.02520102
   0.29733029  0.64529695  0.21596897
   0.43519032  0.14529695  0.05699568
   0.46975828  0.14529695  0.24776362
   0.95247430  0.64529695  0.15237965
   0.98704226  0.64529695  0.34314760
   0.12490229  0.14529695  0.18417431
   0.15947025  0.14529695  0.37494226
   0.60761831  0.64529695  0.08879033
   0.64218627  0.64529695  0.27955828
   0.90758278  0.01319395  0.09538397
   0.94215073  0.01319395  0.28615192
   0.39029880  0.51319395  0.00000000
   0.42486675  0.51319395  0.19076795
   0.45943471  0.51319395  0.38153589
   0.59729475  0.01319395  0.22256261
   0.08001077  0.51319395  0.12717863
   0.11457873  0.51319395  0.31794658
   0.25243876  0.01319395  0.15897329
   0.73515478  0.51319395  0.06358932
   0.76972274  0.51319395  0.25435726
   0.90758278  0.27739995  0.09538397
   0.94215073  0.27739995  0.28615192
   0.39029880  0.77739995  0.00000000
   0.42486675  0.77739995  0.19076795
   0.45943471  0.77739995  0.38153589
   0.56272679  0.27739995  0.03179466
   0.59729475  0.27739995  0.22256261
   0.08001077  0.77739995  0.12717863
   0.11457873  0.77739995  0.31794658
   0.25243876  0.27739995  0.15897329
   0.28700672  0.27739995  0.34974124
   0.73515478  0.77739995  0.06358932
   0.76972274  0.77739995  0.25435726
   0.02602916  0.14529695  0.37317765
   0.99146121  0.14529695  0.18240970
   0.47417723  0.64529695  0.08702573
   0.50874518  0.64529695  0.27779368
   0.64660522  0.14529695  0.11882039
   0.68117318  0.14529695  0.30958834
   0.12932124  0.64529695  0.02343641
   0.16388920  0.64529695  0.21420436
   0.30174923  0.14529695  0.05523107
   0.33631719  0.14529695  0.24599902
   0.81903321  0.64529695  0.15061505
   0.85360117  0.64529695  0.34138299
   0.79449310  0.31351195  0.02373179
   0.82906105  0.31351195  0.21449973
   0.31177708  0.81351195  0.11911576
   0.34634503  0.81351195  0.30988371
   0.48420507  0.31351195  0.15091042
   0.51877303  0.31351195  0.34167837
   0.00148905  0.81351195  0.24629439
   0.96692109  0.81351195  0.05552644
   0.13934908  0.31351195  0.08732110
   0.17391704  0.31351195  0.27808905
   0.65663306  0.81351195  0.18270508
   0.69120102  0.81351195  0.37347302
   0.31177708  0.47708195  0.11911576
   0.34634503  0.47708195  0.30988371
   0.79449310  0.97708195  0.02373179
   0.82906105  0.97708195  0.21449973
   0.00148905  0.47708195  0.24629439
   0.96692109  0.47708195  0.05552644
   0.48420507  0.97708195  0.15091042
   0.51877303  0.97708195  0.34167837
   0.65663306  0.47708195  0.18270508
   0.69120102  0.47708195  0.37347302
   0.13934908  0.97708195  0.08732110
   0.17391704  0.97708195  0.27808905
