 vasp.5.4.4.18Apr17-6-g9f103f2a35 (build Aug 13 2019 17:33:20) gamma-only       
  
 executed on             LinuxIFC date 2020.05.12  03:47:22
 running on   12 total cores
 distrk:  each k-point on   12 cores,    1 groups
 distr:  one band on NCORES_PER_BAND=   6 cores,    2 groups


--------------------------------------------------------------------------------------------------------


 INCAR:
 POTCAR:    PAW_PBE Ni_pv 06Sep2000               
 POTCAR:    PAW_PBE S 06Sep2000                   
 POTCAR:    PAW_PBE Ni_pv 06Sep2000               
   VRHFIN =Ni:                                                                  
   LEXCH  = PE                                                                  
   EATOM  =  3501.1230 eV,  257.3253 Ry                                         
                                                                                
   TITEL  = PAW_PBE Ni_pv 06Sep2000                                             
   LULTRA =        F    use ultrasoft PP ?                                      
   IUNSCR =        1    unscreen: 0-lin 1-nonlin 2-no                           
   RPACOR =    1.500    partial core radius                                     
   POMASS =   58.690; ZVAL   =   16.000    mass and valenz                      
   RCORE  =    2.000    outmost cutoff radius                                   
   RWIGS  =    2.000; RWIGS  =    1.058    wigner-seitz radius (au A)           
   ENMAX  =  367.986; ENMIN  =  275.989 eV                                      
   RCLOC  =    1.301    cutoff for local pot                                    
   LCOR   =        T    correct aug charges                                     
   LPAW   =        T    paw PP                                                  
   EAUG   =  703.443                                                            
   DEXC   =    0.000                                                            
   RMAX   =    2.041    core radius for proj-oper                               
   RAUG   =    1.300    factor for augmentation sphere                          
   RDEP   =    2.103    radius for radial grids                                 
   RDEPT  =    1.618    core radius for aug-charge                              
                                                                                
   Atomic configuration                                                         
    8 entries                                                                   
     n  l   j            E        occ.                                          
     1  0  0.50     -8206.4253   2.0000                                         
     2  0  0.50      -976.1748   2.0000                                         
     2  1  1.50      -839.0571   6.0000                                         
     3  0  0.50      -105.9991   2.0000                                         
     3  1  1.50       -66.4603   6.0000                                         
     3  2  2.50        -4.6458   9.0000                                         
     4  0  0.50        -4.4926   1.0000                                         
     4  3  2.50        -1.3606   0.0000                                         
   Description                                                                  
     l       E           TYP  RCUT    TYP  RCUT                                 
     1    -66.4602962     23  1.700                                             
     1     -1.3605826     23  1.700                                             
     2     -4.6457867     23  2.000                                             
     2     -6.0063693     23  2.000                                             
     0     -4.4925576     23  1.900                                             
     0     16.3626226     23  1.900                                             
  local pseudopotential read in
  partial core-charges read in
  partial kinetic energy density read in
  atomic valenz-charges read in
  non local Contribution for L=           1  read in
    real space projection operators read in
  non local Contribution for L=           1  read in
    real space projection operators read in
  non local Contribution for L=           2  read in
    real space projection operators read in
  non local Contribution for L=           2  read in
    real space projection operators read in
  non local Contribution for L=           0  read in
    real space projection operators read in
  non local Contribution for L=           0  read in
    real space projection operators read in
    PAW grid and wavefunctions read in
 
   number of l-projection  operators is LMAX  =           6
   number of lm-projection operators is LMMAX =          18
 
 POTCAR:    PAW_PBE S 06Sep2000                   
   VRHFIN =S : s2p4                                                             
   LEXCH  = PE                                                                  
   EATOM  =   276.8230 eV,   20.3459 Ry                                         
                                                                                
   TITEL  = PAW_PBE S 06Sep2000                                                 
   LULTRA =        F    use ultrasoft PP ?                                      
   IUNSCR =        1    unscreen: 0-lin 1-nonlin 2-no                           
   RPACOR =    1.500    partial core radius                                     
   POMASS =   32.066; ZVAL   =    6.000    mass and valenz                      
   RCORE  =    1.900    outmost cutoff radius                                   
   RWIGS  =    2.200; RWIGS  =    1.164    wigner-seitz radius (au A)           
   ENMAX  =  258.689; ENMIN  =  194.016 eV                                      
   ICORE  =        2    local potential                                         
   LCOR   =        T    correct aug charges                                     
   LPAW   =        T    paw PP                                                  
   EAUG   =  335.092                                                            
   DEXC   =    0.000                                                            
   RMAX   =    1.942    core radius for proj-oper                               
   RAUG   =    1.300    factor for augmentation sphere                          
   RDEP   =    1.954    radius for radial grids                                 
   RDEPT  =    1.744    core radius for aug-charge                              
                                                                                
   Atomic configuration                                                         
    6 entries                                                                   
     n  l   j            E        occ.                                          
     1  0  0.50     -2405.8406   2.0000                                         
     2  0  0.50      -211.7007   2.0000                                         
     2  1  1.50      -156.4958   6.0000                                         
     3  0  0.50       -17.2562   2.0000                                         
     3  1  0.50        -7.0085   4.0000                                         
     3  2  1.50        -6.8029   0.0000                                         
   Description                                                                  
     l       E           TYP  RCUT    TYP  RCUT                                 
     0    -17.2561641     23  1.900                                             
     0    -15.8743224     23  1.900                                             
     1     -7.0085400     23  1.900                                             
     1     -2.7779785     23  1.900                                             
     2     -6.8029130     23  1.900                                             
  local pseudopotential read in
  partial core-charges read in
  partial kinetic energy density read in
  atomic valenz-charges read in
  non local Contribution for L=           0  read in
    real space projection operators read in
  non local Contribution for L=           0  read in
    real space projection operators read in
  non local Contribution for L=           1  read in
    real space projection operators read in
  non local Contribution for L=           1  read in
    real space projection operators read in
    PAW grid and wavefunctions read in
 
   number of l-projection  operators is LMAX  =           4
   number of lm-projection operators is LMMAX =           8
 
 Optimization of the real space projectors (new method)

 maximal supplied QI-value         = 18.90
 optimisation between [QCUT,QGAM] = [ 10.77, 21.73] = [ 32.49,132.25] Ry 
 Optimized for a Real-space Cutoff    1.38 Angstroem

   l    n(q)    QCUT    max X(q) W(low)/X(q) W(high)/X(q)  e(spline) 
   1      8    10.771     2.836    0.40E-04    0.29E-04    0.12E-06
   1      8    10.771     4.023    0.10E-03    0.48E-04    0.29E-06
   2      8    10.771    73.368    0.42E-03    0.97E-04    0.44E-06
   2      8    10.771    69.010    0.42E-03    0.99E-04    0.45E-06
   0      9    10.771    54.797    0.10E-03    0.56E-04    0.74E-07
   0      9    10.771    24.266    0.89E-04    0.49E-04    0.67E-07
 Optimization of the real space projectors (new method)

 maximal supplied QI-value         = 19.84
 optimisation between [QCUT,QGAM] = [ 10.71, 21.63] = [ 32.15,130.99] Ry 
 Optimized for a Real-space Cutoff    1.19 Angstroem

   l    n(q)    QCUT    max X(q) W(low)/X(q) W(high)/X(q)  e(spline) 
   0      8    10.715   187.594    0.41E-03    0.53E-04    0.66E-07
   0      8    10.715   164.243    0.41E-03    0.53E-04    0.65E-07
   1      7    10.715    67.533    0.19E-03    0.59E-03    0.68E-07
   1      7    10.715    50.729    0.19E-03    0.58E-03    0.67E-07
  PAW_PBE Ni_pv 06Sep2000               :
 energy of atom  1       EATOM=-3501.1230
 kinetic energy error for atom=    0.0925 (will be added to EATOM!!)
  PAW_PBE S 06Sep2000                   :
 energy of atom  2       EATOM= -276.8230
 kinetic energy error for atom=    0.0033 (will be added to EATOM!!)
 
 
 POSCAR: Type_037 Type_137                       
  positions in cartesian coordinates
  No initial velocities read in
 exchange correlation table for  LEXCH =        8
   RHO(1)=    0.500       N(1)  =     2000
   RHO(2)=  100.500       N(2)  =     4000
 


--------------------------------------------------------------------------------------------------------


 ion  position               nearest neighbor table
   1  0.762  0.145  0.176-  65 2.09  51 2.09  43 2.13  42 2.15  52 2.21  66 2.21
   2  0.822  0.145  0.317-  66 2.04  52 2.04  38 2.16  43 2.39
   3  0.227  0.645  0.096-  44 2.01  63 2.20  53 2.20  45 2.24   4 2.33
   4  0.297  0.645  0.216-  64 2.13  54 2.13  45 2.25  53 2.26  63 2.26   3 2.33  28 2.53  16 2.53

   5  0.416  0.145  0.112-  47 2.06  69 2.09  55 2.09   6 2.43  48 2.60
   6  0.470  0.145  0.247-  56 2.10  70 2.10  48 2.25  55 2.26  69 2.26   5 2.43  31 2.53  19 2.53

   7  0.952  0.645  0.154-  58 2.01  68 2.01  49 2.25  57 2.36  67 2.36  32 2.53  20 2.53
   8  0.974  0.645  0.317-  46 2.05  67 2.05  57 2.05  50 2.10
   9  0.182  0.145  0.049-  47 2.04  73 2.05  59 2.05  10 2.46
  10  0.125  0.145  0.185-  39 2.07  73 2.14  59 2.14  60 2.36  74 2.36  11 2.40   9 2.46  34 2.53
                            22 2.53
  11  0.056  0.145  0.311-  39 2.08  38 2.10  10 2.40  14 2.46  26 2.46  74 2.63  60 2.63
  12  0.573  0.645  0.160-  40 2.02  71 2.18  61 2.18  41 2.22  13 2.29
  13  0.642  0.645  0.278-  62 2.03  72 2.03  41 2.25  61 2.26  71 2.26  12 2.29  37 2.53  25 2.53

  14  0.941  0.004  0.269-  38 2.06  39 2.07  66 2.08  57 2.13  11 2.46
  15  0.394  0.518  0.039-  63 1.99  40 2.02  27 2.44
  16  0.425  0.513  0.192-  64 2.14  55 2.25  40 2.26  63 2.26  41 2.36  17 2.43   4 2.53  28 2.53

  17  0.466  0.464  0.329-  56 2.00  64 2.05  41 2.07  16 2.43
  18  0.565  0.020  0.069-  69 2.00  42 2.03  30 2.41
  19  0.597  0.013  0.222-  70 2.06  43 2.17  61 2.25  69 2.26  42 2.26  31 2.53   6 2.53
  20  0.080  0.513  0.130-  68 2.01  44 2.07  59 2.15  67 2.36  45 2.36   7 2.53  32 2.53
  21  0.112  0.504  0.294-  46 2.05  67 2.06  45 2.08  60 2.12
  22  0.252  0.013  0.161-  47 2.12  73 2.14  53 2.25  48 2.36  74 2.36  23 2.51  10 2.53  34 2.53

  23  0.291  0.978  0.305-  74 2.04  54 2.04  48 2.04  22 2.51
  24  0.748  0.495  0.104-  51 2.00  71 2.04  49 2.04  25 2.53
  25  0.770  0.513  0.253-  72 2.02  52 2.10  50 2.11  71 2.26  49 2.26  24 2.53  13 2.53  37 2.53

  26  0.941  0.286  0.269-  38 2.06  39 2.07  52 2.08  67 2.13  11 2.46
  27  0.394  0.773  0.039-  53 1.99  40 2.02  15 2.44
  28  0.425  0.777  0.192-  54 2.14  69 2.25  40 2.26  53 2.26  41 2.36  29 2.43   4 2.53  16 2.53

  29  0.466  0.826  0.329-  70 2.00  54 2.05  41 2.07  28 2.43
  30  0.565  0.271  0.069-  55 2.00  42 2.03  18 2.41
  31  0.597  0.277  0.222-  56 2.06  43 2.17  71 2.25  55 2.26  42 2.26  19 2.53   6 2.53
  32  0.080  0.777  0.130-  58 2.01  44 2.07  73 2.15  57 2.36  45 2.36   7 2.53  20 2.53
  33  0.112  0.786  0.294-  46 2.05  57 2.06  45 2.08  74 2.12
  34  0.252  0.277  0.161-  47 2.12  59 2.14  63 2.25  48 2.36  60 2.36  35 2.51  10 2.53  22 2.53

  35  0.291  0.313  0.305-  60 2.04  64 2.04  48 2.04  34 2.51
  36  0.748  0.795  0.104-  65 2.00  61 2.04  49 2.04  37 2.53
  37  0.770  0.777  0.253-  62 2.02  66 2.10  50 2.11  61 2.26  49 2.26  36 2.53  13 2.53  25 2.53

  38  0.942  0.145  0.362-  26 2.06  14 2.06  11 2.10   2 2.16
  39  0.003  0.145  0.198-  10 2.07  26 2.07  14 2.07  11 2.08
  40  0.474  0.645  0.091-  15 2.02  27 2.02  12 2.02  16 2.26  28 2.26
  41  0.509  0.645  0.276-  29 2.07  17 2.07  12 2.22  13 2.25  28 2.36  16 2.36
  42  0.647  0.145  0.122-  18 2.03  30 2.03   1 2.15  19 2.26  31 2.26  43 2.69  51 2.77  65 2.77

  43  0.686  0.145  0.278-   1 2.13  19 2.17  31 2.17   2 2.39  42 2.69
  44  0.121  0.645  0.041-   3 2.01  20 2.07  32 2.07
  45  0.164  0.645  0.214-  21 2.08  33 2.08   3 2.24   4 2.25  32 2.36  20 2.36
  46  0.078  0.645  0.380-  21 2.05  33 2.05   8 2.05
  47  0.301  0.145  0.071-   9 2.04   5 2.06  34 2.12  22 2.12
  48  0.336  0.145  0.245-  23 2.04  35 2.04   6 2.25  34 2.36  22 2.36   5 2.60
  49  0.819  0.645  0.153-  36 2.04  24 2.04   7 2.25  25 2.26  37 2.26  50 2.74
  50  0.850  0.645  0.314-   8 2.10  25 2.11  37 2.11  49 2.74
  51  0.782  0.298  0.089-  24 2.00   1 2.09  52 2.65  42 2.77
  52  0.821  0.315  0.243-   2 2.04  26 2.08  25 2.10   1 2.21  51 2.65
  53  0.312  0.814  0.122-  27 1.99   3 2.20  22 2.25   4 2.26  28 2.26
  54  0.350  0.793  0.295-  23 2.04  29 2.05   4 2.13  28 2.14
  55  0.484  0.314  0.153-  30 2.00   5 2.09  16 2.25   6 2.26  31 2.26
  56  0.528  0.286  0.324-  17 2.00  31 2.06   6 2.10  70 2.70
  57  0.001  0.814  0.246-   8 2.05  33 2.06  14 2.13  32 2.36   7 2.36
  58  0.976  0.794  0.072-   7 2.01  32 2.01
  59  0.140  0.320  0.107-   9 2.05  34 2.14  10 2.14  20 2.15
  60  0.174  0.314  0.276-  35 2.04  21 2.12  10 2.36  34 2.36  11 2.63
  61  0.657  0.814  0.184-  36 2.04  12 2.18  19 2.25  37 2.26  13 2.26
  62  0.696  0.790  0.348-  37 2.02  13 2.03  72 2.77
  63  0.312  0.477  0.122-  15 1.99   3 2.20  34 2.25   4 2.26  16 2.26
  64  0.350  0.497  0.295-  35 2.04  17 2.05   4 2.13  16 2.14
  65  0.782  0.993  0.089-  36 2.00   1 2.09  66 2.65  42 2.77
  66  0.821  0.976  0.243-   2 2.04  14 2.08  37 2.10   1 2.21  65 2.65
  67  0.001  0.477  0.246-   8 2.05  21 2.06  26 2.13  20 2.36   7 2.36
  68  0.976  0.497  0.072-   7 2.01  20 2.01
  69  0.484  0.977  0.153-  18 2.00   5 2.09  28 2.25   6 2.26  19 2.26
  70  0.528  0.005  0.324-  29 2.00  19 2.06   6 2.10  56 2.70
  71  0.657  0.477  0.184-  24 2.04  12 2.18  31 2.25  25 2.26  13 2.26
  72  0.696  0.501  0.348-  25 2.02  13 2.03  62 2.77
  73  0.140  0.971  0.107-   9 2.05  22 2.14  10 2.14  32 2.15
  74  0.174  0.977  0.276-  23 2.04  33 2.12  10 2.36  22 2.36  11 2.63
 
  LATTYP: Found a simple orthorhombic cell.
 ALAT       =     9.5784100000
 B/A-ratio  =     1.7387693453
 C/A-ratio  =     1.7627867312
  
  Lattice vectors:
  
 A1 = (   0.0000000000,   9.5784100000,   0.0000000000)
 A2 = (   0.0000000000,   0.0000000000, -16.6546456851)
 A3 = ( -16.8846940542,   0.0000000000,   0.0000000000)


Analysis of symmetry for initial positions (statically):
=====================================================================
 Subroutine PRICEL returns:
 Original cell was already a primitive cell.
 

 Routine SETGRP: Setting up the symmetry group for a 
 simple orthorhombic supercell.


 Subroutine GETGRP returns: Found  2 space group operations
 (whereof  1 operations were pure point group operations)
 out of a pool of  8 trial point group operations.


The static configuration has the point symmetry C_1 .
 The point group associated with its full space group is C_1h.


Analysis of symmetry for dynamics (positions and initial velocities):
=====================================================================
 Subroutine PRICEL returns:
 Original cell was already a primitive cell.
 

 Routine SETGRP: Setting up the symmetry group for a 
 simple orthorhombic supercell.


 Subroutine GETGRP returns: Found  2 space group operations
 (whereof  1 operations were pure point group operations)
 out of a pool of  8 trial point group operations.


The dynamic configuration has the point symmetry C_1 .
 The point group associated with its full space group is C_1h.


 Subroutine INISYM returns: Found  2 space group operations
 (whereof  1 operations are pure point group operations),
 and found     1 'primitive' translations

 
 
 KPOINTS: gamma-point-only calculation. no periodi

Automatic generation of k-mesh.
Space group operators:
 irot       det(A)        alpha          n_x          n_y          n_z        tau_x        tau_y        tau_z
    1     1.000000     0.000000     1.000000     0.000000     0.000000     0.000000     0.000000     0.000000
    2    -1.000000   180.000000     0.000000     1.000000     0.000000     0.000000     0.290594     0.000000
 
 Subroutine IBZKPT returns following result:
 ===========================================
 
 Found      1 irreducible k-points:
 
 Following reciprocal coordinates:
            Coordinates               Weight
  0.000000  0.000000  0.000000      1.000000
 
 Following cartesian coordinates:
            Coordinates               Weight
  0.000000  0.000000  0.000000      1.000000
 


--------------------------------------------------------------------------------------------------------




 Dimension of arrays:
   k-points           NKPTS =      1   k-points in BZ     NKDIM =      1   number of bands    NBANDS=    488
   number of dos      NEDOS =    301   number of ions     NIONS =     74
   non local maximal  LDIM  =      6   non local SUM 2l+1 LMDIM =     18
   total plane-waves  NPLWV = 405000
   max r-space proj   IRMAX =   1708   max aug-charges    IRDMAX=   4936
   dimension x,y,z NGX =    90 NGY =   50 NGZ =   90
   dimension x,y,z NGXF=   180 NGYF=  100 NGZF=  180
   support grid    NGXF=   180 NGYF=  100 NGZF=  180
   ions per type =              37  37
   NGX,Y,Z   is equivalent  to a cutoff of   8.86,  8.68,  8.98 a.u.
   NGXF,Y,Z  is equivalent  to a cutoff of  17.72, 17.36, 17.97 a.u.

 SYSTEM =  "Millerite NiS"                         
 POSCAR =  Type_037 Type_137                       

 Startparameter for this run:
   NWRITE =      2    write-flag & timer
   PREC   = normal    normal or accurate (medium, high low for compatibility)
   ISTART =      0    job   : 0-new  1-cont  2-samecut
   ICHARG =      2    charge: 1-file 2-atom 10-const
   ISPIN  =      1    spin polarized calculation?
   LNONCOLLINEAR =      F non collinear calculations
   LSORBIT =      F    spin-orbit coupling
   INIWAV =      1    electr: 0-lowe 1-rand  2-diag
   LASPH  =      F    aspherical Exc in radial PAW
   METAGGA=      F    non-selfconsistent MetaGGA calc.

 Electronic Relaxation 1
   ENCUT  =  450.0 eV  33.07 Ry    5.75 a.u.  29.20 16.57 28.81*2*pi/ulx,y,z
   ENINI  =  450.0     initial cutoff
   ENAUG  =  703.4 eV  augmentation charge cutoff
   NELM   =    100;   NELMIN=  2; NELMDL= -5     # of ELM steps 
   EDIFF  = 0.1E-03   stopping-criterion for ELM
   LREAL  =      T    real-space projection
   NLSPLINE    = F    spline interpolate recip. space projectors
   LCOMPAT=      F    compatible to vasp.4.4
   GGA_COMPAT  = T    GGA compatible to vasp.4.4-vasp.4.6
   LMAXPAW     = -100 max onsite density
   LMAXMIX     =    2 max onsite mixed and CHGCAR
   VOSKOWN=      0    Vosko Wilk Nusair interpolation
   ROPT   =   -0.00050  -0.00050
 Ionic relaxation
   EDIFFG = 0.1E-02   stopping-criterion for IOM
   NSW    =      0    number of steps for IOM
   NBLOCK =      1;   KBLOCK =      1    inner block; outer block 
   IBRION =     -1    ionic relax: 0-MD 1-quasi-New 2-CG
   NFREE  =      0    steps in history (QN), initial steepest desc. (CG)
   ISIF   =      2    stress and relaxation
   IWAVPR =     10    prediction:  0-non 1-charg 2-wave 3-comb
   ISYM   =      2    0-nonsym 1-usesym 2-fastsym
   LCORR  =      T    Harris-Foulkes like correction to forces

   POTIM  = 0.5000    time-step for ionic-motion
   TEIN   =    0.0    initial temperature
   TEBEG  =    0.0;   TEEND  =   0.0 temperature during run
   SMASS  =  -3.00    Nose mass-parameter (am)
   estimated Nose-frequenzy (Omega)   =  0.10E-29 period in steps =****** mass=  -0.652E-26a.u.
   SCALEE = 1.0000    scale energy and forces
   NPACO  =    256;   APACO  = 16.0  distance and # of slots for P.C.
   PSTRESS=    0.0 pullay stress

  Mass of Ions in am
   POMASS =  58.69 32.07
  Ionic Valenz
   ZVAL   =  16.00  6.00
  Atomic Wigner-Seitz radii
   RWIGS  =  -1.00 -1.00
  virtual crystal weights 
   VCA    =   1.00  1.00
   NELECT =     814.0000    total number of electrons
   NUPDOWN=      -1.0000    fix difference up-down

 DOS related values:
   EMIN   =  10.00;   EMAX   =-10.00  energy-range for DOS
   EFERMI =   0.00
   ISMEAR =     0;   SIGMA  =   0.20  broadening in eV -4-tet -1-fermi 0-gaus

 Electronic relaxation 2 (details)
   IALGO  =     38    algorithm
   LDIAG  =      T    sub-space diagonalisation (order eigenvalues)
   LSUBROT=      F    optimize rotation matrix (better conditioning)
   TURBO    =      0    0=normal 1=particle mesh
   IRESTART =      0    0=no restart 2=restart with 2 vectors
   NREBOOT  =      0    no. of reboots
   NMIN     =      0    reboot dimension
   EREF     =   0.00    reference energy to select bands
   IMIX   =      4    mixing-type and parameters
     AMIX     =   0.40;   BMIX     =  1.00
     AMIX_MAG =   1.60;   BMIX_MAG =  1.00
     AMIN     =   0.10
     WC   =   100.;   INIMIX=   1;  MIXPRE=   1;  MAXMIX= -45

 Intra band minimization:
   WEIMIN = 0.0000     energy-eigenvalue tresh-hold
   EBREAK =  0.51E-07  absolut break condition
   DEPER  =   0.30     relativ break condition  

   TIME   =   0.40     timestep for ELM

  volume/ion in A,a.u.               =      36.40       245.63
  Fermi-wavevector in a.u.,A,eV,Ry     =   1.098607  2.076066 16.421374  1.206937
  Thomas-Fermi vector in A             =   2.234987
 
 Write flags
   LWAVE        =      F    write WAVECAR
   LDOWNSAMPLE  =      F    k-point downsampling of WAVECAR
   LCHARG       =      F    write CHGCAR
   LVTOT        =      F    write LOCPOT, total local potential
   LVHAR        =      F    write LOCPOT, Hartree potential only
   LELF         =      F    write electronic localiz. function (ELF)
   LORBIT       =      0    0 simple, 1 ext, 2 COOP (PROOUT), +10 PAW based schemes


 Dipole corrections
   LMONO  =      F    monopole corrections only (constant potential shift)
   LDIPOL =      F    correct potential (dipole corrections)
   IDIPOL =      0    1-x, 2-y, 3-z, 4-all directions 
   EPSILON=  1.0000000 bulk dielectric constant

 Exchange correlation treatment:
   GGA     =    --    GGA type
   LEXCH   =     8    internal setting for exchange type
   VOSKOWN=      0    Vosko Wilk Nusair interpolation
   LHFCALC =     F    Hartree Fock is set to
   LHFONE  =     F    Hartree Fock one center treatment
   AEXX    =    0.0000 exact exchange contribution

 Linear response parameters
   LEPSILON=     F    determine dielectric tensor
   LRPA    =     F    only Hartree local field effects (RPA)
   LNABLA  =     F    use nabla operator in PAW spheres
   LVEL    =     F    velocity operator in full k-point grid
   LINTERFAST=   F  fast interpolation
   KINTER  =     0    interpolate to denser k-point grid
   CSHIFT  =0.1000    complex shift for real part using Kramers Kronig
   OMEGAMAX=  -1.0    maximum frequency
   DEG_THRESHOLD= 0.2000000E-02 threshold for treating states as degnerate
   RTIME   =   -0.100 relaxation time in fs
  (WPLASMAI=    0.000 imaginary part of plasma frequency in eV, 0.658/RTIME)
   DFIELD  = 0.0000000 0.0000000 0.0000000 field for delta impulse in time
 
 Orbital magnetization related:
   ORBITALMAG=     F  switch on orbital magnetization
   LCHIMAG   =     F  perturbation theory with respect to B field
   DQ        =  0.001000  dq finite difference perturbation B field
   LLRAUG    =     F  two centre corrections for induced B field



--------------------------------------------------------------------------------------------------------


 Static calculation
 charge density and potential will be updated during run
 non-spin polarized calculation
 Variant of blocked Davidson
 Davidson routine will perform the subspace rotation
 perform sub-space diagonalisation
    after iterative eigenvector-optimisation
 modified Broyden-mixing scheme, WC =      100.0
 initial mixing is a Kerker type mixing with AMIX =  0.4000 and BMIX =      1.0000
 Hartree-type preconditioning will be used
 using additional bands           81
 real space projection scheme for non local part
 use partial core corrections
 calculate Harris-corrections to forces 
   (improved forces if not selfconsistent)
 use gradient corrections 
 use of overlap-Matrix (Vanderbilt PP)
 Gauss-broadening in eV      SIGMA  =   0.20


--------------------------------------------------------------------------------------------------------


  energy-cutoff  :      450.00
  volume of cell :     2693.53
      direct lattice vectors                 reciprocal lattice vectors
    16.884694054  0.000000000  0.000000000     0.059225237  0.000000000  0.000000000
     0.000000000  9.578410000  0.000000000     0.000000000  0.104401461  0.000000000
     0.000000000  0.000000000 16.654645685     0.000000000  0.000000000  0.060043307

  length of vectors
    16.884694054  9.578410000 16.654645685     0.059225237  0.104401461  0.060043307


 
 k-points in units of 2pi/SCALE and weight: gamma-point-only calculation. no periodi
   0.00000000  0.00000000  0.00000000       1.000
 
 k-points in reciprocal lattice and weights: gamma-point-only calculation. no periodi
   0.00000000  0.00000000  0.00000000       1.000
 
 position of ions in fractional coordinates (direct lattice) 
   0.76215994  0.14529696  0.17635545
   0.82239967  0.14529696  0.31719650
   0.22667440  0.64529696  0.09601813
   0.29733028  0.64529696  0.21607389
   0.41627740  0.14529696  0.11170141
   0.46975828  0.14529696  0.24694159
   0.95247430  0.64529696  0.15433850
   0.97408995  0.64529696  0.31664809
   0.18200198  0.14529696  0.04927465
   0.12490229  0.14529696  0.18520619
   0.05561688  0.14529696  0.31107279
   0.57275077  0.64529696  0.15988729
   0.64218627  0.64529696  0.27780929
   0.94104967  0.00443353  0.26869695
   0.39401704  0.51774809  0.03932263
   0.42486675  0.51319396  0.19160760
   0.46577821  0.46429502  0.32871281
   0.56488609  0.01958803  0.06878892
   0.59729475  0.01319396  0.22247530
   0.08001077  0.51319396  0.12987220
   0.11233914  0.50443855  0.29402508
   0.25243876  0.01319396  0.16073990
   0.29114713  0.97762372  0.30506782
   0.74761746  0.49535681  0.10368199
   0.76972274  0.51319396  0.25334300
   0.94104967  0.28616039  0.26869695
   0.39401704  0.77284583  0.03932263
   0.42486675  0.77739996  0.19160760
   0.46577821  0.82629889  0.32871281
   0.56488609  0.27100590  0.06878893
   0.59729475  0.27739996  0.22247530
   0.08001077  0.77739996  0.12987220
   0.11233914  0.78615536  0.29402508
   0.25243876  0.27739996  0.16073990
   0.29114713  0.31297019  0.30506782
   0.74761746  0.79523710  0.10368199
   0.76972274  0.77739996  0.25334300
   0.94212631  0.14529696  0.36234348
   0.00299480  0.14529696  0.19804195
   0.47417723  0.64529696  0.09088994
   0.50874518  0.64529696  0.27609614
   0.64660522  0.14529696  0.12175764
   0.68621428  0.14529696  0.27811615
   0.12061519  0.64529696  0.04063379
   0.16388920  0.64529696  0.21436074
   0.07826111  0.64529696  0.37995182
   0.30078593  0.14529696  0.07090902
   0.33631719  0.14529696  0.24522844
   0.81903321  0.64529696  0.15262534
   0.85002297  0.64529696  0.31394007
   0.78249142  0.29771521  0.08918802
   0.82145289  0.31460339  0.24310926
   0.31177707  0.81351196  0.12204440
   0.35046444  0.79319337  0.29531151
   0.48420507  0.31351196  0.15291210
   0.52759435  0.28606220  0.32382783
   0.00148905  0.81351196  0.24551520
   0.97556638  0.79381516  0.07249859
   0.14015166  0.31997360  0.10666038
   0.17391704  0.31351196  0.27638290
   0.65663306  0.81351196  0.18377980
   0.69556210  0.78985382  0.34846451
   0.31177707  0.47708196  0.12204440
   0.35046444  0.49740054  0.29531151
   0.78249142  0.99287870  0.08918802
   0.82145289  0.97599052  0.24310926
   0.00148905  0.47708196  0.24551520
   0.97556638  0.49677876  0.07249859
   0.48420507  0.97708196  0.15291210
   0.52759435  0.00453171  0.32382783
   0.65663306  0.47708196  0.18377980
   0.69556210  0.50074009  0.34846451
   0.14015166  0.97062031  0.10666038
   0.17391704  0.97708196  0.27638290
 
 position of ions in cartesian coordinates  (Angst):
  12.86883748  1.39171383  2.93713757
  13.88596686  1.39171383  5.28279536
   3.82732790  6.18091882  1.59914795
   5.02033088  6.18091883  3.59863415
   7.02871654  1.39171382  1.86034735
   7.93172477  1.39171383  4.11272475
  16.08223712  6.18091883  2.57045297
  16.44721079  6.18091883  5.27366177
   3.07304780  1.39171383  0.82065188
   2.10893697  1.39171383  3.08454356
   0.93907405  1.39171383  5.18080704
   9.67072154  6.18091882  2.66286619
  10.84311868  6.18091883  4.62681534
  15.88933578  0.04246614  4.47505257
   6.65285719  4.95920345  0.65490452
   7.17374514  4.91558213  3.19115669
   7.86452266  4.44720805  5.47459545
   9.53792876  0.18762216  1.14565516
  10.08513905  0.12637713  3.70524730
   1.35095732  4.91558213  2.16297551
   1.89681196  4.83171925  4.89688355
   4.26235123  0.12637713  2.67706610
   4.91593028  9.36408085  5.08079646
  12.62329200  4.74473066  1.72678685
  12.99653294  4.91558213  4.21933789
  15.88933578  2.74096151  4.47505257
   6.65285723  7.40263426  0.65490454
   7.17374514  7.44625552  3.19115669
   7.86452266  7.91462960  5.47459545
   9.53792883  2.59580561  1.14565519
  10.08513905  2.65705052  3.70524730
   1.35095732  7.44625552  2.16297551
   1.89681196  7.53011840  4.89688355
   4.26235123  2.65705052  2.67706610
   4.91593028  2.99775680  5.08079646
  12.62329200  7.61710700  1.72678685
  12.99653294  7.44625552  4.21933789
  15.90751451  1.39171383  6.03470228
   0.05056629  1.39171383  3.29831849
   8.00633737  6.18091883  1.51373975
   8.59000675  6.18091883  4.59828332
  10.91773128  1.39171383  2.02783034
  11.58651821  1.39171382  4.63192600
   2.03655058  6.18091883  0.67674142
   2.76721895  6.18091883  3.57010212
   1.32141495  6.18091883  6.32796295
   5.07867839  1.39171383  1.18096465
   5.67861284  1.39171383  4.08419271
  13.82912519  6.18091883  2.54192094
  14.35237771  6.18091883  5.22856069
  13.21212819  2.85163835  1.48539486
  13.86998072  3.01340026  4.04889863
   5.26426051  7.79215106  2.03260624
   5.91748488  7.59753132  4.91830857
   8.17565442  3.00294606  2.54669685
   8.90826926  2.74002108  5.39323777
   0.02514209  7.79215106  4.08896862
  16.47213992  7.60348704  1.20743836
   2.36641785  3.06483837  1.77639085
   2.93653598  3.00294606  4.60305921
  11.08704832  7.79215106  3.06078744
  11.74435322  7.56554374  5.80355291
   5.26426051  4.56968659  2.03260624
   5.91748488  4.76430633  4.91830857
  13.21212819  9.51019930  1.48539486
  13.86998072  9.34843739  4.04889863
   0.02514209  4.56968659  4.08896862
  16.47213992  4.75835062  1.20743836
   8.17565442  9.35889159  2.54669685
   8.90826926  0.04340657  5.39323777
  11.08704832  4.56968659  3.06078744
  11.74435322  4.79629391  5.80355291
   2.36641785  9.29699928  1.77639085
   2.93653598  9.35889159  4.60305921
 


--------------------------------------------------------------------------------------------------------


 use parallel FFT for orbitals z direction half grid
 k-point  1 :   0.0000 0.0000 0.0000  plane waves:   29200

 maximum and minimum number of plane-waves per node :      4869     4864

 maximum number of plane-waves:     29200
 maximum index in each direction: 
   IXMAX=   29   IYMAX=   16   IZMAX=   28
   IXMIN=  -29   IYMIN=  -16   IZMIN=    0


 real space projection operators:
  total allocation   :      10753.69 KBytes
  max/ min on nodes  :       1797.30       1786.91


 parallel 3D FFT for wavefunctions:
    minimum data exchange during FFTs selected (reduces bandwidth)
 parallel 3D FFT for charge:
    minimum data exchange during FFTs selected (reduces bandwidth)


 total amount of memory used by VASP MPI-rank0    80244. kBytes
=======================================================================

   base      :      30000. kBytes
   nonlr-proj:       2204. kBytes
   fftplans  :      10634. kBytes
   grid      :      17961. kBytes
   one-center:        101. kBytes
   wavefun   :      19344. kBytes
 
     INWAV:  cpu time    0.0000: real time    0.0000
 Broyden mixing: mesh for mixing (old mesh)
   NGX = 59   NGY = 33   NGZ = 57
  (NGX  =180   NGY  =100   NGZ  =180)
  gives a total of 110979 points

 initial charge density was supplied:
 charge density of overlapping atoms calculated
 number of electron     814.0000000 magnetization 
 keeping initial charge density in first step


--------------------------------------------------------------------------------------------------------


 Maximum index for non-local projection operator          278
 Maximum index for augmentation-charges          444 (set IRDMAX)


--------------------------------------------------------------------------------------------------------


 First call to EWALD:  gamma=   0.127
 Maximum number of real-space cells 2x 4x 2
 Maximum number of reciprocal cells 3x 2x 3

    FEWALD:  cpu time    0.0080: real time    0.0080


--------------------------------------- Iteration      1(   1)  ---------------------------------------


    POTLOK:  cpu time    0.4575: real time    0.4578
    SETDIJ:  cpu time    0.0409: real time    0.0409
     EDDAV:  cpu time    9.2407: real time    9.2443
       DOS:  cpu time    0.0032: real time    0.0032
    --------------------------------------------
      LOOP:  cpu time    9.7424: real time    9.7462

 eigenvalue-minimisations  :  1200
 total energy-change (2. order) : 0.9131620E+04  (-0.5201461E+05)
 number of electron     814.0000000 magnetization 
 augmentation part      814.0000000 magnetization 

 Free energy of the ion-electron system (eV)
  ---------------------------------------------------
  alpha Z        PSCENC =      1458.83996183
  Ewald energy   TEWEN  =    161500.25269830
  -Hartree energ DENC   =   -285148.99442286
  -exchange      EXHF   =         0.00000000
  -V(xc)+E(xc)   XCENC  =      3782.34793353
  PAW double counting   =    115860.90926010  -120909.33166199
  entropy T*S    EENTRO =        -0.51768169
  eigenvalues    EBANDS =     -7192.34095650
  atomic energy  EATOM  =    139780.45519414
  Solvation  Ediel_sol  =         0.00000000
  ---------------------------------------------------
  free energy    TOTEN  =      9131.62032485 eV

  energy without entropy =     9132.13800655  energy(sigma->0) =     9131.87916570


--------------------------------------------------------------------------------------------------------




--------------------------------------- Iteration      1(   2)  ---------------------------------------


     EDDAV:  cpu time    8.5052: real time    8.5126
       DOS:  cpu time    0.0013: real time    0.0013
    --------------------------------------------
      LOOP:  cpu time    8.5064: real time    8.5138

 eigenvalue-minimisations  :  1048
 total energy-change (2. order) :-0.8641125E+04  (-0.8331526E+04)
 number of electron     814.0000000 magnetization 
 augmentation part      814.0000000 magnetization 

 Free energy of the ion-electron system (eV)
  ---------------------------------------------------
  alpha Z        PSCENC =      1458.83996183
  Ewald energy   TEWEN  =    161500.25269830
  -Hartree energ DENC   =   -285148.99442286
  -exchange      EXHF   =         0.00000000
  -V(xc)+E(xc)   XCENC  =      3782.34793353
  PAW double counting   =    115860.90926010  -120909.33166199
  entropy T*S    EENTRO =        -0.80759740
  eigenvalues    EBANDS =    -15833.17634448
  atomic energy  EATOM  =    139780.45519414
  Solvation  Ediel_sol  =         0.00000000
  ---------------------------------------------------
  free energy    TOTEN  =       490.49502116 eV

  energy without entropy =      491.30261856  energy(sigma->0) =      490.89881986


--------------------------------------------------------------------------------------------------------




--------------------------------------- Iteration      1(   3)  ---------------------------------------


     EDDAV:  cpu time    8.7833: real time    8.7847
       DOS:  cpu time    0.0012: real time    0.0012
    --------------------------------------------
      LOOP:  cpu time    8.7845: real time    8.7859

 eigenvalue-minimisations  :  1136
 total energy-change (2. order) :-0.8460718E+03  (-0.8126053E+03)
 number of electron     814.0000000 magnetization 
 augmentation part      814.0000000 magnetization 

 Free energy of the ion-electron system (eV)
  ---------------------------------------------------
  alpha Z        PSCENC =      1458.83996183
  Ewald energy   TEWEN  =    161500.25269830
  -Hartree energ DENC   =   -285148.99442286
  -exchange      EXHF   =         0.00000000
  -V(xc)+E(xc)   XCENC  =      3782.34793353
  PAW double counting   =    115860.90926010  -120909.33166199
  entropy T*S    EENTRO =        -1.17998808
  eigenvalues    EBANDS =    -16678.87579666
  atomic energy  EATOM  =    139780.45519414
  Solvation  Ediel_sol  =         0.00000000
  ---------------------------------------------------
  free energy    TOTEN  =      -355.57682169 eV

  energy without entropy =     -354.39683362  energy(sigma->0) =     -354.98682766


--------------------------------------------------------------------------------------------------------




--------------------------------------- Iteration      1(   4)  ---------------------------------------


     EDDAV:  cpu time    8.8367: real time    8.8393
       DOS:  cpu time    0.0014: real time    0.0014
    --------------------------------------------
      LOOP:  cpu time    8.8381: real time    8.8408

 eigenvalue-minimisations  :  1112
 total energy-change (2. order) :-0.4326266E+02  (-0.4283228E+02)
 number of electron     814.0000000 magnetization 
 augmentation part      814.0000000 magnetization 

 Free energy of the ion-electron system (eV)
  ---------------------------------------------------
  alpha Z        PSCENC =      1458.83996183
  Ewald energy   TEWEN  =    161500.25269830
  -Hartree energ DENC   =   -285148.99442286
  -exchange      EXHF   =         0.00000000
  -V(xc)+E(xc)   XCENC  =      3782.34793353
  PAW double counting   =    115860.90926010  -120909.33166199
  entropy T*S    EENTRO =        -1.21692818
  eigenvalues    EBANDS =    -16722.10151668
  atomic energy  EATOM  =    139780.45519414
  Solvation  Ediel_sol  =         0.00000000
  ---------------------------------------------------
  free energy    TOTEN  =      -398.83948181 eV

  energy without entropy =     -397.62255364  energy(sigma->0) =     -398.23101772


--------------------------------------------------------------------------------------------------------




--------------------------------------- Iteration      1(   5)  ---------------------------------------


     EDDAV:  cpu time    9.5209: real time    9.5238
       DOS:  cpu time    0.0013: real time    0.0013
    CHARGE:  cpu time    0.3476: real time    0.3477
    MIXING:  cpu time    0.0105: real time    0.0105
    --------------------------------------------
      LOOP:  cpu time    9.8803: real time    9.8833

 eigenvalue-minimisations  :  1216
 total energy-change (2. order) :-0.1784239E+01  (-0.1781650E+01)
 number of electron     813.9999736 magnetization 
 augmentation part      294.5232780 magnetization 

 Broyden mixing:
  rms(total) = 0.99977E+01    rms(broyden)= 0.99904E+01
  rms(prec ) = 0.10525E+02
  weight for this iteration     100.00

 Free energy of the ion-electron system (eV)
  ---------------------------------------------------
  alpha Z        PSCENC =      1458.83996183
  Ewald energy   TEWEN  =    161500.25269830
  -Hartree energ DENC   =   -285148.99442286
  -exchange      EXHF   =         0.00000000
  -V(xc)+E(xc)   XCENC  =      3782.34793353
  PAW double counting   =    115860.90926010  -120909.33166199
  entropy T*S    EENTRO =        -1.21362572
  eigenvalues    EBANDS =    -16723.88905798
  atomic energy  EATOM  =    139780.45519414
  Solvation  Ediel_sol  =         0.00000000
  ---------------------------------------------------
  free energy    TOTEN  =      -400.62372065 eV

  energy without entropy =     -399.41009494  energy(sigma->0) =     -400.01690780


--------------------------------------------------------------------------------------------------------




--------------------------------------- Iteration      1(   6)  ---------------------------------------


    POTLOK:  cpu time    0.3408: real time    0.3413
    SETDIJ:  cpu time    0.0192: real time    0.0192
     EDDAV:  cpu time    9.6995: real time    9.7052
       DOS:  cpu time    0.0013: real time    0.0013
    CHARGE:  cpu time    0.3536: real time    0.3537
    MIXING:  cpu time    0.0107: real time    0.0107
    --------------------------------------------
      LOOP:  cpu time   10.4251: real time   10.4314

 eigenvalue-minimisations  :  1240
 total energy-change (2. order) :-0.7255802E+02  (-0.9949173E+02)
 number of electron     813.9999471 magnetization 
 augmentation part      355.0899627 magnetization 

 Broyden mixing:
  rms(total) = 0.16843E+02    rms(broyden)= 0.16841E+02
  rms(prec ) = 0.17696E+02
  weight for this iteration     100.00

 eigenvalues of (default mixing * dielectric matrix)
  average eigenvalue GAMMA=   0.2137
  0.2137

 Free energy of the ion-electron system (eV)
  ---------------------------------------------------
  alpha Z        PSCENC =      1458.83996183
  Ewald energy   TEWEN  =    161500.25269830
  -Hartree energ DENC   =   -282496.52669069
  -exchange      EXHF   =         0.00000000
  -V(xc)+E(xc)   XCENC  =      3707.76382984
  PAW double counting   =    121252.74087515  -126066.48374792
  entropy T*S    EENTRO =        -0.83263213
  eigenvalues    EBANDS =    -19609.39122883
  atomic energy  EATOM  =    139780.45519414
  Solvation  Ediel_sol  =         0.00000000
  ---------------------------------------------------
  free energy    TOTEN  =      -473.18174031 eV

  energy without entropy =     -472.34910817  energy(sigma->0) =     -472.76542424


--------------------------------------------------------------------------------------------------------




--------------------------------------- Iteration      1(   7)  ---------------------------------------


    POTLOK:  cpu time    0.3388: real time    0.3390
    SETDIJ:  cpu time    0.0192: real time    0.0192
     EDDAV:  cpu time    8.7263: real time    8.7277
       DOS:  cpu time    0.0014: real time    0.0014
    CHARGE:  cpu time    0.3506: real time    0.3506
    MIXING:  cpu time    0.0160: real time    0.0160
    --------------------------------------------
      LOOP:  cpu time    9.4521: real time    9.4538

 eigenvalue-minimisations  :  1128
 total energy-change (2. order) : 0.9557929E+02  (-0.2110525E+02)
 number of electron     813.9999576 magnetization 
 augmentation part      341.7518997 magnetization 

 Broyden mixing:
  rms(total) = 0.81784E+01    rms(broyden)= 0.81776E+01
  rms(prec ) = 0.86260E+01
  weight for this iteration     100.00

 eigenvalues of (default mixing * dielectric matrix)
  average eigenvalue GAMMA=   0.4689
  0.4689  0.4689

 Free energy of the ion-electron system (eV)
  ---------------------------------------------------
  alpha Z        PSCENC =      1458.83996183
  Ewald energy   TEWEN  =    161500.25269830
  -Hartree energ DENC   =   -283488.47888471
  -exchange      EXHF   =         0.00000000
  -V(xc)+E(xc)   XCENC  =      3732.15156110
  PAW double counting   =    125667.28484213  -130614.28452888
  entropy T*S    EENTRO =        -0.86075519
  eigenvalues    EBANDS =    -18412.96253775
  atomic energy  EATOM  =    139780.45519414
  Solvation  Ediel_sol  =         0.00000000
  ---------------------------------------------------
  free energy    TOTEN  =      -377.60244903 eV

  energy without entropy =     -376.74169384  energy(sigma->0) =     -377.17207144


--------------------------------------------------------------------------------------------------------




--------------------------------------- Iteration      1(   8)  ---------------------------------------


    POTLOK:  cpu time    0.4800: real time    0.4802
    SETDIJ:  cpu time    0.0192: real time    0.0192
     EDDAV:  cpu time   10.0058: real time   10.0080
       DOS:  cpu time    0.0012: real time    0.0012
    CHARGE:  cpu time    0.3420: real time    0.3421
    MIXING:  cpu time    0.0123: real time    0.0123
    --------------------------------------------
      LOOP:  cpu time   10.8606: real time   10.8631

 eigenvalue-minimisations  :  1344
 total energy-change (2. order) :-0.4767758E+02  (-0.2602907E+02)
 number of electron     813.9999630 magnetization 
 augmentation part      319.7030203 magnetization 

 Broyden mixing:
  rms(total) = 0.91594E+01    rms(broyden)= 0.91577E+01
  rms(prec ) = 0.10994E+02
  weight for this iteration     100.00

 eigenvalues of (default mixing * dielectric matrix)
  average eigenvalue GAMMA=   0.5194
  0.8892  0.3866  0.2824

 Free energy of the ion-electron system (eV)
  ---------------------------------------------------
  alpha Z        PSCENC =      1458.83996183
  Ewald energy   TEWEN  =    161500.25269830
  -Hartree energ DENC   =   -284430.50109775
  -exchange      EXHF   =         0.00000000
  -V(xc)+E(xc)   XCENC  =      3756.53765481
  PAW double counting   =    132503.45381805  -137579.04861760
  entropy T*S    EENTRO =        -0.99094837
  eigenvalues    EBANDS =    -17414.27868980
  atomic energy  EATOM  =    139780.45519414
  Solvation  Ediel_sol  =         0.00000000
  ---------------------------------------------------
  free energy    TOTEN  =      -425.28002639 eV

  energy without entropy =     -424.28907802  energy(sigma->0) =     -424.78455221


--------------------------------------------------------------------------------------------------------




--------------------------------------- Iteration      1(   9)  ---------------------------------------


    POTLOK:  cpu time    0.4763: real time    0.4766
    SETDIJ:  cpu time    0.0192: real time    0.0192
     EDDAV:  cpu time   10.4155: real time   10.4172
       DOS:  cpu time    0.0013: real time    0.0013
    CHARGE:  cpu time    0.5923: real time    0.5923
    MIXING:  cpu time    0.0114: real time    0.0114
    --------------------------------------------
      LOOP:  cpu time   11.5160: real time   11.5180

 eigenvalue-minimisations  :  1416
 total energy-change (2. order) : 0.5129692E+02  (-0.1283997E+02)
 number of electron     813.9999603 magnetization 
 augmentation part      312.3400297 magnetization 

 Broyden mixing:
  rms(total) = 0.68639E+01    rms(broyden)= 0.68597E+01
  rms(prec ) = 0.83253E+01
  weight for this iteration     100.00

 eigenvalues of (default mixing * dielectric matrix)
  average eigenvalue GAMMA=   0.6167
  1.5211  0.3816  0.3816  0.1826

 Free energy of the ion-electron system (eV)
  ---------------------------------------------------
  alpha Z        PSCENC =      1458.83996183
  Ewald energy   TEWEN  =    161500.25269830
  -Hartree energ DENC   =   -284582.34726964
  -exchange      EXHF   =         0.00000000
  -V(xc)+E(xc)   XCENC  =      3760.10590093
  PAW double counting   =    137851.88557973  -142969.53586285
  entropy T*S    EENTRO =        -1.25904809
  eigenvalues    EBANDS =    -17172.38025736
  atomic energy  EATOM  =    139780.45519414
  Solvation  Ediel_sol  =         0.00000000
  ---------------------------------------------------
  free energy    TOTEN  =      -373.98310301 eV

  energy without entropy =     -372.72405492  energy(sigma->0) =     -373.35357896


--------------------------------------------------------------------------------------------------------




--------------------------------------- Iteration      1(  10)  ---------------------------------------


    POTLOK:  cpu time    0.3385: real time    0.3385
    SETDIJ:  cpu time    0.0192: real time    0.0192
     EDDAV:  cpu time    9.9415: real time    9.9439
       DOS:  cpu time    0.0014: real time    0.0013
    CHARGE:  cpu time    0.5912: real time    0.5913
    MIXING:  cpu time    0.0118: real time    0.0118
    --------------------------------------------
      LOOP:  cpu time   10.9034: real time   10.9059

 eigenvalue-minimisations  :  1328
 total energy-change (2. order) :-0.1113055E+02  (-0.1019963E+02)
 number of electron     813.9999643 magnetization 
 augmentation part      312.8178356 magnetization 

 Broyden mixing:
  rms(total) = 0.81480E+01    rms(broyden)= 0.81436E+01
  rms(prec ) = 0.10240E+02
  weight for this iteration     100.00

 eigenvalues of (default mixing * dielectric matrix)
  average eigenvalue GAMMA=   0.6625
  2.1281  0.4184  0.4184  0.2074  0.1400

 Free energy of the ion-electron system (eV)
  ---------------------------------------------------
  alpha Z        PSCENC =      1458.83996183
  Ewald energy   TEWEN  =    161500.25269830
  -Hartree energ DENC   =   -284508.59122913
  -exchange      EXHF   =         0.00000000
  -V(xc)+E(xc)   XCENC  =      3756.68014180
  PAW double counting   =    142728.32679908  -147863.53243761
  entropy T*S    EENTRO =        -1.16932145
  eigenvalues    EBANDS =    -17236.37546489
  atomic energy  EATOM  =    139780.45519414
  Solvation  Ediel_sol  =         0.00000000
  ---------------------------------------------------
  free energy    TOTEN  =      -385.11365793 eV

  energy without entropy =     -383.94433648  energy(sigma->0) =     -384.52899720


--------------------------------------------------------------------------------------------------------




--------------------------------------- Iteration      1(  11)  ---------------------------------------


    POTLOK:  cpu time    0.3409: real time    0.3412
    SETDIJ:  cpu time    0.0191: real time    0.0191
     EDDAV:  cpu time   10.2011: real time   10.2026
       DOS:  cpu time    0.0013: real time    0.0012
    CHARGE:  cpu time    0.4950: real time    0.4950
    MIXING:  cpu time    0.0122: real time    0.0122
    --------------------------------------------
      LOOP:  cpu time   11.0696: real time   11.0713

 eigenvalue-minimisations  :  1368
 total energy-change (2. order) : 0.1531722E+02  (-0.7210418E+01)
 number of electron     813.9999802 magnetization 
 augmentation part      319.2502404 magnetization 

 Broyden mixing:
  rms(total) = 0.52970E+01    rms(broyden)= 0.52943E+01
  rms(prec ) = 0.59997E+01
  weight for this iteration     100.00

 eigenvalues of (default mixing * dielectric matrix)
  average eigenvalue GAMMA=   0.6169
  2.3079  0.4328  0.4328  0.2019  0.2019  0.1245

 Free energy of the ion-electron system (eV)
  ---------------------------------------------------
  alpha Z        PSCENC =      1458.83996183
  Ewald energy   TEWEN  =    161500.25269830
  -Hartree energ DENC   =   -284369.74790980
  -exchange      EXHF   =         0.00000000
  -V(xc)+E(xc)   XCENC  =      3752.52734145
  PAW double counting   =    147386.74246559  -152537.03403910
  entropy T*S    EENTRO =        -0.90944751
  eigenvalues    EBANDS =    -17340.92270262
  atomic energy  EATOM  =    139780.45519414
  Solvation  Ediel_sol  =         0.00000000
  ---------------------------------------------------
  free energy    TOTEN  =      -369.79643773 eV

  energy without entropy =     -368.88699022  energy(sigma->0) =     -369.34171397


--------------------------------------------------------------------------------------------------------




--------------------------------------- Iteration      1(  12)  ---------------------------------------


    POTLOK:  cpu time    0.3401: real time    0.3401
    SETDIJ:  cpu time    0.0191: real time    0.0191
     EDDAV:  cpu time   10.1323: real time   10.1398
       DOS:  cpu time    0.0014: real time    0.0013
    CHARGE:  cpu time    0.3875: real time    0.3875
    MIXING:  cpu time    0.0140: real time    0.0140
    --------------------------------------------
      LOOP:  cpu time   10.8944: real time   10.9018

 eigenvalue-minimisations  :  1336
 total energy-change (2. order) : 0.1648492E+02  (-0.2926548E+01)
 number of electron     813.9999654 magnetization 
 augmentation part      321.3716569 magnetization 

 Broyden mixing:
  rms(total) = 0.24786E+01    rms(broyden)= 0.24755E+01
  rms(prec ) = 0.28818E+01
  weight for this iteration     100.00

 eigenvalues of (default mixing * dielectric matrix)
  average eigenvalue GAMMA=   0.5631
  2.1941  0.4175  0.4175  0.2944  0.2944  0.1803  0.1433

 Free energy of the ion-electron system (eV)
  ---------------------------------------------------
  alpha Z        PSCENC =      1458.83996183
  Ewald energy   TEWEN  =    161500.25269830
  -Hartree energ DENC   =   -284357.13139648
  -exchange      EXHF   =         0.00000000
  -V(xc)+E(xc)   XCENC  =      3752.28576786
  PAW double counting   =    148810.67101349  -153969.61071590
  entropy T*S    EENTRO =        -1.06618687
  eigenvalues    EBANDS =    -17328.00785613
  atomic energy  EATOM  =    139780.45519414
  Solvation  Ediel_sol  =         0.00000000
  ---------------------------------------------------
  free energy    TOTEN  =      -353.31151977 eV

  energy without entropy =     -352.24533290  energy(sigma->0) =     -352.77842633


--------------------------------------------------------------------------------------------------------




--------------------------------------- Iteration      1(  13)  ---------------------------------------


    POTLOK:  cpu time    0.3435: real time    0.3439
    SETDIJ:  cpu time    0.0192: real time    0.0192
     EDDAV:  cpu time   10.2013: real time   10.2066
       DOS:  cpu time    0.0014: real time    0.0014
    CHARGE:  cpu time    0.3513: real time    0.3513
    MIXING:  cpu time    0.0135: real time    0.0135
    --------------------------------------------
      LOOP:  cpu time   10.9302: real time   10.9358

 eigenvalue-minimisations  :  1352
 total energy-change (2. order) : 0.1575091E+01  (-0.1424737E+01)
 number of electron     813.9999684 magnetization 
 augmentation part      321.0405399 magnetization 

 Broyden mixing:
  rms(total) = 0.23883E+01    rms(broyden)= 0.23870E+01
  rms(prec ) = 0.28974E+01
  weight for this iteration     100.00

 eigenvalues of (default mixing * dielectric matrix)
  average eigenvalue GAMMA=   0.5252
  2.0972  0.4472  0.4472  0.3551  0.3551  0.2069  0.1602  0.1327

 Free energy of the ion-electron system (eV)
  ---------------------------------------------------
  alpha Z        PSCENC =      1458.83996183
  Ewald energy   TEWEN  =    161500.25269830
  -Hartree energ DENC   =   -284392.42887369
  -exchange      EXHF   =         0.00000000
  -V(xc)+E(xc)   XCENC  =      3752.86337094
  PAW double counting   =    148016.06307324  -153170.87989716
  entropy T*S    EENTRO =        -1.07960482
  eigenvalues    EBANDS =    -17295.82235153
  atomic energy  EATOM  =    139780.45519414
  Solvation  Ediel_sol  =         0.00000000
  ---------------------------------------------------
  free energy    TOTEN  =      -351.73642876 eV

  energy without entropy =     -350.65682394  energy(sigma->0) =     -351.19662635


--------------------------------------------------------------------------------------------------------




--------------------------------------- Iteration      1(  14)  ---------------------------------------


    POTLOK:  cpu time    0.3420: real time    0.3421
    SETDIJ:  cpu time    0.0191: real time    0.0191
     EDDAV:  cpu time   10.1894: real time   10.1913
       DOS:  cpu time    0.0014: real time    0.0014
    CHARGE:  cpu time    0.3454: real time    0.3454
    MIXING:  cpu time    0.0146: real time    0.0147
    --------------------------------------------
      LOOP:  cpu time   10.9120: real time   10.9140

 eigenvalue-minimisations  :  1344
 total energy-change (2. order) : 0.2270561E+01  (-0.6346197E+00)
 number of electron     813.9999667 magnetization 
 augmentation part      320.3219023 magnetization 

 Broyden mixing:
  rms(total) = 0.16691E+01    rms(broyden)= 0.16681E+01
  rms(prec ) = 0.18997E+01
  weight for this iteration     100.00

 eigenvalues of (default mixing * dielectric matrix)
  average eigenvalue GAMMA=   0.4867
  2.0779  0.4547  0.4547  0.3731  0.3731  0.2026  0.1599  0.1422  0.1422

 Free energy of the ion-electron system (eV)
  ---------------------------------------------------
  alpha Z        PSCENC =      1458.83996183
  Ewald energy   TEWEN  =    161500.25269830
  -Hartree energ DENC   =   -284431.10553686
  -exchange      EXHF   =         0.00000000
  -V(xc)+E(xc)   XCENC  =      3753.66649505
  PAW double counting   =    147235.59284482  -152387.67308729
  entropy T*S    EENTRO =        -1.05911227
  eigenvalues    EBANDS =    -17258.43532524
  atomic energy  EATOM  =    139780.45519414
  Solvation  Ediel_sol  =         0.00000000
  ---------------------------------------------------
  free energy    TOTEN  =      -349.46586752 eV

  energy without entropy =     -348.40675525  energy(sigma->0) =     -348.93631139


--------------------------------------------------------------------------------------------------------




--------------------------------------- Iteration      1(  15)  ---------------------------------------


    POTLOK:  cpu time    0.3474: real time    0.3474
    SETDIJ:  cpu time    0.0193: real time    0.0193
     EDDAV:  cpu time    9.8505: real time    9.8524
       DOS:  cpu time    0.0013: real time    0.0012
    CHARGE:  cpu time    0.4785: real time    0.4785
    MIXING:  cpu time    0.0145: real time    0.0145
    --------------------------------------------
      LOOP:  cpu time   10.7115: real time   10.7134

 eigenvalue-minimisations  :  1312
 total energy-change (2. order) : 0.5889246E+00  (-0.1583026E+00)
 number of electron     813.9999664 magnetization 
 augmentation part      320.2300831 magnetization 

 Broyden mixing:
  rms(total) = 0.13594E+01    rms(broyden)= 0.13592E+01
  rms(prec ) = 0.15084E+01
  weight for this iteration     100.00

 eigenvalues of (default mixing * dielectric matrix)
  average eigenvalue GAMMA=   0.4579
  2.0654  0.4673  0.4673  0.3862  0.3862  0.2016  0.1674  0.1674  0.1482  0.1218

 Free energy of the ion-electron system (eV)
  ---------------------------------------------------
  alpha Z        PSCENC =      1458.83996183
  Ewald energy   TEWEN  =    161500.25269830
  -Hartree energ DENC   =   -284437.45355139
  -exchange      EXHF   =         0.00000000
  -V(xc)+E(xc)   XCENC  =      3753.87226301
  PAW double counting   =    147028.66181360  -152180.00264568
  entropy T*S    EENTRO =        -1.11437732
  eigenvalues    EBANDS =    -17252.38829942
  atomic energy  EATOM  =    139780.45519414
  Solvation  Ediel_sol  =         0.00000000
  ---------------------------------------------------
  free energy    TOTEN  =      -348.87694292 eV

  energy without entropy =     -347.76256560  energy(sigma->0) =     -348.31975426


--------------------------------------------------------------------------------------------------------




--------------------------------------- Iteration      1(  16)  ---------------------------------------


    POTLOK:  cpu time    0.3448: real time    0.3448
    SETDIJ:  cpu time    0.0192: real time    0.0192
     EDDAV:  cpu time    8.9529: real time    8.9546
       DOS:  cpu time    0.0014: real time    0.0014
    CHARGE:  cpu time    0.3494: real time    0.3494
    MIXING:  cpu time    0.0149: real time    0.0149
    --------------------------------------------
      LOOP:  cpu time    9.6827: real time    9.6844

 eigenvalue-minimisations  :  1152
 total energy-change (2. order) : 0.1351311E+00  (-0.2975629E-01)
 number of electron     813.9999662 magnetization 
 augmentation part      320.0648171 magnetization 

 Broyden mixing:
  rms(total) = 0.12975E+01    rms(broyden)= 0.12974E+01
  rms(prec ) = 0.14279E+01
  weight for this iteration     100.00

 eigenvalues of (default mixing * dielectric matrix)
  average eigenvalue GAMMA=   0.4700
  2.0449  0.5824  0.5824  0.3971  0.3971  0.2652  0.2652  0.2055  0.1652  0.1326
  0.1326

 Free energy of the ion-electron system (eV)
  ---------------------------------------------------
  alpha Z        PSCENC =      1458.83996183
  Ewald energy   TEWEN  =    161500.25269830
  -Hartree energ DENC   =   -284443.45748864
  -exchange      EXHF   =         0.00000000
  -V(xc)+E(xc)   XCENC  =      3753.98615540
  PAW double counting   =    146877.45016718  -152028.01304255
  entropy T*S    EENTRO =        -1.11926233
  eigenvalues    EBANDS =    -17247.13619511
  atomic energy  EATOM  =    139780.45519414
  Solvation  Ediel_sol  =         0.00000000
  ---------------------------------------------------
  free energy    TOTEN  =      -348.74181179 eV

  energy without entropy =     -347.62254946  energy(sigma->0) =     -348.18218062


--------------------------------------------------------------------------------------------------------




--------------------------------------- Iteration      1(  17)  ---------------------------------------


    POTLOK:  cpu time    0.3425: real time    0.3425
    SETDIJ:  cpu time    0.0241: real time    0.0241
     EDDAV:  cpu time    9.6993: real time    9.7012
       DOS:  cpu time    0.0013: real time    0.0013
    CHARGE:  cpu time    0.3485: real time    0.3485
    MIXING:  cpu time    0.0155: real time    0.0155
    --------------------------------------------
      LOOP:  cpu time   10.4312: real time   10.4331

 eigenvalue-minimisations  :  1256
 total energy-change (2. order) : 0.1303423E+00  (-0.2880553E-01)
 number of electron     813.9999661 magnetization 
 augmentation part      320.0676281 magnetization 

 Broyden mixing:
  rms(total) = 0.12562E+01    rms(broyden)= 0.12561E+01
  rms(prec ) = 0.14053E+01
  weight for this iteration     100.00

 eigenvalues of (default mixing * dielectric matrix)
  average eigenvalue GAMMA=   0.5207
  2.0358  0.9245  0.9245  0.4411  0.4411  0.3960  0.2965  0.2147  0.1737  0.1474
  0.1369  0.1159

 Free energy of the ion-electron system (eV)
  ---------------------------------------------------
  alpha Z        PSCENC =      1458.83996183
  Ewald energy   TEWEN  =    161500.25269830
  -Hartree energ DENC   =   -284451.75258673
  -exchange      EXHF   =         0.00000000
  -V(xc)+E(xc)   XCENC  =      3754.08525784
  PAW double counting   =    146528.74784998  -151676.79534220
  entropy T*S    EENTRO =        -1.12557197
  eigenvalues    EBANDS =    -17241.31893068
  atomic energy  EATOM  =    139780.45519414
  Solvation  Ediel_sol  =         0.00000000
  ---------------------------------------------------
  free energy    TOTEN  =      -348.61146949 eV

  energy without entropy =     -347.48589752  energy(sigma->0) =     -348.04868350


--------------------------------------------------------------------------------------------------------




--------------------------------------- Iteration      1(  18)  ---------------------------------------


    POTLOK:  cpu time    0.3445: real time    0.3445
    SETDIJ:  cpu time    0.0191: real time    0.0191
     EDDAV:  cpu time   10.5247: real time   10.5307
       DOS:  cpu time    0.0014: real time    0.0014
    CHARGE:  cpu time    0.3532: real time    0.3533
    MIXING:  cpu time    0.0162: real time    0.0162
    --------------------------------------------
      LOOP:  cpu time   11.2591: real time   11.2652

 eigenvalue-minimisations  :  1384
 total energy-change (2. order) : 0.1750998E+00  (-0.5448708E-01)
 number of electron     813.9999663 magnetization 
 augmentation part      319.9049898 magnetization 

 Broyden mixing:
  rms(total) = 0.11559E+01    rms(broyden)= 0.11556E+01
  rms(prec ) = 0.12768E+01
  weight for this iteration     100.00

 eigenvalues of (default mixing * dielectric matrix)
  average eigenvalue GAMMA=   0.5755
  2.0101  1.3576  1.3576  0.6027  0.4446  0.4446  0.2864  0.2324  0.1779  0.1779
  0.1416  0.1359  0.1128

 Free energy of the ion-electron system (eV)
  ---------------------------------------------------
  alpha Z        PSCENC =      1458.83996183
  Ewald energy   TEWEN  =    161500.25269830
  -Hartree energ DENC   =   -284470.68044779
  -exchange      EXHF   =         0.00000000
  -V(xc)+E(xc)   XCENC  =      3754.20204847
  PAW double counting   =    146010.88203855  -151154.62661981
  entropy T*S    EENTRO =        -1.14392042
  eigenvalues    EBANDS =    -17226.61732292
  atomic energy  EATOM  =    139780.45519414
  Solvation  Ediel_sol  =         0.00000000
  ---------------------------------------------------
  free energy    TOTEN  =      -348.43636965 eV

  energy without entropy =     -347.29244923  energy(sigma->0) =     -347.86440944


--------------------------------------------------------------------------------------------------------




--------------------------------------- Iteration      1(  19)  ---------------------------------------


    POTLOK:  cpu time    0.3459: real time    0.3460
    SETDIJ:  cpu time    0.0191: real time    0.0191
     EDDAV:  cpu time   10.5195: real time   10.5267
       DOS:  cpu time    0.0014: real time    0.0014
    CHARGE:  cpu time    0.3591: real time    0.3591
    MIXING:  cpu time    0.0180: real time    0.0180
    --------------------------------------------
      LOOP:  cpu time   11.2631: real time   11.2703

 eigenvalue-minimisations  :  1376
 total energy-change (2. order) : 0.2851490E+00  (-0.1165634E+00)
 number of electron     813.9999655 magnetization 
 augmentation part      319.9011222 magnetization 

 Broyden mixing:
  rms(total) = 0.90993E+00    rms(broyden)= 0.90946E+00
  rms(prec ) = 0.10007E+01
  weight for this iteration     100.00

 eigenvalues of (default mixing * dielectric matrix)
  average eigenvalue GAMMA=   0.6009
  1.9978  1.5629  1.5629  0.6175  0.6175  0.4298  0.4298  0.2572  0.1979  0.1979
  0.1559  0.1367  0.1367  0.1116

 Free energy of the ion-electron system (eV)
  ---------------------------------------------------
  alpha Z        PSCENC =      1458.83996183
  Ewald energy   TEWEN  =    161500.25269830
  -Hartree energ DENC   =   -284499.81089177
  -exchange      EXHF   =         0.00000000
  -V(xc)+E(xc)   XCENC  =      3754.17935614
  PAW double counting   =    144935.36563675  -150068.77812864
  entropy T*S    EENTRO =        -1.18917745
  eigenvalues    EBANDS =    -17207.46586994
  atomic energy  EATOM  =    139780.45519414
  Solvation  Ediel_sol  =         0.00000000
  ---------------------------------------------------
  free energy    TOTEN  =      -348.15122065 eV

  energy without entropy =     -346.96204319  energy(sigma->0) =     -347.55663192


--------------------------------------------------------------------------------------------------------




--------------------------------------- Iteration      1(  20)  ---------------------------------------


    POTLOK:  cpu time    0.4386: real time    0.4389
    SETDIJ:  cpu time    0.0406: real time    0.0406
     EDDAV:  cpu time    9.3661: real time    9.3676
       DOS:  cpu time    0.0011: real time    0.0011
    CHARGE:  cpu time    0.3382: real time    0.3382
    MIXING:  cpu time    0.0187: real time    0.0187
    --------------------------------------------
      LOOP:  cpu time   10.2034: real time   10.2052

 eigenvalue-minimisations  :  1232
 total energy-change (2. order) : 0.2708988E-01  (-0.1088182E+00)
 number of electron     813.9999647 magnetization 
 augmentation part      320.3430071 magnetization 

 Broyden mixing:
  rms(total) = 0.82002E+00    rms(broyden)= 0.81959E+00
  rms(prec ) = 0.93252E+00
  weight for this iteration     100.00

 eigenvalues of (default mixing * dielectric matrix)
  average eigenvalue GAMMA=   0.6017
  2.0229  2.0229  1.0714  0.8219  0.8219  0.4279  0.4279  0.2750  0.2098  0.2098
  0.1646  0.1646  0.1365  0.1365  0.1124

 Free energy of the ion-electron system (eV)
  ---------------------------------------------------
  alpha Z        PSCENC =      1458.83996183
  Ewald energy   TEWEN  =    161500.25269830
  -Hartree energ DENC   =   -284520.08989884
  -exchange      EXHF   =         0.00000000
  -V(xc)+E(xc)   XCENC  =      3753.98258783
  PAW double counting   =    144183.92738752  -149309.48778300
  entropy T*S    EENTRO =        -1.25422070
  eigenvalues    EBANDS =    -17194.75005785
  atomic energy  EATOM  =    139780.45519414
  Solvation  Ediel_sol  =         0.00000000
  ---------------------------------------------------
  free energy    TOTEN  =      -348.12413077 eV

  energy without entropy =     -346.86991007  energy(sigma->0) =     -347.49702042


--------------------------------------------------------------------------------------------------------




--------------------------------------- Iteration      1(  21)  ---------------------------------------


    POTLOK:  cpu time    0.3471: real time    0.3471
    SETDIJ:  cpu time    0.0191: real time    0.0191
     EDDAV:  cpu time    9.5567: real time    9.5585
       DOS:  cpu time    0.0015: real time    0.0015
    CHARGE:  cpu time    0.3496: real time    0.3497
    MIXING:  cpu time    0.0183: real time    0.0183
    --------------------------------------------
      LOOP:  cpu time   10.2923: real time   10.2941

 eigenvalue-minimisations  :  1232
 total energy-change (2. order) :-0.3756990E-01  (-0.8772447E-01)
 number of electron     813.9999632 magnetization 
 augmentation part      320.4550620 magnetization 

 Broyden mixing:
  rms(total) = 0.88530E+00    rms(broyden)= 0.88463E+00
  rms(prec ) = 0.10825E+01
  weight for this iteration     100.00

 eigenvalues of (default mixing * dielectric matrix)
  average eigenvalue GAMMA=   0.5856
  2.1596  2.1596  0.8841  0.8428  0.8428  0.4252  0.4252  0.3288  0.2282  0.2282
  0.1691  0.1691  0.1363  0.1363  0.1106  0.1239

 Free energy of the ion-electron system (eV)
  ---------------------------------------------------
  alpha Z        PSCENC =      1458.83996183
  Ewald energy   TEWEN  =    161500.25269830
  -Hartree energ DENC   =   -284538.00204314
  -exchange      EXHF   =         0.00000000
  -V(xc)+E(xc)   XCENC  =      3754.03896161
  PAW double counting   =    143559.52862348  -148679.51143548
  entropy T*S    EENTRO =        -1.30478781
  eigenvalues    EBANDS =    -17182.45887360
  atomic energy  EATOM  =    139780.45519414
  Solvation  Ediel_sol  =         0.00000000
  ---------------------------------------------------
  free energy    TOTEN  =      -348.16170067 eV

  energy without entropy =     -346.85691286  energy(sigma->0) =     -347.50930676


--------------------------------------------------------------------------------------------------------




--------------------------------------- Iteration      1(  22)  ---------------------------------------


    POTLOK:  cpu time    0.3461: real time    0.3461
    SETDIJ:  cpu time    0.0190: real time    0.0190
     EDDAV:  cpu time    8.6920: real time    8.6941
       DOS:  cpu time    0.0011: real time    0.0011
    CHARGE:  cpu time    0.3365: real time    0.3365
    MIXING:  cpu time    0.0192: real time    0.0192
    --------------------------------------------
      LOOP:  cpu time    9.4139: real time    9.4160

 eigenvalue-minimisations  :  1080
 total energy-change (2. order) : 0.1296110E+00  (-0.3876907E-01)
 number of electron     813.9999642 magnetization 
 augmentation part      320.6051746 magnetization 

 Broyden mixing:
  rms(total) = 0.55635E+00    rms(broyden)= 0.55615E+00
  rms(prec ) = 0.66030E+00
  weight for this iteration     100.00

 eigenvalues of (default mixing * dielectric matrix)
  average eigenvalue GAMMA=   0.5879
  2.2546  2.2546  0.8905  0.8905  0.6813  0.6085  0.4324  0.4324  0.2604  0.2093
  0.2093  0.1695  0.1695  0.1412  0.1412  0.1364  0.1122

 Free energy of the ion-electron system (eV)
  ---------------------------------------------------
  alpha Z        PSCENC =      1458.83996183
  Ewald energy   TEWEN  =    161500.25269830
  -Hartree energ DENC   =   -284541.09781597
  -exchange      EXHF   =         0.00000000
  -V(xc)+E(xc)   XCENC  =      3754.02941939
  PAW double counting   =    143549.50714508  -148669.51048100
  entropy T*S    EENTRO =        -1.26819968
  eigenvalues    EBANDS =    -17179.24001173
  atomic energy  EATOM  =    139780.45519414
  Solvation  Ediel_sol  =         0.00000000
  ---------------------------------------------------
  free energy    TOTEN  =      -348.03208964 eV

  energy without entropy =     -346.76388996  energy(sigma->0) =     -347.39798980


--------------------------------------------------------------------------------------------------------




--------------------------------------- Iteration      1(  23)  ---------------------------------------


    POTLOK:  cpu time    0.3493: real time    0.3494
    SETDIJ:  cpu time    0.0191: real time    0.0191
     EDDAV:  cpu time    9.7667: real time    9.7684
       DOS:  cpu time    0.0012: real time    0.0012
    CHARGE:  cpu time    0.3400: real time    0.3401
    MIXING:  cpu time    0.0202: real time    0.0202
    --------------------------------------------
      LOOP:  cpu time   10.4965: real time   10.4984

 eigenvalue-minimisations  :  1264
 total energy-change (2. order) : 0.5681744E-01  (-0.9047704E-02)
 number of electron     813.9999637 magnetization 
 augmentation part      320.5517931 magnetization 

 Broyden mixing:
  rms(total) = 0.48872E+00    rms(broyden)= 0.48864E+00
  rms(prec ) = 0.58802E+00
  weight for this iteration     100.00

 eigenvalues of (default mixing * dielectric matrix)
  average eigenvalue GAMMA=   0.5941
  2.2936  2.2936  0.9895  0.9895  0.6440  0.6440  0.4379  0.4379  0.4516  0.2457
  0.2092  0.2092  0.1676  0.1676  0.1120  0.1363  0.1363  0.1285

 Free energy of the ion-electron system (eV)
  ---------------------------------------------------
  alpha Z        PSCENC =      1458.83996183
  Ewald energy   TEWEN  =    161500.25269830
  -Hartree energ DENC   =   -284545.98083507
  -exchange      EXHF   =         0.00000000
  -V(xc)+E(xc)   XCENC  =      3754.06117055
  PAW double counting   =    143681.26527407  -148802.75013645
  entropy T*S    EENTRO =        -1.25814957
  eigenvalues    EBANDS =    -17172.86045000
  atomic energy  EATOM  =    139780.45519414
  Solvation  Ediel_sol  =         0.00000000
  ---------------------------------------------------
  free energy    TOTEN  =      -347.97527221 eV

  energy without entropy =     -346.71712264  energy(sigma->0) =     -347.34619742


--------------------------------------------------------------------------------------------------------




--------------------------------------- Iteration      1(  24)  ---------------------------------------


    POTLOK:  cpu time    0.3477: real time    0.3477
    SETDIJ:  cpu time    0.0191: real time    0.0191
     EDDAV:  cpu time    9.4110: real time    9.4123
       DOS:  cpu time    0.0015: real time    0.0015
    CHARGE:  cpu time    0.3508: real time    0.3511
    MIXING:  cpu time    0.0208: real time    0.0208
    --------------------------------------------
      LOOP:  cpu time   10.1509: real time   10.1524

 eigenvalue-minimisations  :  1200
 total energy-change (2. order) : 0.2993460E-01  (-0.9711098E-02)
 number of electron     813.9999643 magnetization 
 augmentation part      320.6405563 magnetization 

 Broyden mixing:
  rms(total) = 0.44217E+00    rms(broyden)= 0.44207E+00
  rms(prec ) = 0.52711E+00
  weight for this iteration     100.00

 eigenvalues of (default mixing * dielectric matrix)
  average eigenvalue GAMMA=   0.6099
  2.5209  2.0886  1.1618  1.1618  0.7441  0.6731  0.6731  0.4315  0.4315  0.2706
  0.2140  0.2140  0.1683  0.1683  0.1121  0.1486  0.1380  0.1380  0.1294

 Free energy of the ion-electron system (eV)
  ---------------------------------------------------
  alpha Z        PSCENC =      1458.83996183
  Ewald energy   TEWEN  =    161500.25269830
  -Hartree energ DENC   =   -284546.62657064
  -exchange      EXHF   =         0.00000000
  -V(xc)+E(xc)   XCENC  =      3754.05524541
  PAW double counting   =    143889.56093387  -149013.02288818
  entropy T*S    EENTRO =        -1.24632291
  eigenvalues    EBANDS =    -17170.21358943
  atomic energy  EATOM  =    139780.45519414
  Solvation  Ediel_sol  =         0.00000000
  ---------------------------------------------------
  free energy    TOTEN  =      -347.94533760 eV

  energy without entropy =     -346.69901470  energy(sigma->0) =     -347.32217615


--------------------------------------------------------------------------------------------------------




--------------------------------------- Iteration      1(  25)  ---------------------------------------


    POTLOK:  cpu time    0.3470: real time    0.3470
    SETDIJ:  cpu time    0.0191: real time    0.0191
     EDDAV:  cpu time    8.6129: real time    8.6176
       DOS:  cpu time    0.0013: real time    0.0013
    CHARGE:  cpu time    0.3439: real time    0.3439
    MIXING:  cpu time    0.0219: real time    0.0219
    --------------------------------------------
      LOOP:  cpu time    9.3461: real time    9.3508

 eigenvalue-minimisations  :  1112
 total energy-change (2. order) : 0.3105266E-01  (-0.1049789E-01)
 number of electron     813.9999637 magnetization 
 augmentation part      320.6871711 magnetization 

 Broyden mixing:
  rms(total) = 0.40984E+00    rms(broyden)= 0.40979E+00
  rms(prec ) = 0.49970E+00
  weight for this iteration     100.00

 eigenvalues of (default mixing * dielectric matrix)
  average eigenvalue GAMMA=   0.6353
  2.7284  2.1596  1.3733  1.3733  0.7407  0.7407  0.6680  0.4296  0.4296  0.3883
  0.2295  0.2295  0.2057  0.1692  0.1692  0.1553  0.1121  0.1368  0.1368  0.1296

 Free energy of the ion-electron system (eV)
  ---------------------------------------------------
  alpha Z        PSCENC =      1458.83996183
  Ewald energy   TEWEN  =    161500.25269830
  -Hartree energ DENC   =   -284546.92764543
  -exchange      EXHF   =         0.00000000
  -V(xc)+E(xc)   XCENC  =      3754.03660076
  PAW double counting   =    144174.56900946  -149300.61185870
  entropy T*S    EENTRO =        -1.25321650
  eigenvalues    EBANDS =    -17167.27502880
  atomic energy  EATOM  =    139780.45519414
[...]
  Alpha Z  1458.83996  1458.83996  1458.83996
  Ewald  208676.08429212077.89504************     0.00007     0.00000   609.00187
  Hartree243548.60189247681.66095************    -0.00016     0.00009   372.89993
  E(xc)   -5193.48659 -5194.95566 -5203.02135    -0.00002    -0.00000     0.46891
  Local  ************************452920.73838     0.00058    -0.00017  -973.68152
  n-local  -598.30992  -607.82298  -625.64748     0.00853    -0.02368     0.60878
  augment  5922.89166  5954.19336  5972.04358    -0.00067    -0.00045    -5.22338
  Kinetic 11368.21337 11416.63502 11515.80203    -0.00073     0.00014    -4.30937
  Fock        0.00000     0.00000     0.00000     0.00000     0.00000     0.00000
  -------------------------------------------------------------------------------------
  Total     128.61462   127.74202   136.13489     0.00000     0.00000    -0.23479
  in kB      76.50308    75.98404    80.97632     0.00000     0.00000    -0.13966
  external pressure =       77.82 kB  Pullay stress =        0.00 kB


 VOLUME and BASIS-vectors are now :
 -----------------------------------------------------------------------------
  energy-cutoff  :      450.00
  volume of cell :     2693.53
      direct lattice vectors                 reciprocal lattice vectors
    16.884694054  0.000000000  0.000000000     0.059225237  0.000000000  0.000000000
     0.000000000  9.578410000  0.000000000     0.000000000  0.104401461  0.000000000
     0.000000000  0.000000000 16.654645685     0.000000000  0.000000000  0.060043307

  length of vectors
    16.884694054  9.578410000 16.654645685     0.059225237  0.104401461  0.060043307


 FORCES acting on ions
    electron-ion (+dipol)            ewald-force                    non-local-force                 convergence-correction
 -----------------------------------------------------------------------------------------------
   -.608E+03 -.912E-03 0.115E+04   0.609E+03 -.604E-05 -.115E+04   0.162E+00 0.000E+00 0.206E+01   -.556E-02 -.758E-07 -.107E-01
   0.428E+03 -.105E-02 -.309E+04   -.429E+03 -.765E-06 0.309E+04   0.708E+00 0.000E+00 -.367E+01   0.830E-02 -.218E-06 0.267E-01
   0.392E+03 -.818E-03 0.294E+04   -.393E+03 0.136E-05 -.295E+04   0.184E+01 0.000E+00 0.557E+01   0.598E-02 0.380E-07 -.234E-01
   0.570E+03 -.874E-03 -.111E+04   -.571E+03 -.852E-06 0.112E+04   0.159E+01 0.000E+00 -.259E+01   -.367E-01 -.505E-07 -.486E-01
   0.181E+03 -.105E-02 0.260E+04   -.183E+03 0.161E-04 -.260E+04   0.156E+01 0.000E+00 0.373E+01   -.772E-01 -.197E-06 -.366E-01
   0.218E+03 -.721E-03 -.184E+04   -.221E+03 -.850E-06 0.184E+04   0.258E+01 0.000E+00 -.485E+01   -.523E-01 0.430E-07 -.344E-01
   0.867E+03 -.869E-03 0.149E+04   -.872E+03 0.311E-06 -.149E+04   0.387E+01 0.000E+00 0.404E+01   0.452E-01 -.562E-07 -.217E-02
   0.684E+03 -.864E-03 -.299E+04   -.690E+03 0.931E-07 0.299E+04   0.360E+01 0.000E+00 -.377E+01   0.405E-01 -.477E-07 0.140E-01
   0.791E+03 -.941E-03 0.415E+04   -.794E+03 0.604E-06 -.415E+04   0.247E+01 0.000E+00 0.477E+01   0.915E-02 -.477E-06 -.580E-01
   0.962E+03 -.782E-03 0.442E+03   -.963E+03 0.227E-06 -.441E+03   0.213E+01 0.000E+00 -.256E+00   0.564E-01 -.180E-06 -.130E+00
   -.265E+03 -.114E-02 -.304E+04   0.266E+03 -.865E-08 0.304E+04   0.863E+00 0.000E+00 0.202E+01   0.450E-01 -.893E-07 -.181E-01
   -.524E+03 -.981E-03 0.167E+04   0.526E+03 0.135E-04 -.167E+04   -.199E+01 0.000E+00 0.338E+01   -.486E-01 -.239E-06 -.228E-01
   -.122E+02 -.935E-03 -.238E+04   0.915E+01 0.469E-05 0.239E+04   0.213E+01 0.000E+00 -.573E+01   -.265E-01 -.207E-06 0.143E-01
   0.247E+03 0.523E+03 -.111E+04   -.245E+03 -.530E+03 0.111E+04   -.117E+01 0.540E+01 0.724E+00   0.501E-01 -.169E-01 -.874E-02
   -.118E+03 0.572E+03 0.399E+04   0.116E+03 -.568E+03 -.399E+04   0.259E+01 -.419E+01 -.212E+01   -.490E-01 -.122E-01 -.104E-01
   -.240E+03 0.468E+03 0.142E+03   0.240E+03 -.472E+03 -.142E+03   0.531E+00 0.339E+01 -.346E+00   -.474E-01 -.968E-02 -.361E-01
   -.214E+03 0.148E+03 -.370E+04   0.217E+03 -.152E+03 0.370E+04   -.311E+01 0.470E+01 0.158E+01   -.247E-01 -.114E-01 -.384E-02
   -.578E+03 0.577E+03 0.363E+04   0.575E+03 -.573E+03 -.363E+04   0.315E+01 -.419E+01 -.149E+01   -.603E-01 0.966E-02 -.227E-01
   -.703E+03 0.416E+03 -.912E+03   0.704E+03 -.420E+03 0.915E+03   -.997E+00 0.367E+01 -.384E+01   -.484E-01 0.306E-02 -.725E-02
   0.480E+03 0.702E+03 0.204E+04   -.480E+03 -.706E+03 -.204E+04   0.119E+01 0.355E+01 0.373E+01   0.816E-01 -.355E-01 -.312E-01
   -.123E+03 0.448E+03 -.259E+04   0.127E+03 -.454E+03 0.260E+04   -.281E+01 0.479E+01 -.390E+01   0.238E-01 0.765E-02 -.152E-01
   0.586E+02 0.496E+03 0.969E+03   -.572E+02 -.501E+03 -.969E+03   -.877E+00 0.343E+01 0.127E+01   -.324E-01 0.366E-01 -.115E+00
   0.122E+03 0.357E+02 -.327E+04   -.122E+03 -.383E+02 0.327E+04   0.525E+00 0.247E+01 0.163E+01   -.982E-02 0.378E-02 -.248E-01
   -.420E+03 0.195E+03 0.308E+04   0.420E+03 -.197E+03 -.308E+04   -.863E+00 0.305E+01 0.245E+00   -.720E-02 0.878E-03 -.244E-01
   -.541E+03 0.501E+03 -.141E+04   0.543E+03 -.504E+03 0.141E+04   -.197E+01 0.280E+01 -.440E+01   0.916E-02 -.785E-03 0.199E-01
   0.247E+03 -.523E+03 -.111E+04   -.245E+03 0.530E+03 0.111E+04   -.117E+01 -.540E+01 0.724E+00   0.501E-01 0.169E-01 -.874E-02
   -.118E+03 -.572E+03 0.399E+04   0.116E+03 0.568E+03 -.399E+04   0.259E+01 0.419E+01 -.212E+01   -.490E-01 0.122E-01 -.104E-01
   -.240E+03 -.468E+03 0.142E+03   0.240E+03 0.472E+03 -.142E+03   0.531E+00 -.339E+01 -.346E+00   -.474E-01 0.968E-02 -.361E-01
   -.214E+03 -.148E+03 -.370E+04   0.217E+03 0.152E+03 0.370E+04   -.311E+01 -.470E+01 0.158E+01   -.247E-01 0.114E-01 -.384E-02
   -.578E+03 -.577E+03 0.363E+04   0.575E+03 0.573E+03 -.363E+04   0.315E+01 0.419E+01 -.149E+01   -.603E-01 -.966E-02 -.227E-01
   -.703E+03 -.416E+03 -.912E+03   0.704E+03 0.420E+03 0.915E+03   -.997E+00 -.367E+01 -.384E+01   -.484E-01 -.306E-02 -.725E-02
   0.480E+03 -.702E+03 0.204E+04   -.480E+03 0.706E+03 -.204E+04   0.119E+01 -.355E+01 0.373E+01   0.816E-01 0.355E-01 -.312E-01
   -.123E+03 -.448E+03 -.259E+04   0.127E+03 0.454E+03 0.260E+04   -.281E+01 -.479E+01 -.390E+01   0.238E-01 -.766E-02 -.152E-01
   0.586E+02 -.496E+03 0.969E+03   -.572E+02 0.501E+03 -.969E+03   -.877E+00 -.343E+01 0.127E+01   -.324E-01 -.366E-01 -.115E+00
   0.122E+03 -.357E+02 -.327E+04   -.122E+03 0.383E+02 0.327E+04   0.525E+00 -.247E+01 0.163E+01   -.982E-02 -.378E-02 -.248E-01
   -.420E+03 -.195E+03 0.308E+04   0.420E+03 0.197E+03 -.308E+04   -.863E+00 -.305E+01 0.245E+00   -.720E-02 -.878E-03 -.244E-01
   -.541E+03 -.501E+03 -.141E+04   0.543E+03 0.504E+03 0.141E+04   -.197E+01 -.280E+01 -.440E+01   0.916E-02 0.785E-03 0.199E-01
   0.568E+02 -.189E-04 -.165E+04   -.561E+02 -.877E-07 0.165E+04   -.440E+00 0.000E+00 -.283E+01   0.140E-01 -.491E-07 0.924E-02
   0.271E+03 -.147E-04 0.649E+03   -.274E+03 -.357E-08 -.654E+03   0.239E+01 0.000E+00 0.307E+01   0.280E-01 -.339E-07 -.201E-01
   -.435E+03 0.128E-04 0.118E+04   0.439E+03 -.476E-05 -.118E+04   -.178E+01 0.000E+00 0.198E+01   -.205E-01 0.561E-08 -.105E-01
   -.187E+03 -.453E-05 -.912E+03   0.187E+03 0.110E-05 0.917E+03   0.117E+01 0.000E+00 -.425E+01   -.120E-01 -.625E-07 -.373E-02
   -.475E+03 0.232E-04 0.903E+03   0.473E+03 -.167E-04 -.905E+03   0.145E+01 0.000E+00 0.167E+01   -.224E-01 0.437E-07 -.124E-01
   -.134E+03 0.452E-05 -.106E+04   0.132E+03 -.167E-05 0.106E+04   0.139E+01 0.000E+00 -.217E+01   -.134E-01 0.589E-08 0.867E-02
   0.208E+03 -.983E-05 0.170E+04   -.207E+03 0.295E-06 -.170E+04   -.773E+00 0.000E+00 0.271E+01   0.272E-01 0.166E-07 -.363E-02
   -.405E+02 0.659E-05 -.219E+03   0.410E+02 0.103E-06 0.221E+03   0.115E+01 0.000E+00 -.265E+01   0.146E-01 -.204E-07 -.126E-01
   -.468E+02 -.205E-04 -.173E+04   0.474E+02 -.196E-07 0.173E+04   0.150E+00 0.000E+00 -.922E+00   0.454E-02 -.262E-07 -.553E-02
   -.132E+03 -.213E-04 0.145E+04   0.134E+03 0.228E-05 -.145E+04   -.504E+00 0.000E+00 0.216E+01   -.457E-01 -.735E-07 -.219E-01
   -.991E+02 -.183E-04 -.574E+03   0.995E+02 0.607E-06 0.577E+03   0.562E+00 0.000E+00 -.344E+01   -.269E-02 -.164E-07 -.189E-01
   -.314E+03 0.522E-05 0.662E+03   0.317E+03 0.376E-06 -.664E+03   -.434E+00 0.000E+00 0.110E+01   0.115E-01 0.642E-08 -.277E-02
   -.700E+02 0.554E-05 -.118E+04   0.714E+02 0.226E-06 0.118E+04   -.656E+00 0.000E+00 -.209E+01   0.171E-01 0.394E-07 0.100E-01
   -.343E+03 0.111E+03 0.124E+04   0.344E+03 -.110E+03 -.125E+04   -.733E+00 -.125E+01 0.239E+01   0.492E-02 -.176E-03 -.136E-01
   -.517E+02 -.125E+03 -.211E+03   0.528E+02 0.127E+03 0.211E+03   -.909E+00 -.110E+01 -.112E+01   0.812E-02 0.732E-02 0.122E-02
   0.193E+03 -.226E+03 0.764E+03   -.194E+03 0.229E+03 -.767E+03   -.502E+00 -.121E+01 0.286E+01   -.168E-01 0.522E-04 -.151E-01
   0.202E+03 0.387E+02 -.121E+04   -.203E+03 -.376E+02 0.121E+04   0.107E+00 -.534E+00 -.253E+01   -.155E-01 -.304E-03 -.104E-01
   -.296E+01 -.196E+03 0.458E+03   0.163E+01 0.197E+03 -.460E+03   0.167E+00 -.351E+00 0.195E+01   -.246E-01 -.118E-01 -.139E-01
   -.191E+03 0.568E+02 -.147E+04   0.192E+03 -.556E+02 0.147E+04   -.109E+01 -.964E+00 -.197E+01   -.113E-01 -.626E-02 0.122E-02
   0.248E+03 -.229E+03 -.286E+03   -.249E+03 0.231E+03 0.285E+03   -.496E-01 -.665E+00 -.604E+00   0.196E-01 -.408E-02 0.314E-02
   0.359E+03 -.346E+03 0.139E+04   -.362E+03 0.349E+03 -.139E+04   0.800E+00 -.154E+01 0.802E+00   0.213E-01 0.847E-02 -.120E-01
   0.398E+03 -.160E+03 0.104E+04   -.399E+03 0.161E+03 -.105E+04   -.111E+00 0.161E-01 0.160E+01   0.276E-01 -.419E-01 -.401E-01
   0.167E+03 -.248E+01 -.902E+03   -.167E+03 0.348E+01 0.904E+03   -.108E+01 -.175E+01 -.125E+01   0.370E-02 0.321E-02 -.142E-01
   -.592E+02 -.161E+03 0.272E+03   0.576E+02 0.163E+03 -.273E+03   -.121E-01 -.146E+01 0.124E+01   -.146E-01 0.299E-02 -.256E-02
   -.397E+02 -.246E+03 -.155E+04   0.387E+02 0.249E+03 0.155E+04   0.349E+00 -.276E+01 -.678E+00   -.418E-02 0.166E-02 0.115E-01
   0.193E+03 0.226E+03 0.764E+03   -.194E+03 -.229E+03 -.767E+03   -.502E+00 0.121E+01 0.286E+01   -.168E-01 -.522E-04 -.151E-01
   0.202E+03 -.387E+02 -.121E+04   -.203E+03 0.376E+02 0.121E+04   0.107E+00 0.534E+00 -.253E+01   -.155E-01 0.304E-03 -.104E-01
   -.343E+03 -.111E+03 0.124E+04   0.344E+03 0.110E+03 -.125E+04   -.733E+00 0.125E+01 0.239E+01   0.492E-02 0.176E-03 -.136E-01
   -.517E+02 0.125E+03 -.211E+03   0.528E+02 -.127E+03 0.211E+03   -.909E+00 0.110E+01 -.112E+01   0.812E-02 -.732E-02 0.122E-02
   0.248E+03 0.229E+03 -.286E+03   -.249E+03 -.231E+03 0.285E+03   -.496E-01 0.665E+00 -.604E+00   0.196E-01 0.408E-02 0.314E-02
   0.359E+03 0.346E+03 0.139E+04   -.362E+03 -.349E+03 -.139E+04   0.800E+00 0.154E+01 0.802E+00   0.213E-01 -.847E-02 -.120E-01
   -.296E+01 0.196E+03 0.458E+03   0.163E+01 -.197E+03 -.460E+03   0.167E+00 0.351E+00 0.195E+01   -.246E-01 0.118E-01 -.139E-01
   -.191E+03 -.568E+02 -.147E+04   0.192E+03 0.556E+02 0.147E+04   -.109E+01 0.964E+00 -.197E+01   -.113E-01 0.626E-02 0.122E-02
   -.592E+02 0.161E+03 0.272E+03   0.576E+02 -.163E+03 -.273E+03   -.121E-01 0.146E+01 0.124E+01   -.146E-01 -.299E-02 -.256E-02
   -.397E+02 0.246E+03 -.155E+04   0.387E+02 -.249E+03 0.155E+04   0.349E+00 0.276E+01 -.678E+00   -.418E-02 -.166E-02 0.115E-01
   0.398E+03 0.160E+03 0.104E+04   -.399E+03 -.161E+03 -.105E+04   -.111E+00 -.161E-01 0.160E+01   0.276E-01 0.419E-01 -.401E-01
   0.167E+03 0.248E+01 -.902E+03   -.167E+03 -.348E+01 0.904E+03   -.108E+01 0.175E+01 -.125E+01   0.370E-02 -.321E-02 -.142E-01
 -----------------------------------------------------------------------------------------------
   -.112E+02 -.163E-01 0.106E+02   0.159E-11 -.626E-12 0.136E-11   0.114E+02 -.178E-14 -.943E+01   -.269E+00 -.835E-06 -.118E+01
 
 
 POSITION                                       TOTAL-FORCE (eV/Angst)
 -----------------------------------------------------------------------------------
     12.86884      1.39171      2.93714         0.875404      0.000000      0.630669
     13.88597      1.39171      5.28280        -0.654732      0.000000      1.552047
      3.82733      6.18092      1.59915         0.790485      0.000000     -0.067638
      5.02033      6.18092      3.59863         0.223254      0.000000      0.061280
      7.02872      1.39171      1.86035         0.171121      0.000000     -1.063123
      7.93172      1.39171      4.11272        -0.525145      0.000000     -0.892334
     16.08224      6.18092      2.57045        -0.573643      0.000000      2.921537
     16.44721      6.18092      5.27366        -1.563005      0.000000      0.625879
      3.07305      1.39171      0.82065        -0.484378      0.000000     -1.963261
      2.10894      1.39171      3.08454         0.439520      0.000000      1.134262
      0.93907      1.39171      5.18081         1.643013      0.000000      0.629815
      9.67072      6.18092      2.66287         0.088729      0.000000     -0.516622
     10.84312      6.18092      4.62682        -0.978705      0.000000     -0.854465
     15.88934      0.04247      4.47505         0.194415     -1.650343     -0.528932
      6.65286      4.95920      0.65490         0.275892     -0.512495     -1.053656
      7.17375      4.91558      3.19116         0.291444     -0.166987     -1.106802
      7.86452      4.44721      5.47460        -0.189581      0.727376      0.808585
      9.53793      0.18762      1.14566         0.218474     -0.514853     -1.276846
     10.08514      0.12638      3.70525         0.734950     -0.523120     -1.549012
      1.35096      4.91558      2.16298         1.128217     -0.468387      1.873679
      1.89681      4.83172      4.89688         1.011346     -1.147846      0.407628
      4.26235      0.12638      2.67707         0.511512     -0.945385      1.070498
      4.91593      9.36408      5.08080         0.104532     -0.138595      0.986800
     12.62329      4.74473      1.72679        -0.320310      0.776016     -1.098261
     12.99653      4.91558      4.21934         0.585327      0.156980     -1.504382
     15.88934      2.74096      4.47505         0.194415      1.650343     -0.528932
      6.65286      7.40263      0.65490         0.275892      0.512495     -1.053656
      7.17375      7.44626      3.19116         0.291444      0.166987     -1.106802
      7.86452      7.91463      5.47460        -0.189581     -0.727376      0.808585
      9.53793      2.59581      1.14566         0.218474      0.514853     -1.276846
     10.08514      2.65705      3.70525         0.734950      0.523120     -1.549012
      1.35096      7.44626      2.16298         1.128217      0.468387      1.873679
      1.89681      7.53012      4.89688         1.011346      1.147846      0.407628
      4.26235      2.65705      2.67707         0.511512      0.945385      1.070498
      4.91593      2.99776      5.08080         0.104532      0.138595      0.986800
     12.62329      7.61711      1.72679        -0.320310     -0.776016     -1.098261
     12.99653      7.44626      4.21934         0.585327     -0.156980     -1.504382
     15.90751      1.39171      6.03470         0.326586      0.000000      4.513510
      0.05057      1.39171      3.29832        -0.042774      0.000000     -2.483529
      8.00634      6.18092      1.51374         1.613329      0.000000     -1.741738
      8.59001      6.18092      4.59828         1.177382      0.000000      0.970022
     10.91773      1.39171      2.02783         0.183193      0.000000     -1.069009
     11.58652      1.39171      4.63193         0.062616      0.000000      2.852737
      2.03655      6.18092      0.67674        -0.057861      0.000000     -3.976520
      2.76722      6.18092      3.57010         1.632207      0.000000     -1.124072
      1.32141      6.18092      6.32796         0.738697      0.000000      4.212689
      5.07868      1.39171      1.18096         1.613383      0.000000     -2.653172
      5.67861      1.39171      4.08419         0.982417      0.000000      0.206904
     13.82913      6.18092      2.54192         2.046830      0.000000     -0.772575
     14.35238      6.18092      5.22856         0.757979      0.000000      2.643817
     13.21213      2.85164      1.48539         0.927951     -0.166603     -2.387535
     13.86998      3.01340      4.04890         0.114724      1.271657     -0.422744
      5.26426      7.79215      2.03261        -1.622521      1.201982     -0.075370
      5.91748      7.59753      4.91831        -1.097883      0.576034      1.875536
      8.17565      3.00295      2.54670        -1.191083      1.557496      0.456388
      8.90827      2.74002      5.39324         0.299001      0.218978      2.912718
      0.02514      7.79215      4.08897        -1.323064      1.558132     -1.493875
     16.47214      7.60349      1.20744        -1.687468      1.919755     -3.093925
      2.36642      3.06484      1.77639        -0.941550      0.866493     -1.483427
      2.93654      3.00295      4.60306        -1.014551     -0.740332      1.049756
     11.08705      7.79215      3.06079        -1.601978      0.883894      0.014695
     11.74435      7.56554      5.80355        -0.650747      1.057691      3.729929
      5.26426      4.56969      2.03261        -1.622521     -1.201982     -0.075370
      5.91748      4.76431      4.91831        -1.097883     -0.576034      1.875536
     13.21213      9.51020      1.48539         0.927951      0.166603     -2.387535
     13.86998      9.34844      4.04890         0.114724     -1.271657     -0.422744
      0.02514      4.56969      4.08897        -1.323064     -1.558132     -1.493875
     16.47214      4.75835      1.20744        -1.687468     -1.919755     -3.093925
      8.17565      9.35889      2.54670        -1.191083     -1.557496      0.456388
      8.90827      0.04341      5.39324         0.299001     -0.218978      2.912718
     11.08705      4.56969      3.06079        -1.601978     -0.883894      0.014695
     11.74435      4.79629      5.80355        -0.650747     -1.057691      3.729929
      2.36642      9.29700      1.77639        -0.941550     -0.866493     -1.483427
      2.93654      9.35889      4.60306        -1.014551      0.740332      1.049756
 -----------------------------------------------------------------------------------
    total drift:                               -0.041027     -0.016336     -0.035152


--------------------------------------------------------------------------------------------------------



  FREE ENERGIE OF THE ION-ELECTRON SYSTEM (eV)
  ---------------------------------------------------
  free  energy   TOTEN  =      -347.83932775 eV

  energy  without entropy=     -346.63749868  energy(sigma->0) =     -347.23841322
 


--------------------------------------------------------------------------------------------------------


    POTLOK:  cpu time    0.3703: real time    0.3706


--------------------------------------------------------------------------------------------------------


     LOOP+:  cpu time  431.7546: real time  431.8693
    4ORBIT:  cpu time    0.0000: real time    0.0000

 total amount of memory used by VASP MPI-rank0    80244. kBytes
=======================================================================

   base      :      30000. kBytes
   nonlr-proj:       2204. kBytes
   fftplans  :      10634. kBytes
   grid      :      17961. kBytes
   one-center:        101. kBytes
   wavefun   :      19344. kBytes
 
  
  
 General timing and accounting informations for this job:
 ========================================================
  
                  Total CPU time used (sec):      435.120
                            User time (sec):      434.627
                          System time (sec):        0.493
                         Elapsed time (sec):      435.479
  
                   Maximum memory used (kb):      225404.
                   Average memory used (kb):           0.
  
                          Minor page faults:       149595
                          Major page faults:            0
                 Voluntary context switches:          228
