  96  96   0   0
  0.2565633E+02  0.1125646E-08  0.1125646E-08  0.2174423E-08  0.5000000E-15
  1.000000000000000E-004
  CAR 
 "Millerite NiS"                         
     11.49905182    -66.60393439  301      1.70344495      1.00000000
    -66.604  0.0000E+00  0.0000E+00
    -66.344  0.0000E+00  0.0000E+00
    -66.083  0.0000E+00  0.0000E+00
    -65.823  0.0000E+00  0.0000E+00
    -65.563  0.0000E+00  0.0000E+00
    -65.302  0.0000E+00  0.0000E+00
    -65.042  0.0000E+00  0.0000E+00
    -64.782  0.0000E+00  0.0000E+00
    -64.521  0.0000E+00  0.0000E+00
    -64.261  0.0000E+00  0.0000E+00
    -64.001  0.1233E-09  0.3211E-10
    -63.740  0.8075E-05  0.2102E-05
    -63.480  0.2245E-01  0.5847E-02
    -63.219  0.3454E+01  0.9050E+00
    -62.959  0.4934E+02  0.1375E+02
    -62.699  0.1262E+03  0.4662E+02
    -62.438  0.2099E+03  0.1013E+03
    -62.178  0.3908E+03  0.2030E+03
    -61.918  0.2472E+03  0.2674E+03
    -61.657  0.5372E+02  0.2813E+03
    -61.397  0.2217E+02  0.2871E+03
    -61.137  0.3341E+01  0.2880E+03
    -60.876  0.3348E-01  0.2880E+03
    -60.616  0.1515E-04  0.2880E+03
    -60.356  0.2703E-09  0.2880E+03
    -60.095  0.0000E+00  0.2880E+03
    -59.835  0.0000E+00  0.2880E+03
    -59.575  0.0000E+00  0.2880E+03
    -59.314  0.0000E+00  0.2880E+03
    -59.054  0.0000E+00  0.2880E+03
    -58.794  0.0000E+00  0.2880E+03
    -58.533  0.0000E+00  0.2880E+03
    -58.273  0.0000E+00  0.2880E+03
    -58.013  0.0000E+00  0.2880E+03
    -57.752  0.0000E+00  0.2880E+03
    -57.492  0.0000E+00  0.2880E+03
    -57.232  0.0000E+00  0.2880E+03
    -56.971  0.0000E+00  0.2880E+03
    -56.711  0.0000E+00  0.2880E+03
    -56.451  0.0000E+00  0.2880E+03
    -56.190  0.0000E+00  0.2880E+03
    -55.930  0.0000E+00  0.2880E+03
    -55.670  0.0000E+00  0.2880E+03
    -55.409  0.0000E+00  0.2880E+03
    -55.149  0.0000E+00  0.2880E+03
    -54.888  0.0000E+00  0.2880E+03
    -54.628  0.0000E+00  0.2880E+03
    -54.368  0.0000E+00  0.2880E+03
    -54.107  0.0000E+00  0.2880E+03
    -53.847  0.0000E+00  0.2880E+03
    -53.587  0.0000E+00  0.2880E+03
    -53.326  0.0000E+00  0.2880E+03
    -53.066  0.0000E+00  0.2880E+03
    -52.806  0.0000E+00  0.2880E+03
    -52.545  0.0000E+00  0.2880E+03
    -52.285  0.0000E+00  0.2880E+03
    -52.025  0.0000E+00  0.2880E+03
    -51.764  0.0000E+00  0.2880E+03
    -51.504  0.0000E+00  0.2880E+03
    -51.244  0.0000E+00  0.2880E+03
    -50.983  0.0000E+00  0.2880E+03
    -50.723  0.0000E+00  0.2880E+03
    -50.463  0.0000E+00  0.2880E+03
    -50.202  0.0000E+00  0.2880E+03
    -49.942  0.0000E+00  0.2880E+03
    -49.682  0.0000E+00  0.2880E+03
    -49.421  0.0000E+00  0.2880E+03
    -49.161  0.0000E+00  0.2880E+03
    -48.901  0.0000E+00  0.2880E+03
    -48.640  0.0000E+00  0.2880E+03
    -48.380  0.0000E+00  0.2880E+03
    -48.120  0.0000E+00  0.2880E+03
    -47.859  0.0000E+00  0.2880E+03
    -47.599  0.0000E+00  0.2880E+03
    -47.339  0.0000E+00  0.2880E+03
    -47.078  0.0000E+00  0.2880E+03
    -46.818  0.0000E+00  0.2880E+03
    -46.558  0.0000E+00  0.2880E+03
    -46.297  0.0000E+00  0.2880E+03
    -46.037  0.0000E+00  0.2880E+03
    -45.776  0.0000E+00  0.2880E+03
    -45.516  0.0000E+00  0.2880E+03
    -45.256  0.0000E+00  0.2880E+03
    -44.995  0.0000E+00  0.2880E+03
    -44.735  0.0000E+00  0.2880E+03
    -44.475  0.0000E+00  0.2880E+03
    -44.214  0.0000E+00  0.2880E+03
    -43.954  0.0000E+00  0.2880E+03
    -43.694  0.0000E+00  0.2880E+03
    -43.433  0.0000E+00  0.2880E+03
    -43.173  0.0000E+00  0.2880E+03
    -42.913  0.0000E+00  0.2880E+03
    -42.652  0.0000E+00  0.2880E+03
    -42.392  0.0000E+00  0.2880E+03
    -42.132  0.0000E+00  0.2880E+03
    -41.871  0.0000E+00  0.2880E+03
    -41.611  0.0000E+00  0.2880E+03
    -41.351  0.0000E+00  0.2880E+03
    -41.090  0.0000E+00  0.2880E+03
    -40.830  0.0000E+00  0.2880E+03
    -40.570  0.0000E+00  0.2880E+03
    -40.309  0.0000E+00  0.2880E+03
    -40.049  0.0000E+00  0.2880E+03
    -39.789  0.0000E+00  0.2880E+03
    -39.528  0.0000E+00  0.2880E+03
    -39.268  0.0000E+00  0.2880E+03
    -39.008  0.0000E+00  0.2880E+03
    -38.747  0.0000E+00  0.2880E+03
    -38.487  0.0000E+00  0.2880E+03
    -38.227  0.0000E+00  0.2880E+03
    -37.966  0.0000E+00  0.2880E+03
    -37.706  0.0000E+00  0.2880E+03
    -37.445  0.0000E+00  0.2880E+03
    -37.185  0.0000E+00  0.2880E+03
    -36.925  0.0000E+00  0.2880E+03
    -36.664  0.0000E+00  0.2880E+03
    -36.404  0.0000E+00  0.2880E+03
    -36.144  0.0000E+00  0.2880E+03
    -35.883  0.0000E+00  0.2880E+03
    -35.623  0.0000E+00  0.2880E+03
    -35.363  0.0000E+00  0.2880E+03
    -35.102  0.0000E+00  0.2880E+03
    -34.842  0.0000E+00  0.2880E+03
    -34.582  0.0000E+00  0.2880E+03
    -34.321  0.0000E+00  0.2880E+03
    -34.061  0.0000E+00  0.2880E+03
    -33.801  0.0000E+00  0.2880E+03
    -33.540  0.0000E+00  0.2880E+03
    -33.280  0.0000E+00  0.2880E+03
    -33.020  0.0000E+00  0.2880E+03
    -32.759  0.0000E+00  0.2880E+03
    -32.499  0.0000E+00  0.2880E+03
    -32.239  0.0000E+00  0.2880E+03
    -31.978  0.0000E+00  0.2880E+03
    -31.718  0.0000E+00  0.2880E+03
    -31.458  0.0000E+00  0.2880E+03
    -31.197  0.0000E+00  0.2880E+03
    -30.937  0.0000E+00  0.2880E+03
    -30.677  0.0000E+00  0.2880E+03
    -30.416  0.0000E+00  0.2880E+03
    -30.156  0.0000E+00  0.2880E+03
    -29.896  0.0000E+00  0.2880E+03
    -29.635  0.0000E+00  0.2880E+03
    -29.375  0.0000E+00  0.2880E+03
    -29.115  0.0000E+00  0.2880E+03
    -28.854  0.0000E+00  0.2880E+03
    -28.594  0.0000E+00  0.2880E+03
    -28.333  0.0000E+00  0.2880E+03
    -28.073  0.0000E+00  0.2880E+03
    -27.813  0.0000E+00  0.2880E+03
    -27.552  0.0000E+00  0.2880E+03
    -27.292  0.0000E+00  0.2880E+03
    -27.032  0.0000E+00  0.2880E+03
    -26.771  0.0000E+00  0.2880E+03
    -26.511  0.0000E+00  0.2880E+03
    -26.251  0.0000E+00  0.2880E+03
    -25.990  0.0000E+00  0.2880E+03
    -25.730  0.0000E+00  0.2880E+03
    -25.470  0.0000E+00  0.2880E+03
    -25.209  0.0000E+00  0.2880E+03
    -24.949  0.0000E+00  0.2880E+03
    -24.689  0.0000E+00  0.2880E+03
    -24.428  0.0000E+00  0.2880E+03
    -24.168  0.0000E+00  0.2880E+03
    -23.908  0.0000E+00  0.2880E+03
    -23.647  0.0000E+00  0.2880E+03
    -23.387  0.0000E+00  0.2880E+03
    -23.127  0.0000E+00  0.2880E+03
    -22.866  0.0000E+00  0.2880E+03
    -22.606  0.0000E+00  0.2880E+03
    -22.346  0.0000E+00  0.2880E+03
    -22.085  0.0000E+00  0.2880E+03
    -21.825  0.0000E+00  0.2880E+03
    -21.565  0.0000E+00  0.2880E+03
    -21.304  0.0000E+00  0.2880E+03
    -21.044  0.0000E+00  0.2880E+03
    -20.784  0.0000E+00  0.2880E+03
    -20.523  0.0000E+00  0.2880E+03
    -20.263  0.0000E+00  0.2880E+03
    -20.002  0.0000E+00  0.2880E+03
    -19.742  0.0000E+00  0.2880E+03
    -19.482  0.0000E+00  0.2880E+03
    -19.221  0.0000E+00  0.2880E+03
    -18.961  0.0000E+00  0.2880E+03
    -18.701  0.0000E+00  0.2880E+03
    -18.440  0.0000E+00  0.2880E+03
    -18.180  0.0000E+00  0.2880E+03
    -17.920  0.0000E+00  0.2880E+03
    -17.659  0.0000E+00  0.2880E+03
    -17.399  0.0000E+00  0.2880E+03
    -17.139  0.0000E+00  0.2880E+03
    -16.878  0.0000E+00  0.2880E+03
    -16.618  0.0000E+00  0.2880E+03
    -16.358  0.0000E+00  0.2880E+03
    -16.097  0.0000E+00  0.2880E+03
    -15.837  0.0000E+00  0.2880E+03
    -15.577  0.4264E-15  0.2880E+03
    -15.316  0.3281E-09  0.2880E+03
    -15.056  0.1276E-04  0.2880E+03
    -14.796  0.1908E-01  0.2880E+03
    -14.535  0.1263E+01  0.2883E+03
    -14.275  0.5409E+01  0.2897E+03
    -14.015  0.7468E+01  0.2917E+03
    -13.754  0.1216E+02  0.2949E+03
    -13.494  0.1754E+02  0.2994E+03
    -13.234  0.2159E+02  0.3050E+03
    -12.973  0.2750E+02  0.3122E+03
    -12.713  0.2349E+02  0.3183E+03
    -12.453  0.3289E+02  0.3269E+03
    -12.192  0.5379E+02  0.3409E+03
    -11.932  0.4144E+02  0.3517E+03
    -11.672  0.3858E+02  0.3617E+03
    -11.411  0.4592E+02  0.3737E+03
    -11.151  0.2221E+02  0.3794E+03
    -10.890  0.1207E+02  0.3826E+03
    -10.630  0.5137E+01  0.3839E+03
    -10.370  0.2741E+00  0.3840E+03
    -10.109  0.8906E-03  0.3840E+03
     -9.849  0.1248E-06  0.3840E+03
     -9.589  0.6601E-12  0.3840E+03
     -9.328  0.0000E+00  0.3840E+03
     -9.068  0.0000E+00  0.3840E+03
     -8.808  0.0000E+00  0.3840E+03
     -8.547  0.0000E+00  0.3840E+03
     -8.287  0.0000E+00  0.3840E+03
     -8.027  0.0000E+00  0.3840E+03
     -7.766  0.0000E+00  0.3840E+03
     -7.506  0.0000E+00  0.3840E+03
     -7.246  0.6397E-14  0.3840E+03
     -6.985  0.3570E-08  0.3840E+03
     -6.725  0.7344E-04  0.3840E+03
     -6.465  0.6352E-01  0.3840E+03
     -6.204  0.3283E+01  0.3849E+03
     -5.944  0.1997E+02  0.3901E+03
     -5.684  0.3148E+02  0.3983E+03
     -5.423  0.2535E+02  0.4049E+03
     -5.163  0.3760E+02  0.4147E+03
     -4.903  0.6784E+02  0.4323E+03
     -4.642  0.6053E+02  0.4481E+03
     -4.382  0.5251E+02  0.4617E+03
     -4.122  0.6676E+02  0.4791E+03
     -3.861  0.6126E+02  0.4951E+03
     -3.601  0.6281E+02  0.5114E+03
     -3.341  0.8608E+02  0.5338E+03
     -3.080  0.9646E+02  0.5590E+03
     -2.820  0.9098E+02  0.5826E+03
     -2.559  0.8801E+02  0.6056E+03
     -2.299  0.8149E+02  0.6268E+03
     -2.039  0.5992E+02  0.6424E+03
     -1.778  0.4321E+02  0.6536E+03
     -1.518  0.5622E+02  0.6683E+03
     -1.258  0.7008E+02  0.6865E+03
     -0.997  0.9896E+02  0.7123E+03
     -0.737  0.1339E+03  0.7471E+03
     -0.477  0.1548E+03  0.7874E+03
     -0.216  0.1702E+03  0.8317E+03
      0.044  0.1875E+03  0.8806E+03
      0.304  0.1725E+03  0.9255E+03
      0.565  0.1411E+03  0.9622E+03
      0.825  0.1097E+03  0.9908E+03
      1.085  0.8329E+02  0.1012E+04
      1.346  0.7398E+02  0.1032E+04
      1.606  0.7114E+02  0.1050E+04
      1.866  0.5514E+02  0.1065E+04
      2.127  0.5687E+02  0.1079E+04
      2.387  0.7013E+02  0.1098E+04
      2.647  0.7295E+02  0.1117E+04
      2.908  0.6086E+02  0.1132E+04
      3.168  0.3966E+02  0.1143E+04
      3.428  0.2477E+02  0.1149E+04
      3.689  0.8745E+01  0.1152E+04
      3.949  0.2818E+01  0.1152E+04
      4.209  0.4918E+01  0.1154E+04
      4.470  0.2033E+01  0.1154E+04
      4.730  0.4066E+01  0.1155E+04
      4.990  0.9326E+01  0.1158E+04
      5.251  0.2007E+02  0.1163E+04
      5.511  0.2064E+02  0.1168E+04
      5.771  0.1883E+02  0.1173E+04
      6.032  0.2404E+02  0.1179E+04
      6.292  0.3312E+02  0.1188E+04
      6.553  0.3124E+02  0.1196E+04
      6.813  0.3728E+02  0.1206E+04
      7.073  0.4711E+02  0.1218E+04
      7.334  0.4905E+02  0.1231E+04
      7.594  0.5191E+02  0.1244E+04
      7.854  0.5569E+02  0.1259E+04
      8.115  0.3216E+02  0.1267E+04
      8.375  0.3058E+01  0.1268E+04
      8.635  0.2261E-01  0.1268E+04
      8.896  0.8454E-05  0.1268E+04
      9.156  0.1304E-09  0.1268E+04
      9.416  0.0000E+00  0.1268E+04
      9.677  0.0000E+00  0.1268E+04
      9.937  0.0000E+00  0.1268E+04
     10.197  0.0000E+00  0.1268E+04
     10.458  0.0000E+00  0.1268E+04
     10.718  0.0000E+00  0.1268E+04
     10.978  0.0000E+00  0.1268E+04
     11.239  0.0000E+00  0.1268E+04
     11.499  0.0000E+00  0.1268E+04
