<?xml version="1.0" encoding="ISO-8859-1"?>
<modeling>
 <generator>
  <i name="program" type="string">vasp </i>
  <i name="version" type="string">6.1.0  </i>
  <i name="subversion" type="string">28Jan20 (build Mar 31 2020 17:42:31) gamma-only                       parallel </i>
  <i name="platform" type="string">LinuxIFC </i>
  <i name="date" type="string">2020 04 13 </i>
  <i name="time" type="string">04:23:04 </i>
 </generator>
 <incar>
  <i type="string" name="SYSTEM">"Millerite NiS"</i>
  <i type="int" name="NSIM">     4</i>
  <i type="int" name="NELM">   100</i>
  <i name="ENCUT">    450.00000000</i>
  <i type="string" name="LREAL">A</i>
  <i type="int" name="ISMEAR">     0</i>
  <i type="int" name="NWRITE">     2</i>
  <i type="logical" name="LWAVE"> F  </i>
  <i type="logical" name="LCHARG"> F  </i>
  <i type="int" name="NCORE">     6</i>
  <i type="int" name="NELM">   100</i>
 </incar>
 <structure name="primitive_cell" >
  <crystal>
   <varray name="basis" >
    <v>      10.40335375      -4.78920500       0.00000000 </v>
    <v>       0.00000000       9.57841000       0.00000000 </v>
    <v>       0.00000000       0.00000000      20.50076286 </v>
   </varray>
   <i name="volume">   2042.85156262 </i>
   <varray name="rec_basis" >
    <v>       0.09612285       0.00000000       0.00000000 </v>
    <v>       0.04806142       0.10440146       0.00000000 </v>
    <v>       0.00000000       0.00000000       0.04877867 </v>
   </varray>
  </crystal>
  <varray name="positions" >
   <v>       0.58044680       0.07437514       0.34941513 </v>
   <v>       0.76256081       0.16543215       0.22731652 </v>
   <v>       0.94467483       0.25648915       0.10521791 </v>
   <v>       0.39833278       0.98331813       0.47151374 </v>
   <v>       0.03518947       0.80174648       0.26801605 </v>
   <v>       0.21730349       0.89280348       0.14591744 </v>
   <v>       0.39941750       0.98386049       0.02381883 </v>
   <v>       0.85307546       0.71068947       0.39011466 </v>
   <v>       0.12570412       0.34700380       0.43081420 </v>
   <v>       0.30781813       0.43806081       0.30871559 </v>
   <v>       0.48993215       0.52911781       0.18661698 </v>
   <v>       0.67204616       0.62017482       0.06451837 </v>
   <v>       0.23035801       0.03143375       0.40699537 </v>
   <v>       0.41247203       0.12249075       0.28489676 </v>
   <v>       0.59458604       0.21354776       0.16279815 </v>
   <v>       0.77670006       0.30460477       0.04069954 </v>
   <v>       0.04932872       0.94091910       0.08139907 </v>
   <v>       0.50298667       0.66774808       0.44769490 </v>
   <v>       0.68510069       0.75880508       0.32559629 </v>
   <v>       0.86721470       0.84986209       0.20349768 </v>
   <v>       0.13984337       0.48617642       0.24419722 </v>
   <v>       0.32195738       0.57723343       0.12209861 </v>
   <v>       0.50407140       0.66829044       0.00000000 </v>
   <v>       0.77561534       0.30406241       0.48839444 </v>
   <v>       0.95772935       0.39511942       0.36629583 </v>
   <v>       0.39833278       0.24752413       0.47151374 </v>
   <v>       0.58044680       0.33858114       0.34941513 </v>
   <v>       0.76256081       0.42963815       0.22731652 </v>
   <v>       0.03518947       0.06595248       0.26801605 </v>
   <v>       0.21730349       0.15700948       0.14591744 </v>
   <v>       0.39941750       0.24806649       0.02381883 </v>
   <v>       0.85307546       0.97489547       0.39011466 </v>
   <v>       0.12570412       0.61120980       0.43081420 </v>
   <v>       0.30781813       0.70226681       0.30871559 </v>
   <v>       0.48993215       0.79332382       0.18661698 </v>
   <v>       0.67204616       0.88438082       0.06451837 </v>
   <v>       0.18441112       0.17667530       0.48070540 </v>
   <v>       0.36652513       0.26773231       0.35860679 </v>
   <v>       0.54863915       0.35878931       0.23650818 </v>
   <v>       0.73075316       0.44984632       0.11440957 </v>
   <v>       0.00338182       0.08616065       0.15510911 </v>
   <v>       0.18549584       0.17721766       0.03301050 </v>
   <v>       0.63915379       0.90404664       0.39930633 </v>
   <v>       0.82126781       0.99510365       0.27720772 </v>
   <v>       0.09389647       0.63141797       0.31790726 </v>
   <v>       0.27601049       0.72247498       0.19580864 </v>
   <v>       0.45812450       0.81353199       0.07371003 </v>
   <v>       0.91178246       0.54036097       0.44000587 </v>
   <v>       0.12675994       0.47963471       0.07446623 </v>
   <v>       0.58041790       0.20646369       0.44076206 </v>
   <v>       0.76253191       0.29752070       0.31866345 </v>
   <v>       0.94464593       0.38857770       0.19656484 </v>
   <v>       0.21727459       0.02489203       0.23726438 </v>
   <v>       0.39938860       0.11594904       0.11516577 </v>
   <v>       0.03516057       0.93383503       0.35936299 </v>
   <v>       0.85304656       0.84277802       0.48146160 </v>
   <v>       0.30778923       0.57014936       0.40006253 </v>
   <v>       0.48990325       0.66120636       0.27796392 </v>
   <v>       0.67201726       0.75226337       0.15586531 </v>
   <v>       0.85413128       0.84332038       0.03376670 </v>
   <v>       0.54863915       0.02235931       0.23650818 </v>
   <v>       0.73075316       0.11341632       0.11440957 </v>
   <v>       0.18441112       0.84024530       0.48070540 </v>
   <v>       0.36652513       0.93130231       0.35860679 </v>
   <v>       0.00338182       0.74973065       0.15510911 </v>
   <v>       0.18549584       0.84078766       0.03301050 </v>
   <v>       0.63915379       0.56761664       0.39930633 </v>
   <v>       0.82126781       0.65867365       0.27720772 </v>
   <v>       0.09389647       0.29498797       0.31790726 </v>
   <v>       0.27601049       0.38604498       0.19580864 </v>
   <v>       0.45812450       0.47710199       0.07371003 </v>
   <v>       0.91178246       0.20393097       0.44000587 </v>
  </varray>
 </structure>
 <varray name="primitive_index" >
  <v type="int" >        1 </v>
  <v type="int" >        2 </v>
  <v type="int" >        3 </v>
  <v type="int" >        4 </v>
  <v type="int" >        5 </v>
  <v type="int" >        6 </v>
  <v type="int" >        7 </v>
  <v type="int" >        8 </v>
  <v type="int" >        9 </v>
  <v type="int" >       10 </v>
  <v type="int" >       11 </v>
  <v type="int" >       12 </v>
  <v type="int" >       13 </v>
  <v type="int" >       14 </v>
  <v type="int" >       15 </v>
  <v type="int" >       16 </v>
  <v type="int" >       17 </v>
  <v type="int" >       18 </v>
  <v type="int" >       19 </v>
  <v type="int" >       20 </v>
  <v type="int" >       21 </v>
  <v type="int" >       22 </v>
  <v type="int" >       23 </v>
  <v type="int" >       24 </v>
  <v type="int" >       25 </v>
  <v type="int" >       26 </v>
  <v type="int" >       27 </v>
  <v type="int" >       28 </v>
  <v type="int" >       29 </v>
  <v type="int" >       30 </v>
  <v type="int" >       31 </v>
  <v type="int" >       32 </v>
  <v type="int" >       33 </v>
  <v type="int" >       34 </v>
  <v type="int" >       35 </v>
  <v type="int" >       36 </v>
  <v type="int" >       37 </v>
  <v type="int" >       38 </v>
  <v type="int" >       39 </v>
  <v type="int" >       40 </v>
  <v type="int" >       41 </v>
  <v type="int" >       42 </v>
  <v type="int" >       43 </v>
  <v type="int" >       44 </v>
  <v type="int" >       45 </v>
  <v type="int" >       46 </v>
  <v type="int" >       47 </v>
  <v type="int" >       48 </v>
  <v type="int" >       49 </v>
  <v type="int" >       50 </v>
  <v type="int" >       51 </v>
  <v type="int" >       52 </v>
  <v type="int" >       53 </v>
  <v type="int" >       54 </v>
  <v type="int" >       55 </v>
  <v type="int" >       56 </v>
  <v type="int" >       57 </v>
  <v type="int" >       58 </v>
  <v type="int" >       59 </v>
  <v type="int" >       60 </v>
  <v type="int" >       61 </v>
  <v type="int" >       62 </v>
  <v type="int" >       63 </v>
  <v type="int" >       64 </v>
  <v type="int" >       65 </v>
  <v type="int" >       66 </v>
  <v type="int" >       67 </v>
  <v type="int" >       68 </v>
  <v type="int" >       69 </v>
  <v type="int" >       70 </v>
  <v type="int" >       71 </v>
  <v type="int" >       72 </v>
 </varray>
 <kpoints>
  <generation param="Gamma">
   <v type="int" name="divisions">       1        1        1 </v>
   <v name="usershift">      0.00000000       0.00000000       0.00000000 </v>
   <v name="genvec1">      1.00000000       0.00000000       0.00000000 </v>
   <v name="genvec2">      0.00000000       1.00000000       0.00000000 </v>
   <v name="genvec3">      0.00000000       0.00000000       1.00000000 </v>
   <v name="shift">      0.00000000       0.00000000       0.00000000 </v>
  </generation>
  <varray name="kpointlist" >
   <v>       0.00000000       0.00000000       0.00000000 </v>
  </varray>
  <varray name="weights" >
   <v>       1.00000000 </v>
  </varray>
 </kpoints>
 <parameters>
  <separator name="general" >
   <i type="string" name="SYSTEM">"Millerite NiS"</i>
   <i type="logical" name="LCOMPAT"> F  </i>
  </separator>
  <separator name="electronic" >
   <i type="string" name="PREC">normal</i>
   <i name="ENMAX">    450.00000000</i>
   <i name="ENAUG">    703.44300000</i>
   <i name="EDIFF">      0.00010000</i>
   <i type="int" name="IALGO">    38</i>
   <i type="int" name="IWAVPR">    10</i>
   <i type="int" name="NBANDS">   480</i>
   <i type="int" name="NBANDSLOW">    -1</i>
   <i type="int" name="NBANDSHIGH">    -1</i>
   <i name="NELECT">    792.00000000</i>
   <i type="int" name="TURBO">     0</i>
   <i type="int" name="IRESTART">     0</i>
   <i type="int" name="NREBOOT">     0</i>
   <i type="int" name="NMIN">     0</i>
   <i name="EREF">      0.00000000</i>
   <separator name="electronic smearing" >
    <i type="int" name="ISMEAR">     0</i>
    <i name="SIGMA">      0.20000000</i>
    <i name="KSPACING">      0.50000000</i>
    <i type="logical" name="KGAMMA"> T  </i>
    <i type="logical" name="KBLOWUP"> T  </i>
   </separator>
   <separator name="electronic projectors" >
    <i type="logical" name="LREAL"> T  </i>
    <v name="ROPT">     -0.00050000     -0.00050000</v>
    <i type="int" name="LMAXPAW">  -100</i>
    <i type="int" name="LMAXMIX">     2</i>
    <i type="logical" name="NLSPLINE"> F  </i>
   </separator>
   <separator name="electronic startup" >
    <i type="int" name="ISTART">     0</i>
    <i type="int" name="ICHARG">     2</i>
    <i type="int" name="INIWAV">     1</i>
   </separator>
   <separator name="electronic spin" >
    <i type="int" name="ISPIN">     1</i>
    <i type="logical" name="LNONCOLLINEAR"> F  </i>
    <v name="MAGMOM">      1.00000000      1.00000000      1.00000000      1.00000000      1.00000000      1.00000000      1.00000000      1.00000000      1.00000000      1.00000000      1.00000000      1.00000000      1.00000000      1.00000000      1.00000000      1.00000000      1.00000000      1.00000000      1.00000000      1.00000000
      1.00000000      1.00000000      1.00000000      1.00000000      1.00000000      1.00000000      1.00000000      1.00000000      1.00000000      1.00000000      1.00000000      1.00000000      1.00000000      1.00000000      1.00000000      1.00000000      1.00000000      1.00000000      1.00000000      1.00000000
      1.00000000      1.00000000      1.00000000      1.00000000      1.00000000      1.00000000      1.00000000      1.00000000      1.00000000      1.00000000      1.00000000      1.00000000      1.00000000      1.00000000      1.00000000      1.00000000      1.00000000      1.00000000      1.00000000      1.00000000
      1.00000000      1.00000000      1.00000000      1.00000000      1.00000000      1.00000000      1.00000000      1.00000000      1.00000000      1.00000000      1.00000000      1.00000000</v>
    <i name="NUPDOWN">     -1.00000000</i>
    <i type="logical" name="LSORBIT"> F  </i>
    <v name="SAXIS">      0.00000000      0.00000000      1.00000000</v>
    <i type="logical" name="LSPIRAL"> F  </i>
    <v name="QSPIRAL">      0.00000000      0.00000000      0.00000000</v>
    <i type="logical" name="LZEROZ"> F  </i>
   </separator>
   <separator name="electronic exchange-correlation" >
    <i type="logical" name="LASPH"> F  </i>
    <i type="logical" name="LMETAGGA"> F  </i>
   </separator>
   <separator name="electronic convergence" >
    <i type="int" name="NELM">   100</i>
    <i type="int" name="NELMDL">    -5</i>
    <i type="int" name="NELMIN">     2</i>
    <i name="ENINI">    450.00000000</i>
    <separator name="electronic convergence detail" >
     <i type="logical" name="LDIAG"> T  </i>
     <i type="logical" name="LSUBROT"> F  </i>
     <i name="WEIMIN">      0.00000000</i>
     <i name="EBREAK">      0.00000005</i>
     <i name="DEPER">      0.30000000</i>
     <i type="int" name="NRMM">     4</i>
     <i name="TIME">      0.40000000</i>
    </separator>
   </separator>
   <separator name="electronic mixer" >
    <i name="AMIX">      0.40000000</i>
    <i name="BMIX">      1.00000000</i>
    <i name="AMIN">      0.10000000</i>
    <i name="AMIX_MAG">      1.60000000</i>
    <i name="BMIX_MAG">      1.00000000</i>
    <separator name="electronic mixer details" >
     <i type="int" name="IMIX">     4</i>
     <i type="logical" name="MIXFIRST"> F  </i>
     <i type="int" name="MAXMIX">   -45</i>
     <i name="WC">    100.00000000</i>
     <i type="int" name="INIMIX">     1</i>
     <i type="int" name="MIXPRE">     1</i>
     <i type="int" name="MREMOVE">     5</i>
    </separator>
   </separator>
   <separator name="electronic dipolcorrection" >
    <i type="logical" name="LDIPOL"> F  </i>
    <i type="logical" name="LMONO"> F  </i>
    <i type="int" name="IDIPOL">     0</i>
    <i name="EPSILON">      1.00000000</i>
    <v name="DIPOL">   -100.00000000   -100.00000000   -100.00000000</v>
    <i name="EFIELD">      0.00000000</i>
   </separator>
  </separator>
  <separator name="grids" >
   <i type="int" name="NGX">    60</i>
   <i type="int" name="NGY">    50</i>
   <i type="int" name="NGZ">   108</i>
   <i type="int" name="NGXF">   120</i>
   <i type="int" name="NGYF">   100</i>
   <i type="int" name="NGZF">   216</i>
   <i type="logical" name="ADDGRID"> F  </i>
  </separator>
  <separator name="ionic" >
   <i type="int" name="NSW">     0</i>
   <i type="int" name="IBRION">    -1</i>
   <i type="int" name="MDALGO">     0</i>
   <i type="int" name="ISIF">     2</i>
   <i name="PSTRESS">      0.00000000</i>
   <i name="EDIFFG">      0.00100000</i>
   <i type="int" name="NFREE">     0</i>
   <i name="POTIM">      0.50000000</i>
   <i name="SMASS">     -3.00000000</i>
   <i name="SCALEE">      1.00000000</i>
  </separator>
  <separator name="ionic md" >
   <i name="TEBEG">      0.00010000</i>
   <i name="TEEND">      0.00010000</i>
   <i type="int" name="NBLOCK">     1</i>
   <i type="int" name="KBLOCK">     1</i>
   <i type="int" name="NPACO">   256</i>
   <i name="APACO">     16.00000000</i>
  </separator>
  <separator name="symmetry" >
   <i type="int" name="ISYM">     2</i>
   <i name="SYMPREC">      0.00001000</i>
  </separator>
  <separator name="dos" >
   <i type="int" name="LORBIT">     0</i>
   <v name="RWIGS">     -1.00000000     -1.00000000</v>
   <i type="int" name="NEDOS">   301</i>
   <i name="EMIN">     10.00000000</i>
   <i name="EMAX">    -10.00000000</i>
   <i name="EFERMI">      0.00000000</i>
  </separator>
  <separator name="writing" >
   <i type="int" name="NWRITE">     2</i>
   <i type="logical" name="LWAVE"> F  </i>
   <i type="logical" name="LDOWNSAMPLE"> F  </i>
   <i type="logical" name="LCHARG"> F  </i>
   <i type="logical" name="LPARD"> F  </i>
   <i type="logical" name="LVTOT"> F  </i>
   <i type="logical" name="LVHAR"> F  </i>
   <i type="logical" name="LELF"> F  </i>
   <i type="logical" name="LOPTICS"> F  </i>
   <v name="STM">      0.00000000      0.00000000      0.00000000      0.00000000      0.00000000      0.00000000      0.00000000</v>
  </separator>
  <separator name="performance" >
   <i type="int" name="NPAR">     8</i>
   <i type="int" name="NSIM">     4</i>
   <i type="int" name="NBLK">    -1</i>
   <i type="logical" name="LPLANE"> T  </i>
   <i type="logical" name="LSCALAPACK"> T  </i>
   <i type="logical" name="LSCAAWARE"> F  </i>
   <i type="logical" name="LSCALU"> F  </i>
   <i type="logical" name="LASYNC"> F  </i>
   <i type="logical" name="LORBITALREAL"> F  </i>
  </separator>
  <separator name="miscellaneous" >
   <i type="int" name="IDIOT">     3</i>
   <i type="int" name="PHON_NSTRUCT">    -1</i>
   <i type="logical" name="LMUSIC"> F  </i>
   <v name="POMASS">     58.69000000     32.06600000</v>
   <v name="DARWINR">      0.00000000      0.00000000</v>
   <v name="DARWINV">      1.00000000      1.00000000</v>
   <i type="logical" name="LCORR"> T  </i>
  </separator>
  <i type="logical" name="GGA_COMPAT"> T  </i>
  <i type="logical" name="LBERRY"> F  </i>
  <i type="int" name="ICORELEVEL">     0</i>
  <i type="logical" name="LDAU"> F  </i>
  <i type="int" name="I_CONSTRAINED_M">     0</i>
  <separator name="electronic exchange-correlation" >
   <i type="string" name="GGA">--</i>
   <i type="int" name="VOSKOWN">     0</i>
   <i type="logical" name="LHFCALC"> F  </i>
   <i type="string" name="PRECFOCK"></i>
   <i type="logical" name="LSYMGRAD"> F  </i>
   <i type="logical" name="LHFONE"> F  </i>
   <i type="logical" name="LRHFCALC"> F  </i>
   <i type="logical" name="LTHOMAS"> F  </i>
   <i type="logical" name="LMODELHF"> F  </i>
   <i type="logical" name="LFOCKACE"> F  </i>
   <i name="ENCUT4O">     -1.00000000</i>
   <i type="int" name="EXXOEP">     0</i>
   <i type="int" name="FOURORBIT">     0</i>
   <i name="AEXX">      0.00000000</i>
   <i name="HFALPHA">      0.00000000</i>
   <i name="MCALPHA">      0.00000000</i>
   <i name="ALDAX">      1.00000000</i>
   <i name="AGGAX">      1.00000000</i>
   <i name="ALDAC">      1.00000000</i>
   <i name="AGGAC">      1.00000000</i>
   <i type="int" name="NKREDX">     1</i>
   <i type="int" name="NKREDY">     1</i>
   <i type="int" name="NKREDZ">     1</i>
   <i type="logical" name="SHIFTRED"> F  </i>
   <i type="logical" name="ODDONLY"> F  </i>
   <i type="logical" name="EVENONLY"> F  </i>
   <i type="int" name="LMAXFOCK">     0</i>
   <i type="int" name="NMAXFOCKAE">     0</i>
   <i type="logical" name="LFOCKAEDFT"> F  </i>
   <i name="HFSCREEN">      0.00000000</i>
   <i name="HFSCREENC">      0.00000000</i>
   <i type="int" name="NBANDSGWLOW">     0</i>
  </separator>
  <separator name="vdW DFT" >
   <i type="logical" name="LUSE_VDW"> F  </i>
   <i name="Zab_VDW">     -0.84910000</i>
   <i name="PARAM1">      0.12340000</i>
   <i name="PARAM2">      1.00000000</i>
   <i name="PARAM3">      0.00000000</i>
  </separator>
  <separator name="model GW" >
   <i type="int" name="MODEL_GW">     0</i>
   <i name="MODEL_EPS0">     17.02376302</i>
   <i name="MODEL_ALPHA">      1.00000000</i>
  </separator>
  <separator name="linear response parameters" >
   <i type="logical" name="LEPSILON"> F  </i>
   <i type="logical" name="LRPA"> F  </i>
   <i type="logical" name="LNABLA"> F  </i>
   <i type="logical" name="LVEL"> F  </i>
   <i type="int" name="KINTER">     0</i>
   <i name="CSHIFT">      0.10000000</i>
   <i name="OMEGAMAX">     -1.00000000</i>
   <i name="DEG_THRESHOLD">      0.00200000</i>
   <i name="RTIME">     -0.10000000</i>
   <i name="WPLASMAI">      0.00000000</i>
   <v name="DFIELD">      0.00000000      0.00000000      0.00000000</v>
   <v name="WPLASMA">      0.00000000      0.00000000      0.00000000      0.00000000      0.00000000      0.00000000      0.00000000      0.00000000      0.00000000</v>
  </separator>
  <separator name="orbital magnetization" >
   <i type="logical" name="NUCIND"> F  </i>
   <v name="MAGPOS">      0.00000000      0.00000000      0.00000000</v>
   <i type="logical" name="LNICSALL"> T  </i>
   <i type="logical" name="ORBITALMAG"> F  </i>
   <i type="logical" name="LMAGBLOCH"> F  </i>
   <i type="logical" name="LCHIMAG"> F  </i>
   <i type="logical" name="LGAUGE"> T  </i>
   <i type="int" name="MAGATOM">     0</i>
   <v name="MAGDIPOL">      0.00000000      0.00000000      0.00000000</v>
   <v name="AVECCONST">      0.00000000      0.00000000      0.00000000</v>
  </separator>
  <separator name="response functions" >
   <i type="logical" name="LFINITE_TEMPERATURE"> F  </i>
   <i type="logical" name="LADDER"> F  </i>
   <i type="logical" name="LRPAFORCE"> F  </i>
   <i type="logical" name="LFXC"> F  </i>
   <i type="logical" name="LHARTREE"> T  </i>
   <i type="int" name="IBSE">     0</i>
   <v type="int" name="KPOINT">    -1     0     0     0</v>
   <i type="logical" name="LTCTC"> F  </i>
   <i type="logical" name="LTCTE"> F  </i>
   <i type="logical" name="LTETE"> F  </i>
   <i type="logical" name="LTRIPLET"> F  </i>
   <i type="logical" name="LFXCEPS"> F  </i>
   <i type="logical" name="LFXHEG"> F  </i>
   <i type="int" name="NATURALO">     2</i>
   <i type="logical" name="LHOLEGF"> F  </i>
   <i type="logical" name="L2ORDER"> F  </i>
   <i type="logical" name="LDMP1"> F  </i>
   <i type="logical" name="LMP2LT"> F  </i>
   <i type="logical" name="LSMP2LT"> F  </i>
   <i type="logical" name="LGWLF"> F  </i>
   <i name="ENCUTGW">     -2.00000000</i>
   <i name="ENCUTGWSOFT">     -2.00000000</i>
   <i name="ENCUTLF">     -1.00000000</i>
   <i type="logical" name="LESF_SPLINES"> F  </i>
   <i type="int" name="LMAXMP2">    -1</i>
   <i name="SCISSOR">      0.00000000</i>
   <i type="int" name="NOMEGA">     0</i>
   <i type="int" name="NOMEGAR">     0</i>
   <i type="int" name="NBANDSGW">    -1</i>
   <i type="int" name="NBANDSO">    -1</i>
   <i type="int" name="NBANDSV">    -1</i>
   <i type="int" name="NELM">   100</i>
   <i type="int" name="NELMHF">     1</i>
   <i type="int" name="DIM">     3</i>
   <i type="int" name="IESPILON">     4</i>
   <i type="int" name="ANTIRES">     0</i>
   <i name="OMEGAMAX">    -30.00000000</i>
   <i name="OMEGAMIN">    -30.00000000</i>
   <i name="OMEGATL">   -200.00000000</i>
   <i type="int" name="OMEGAGRID">     0</i>
   <i name="CSHIFT">     -0.10000000</i>
   <i type="logical" name="LSELFENERGY"> F  </i>
   <i type="logical" name="LSPECTRAL"> F  </i>
   <i type="logical" name="LSPECTRALGW"> F  </i>
   <i type="logical" name="LSINGLES"> F  </i>
   <i type="logical" name="LFERMIGW"> F  </i>
   <i type="logical" name="ODDONLYGW"> F  </i>
   <i type="logical" name="EVENONLYGW"> F  </i>
   <i type="int" name="NKREDLFX">     1</i>
   <i type="int" name="NKREDLFY">     1</i>
   <i type="int" name="NKREDLFZ">     1</i>
   <i type="int" name="MAXMEM">  2800</i>
   <i type="int" name="TELESCOPE">     0</i>
   <i type="int" name="NTAUPAR">    -1</i>
   <i type="int" name="NOMEGAPAR">    -1</i>
   <i name="LAMBDA">      1.00000000</i>
  </separator>
  <separator name="External order field" >
   <i name="OFIELD_KAPPA">      0.00000000</i>
   <v name="OFIELD_K">      0.00000000      0.00000000      0.00000000</v>
   <i name="OFIELD_Q6_NEAR">      0.00000000</i>
   <i name="OFIELD_Q6_FAR">      0.00000000</i>
   <i name="OFIELD_A">      0.00000000</i>
  </separator>
 </parameters>
 <atominfo>
  <atoms>      72 </atoms>
  <types>       2 </types>
  <array name="atoms" >
   <dimension dim="1">ion</dimension>
   <field type="string">element</field>
   <field type="int">atomtype</field>
   <set>
    <rc><c>Ni</c><c>   1</c></rc>
    <rc><c>Ni</c><c>   1</c></rc>
    <rc><c>Ni</c><c>   1</c></rc>
    <rc><c>Ni</c><c>   1</c></rc>
    <rc><c>Ni</c><c>   1</c></rc>
    <rc><c>Ni</c><c>   1</c></rc>
    <rc><c>Ni</c><c>   1</c></rc>
    <rc><c>Ni</c><c>   1</c></rc>
    <rc><c>Ni</c><c>   1</c></rc>
    <rc><c>Ni</c><c>   1</c></rc>
    <rc><c>Ni</c><c>   1</c></rc>
    <rc><c>Ni</c><c>   1</c></rc>
    <rc><c>Ni</c><c>   1</c></rc>
    <rc><c>Ni</c><c>   1</c></rc>
    <rc><c>Ni</c><c>   1</c></rc>
    <rc><c>Ni</c><c>   1</c></rc>
    <rc><c>Ni</c><c>   1</c></rc>
    <rc><c>Ni</c><c>   1</c></rc>
    <rc><c>Ni</c><c>   1</c></rc>
    <rc><c>Ni</c><c>   1</c></rc>
    <rc><c>Ni</c><c>   1</c></rc>
    <rc><c>Ni</c><c>   1</c></rc>
    <rc><c>Ni</c><c>   1</c></rc>
    <rc><c>Ni</c><c>   1</c></rc>
    <rc><c>Ni</c><c>   1</c></rc>
    <rc><c>Ni</c><c>   1</c></rc>
    <rc><c>Ni</c><c>   1</c></rc>
    <rc><c>Ni</c><c>   1</c></rc>
    <rc><c>Ni</c><c>   1</c></rc>
    <rc><c>Ni</c><c>   1</c></rc>
    <rc><c>Ni</c><c>   1</c></rc>
    <rc><c>Ni</c><c>   1</c></rc>
    <rc><c>Ni</c><c>   1</c></rc>
    <rc><c>Ni</c><c>   1</c></rc>
    <rc><c>Ni</c><c>   1</c></rc>
    <rc><c>Ni</c><c>   1</c></rc>
    <rc><c>S </c><c>   2</c></rc>
    <rc><c>S </c><c>   2</c></rc>
    <rc><c>S </c><c>   2</c></rc>
    <rc><c>S </c><c>   2</c></rc>
    <rc><c>S </c><c>   2</c></rc>
    <rc><c>S </c><c>   2</c></rc>
    <rc><c>S </c><c>   2</c></rc>
    <rc><c>S </c><c>   2</c></rc>
    <rc><c>S </c><c>   2</c></rc>
    <rc><c>S </c><c>   2</c></rc>
    <rc><c>S </c><c>   2</c></rc>
    <rc><c>S </c><c>   2</c></rc>
    <rc><c>S </c><c>   2</c></rc>
    <rc><c>S </c><c>   2</c></rc>
    <rc><c>S </c><c>   2</c></rc>
    <rc><c>S </c><c>   2</c></rc>
    <rc><c>S </c><c>   2</c></rc>
    <rc><c>S </c><c>   2</c></rc>
    <rc><c>S </c><c>   2</c></rc>
    <rc><c>S </c><c>   2</c></rc>
    <rc><c>S </c><c>   2</c></rc>
    <rc><c>S </c><c>   2</c></rc>
    <rc><c>S </c><c>   2</c></rc>
    <rc><c>S </c><c>   2</c></rc>
    <rc><c>S </c><c>   2</c></rc>
    <rc><c>S </c><c>   2</c></rc>
    <rc><c>S </c><c>   2</c></rc>
    <rc><c>S </c><c>   2</c></rc>
    <rc><c>S </c><c>   2</c></rc>
    <rc><c>S </c><c>   2</c></rc>
    <rc><c>S </c><c>   2</c></rc>
    <rc><c>S </c><c>   2</c></rc>
    <rc><c>S </c><c>   2</c></rc>
    <rc><c>S </c><c>   2</c></rc>
    <rc><c>S </c><c>   2</c></rc>
    <rc><c>S </c><c>   2</c></rc>
   </set>
  </array>
  <array name="atomtypes" >
   <dimension dim="1">type</dimension>
   <field type="int">atomspertype</field>
   <field type="string">element</field>
   <field>mass</field>
   <field>valence</field>
   <field type="string">pseudopotential</field>
   <set>
    <rc><c>  36</c><c>Ni</c><c>     58.69000000</c><c>     16.00000000</c><c>  PAW_PBE Ni_pv 06Sep2000               </c></rc>
    <rc><c>  36</c><c>S </c><c>     32.06600000</c><c>      6.00000000</c><c>  PAW_PBE S 06Sep2000                   </c></rc>
   </set>
  </array>
 </atominfo>
 <structure name="initialpos" >
  <crystal>
   <varray name="basis" >
    <v>      10.40335375      -4.78920500       0.00000000 </v>
    <v>       0.00000000       9.57841000       0.00000000 </v>
    <v>       0.00000000       0.00000000      20.50076286 </v>
   </varray>
   <i name="volume">   2042.85156262 </i>
   <varray name="rec_basis" >
    <v>       0.09612285       0.00000000       0.00000000 </v>
    <v>       0.04806142       0.10440146       0.00000000 </v>
    <v>       0.00000000       0.00000000       0.04877867 </v>
   </varray>
  </crystal>
  <varray name="positions" >
   <v>       0.58044680       0.07437514       0.34941513 </v>
   <v>       0.76256081       0.16543215       0.22731652 </v>
   <v>       0.94467483       0.25648915       0.10521791 </v>
   <v>       0.39833278       0.98331813       0.47151374 </v>
   <v>       0.03518947       0.80174648       0.26801605 </v>
   <v>       0.21730349       0.89280348       0.14591744 </v>
   <v>       0.39941750       0.98386049       0.02381883 </v>
   <v>       0.85307546       0.71068947       0.39011466 </v>
   <v>       0.12570412       0.34700380       0.43081420 </v>
   <v>       0.30781813       0.43806081       0.30871559 </v>
   <v>       0.48993215       0.52911781       0.18661698 </v>
   <v>       0.67204616       0.62017482       0.06451837 </v>
   <v>       0.23035801       0.03143375       0.40699537 </v>
   <v>       0.41247203       0.12249075       0.28489676 </v>
   <v>       0.59458604       0.21354776       0.16279815 </v>
   <v>       0.77670006       0.30460477       0.04069954 </v>
   <v>       0.04932872       0.94091910       0.08139907 </v>
   <v>       0.50298667       0.66774808       0.44769490 </v>
   <v>       0.68510069       0.75880508       0.32559629 </v>
   <v>       0.86721470       0.84986209       0.20349768 </v>
   <v>       0.13984337       0.48617642       0.24419722 </v>
   <v>       0.32195738       0.57723343       0.12209861 </v>
   <v>       0.50407140       0.66829044       0.00000000 </v>
   <v>       0.77561534       0.30406241       0.48839444 </v>
   <v>       0.95772935       0.39511942       0.36629583 </v>
   <v>       0.39833278       0.24752413       0.47151374 </v>
   <v>       0.58044680       0.33858114       0.34941513 </v>
   <v>       0.76256081       0.42963815       0.22731652 </v>
   <v>       0.03518947       0.06595248       0.26801605 </v>
   <v>       0.21730349       0.15700948       0.14591744 </v>
   <v>       0.39941750       0.24806649       0.02381883 </v>
   <v>       0.85307546       0.97489547       0.39011466 </v>
   <v>       0.12570412       0.61120980       0.43081420 </v>
   <v>       0.30781813       0.70226681       0.30871559 </v>
   <v>       0.48993215       0.79332382       0.18661698 </v>
   <v>       0.67204616       0.88438082       0.06451837 </v>
   <v>       0.18441112       0.17667530       0.48070540 </v>
   <v>       0.36652513       0.26773231       0.35860679 </v>
   <v>       0.54863915       0.35878931       0.23650818 </v>
   <v>       0.73075316       0.44984632       0.11440957 </v>
   <v>       0.00338182       0.08616065       0.15510911 </v>
   <v>       0.18549584       0.17721766       0.03301050 </v>
   <v>       0.63915379       0.90404664       0.39930633 </v>
   <v>       0.82126781       0.99510365       0.27720772 </v>
   <v>       0.09389647       0.63141797       0.31790726 </v>
   <v>       0.27601049       0.72247498       0.19580864 </v>
   <v>       0.45812450       0.81353199       0.07371003 </v>
   <v>       0.91178246       0.54036097       0.44000587 </v>
   <v>       0.12675994       0.47963471       0.07446623 </v>
   <v>       0.58041790       0.20646369       0.44076206 </v>
   <v>       0.76253191       0.29752070       0.31866345 </v>
   <v>       0.94464593       0.38857770       0.19656484 </v>
   <v>       0.21727459       0.02489203       0.23726438 </v>
   <v>       0.39938860       0.11594904       0.11516577 </v>
   <v>       0.03516057       0.93383503       0.35936299 </v>
   <v>       0.85304656       0.84277802       0.48146160 </v>
   <v>       0.30778923       0.57014936       0.40006253 </v>
   <v>       0.48990325       0.66120636       0.27796392 </v>
   <v>       0.67201726       0.75226337       0.15586531 </v>
   <v>       0.85413128       0.84332038       0.03376670 </v>
   <v>       0.54863915       0.02235931       0.23650818 </v>
   <v>       0.73075316       0.11341632       0.11440957 </v>
   <v>       0.18441112       0.84024530       0.48070540 </v>
   <v>       0.36652513       0.93130231       0.35860679 </v>
   <v>       0.00338182       0.74973065       0.15510911 </v>
   <v>       0.18549584       0.84078766       0.03301050 </v>
   <v>       0.63915379       0.56761664       0.39930633 </v>
   <v>       0.82126781       0.65867365       0.27720772 </v>
   <v>       0.09389647       0.29498797       0.31790726 </v>
   <v>       0.27601049       0.38604498       0.19580864 </v>
   <v>       0.45812450       0.47710199       0.07371003 </v>
   <v>       0.91178246       0.20393097       0.44000587 </v>
  </varray>
 </structure>
 <calculation>
  <scstep>
   <time name="dav">    2.22    2.23</time>
   <time name="total">    2.27    2.29</time>
   <energy>
    <i name="alphaZ">   1820.93486007 </i>
    <i name="ewald"> 170782.49353594 </i>
    <i name="hartreedc">-293085.67090477 </i>
    <i name="XCdc">   3651.23619192 </i>
    <i name="pawpsdc"> 112729.53333415 </i>
    <i name="pawaedc">-117641.51188735 </i>
    <i name="eentropy">     -0.31985995 </i>
    <i name="bandstr">  -4648.30675938 </i>
    <i name="atom"> 136002.60505376 </i>
    <i name="e_fr_energy">   9610.99356438 </i>
    <i name="e_wo_entrp">   9611.31342433 </i>
    <i name="e_0_energy">   9611.15349436 </i>
   </energy>
  </scstep>
  <scstep>
   <time name="dav">    1.97    1.97</time>
   <time name="total">    1.97    1.97</time>
   <energy>
    <i name="e_fr_energy">    564.90652031 </i>
    <i name="e_wo_entrp">    565.77354209 </i>
    <i name="e_0_energy">    565.34003120 </i>
   </energy>
  </scstep>
  <scstep>
   <time name="dav">    2.11    2.11</time>
   <time name="total">    2.11    2.11</time>
   <energy>
    <i name="e_fr_energy">   -346.36625173 </i>
    <i name="e_wo_entrp">   -345.14271558 </i>
    <i name="e_0_energy">   -345.75448366 </i>
   </energy>
  </scstep>
  <scstep>
   <time name="dav">    2.15    2.16</time>
   <time name="total">    2.15    2.16</time>
   <energy>
    <i name="e_fr_energy">   -403.06376738 </i>
    <i name="e_wo_entrp">   -401.76523768 </i>
    <i name="e_0_energy">   -402.41450253 </i>
   </energy>
  </scstep>
  <scstep>
   <time name="dav">    2.25    2.26</time>
   <time name="total">    2.30    2.31</time>
   <energy>
    <i name="e_fr_energy">   -405.14398254 </i>
    <i name="e_wo_entrp">   -403.84363418 </i>
    <i name="e_0_energy">   -404.49380836 </i>
   </energy>
  </scstep>
  <scstep>
   <time name="dav">    2.14    2.15</time>
   <time name="total">    2.24    2.24</time>
   <energy>
    <i name="e_fr_energy">   -491.23705343 </i>
    <i name="e_wo_entrp">   -490.22102079 </i>
    <i name="e_0_energy">   -490.72903711 </i>
   </energy>
  </scstep>
  <scstep>
   <time name="dav">    2.09    2.09</time>
   <time name="total">    2.18    2.18</time>
   <energy>
    <i name="e_fr_energy">   -376.03961924 </i>
    <i name="e_wo_entrp">   -375.18814360 </i>
    <i name="e_0_energy">   -375.61388142 </i>
   </energy>
  </scstep>
  <scstep>
   <time name="dav">    2.57    2.58</time>
   <time name="total">    2.67    2.68</time>
   <energy>
    <i name="e_fr_energy">   -482.47608860 </i>
    <i name="e_wo_entrp">   -481.57156386 </i>
    <i name="e_0_energy">   -482.02382623 </i>
   </energy>
  </scstep>
  <scstep>
   <time name="dav">    2.21    2.22</time>
   <time name="total">    2.31    2.32</time>
   <energy>
    <i name="e_fr_energy">   -371.36980380 </i>
    <i name="e_wo_entrp">   -369.97672677 </i>
    <i name="e_0_energy">   -370.67326528 </i>
   </energy>
  </scstep>
  <scstep>
   <time name="dav">    2.39    2.40</time>
   <time name="total">    2.49    2.49</time>
   <energy>
    <i name="e_fr_energy">   -378.49168118 </i>
    <i name="e_wo_entrp">   -377.29524992 </i>
    <i name="e_0_energy">   -377.89346555 </i>
   </energy>
  </scstep>
  <scstep>
   <time name="dav">    2.37    2.38</time>
   <time name="total">    2.47    2.47</time>
   <energy>
    <i name="e_fr_energy">   -380.55570799 </i>
    <i name="e_wo_entrp">   -379.45909258 </i>
    <i name="e_0_energy">   -380.00740029 </i>
   </energy>
  </scstep>
  <scstep>
   <time name="dav">    2.37    2.37</time>
   <time name="total">    2.46    2.47</time>
   <energy>
    <i name="e_fr_energy">   -366.02168979 </i>
    <i name="e_wo_entrp">   -365.15766615 </i>
    <i name="e_0_energy">   -365.58967797 </i>
   </energy>
  </scstep>
  <scstep>
   <time name="dav">    2.38    2.39</time>
   <time name="total">    2.47    2.48</time>
   <energy>
    <i name="e_fr_energy">   -363.10587913 </i>
    <i name="e_wo_entrp">   -362.07639584 </i>
    <i name="e_0_energy">   -362.59113749 </i>
   </energy>
  </scstep>
  <scstep>
   <time name="dav">    2.38    2.39</time>
   <time name="total">    2.48    2.49</time>
   <energy>
    <i name="e_fr_energy">   -359.73040400 </i>
    <i name="e_wo_entrp">   -358.70208107 </i>
    <i name="e_0_energy">   -359.21624254 </i>
   </energy>
  </scstep>
  <scstep>
   <time name="dav">    2.35    2.36</time>
   <time name="total">    2.45    2.45</time>
   <energy>
    <i name="e_fr_energy">   -357.31411043 </i>
    <i name="e_wo_entrp">   -356.37836531 </i>
    <i name="e_0_energy">   -356.84623787 </i>
   </energy>
  </scstep>
  <scstep>
   <time name="dav">    2.36    2.36</time>
   <time name="total">    2.45    2.46</time>
   <energy>
    <i name="e_fr_energy">   -356.47955192 </i>
    <i name="e_wo_entrp">   -355.49429391 </i>
    <i name="e_0_energy">   -355.98692291 </i>
   </energy>
  </scstep>
  <scstep>
   <time name="dav">    2.28    2.29</time>
   <time name="total">    2.38    2.38</time>
   <energy>
    <i name="e_fr_energy">   -356.01609992 </i>
    <i name="e_wo_entrp">   -355.02208108 </i>
    <i name="e_0_energy">   -355.51909050 </i>
   </energy>
  </scstep>
  <scstep>
   <time name="dav">    2.37    2.37</time>
   <time name="total">    2.46    2.47</time>
   <energy>
    <i name="e_fr_energy">   -355.70018847 </i>
    <i name="e_wo_entrp">   -354.72941753 </i>
    <i name="e_0_energy">   -355.21480300 </i>
   </energy>
  </scstep>
  <scstep>
   <time name="dav">    2.31    2.31</time>
   <time name="total">    2.40    2.41</time>
   <energy>
    <i name="e_fr_energy">   -355.40585053 </i>
    <i name="e_wo_entrp">   -354.40545534 </i>
    <i name="e_0_energy">   -354.90565294 </i>
   </energy>
  </scstep>
  <scstep>
   <time name="dav">    2.40    2.41</time>
   <time name="total">    2.50    2.50</time>
   <energy>
    <i name="e_fr_energy">   -355.24544636 </i>
    <i name="e_wo_entrp">   -354.26482228 </i>
    <i name="e_0_energy">   -354.75513432 </i>
   </energy>
  </scstep>
  <scstep>
   <time name="dav">    2.48    2.48</time>
   <time name="total">    2.58    2.59</time>
   <energy>
    <i name="e_fr_energy">   -354.91420995 </i>
    <i name="e_wo_entrp">   -353.89476208 </i>
    <i name="e_0_energy">   -354.40448602 </i>
   </energy>
  </scstep>
  <scstep>
   <time name="dav">    2.39    2.40</time>
   <time name="total">    2.50    2.50</time>
   <energy>
    <i name="e_fr_energy">   -354.96642160 </i>
    <i name="e_wo_entrp">   -353.94025257 </i>
    <i name="e_0_energy">   -354.45333708 </i>
   </energy>
  </scstep>
  <scstep>
   <time name="dav">    2.52    2.53</time>
   <time name="total">    2.63    2.64</time>
   <energy>
    <i name="e_fr_energy">   -354.75230047 </i>
    <i name="e_wo_entrp">   -353.69962155 </i>
    <i name="e_0_energy">   -354.22596101 </i>
   </energy>
  </scstep>
  <scstep>
   <time name="dav">    2.34    2.34</time>
   <time name="total">    2.44    2.44</time>
   <energy>
    <i name="e_fr_energy">   -354.75833225 </i>
    <i name="e_wo_entrp">   -353.67884197 </i>
    <i name="e_0_energy">   -354.21858711 </i>
   </energy>
  </scstep>
  <scstep>
   <time name="dav">    2.26    2.27</time>
   <time name="total">    2.36    2.37</time>
   <energy>
    <i name="e_fr_energy">   -354.74262729 </i>
    <i name="e_wo_entrp">   -353.67246089 </i>
    <i name="e_0_energy">   -354.20754409 </i>
   </energy>
  </scstep>
  <scstep>
   <time name="dav">    2.18    2.18</time>
   <time name="total">    2.28    2.29</time>
   <energy>
    <i name="e_fr_energy">   -354.74708412 </i>
    <i name="e_wo_entrp">   -353.67571116 </i>
    <i name="e_0_energy">   -354.21139764 </i>
   </energy>
  </scstep>
  <scstep>
   <time name="dav">    2.36    2.37</time>
   <time name="total">    2.46    2.47</time>
   <energy>
    <i name="e_fr_energy">   -354.74681205 </i>
    <i name="e_wo_entrp">   -353.67549391 </i>
    <i name="e_0_energy">   -354.21115298 </i>
   </energy>
  </scstep>
  <scstep>
   <time name="dav">    2.34    2.35</time>
   <time name="total">    2.45    2.45</time>
   <energy>
    <i name="e_fr_energy">   -354.73631863 </i>
    <i name="e_wo_entrp">   -353.67445777 </i>
    <i name="e_0_energy">   -354.20538820 </i>
   </energy>
  </scstep>
  <scstep>
   <time name="dav">    2.38    2.39</time>
   <time name="total">    2.48    2.49</time>
   <energy>
    <i name="e_fr_energy">   -354.73422642 </i>
    <i name="e_wo_entrp">   -353.67021041 </i>
    <i name="e_0_energy">   -354.20221841 </i>
   </energy>
  </scstep>
  <scstep>
   <time name="dav">    2.34    2.35</time>
   <time name="total">    2.45    2.45</time>
   <energy>
    <i name="e_fr_energy">   -354.72952324 </i>
    <i name="e_wo_entrp">   -353.67017671 </i>
    <i name="e_0_energy">   -354.19984997 </i>
   </energy>
  </scstep>
  <scstep>
   <time name="dav">    2.40    2.41</time>
   <time name="total">    2.51    2.51</time>
   <energy>
    <i name="e_fr_energy">   -354.73001578 </i>
    <i name="e_wo_entrp">   -353.66751424 </i>
    <i name="e_0_energy">   -354.19876501 </i>
   </energy>
  </scstep>
  <scstep>
   <time name="dav">    2.13    2.14</time>
   <time name="total">    2.24    2.24</time>
   <energy>
    <i name="e_fr_energy">   -354.72964885 </i>
    <i name="e_wo_entrp">   -353.66907139 </i>
    <i name="e_0_energy">   -354.19936012 </i>
   </energy>
  </scstep>
  <scstep>
   <time name="dav">    1.98    1.98</time>
   <time name="total">    2.08    2.08</time>
   <energy>
    <i name="e_fr_energy">   -354.73010749 </i>
    <i name="e_wo_entrp">   -353.66861783 </i>
    <i name="e_0_energy">   -354.19936266 </i>
   </energy>
  </scstep>
  <scstep>
   <time name="dav">    1.95    1.96</time>
   <time name="total">    2.06    2.06</time>
   <energy>
    <i name="e_fr_energy">   -354.73051421 </i>
    <i name="e_wo_entrp">   -353.67048026 </i>
    <i name="e_0_energy">   -354.20049723 </i>
   </energy>
  </scstep>
  <scstep>
   <time name="dav">    1.71    1.71</time>
   <time name="total">    1.81    1.81</time>
   <energy>
    <i name="e_fr_energy">   -354.73074668 </i>
    <i name="e_wo_entrp">   -353.67072680 </i>
    <i name="e_0_energy">   -354.20073674 </i>
   </energy>
  </scstep>
  <scstep>
   <time name="dav">    1.47    1.48</time>
   <time name="total">    1.58    1.58</time>
   <energy>
    <i name="e_fr_energy">   -354.73098827 </i>
    <i name="e_wo_entrp">   -353.67017806 </i>
    <i name="e_0_energy">   -354.20058317 </i>
   </energy>
  </scstep>
  <scstep>
   <time name="dav">    1.38    1.38</time>
   <time name="total">    1.48    1.49</time>
   <energy>
    <i name="e_fr_energy">   -354.73114209 </i>
    <i name="e_wo_entrp">   -353.67075133 </i>
    <i name="e_0_energy">   -354.20094671 </i>
   </energy>
  </scstep>
  <scstep>
   <time name="dav">    1.34    1.35</time>
   <time name="total">    1.45    1.45</time>
   <energy>
    <i name="e_fr_energy">   -354.73154678 </i>
    <i name="e_wo_entrp">   -353.67170685 </i>
    <i name="e_0_energy">   -354.20162681 </i>
   </energy>
  </scstep>
  <scstep>
   <time name="dav">    1.38    1.38</time>
   <time name="total">    1.48    1.48</time>
   <energy>
    <i name="e_fr_energy">   -354.73175979 </i>
    <i name="e_wo_entrp">   -353.67194625 </i>
    <i name="e_0_energy">   -354.20185302 </i>
   </energy>
  </scstep>
  <scstep>
   <time name="dav">    1.48    1.49</time>
   <time name="total">    1.59    1.59</time>
   <energy>
    <i name="e_fr_energy">   -354.73260441 </i>
    <i name="e_wo_entrp">   -353.67242063 </i>
    <i name="e_0_energy">   -354.20251252 </i>
   </energy>
  </scstep>
  <scstep>
   <time name="dav">    1.38    1.38</time>
   <time name="total">    1.48    1.48</time>
   <energy>
    <i name="e_fr_energy">   -354.73287707 </i>
    <i name="e_wo_entrp">   -353.67258124 </i>
    <i name="e_0_energy">   -354.20272915 </i>
   </energy>
  </scstep>
  <scstep>
   <time name="dav">    1.36    1.37</time>
   <time name="total">    1.46    1.47</time>
   <energy>
    <i name="e_fr_energy">   -354.73330247 </i>
    <i name="e_wo_entrp">   -353.67333420 </i>
    <i name="e_0_energy">   -354.20331834 </i>
   </energy>
  </scstep>
  <scstep>
   <time name="dav">    1.37    1.38</time>
   <time name="total">    1.48    1.48</time>
   <energy>
    <i name="e_fr_energy">   -354.73345240 </i>
    <i name="e_wo_entrp">   -353.67367510 </i>
    <i name="e_0_energy">   -354.20356375 </i>
   </energy>
  </scstep>
  <scstep>
   <time name="dav">    1.35    1.35</time>
   <time name="total">    1.45    1.45</time>
   <energy>
    <i name="e_fr_energy">   -354.73378345 </i>
    <i name="e_wo_entrp">   -353.67371615 </i>
    <i name="e_0_energy">   -354.20374980 </i>
   </energy>
  </scstep>
  <scstep>
   <time name="dav">    1.36    1.37</time>
   <time name="total">    1.47    1.47</time>
   <energy>
    <i name="e_fr_energy">   -354.73394117 </i>
    <i name="e_wo_entrp">   -353.67380776 </i>
    <i name="e_0_energy">   -354.20387446 </i>
   </energy>
  </scstep>
  <scstep>
   <time name="dav">    1.40    1.40</time>
   <time name="total">    1.50    1.50</time>
   <energy>
    <i name="e_fr_energy">   -354.73411982 </i>
    <i name="e_wo_entrp">   -353.67397229 </i>
    <i name="e_0_energy">   -354.20404605 </i>
   </energy>
  </scstep>
  <scstep>
   <time name="dav">    1.38    1.39</time>
   <time name="total">    1.44    1.44</time>
   <energy>
    <i name="alphaZ">   1820.93486007 </i>
    <i name="ewald"> 170782.49353594 </i>
    <i name="hartreedc">-292415.83994292 </i>
    <i name="XCdc">   3622.15451776 </i>
    <i name="pawpsdc"> 130491.33941833 </i>
    <i name="pawaedc">-135460.85130497 </i>
    <i name="eentropy">     -1.06021625 </i>
    <i name="bandstr"> -15196.51007102 </i>
    <i name="atom"> 136002.60505376 </i>
    <i name="e_fr_energy">   -354.73414932 </i>
    <i name="e_wo_entrp">   -353.67393307 </i>
    <i name="e_0_energy">   -354.20404119 </i>
   </energy>
  </scstep>
  <structure>
   <crystal>
    <varray name="basis" >
     <v>      10.40335375      -4.78920500       0.00000000 </v>
     <v>       0.00000000       9.57841000       0.00000000 </v>
     <v>       0.00000000       0.00000000      20.50076286 </v>
    </varray>
    <i name="volume">   2042.85156262 </i>
    <varray name="rec_basis" >
     <v>       0.09612285       0.00000000       0.00000000 </v>
     <v>       0.04806142       0.10440146       0.00000000 </v>
     <v>       0.00000000       0.00000000       0.04877867 </v>
    </varray>
   </crystal>
   <varray name="positions" >
    <v>       0.58044680       0.07437514       0.34941513 </v>
    <v>       0.76256081       0.16543215       0.22731652 </v>
    <v>       0.94467483       0.25648915       0.10521791 </v>
    <v>       0.39833278       0.98331813       0.47151374 </v>
    <v>       0.03518947       0.80174648       0.26801605 </v>
    <v>       0.21730349       0.89280348       0.14591744 </v>
    <v>       0.39941750       0.98386049       0.02381883 </v>
    <v>       0.85307546       0.71068947       0.39011466 </v>
    <v>       0.12570412       0.34700380       0.43081420 </v>
    <v>       0.30781813       0.43806081       0.30871559 </v>
    <v>       0.48993215       0.52911781       0.18661698 </v>
    <v>       0.67204616       0.62017482       0.06451837 </v>
    <v>       0.23035801       0.03143375       0.40699537 </v>
    <v>       0.41247203       0.12249075       0.28489676 </v>
    <v>       0.59458604       0.21354776       0.16279815 </v>
    <v>       0.77670006       0.30460477       0.04069954 </v>
    <v>       0.04932872       0.94091910       0.08139907 </v>
    <v>       0.50298667       0.66774808       0.44769490 </v>
    <v>       0.68510069       0.75880508       0.32559629 </v>
    <v>       0.86721470       0.84986209       0.20349768 </v>
    <v>       0.13984337       0.48617642       0.24419722 </v>
    <v>       0.32195738       0.57723343       0.12209861 </v>
    <v>       0.50407140       0.66829044       0.00000000 </v>
    <v>       0.77561534       0.30406241       0.48839444 </v>
    <v>       0.95772935       0.39511942       0.36629583 </v>
    <v>       0.39833278       0.24752413       0.47151374 </v>
    <v>       0.58044680       0.33858114       0.34941513 </v>
    <v>       0.76256081       0.42963815       0.22731652 </v>
    <v>       0.03518947       0.06595248       0.26801605 </v>
    <v>       0.21730349       0.15700948       0.14591744 </v>
    <v>       0.39941750       0.24806649       0.02381883 </v>
    <v>       0.85307546       0.97489547       0.39011466 </v>
    <v>       0.12570412       0.61120980       0.43081420 </v>
    <v>       0.30781813       0.70226681       0.30871559 </v>
    <v>       0.48993215       0.79332382       0.18661698 </v>
    <v>       0.67204616       0.88438082       0.06451837 </v>
    <v>       0.18441112       0.17667530       0.48070540 </v>
    <v>       0.36652513       0.26773231       0.35860679 </v>
    <v>       0.54863915       0.35878931       0.23650818 </v>
    <v>       0.73075316       0.44984632       0.11440957 </v>
    <v>       0.00338182       0.08616065       0.15510911 </v>
    <v>       0.18549584       0.17721766       0.03301050 </v>
    <v>       0.63915379       0.90404664       0.39930633 </v>
    <v>       0.82126781       0.99510365       0.27720772 </v>
    <v>       0.09389647       0.63141797       0.31790726 </v>
    <v>       0.27601049       0.72247498       0.19580864 </v>
    <v>       0.45812450       0.81353199       0.07371003 </v>
    <v>       0.91178246       0.54036097       0.44000587 </v>
    <v>       0.12675994       0.47963471       0.07446623 </v>
    <v>       0.58041790       0.20646369       0.44076206 </v>
    <v>       0.76253191       0.29752070       0.31866345 </v>
    <v>       0.94464593       0.38857770       0.19656484 </v>
    <v>       0.21727459       0.02489203       0.23726438 </v>
    <v>       0.39938860       0.11594904       0.11516577 </v>
    <v>       0.03516057       0.93383503       0.35936299 </v>
    <v>       0.85304656       0.84277802       0.48146160 </v>
    <v>       0.30778923       0.57014936       0.40006253 </v>
    <v>       0.48990325       0.66120636       0.27796392 </v>
    <v>       0.67201726       0.75226337       0.15586531 </v>
    <v>       0.85413128       0.84332038       0.03376670 </v>
    <v>       0.54863915       0.02235931       0.23650818 </v>
    <v>       0.73075316       0.11341632       0.11440957 </v>
    <v>       0.18441112       0.84024530       0.48070540 </v>
    <v>       0.36652513       0.93130231       0.35860679 </v>
    <v>       0.00338182       0.74973065       0.15510911 </v>
    <v>       0.18549584       0.84078766       0.03301050 </v>
    <v>       0.63915379       0.56761664       0.39930633 </v>
    <v>       0.82126781       0.65867365       0.27720772 </v>
    <v>       0.09389647       0.29498797       0.31790726 </v>
    <v>       0.27601049       0.38604498       0.19580864 </v>
    <v>       0.45812450       0.47710199       0.07371003 </v>
    <v>       0.91178246       0.20393097       0.44000587 </v>
   </varray>
  </structure>
  <varray name="forces" >
   <v>      -0.18769471      -0.07819003       0.06207479 </v>
   <v>       0.27828515       0.20491501       0.10881191 </v>
   <v>       0.57849471       0.82665665       0.84106695 </v>
   <v>      -0.47924872       0.11623524      -1.12753162 </v>
   <v>      -0.03552530       0.18570363      -0.06786679 </v>
   <v>       0.00589792       0.00124657      -0.32705004 </v>
   <v>      -1.12653128      -0.14263031       1.61342250 </v>
   <v>      -0.03969765       0.07717768       0.63363525 </v>
   <v>      -0.13580587      -0.66002960      -0.34622863 </v>
   <v>      -0.12745446      -0.05425901       0.05971262 </v>
   <v>       0.01400124       0.13091206       0.00016948 </v>
   <v>       0.52067130       0.04275083       0.72313318 </v>
   <v>      -0.23173038      -0.02480066       0.17699875 </v>
   <v>       0.17861213       0.04354444       0.12370386 </v>
   <v>       0.09266857       0.27238297      -0.19892098 </v>
   <v>      -0.31209872       0.18765564       1.95216772 </v>
   <v>       0.22057850      -0.05996678      -0.59490921 </v>
   <v>       0.30159651      -0.00040675      -1.68643150 </v>
   <v>      -0.08246228      -0.01670426       0.11399452 </v>
   <v>       0.39766237      -0.05923381       0.12432744 </v>
   <v>       0.05039537      -0.02079771       0.15816977 </v>
   <v>      -0.35144318      -0.11953473      -0.54333083 </v>
   <v>      -0.36629687       0.01077728       1.84209471 </v>
   <v>       0.46442940       0.01579191      -1.73710586 </v>
   <v>       0.10338024      -0.00294132       0.29594918 </v>
   <v>      -0.47925910      -0.10808316      -1.10114406 </v>
   <v>      -0.19515731       0.03658208       0.03423425 </v>
   <v>       0.32052644      -0.23293724      -0.11523116 </v>
   <v>      -0.07295113      -0.05129160       0.12050748 </v>
   <v>       0.07921375       0.03234413      -0.37208364 </v>
   <v>      -1.13870125       0.18235442       1.57020554 </v>
   <v>      -0.06464709      -0.08673928       0.67190092 </v>
   <v>      -0.11583649       0.64255160      -0.33583823 </v>
   <v>      -0.09863031       0.06167539       0.06233654 </v>
   <v>       0.04095578      -0.11242485       0.00019847 </v>
   <v>       0.54285792      -0.18712479       0.65493739 </v>
   <v>       1.03394165       0.42645808      -0.01802599 </v>
   <v>       0.03144885      -0.25940891       0.02758745 </v>
   <v>      -0.06662492      -0.15855946      -0.12090597 </v>
   <v>       0.03497096      -0.72422972      -1.18110216 </v>
   <v>       0.00472551       0.01939125      -0.30297877 </v>
   <v>       0.24192174      -0.32815853       0.53135576 </v>
   <v>      -0.41244876      -0.57230157       0.30012439 </v>
   <v>      -0.11760015      -0.11919981       0.10055607 </v>
   <v>       0.12146001      -0.25688144      -0.18612046 </v>
   <v>      -0.14088332      -0.13540687      -0.00140290 </v>
   <v>       0.46109756      -0.13390950      -1.49326504 </v>
   <v>      -0.04671570      -0.80967292       0.51284969 </v>
   <v>      -0.44186835      -0.86955234      -0.59236384 </v>
   <v>       0.11308269      -0.00971843       1.92177430 </v>
   <v>      -0.03481395       0.11182296      -0.08016124 </v>
   <v>      -0.33715381      -0.15791173      -0.28229669 </v>
   <v>       0.08964284      -0.03365033      -0.15624878 </v>
   <v>       0.48681730      -0.07350351      -1.13700117 </v>
   <v>      -0.00508699      -0.00473600       0.19026630 </v>
   <v>       0.31171860       0.01075117      -0.96307608 </v>
   <v>       0.11920533       0.00320951       1.75339093 </v>
   <v>      -0.12019204       0.00227258      -0.06614271 </v>
   <v>       0.01331901      -0.02148980      -0.29081539 </v>
   <v>      -1.55252825      -0.04942041      -0.36615220 </v>
   <v>       0.07553482       0.10215385      -0.24302005 </v>
   <v>       0.54970454       0.44117485      -1.39348013 </v>
   <v>       1.02300966      -0.42543800      -0.01974391 </v>
   <v>      -0.00473319       0.29832796       0.04501626 </v>
   <v>      -0.16943152       0.24590137       0.28302249 </v>
   <v>       0.16965889       0.33211740       0.64390932 </v>
   <v>      -0.40502085       0.56240605       0.29153185 </v>
   <v>      -0.08692058       0.09142039       0.07141800 </v>
   <v>       0.09973952       0.29900027      -0.16789847 </v>
   <v>      -0.04512438       0.17055931      -0.04829935 </v>
   <v>       0.50117666       0.16243568      -1.46492614 </v>
   <v>      -0.04408462       0.81058494       0.51254398 </v>
  </varray>
  <varray name="stress" >
   <v>     -28.07256237      -1.39715916      10.52721996 </v>
   <v>      -1.39715914     -21.12949955       0.89655178 </v>
   <v>      10.52721995       0.89655164     -19.82391125 </v>
  </varray>
  <energy>
   <i name="e_fr_energy">   -354.73414932 </i>
   <i name="e_wo_entrp">   -353.67393307 </i>
   <i name="e_0_energy">   -354.20404119 </i>
  </energy>
  <time name="totalsc">  102.15  102.49</time>
  <eigenvalues>
   <array>
    <dimension dim="1">band</dimension>
    <dimension dim="2">kpoint</dimension>
    <dimension dim="3">spin</dimension>
    <field>eigene</field>
    <field>occ</field>
    <set>
     <set comment="spin 1">
      <set comment="kpoint 1">
       <r>  -62.9493    1.0000 </r>
       <r>  -62.9427    1.0000 </r>
       <r>  -62.9322    1.0000 </r>
       <r>  -62.9313    1.0000 </r>
       <r>  -62.9169    1.0000 </r>
       <r>  -62.9143    1.0000 </r>
       <r>  -62.9115    1.0000 </r>
       <r>  -62.9070    1.0000 </r>
       <r>  -62.9059    1.0000 </r>
       <r>  -62.9039    1.0000 </r>
       <r>  -62.9017    1.0000 </r>
       <r>  -62.8975    1.0000 </r>
       <r>  -62.8954    1.0000 </r>
       <r>  -62.8931    1.0000 </r>
       <r>  -62.8888    1.0000 </r>
       <r>  -62.8833    1.0000 </r>
       <r>  -62.8820    1.0000 </r>
       <r>  -62.8788    1.0000 </r>
       <r>  -62.8776    1.0000 </r>
       <r>  -62.8771    1.0000 </r>
       <r>  -62.8639    1.0000 </r>
       <r>  -62.8623    1.0000 </r>
       <r>  -62.8606    1.0000 </r>
       <r>  -62.8596    1.0000 </r>
       <r>  -62.8561    1.0000 </r>
       <r>  -62.8521    1.0000 </r>
       <r>  -62.8494    1.0000 </r>
       <r>  -62.8475    1.0000 </r>
       <r>  -62.8404    1.0000 </r>
       <r>  -62.8374    1.0000 </r>
       <r>  -62.8374    1.0000 </r>
       <r>  -62.8370    1.0000 </r>
       <r>  -62.8331    1.0000 </r>
       <r>  -62.8295    1.0000 </r>
       <r>  -62.8255    1.0000 </r>
       <r>  -62.8242    1.0000 </r>
       <r>  -62.8234    1.0000 </r>
       <r>  -62.8147    1.0000 </r>
       <r>  -62.8146    1.0000 </r>
       <r>  -62.8133    1.0000 </r>
       <r>  -62.8120    1.0000 </r>
       <r>  -62.8078    1.0000 </r>
       <r>  -62.7919    1.0000 </r>
       <r>  -62.7834    1.0000 </r>
       <r>  -62.7776    1.0000 </r>
       <r>  -62.7745    1.0000 </r>
       <r>  -62.7357    1.0000 </r>
       <r>  -62.7287    1.0000 </r>
       <r>  -62.7224    1.0000 </r>
       <r>  -62.7217    1.0000 </r>
       <r>  -62.7210    1.0000 </r>
       <r>  -62.7171    1.0000 </r>
       <r>  -62.7095    1.0000 </r>
       <r>  -62.7089    1.0000 </r>
       <r>  -62.7063    1.0000 </r>
       <r>  -62.6659    1.0000 </r>
       <r>  -62.6627    1.0000 </r>
       <r>  -62.6623    1.0000 </r>
       <r>  -62.6609    1.0000 </r>
       <r>  -62.6592    1.0000 </r>
       <r>  -62.6508    1.0000 </r>
       <r>  -62.6508    1.0000 </r>
       <r>  -62.6418    1.0000 </r>
       <r>  -62.6328    1.0000 </r>
       <r>  -62.6320    1.0000 </r>
       <r>  -62.6303    1.0000 </r>
       <r>  -62.6148    1.0000 </r>
       <r>  -62.6018    1.0000 </r>
       <r>  -62.5997    1.0000 </r>
       <r>  -62.5699    1.0000 </r>
       <r>  -62.5491    1.0000 </r>
       <r>  -62.5399    1.0000 </r>
       <r>  -62.5258    1.0000 </r>
       <r>  -62.5182    1.0000 </r>
       <r>  -62.4533    1.0000 </r>
       <r>  -62.4428    1.0000 </r>
       <r>  -62.4405    1.0000 </r>
       <r>  -62.4120    1.0000 </r>
       <r>  -62.3988    1.0000 </r>
       <r>  -62.3917    1.0000 </r>
       <r>  -62.3830    1.0000 </r>
       <r>  -62.3300    1.0000 </r>
       <r>  -62.2575    1.0000 </r>
       <r>  -62.2169    1.0000 </r>
       <r>  -62.2037    1.0000 </r>
       <r>  -62.1889    1.0000 </r>
       <r>  -62.1813    1.0000 </r>
       <r>  -62.1753    1.0000 </r>
       <r>  -62.1169    1.0000 </r>
       <r>  -62.0953    1.0000 </r>
       <r>  -62.0237    1.0000 </r>
       <r>  -62.0168    1.0000 </r>
       <r>  -61.9234    1.0000 </r>
       <r>  -61.8833    1.0000 </r>
       <r>  -61.8770    1.0000 </r>
       <r>  -61.8480    1.0000 </r>
       <r>  -61.8254    1.0000 </r>
       <r>  -61.8242    1.0000 </r>
       <r>  -61.7928    1.0000 </r>
       <r>  -61.7361    1.0000 </r>
       <r>  -61.7248    1.0000 </r>
       <r>  -61.6924    1.0000 </r>
       <r>  -61.6896    1.0000 </r>
       <r>  -61.6624    1.0000 </r>
       <r>  -61.5387    1.0000 </r>
       <r>  -61.5179    1.0000 </r>
       <r>  -61.4540    1.0000 </r>
       <r>  -61.4344    1.0000 </r>
       <r>  -14.1952    1.0000 </r>
       <r>  -13.5675    1.0000 </r>
       <r>  -13.4442    1.0000 </r>
       <r>  -13.4164    1.0000 </r>
       <r>  -13.2691    1.0000 </r>
       <r>  -13.0992    1.0000 </r>
       <r>  -13.0203    1.0000 </r>
       <r>  -12.9535    1.0000 </r>
       <r>  -12.9293    1.0000 </r>
       <r>  -12.8174    1.0000 </r>
       <r>  -12.7846    1.0000 </r>
       <r>  -12.6760    1.0000 </r>
       <r>  -12.6225    1.0000 </r>
       <r>  -12.5450    1.0000 </r>
       <r>  -12.4546    1.0000 </r>
       <r>  -12.3494    1.0000 </r>
       <r>  -12.3137    1.0000 </r>
       <r>  -12.2887    1.0000 </r>
       <r>  -12.2601    1.0000 </r>
       <r>  -12.2540    1.0000 </r>
       <r>  -12.2084    1.0000 </r>
       <r>  -12.1573    1.0000 </r>
       <r>  -12.0823    1.0000 </r>
       <r>  -12.0291    1.0000 </r>
       <r>  -11.9635    1.0000 </r>
       <r>  -11.8943    1.0000 </r>
       <r>  -11.7970    1.0000 </r>
       <r>  -11.6691    1.0000 </r>
       <r>  -11.6384    1.0000 </r>
       <r>  -11.4780    1.0000 </r>
       <r>  -11.4382    1.0000 </r>
       <r>  -11.1103    1.0000 </r>
       <r>  -11.0715    1.0000 </r>
       <r>  -10.9570    1.0000 </r>
       <r>  -10.7008    1.0000 </r>
       <r>  -10.6523    1.0000 </r>
       <r>   -6.1390    1.0000 </r>
       <r>   -6.0173    1.0000 </r>
       <r>   -5.6525    1.0000 </r>
       <r>   -5.6271    1.0000 </r>
       <r>   -5.5575    1.0000 </r>
       <r>   -5.4352    1.0000 </r>
       <r>   -5.3571    1.0000 </r>
       <r>   -5.3006    1.0000 </r>
       <r>   -5.2835    1.0000 </r>
       <r>   -5.2296    1.0000 </r>
       <r>   -5.1655    1.0000 </r>
       <r>   -5.1507    1.0000 </r>
       <r>   -5.0328    1.0000 </r>
       <r>   -5.0166    1.0000 </r>
       <r>   -4.9992    1.0000 </r>
       <r>   -4.9711    1.0000 </r>
       <r>   -4.9489    1.0000 </r>
       <r>   -4.8888    1.0000 </r>
       <r>   -4.8374    1.0000 </r>
       <r>   -4.8032    1.0000 </r>
       <r>   -4.7874    1.0000 </r>
       <r>   -4.7606    1.0000 </r>
       <r>   -4.6783    1.0000 </r>
       <r>   -4.6030    1.0000 </r>
       <r>   -4.5965    1.0000 </r>
       <r>   -4.5377    1.0000 </r>
       <r>   -4.5014    1.0000 </r>
       <r>   -4.4656    1.0000 </r>
       <r>   -4.3638    1.0000 </r>
       <r>   -4.3120    1.0000 </r>
       <r>   -4.2812    1.0000 </r>
       <r>   -4.2352    1.0000 </r>
       <r>   -4.1950    1.0000 </r>
       <r>   -4.0864    1.0000 </r>
       <r>   -4.0385    1.0000 </r>
       <r>   -3.9831    1.0000 </r>
       <r>   -3.9456    1.0000 </r>
       <r>   -3.8577    1.0000 </r>
       <r>   -3.8481    1.0000 </r>
       <r>   -3.7869    1.0000 </r>
       <r>   -3.7664    1.0000 </r>
       <r>   -3.7214    1.0000 </r>
       <r>   -3.6832    1.0000 </r>
       <r>   -3.6617    1.0000 </r>
       <r>   -3.5671    1.0000 </r>
       <r>   -3.5427    1.0000 </r>
       <r>   -3.5175    1.0000 </r>
       <r>   -3.4742    1.0000 </r>
       <r>   -3.4419    1.0000 </r>
       <r>   -3.4250    1.0000 </r>
       <r>   -3.3875    1.0000 </r>
       <r>   -3.3610    1.0000 </r>
       <r>   -3.3313    1.0000 </r>
       <r>   -3.2855    1.0000 </r>
       <r>   -3.2445    1.0000 </r>
       <r>   -3.2320    1.0000 </r>
       <r>   -3.2003    1.0000 </r>
       <r>   -3.1758    1.0000 </r>
       <r>   -3.1306    1.0000 </r>
       <r>   -3.1002    1.0000 </r>
       <r>   -3.0744    1.0000 </r>
       <r>   -3.0445    1.0000 </r>
       <r>   -2.9822    1.0000 </r>
       <r>   -2.9450    1.0000 </r>
       <r>   -2.9319    1.0000 </r>
       <r>   -2.9154    1.0000 </r>
       <r>   -2.8935    1.0000 </r>
       <r>   -2.8625    1.0000 </r>
       <r>   -2.8236    1.0000 </r>
       <r>   -2.7686    1.0000 </r>
       <r>   -2.7580    1.0000 </r>
       <r>   -2.7364    1.0000 </r>
       <r>   -2.7271    1.0000 </r>
       <r>   -2.7089    1.0000 </r>
       <r>   -2.6927    1.0000 </r>
       <r>   -2.6519    1.0000 </r>
       <r>   -2.6108    1.0000 </r>
       <r>   -2.6020    1.0000 </r>
       <r>   -2.5686    1.0000 </r>
       <r>   -2.5510    1.0000 </r>
       <r>   -2.5154    1.0000 </r>
       <r>   -2.5019    1.0000 </r>
       <r>   -2.4670    1.0000 </r>
       <r>   -2.4428    1.0000 </r>
       <r>   -2.4328    1.0000 </r>
       <r>   -2.3773    1.0000 </r>
       <r>   -2.3455    1.0000 </r>
       <r>   -2.3309    1.0000 </r>
       <r>   -2.2726    1.0000 </r>
       <r>   -2.2528    1.0000 </r>
       <r>   -2.2189    1.0000 </r>
       <r>   -2.1685    1.0000 </r>
       <r>   -2.1196    1.0000 </r>
       <r>   -2.0559    1.0000 </r>
       <r>   -2.0258    1.0000 </r>
       <r>   -2.0057    1.0000 </r>
       <r>   -1.9629    1.0000 </r>
       <r>   -1.8866    1.0000 </r>
       <r>   -1.8411    1.0000 </r>
       <r>   -1.8045    1.0000 </r>
       <r>   -1.7911    1.0000 </r>
       <r>   -1.7417    1.0000 </r>
       <r>   -1.6950    1.0000 </r>
       <r>   -1.6827    1.0000 </r>
       <r>   -1.6200    1.0000 </r>
       <r>   -1.5837    1.0000 </r>
       <r>   -1.5516    1.0000 </r>
       <r>   -1.5205    1.0000 </r>
       <r>   -1.4840    1.0000 </r>
       <r>   -1.4763    1.0000 </r>
       <r>   -1.3957    1.0000 </r>
       <r>   -1.3703    1.0000 </r>
       <r>   -1.3276    1.0000 </r>
       <r>   -1.3022    1.0000 </r>
       <r>   -1.2753    1.0000 </r>
       <r>   -1.2393    1.0000 </r>
       <r>   -1.2008    1.0000 </r>
       <r>   -1.1828    1.0000 </r>
       <r>   -1.1696    1.0000 </r>
       <r>   -1.1692    1.0000 </r>
       <r>   -1.1401    1.0000 </r>
       <r>   -1.1035    1.0000 </r>
       <r>   -1.0960    1.0000 </r>
       <r>   -1.0723    1.0000 </r>
       <r>   -1.0317    1.0000 </r>
       <r>   -1.0242    1.0000 </r>
       <r>   -1.0067    1.0000 </r>
       <r>   -0.9753    1.0000 </r>
       <r>   -0.9544    1.0000 </r>
       <r>   -0.9404    1.0000 </r>
       <r>   -0.9213    1.0000 </r>
       <r>   -0.9102    1.0000 </r>
       <r>   -0.9009    1.0000 </r>
       <r>   -0.8825    1.0000 </r>
       <r>   -0.8789    1.0000 </r>
       <r>   -0.8635    1.0000 </r>
       <r>   -0.8414    1.0000 </r>
       <r>   -0.8379    1.0000 </r>
       <r>   -0.7899    1.0000 </r>
       <r>   -0.7621    1.0000 </r>
       <r>   -0.7367    1.0000 </r>
       <r>   -0.7148    1.0000 </r>
       <r>   -0.7057    1.0000 </r>
       <r>   -0.6887    1.0000 </r>
       <r>   -0.6762    1.0000 </r>
       <r>   -0.6481    1.0000 </r>
       <r>   -0.6386    1.0000 </r>
       <r>   -0.6202    1.0000 </r>
       <r>   -0.6116    1.0000 </r>
       <r>   -0.6062    1.0000 </r>
       <r>   -0.5942    1.0000 </r>
       <r>   -0.5784    1.0000 </r>
       <r>   -0.5722    1.0000 </r>
       <r>   -0.5598    1.0000 </r>
       <r>   -0.5490    1.0000 </r>
       <r>   -0.5346    1.0000 </r>
       <r>   -0.5228    1.0000 </r>
       <r>   -0.5147    1.0000 </r>
       <r>   -0.5019    1.0000 </r>
       <r>   -0.4923    1.0000 </r>
       <r>   -0.4750    1.0000 </r>
       <r>   -0.4702    1.0000 </r>
       <r>   -0.4631    1.0000 </r>
       <r>   -0.4476    1.0000 </r>
       <r>   -0.4375    1.0000 </r>
       <r>   -0.4285    1.0000 </r>
       <r>   -0.4252    1.0000 </r>
       <r>   -0.4197    1.0000 </r>
       <r>   -0.4126    1.0000 </r>
       <r>   -0.3890    1.0000 </r>
       <r>   -0.3868    1.0000 </r>
       <r>   -0.3677    1.0000 </r>
       <r>   -0.3601    1.0000 </r>
       <r>   -0.3521    1.0000 </r>
       <r>   -0.3438    1.0000 </r>
       <r>   -0.3343    1.0000 </r>
       <r>   -0.3232    1.0000 </r>
       <r>   -0.3121    1.0000 </r>
       <r>   -0.3046    1.0000 </r>
       <r>   -0.2939    1.0000 </r>
       <r>   -0.2576    1.0000 </r>
       <r>   -0.2530    1.0000 </r>
       <r>   -0.2340    1.0000 </r>
       <r>   -0.2311    1.0000 </r>
       <r>   -0.2037    1.0000 </r>
       <r>   -0.1917    1.0000 </r>
       <r>   -0.1736    1.0000 </r>
       <r>   -0.1660    1.0000 </r>
       <r>   -0.1507    1.0000 </r>
       <r>   -0.1451    1.0000 </r>
       <r>   -0.1272    1.0000 </r>
       <r>   -0.1119    1.0000 </r>
       <r>   -0.0897    1.0000 </r>
       <r>   -0.0629    1.0000 </r>
       <r>   -0.0524    1.0000 </r>
       <r>   -0.0370    1.0000 </r>
       <r>   -0.0280    1.0000 </r>
       <r>   -0.0126    1.0000 </r>
       <r>   -0.0058    1.0000 </r>
       <r>    0.0028    1.0000 </r>
       <r>    0.0123    1.0000 </r>
       <r>    0.0282    1.0000 </r>
       <r>    0.0465    1.0000 </r>
       <r>    0.0555    1.0000 </r>
       <r>    0.0810    1.0000 </r>
       <r>    0.1078    1.0000 </r>
       <r>    0.1164    1.0000 </r>
       <r>    0.1258    1.0000 </r>
       <r>    0.1549    1.0000 </r>
       <r>    0.1625    1.0000 </r>
       <r>    0.1736    1.0000 </r>
       <r>    0.2280    1.0000 </r>
       <r>    0.2506    1.0000 </r>
       <r>    0.2653    1.0000 </r>
       <r>    0.2755    1.0000 </r>
       <r>    0.2914    1.0000 </r>
       <r>    0.3079    1.0000 </r>
       <r>    0.3165    1.0000 </r>
       <r>    0.3273    1.0000 </r>
       <r>    0.3545    1.0000 </r>
       <r>    0.3759    1.0000 </r>
       <r>    0.3915    1.0000 </r>
       <r>    0.4191    1.0000 </r>
       <r>    0.4432    1.0000 </r>
       <r>    0.4725    1.0000 </r>
       <r>    0.4861    1.0000 </r>
       <r>    0.5046    1.0000 </r>
       <r>    0.5159    1.0000 </r>
       <r>    0.5343    1.0000 </r>
       <r>    0.5455    1.0000 </r>
       <r>    0.5604    1.0000 </r>
       <r>    0.5960    1.0000 </r>
       <r>    0.6133    1.0000 </r>
       <r>    0.6249    1.0000 </r>
       <r>    0.6496    1.0000 </r>
       <r>    0.6706    1.0000 </r>
       <r>    0.6787    0.9999 </r>
       <r>    0.7197    0.9998 </r>
       <r>    0.7353    0.9997 </r>
       <r>    0.7567    0.9995 </r>
       <r>    0.7913    0.9989 </r>
       <r>    0.8582    0.9953 </r>
       <r>    0.8827    0.9924 </r>
       <r>    0.8897    0.9913 </r>
       <r>    0.9473    0.9756 </r>
       <r>    0.9661    0.9669 </r>
       <r>    1.0114    0.9353 </r>
       <r>    1.0371    0.9090 </r>
       <r>    1.0654    0.8717 </r>
       <r>    1.1170    0.7793 </r>
       <r>    1.2243    0.5045 </r>
       <r>    1.2283    0.4931 </r>
       <r>    1.2477    0.4387 </r>
       <r>    1.2853    0.3373 </r>
       <r>    1.2936    0.3159 </r>
       <r>    1.3296    0.2317 </r>
       <r>    1.3961    0.1144 </r>
       <r>    1.4533    0.0539 </r>
       <r>    1.4809    0.0357 </r>
       <r>    1.5154    0.0203 </r>
       <r>    1.5271    0.0166 </r>
       <r>    1.5432    0.0124 </r>
       <r>    1.6076    0.0035 </r>
       <r>    1.6116    0.0032 </r>
       <r>    1.6261    0.0023 </r>
       <r>    1.6769    0.0007 </r>
       <r>    1.6920    0.0005 </r>
       <r>    1.7152    0.0003 </r>
       <r>    1.7277    0.0002 </r>
       <r>    1.7824    0.0000 </r>
       <r>    1.8281    0.0000 </r>
       <r>    1.8585    0.0000 </r>
       <r>    1.8687    0.0000 </r>
       <r>    1.8841    0.0000 </r>
       <r>    1.9117    0.0000 </r>
       <r>    1.9602    0.0000 </r>
       <r>    2.0362    0.0000 </r>
       <r>    2.0430    0.0000 </r>
       <r>    2.1030    0.0000 </r>
       <r>    2.1330    0.0000 </r>
       <r>    2.2208    0.0000 </r>
       <r>    2.2395    0.0000 </r>
       <r>    2.2640    0.0000 </r>
       <r>    2.3162    0.0000 </r>
       <r>    2.3605    0.0000 </r>
       <r>    2.4191    0.0000 </r>
       <r>    2.4635    0.0000 </r>
       <r>    2.5103    0.0000 </r>
       <r>    2.5926    0.0000 </r>
       <r>    3.0882    0.0000 </r>
       <r>    3.3192    0.0000 </r>
       <r>    3.5882    0.0000 </r>
       <r>    3.9949    0.0000 </r>
       <r>    4.2558    0.0000 </r>
       <r>    4.4212    0.0000 </r>
       <r>    4.4873    0.0000 </r>
       <r>    4.5141    0.0000 </r>
       <r>    4.5508    0.0000 </r>
       <r>    4.8820    0.0000 </r>
       <r>    4.8927    0.0000 </r>
       <r>    4.9602    0.0000 </r>
       <r>    5.1637    0.0000 </r>
       <r>    5.4313    0.0000 </r>
       <r>    5.5484    0.0000 </r>
       <r>    5.6152    0.0000 </r>
       <r>    5.6482    0.0000 </r>
       <r>    5.7097    0.0000 </r>
       <r>    5.7358    0.0000 </r>
       <r>    5.8481    0.0000 </r>
       <r>    5.9698    0.0000 </r>
       <r>    6.0452    0.0000 </r>
       <r>    6.0729    0.0000 </r>
       <r>    6.1465    0.0000 </r>
       <r>    6.2237    0.0000 </r>
       <r>    6.2529    0.0000 </r>
       <r>    6.3488    0.0000 </r>
       <r>    6.4160    0.0000 </r>
       <r>    6.4484    0.0000 </r>
       <r>    6.5167    0.0000 </r>
       <r>    6.5361    0.0000 </r>
       <r>    6.6465    0.0000 </r>
       <r>    6.7063    0.0000 </r>
       <r>    6.7624    0.0000 </r>
       <r>    6.8364    0.0000 </r>
       <r>    6.8697    0.0000 </r>
       <r>    6.9176    0.0000 </r>
       <r>    6.9815    0.0000 </r>
       <r>    7.0762    0.0000 </r>
       <r>    7.1001    0.0000 </r>
       <r>    7.1333    0.0000 </r>
       <r>    7.1567    0.0000 </r>
       <r>    7.1912    0.0000 </r>
       <r>    7.2821    0.0000 </r>
       <r>    7.3320    0.0000 </r>
       <r>    7.3524    0.0000 </r>
       <r>    7.3790    0.0000 </r>
      </set>
     </set>
    </set>
   </array>
  </eigenvalues>
  <separator name="orbital magnetization" >
   <v name="MAGDIPOLOUT">      0.00000000      0.00000000      0.00000000</v>
  </separator>
  <dos>
   <i name="efermi">      1.22588454 </i>
   <total>
    <array>
     <dimension dim="1">gridpoints</dimension>
     <dimension dim="2">spin</dimension>
     <field>energy</field>
     <field>total</field>
     <field>integrated</field>
     <set>
      <set comment="spin 1">
       <r>   -66.4658     0.0000     0.0000 </r>
       <r>   -66.2079     0.0000     0.0000 </r>
       <r>   -65.9500     0.0000     0.0000 </r>
       <r>   -65.6922     0.0000     0.0000 </r>
       <r>   -65.4343     0.0000     0.0000 </r>
       <r>   -65.1764     0.0000     0.0000 </r>
       <r>   -64.9185     0.0000     0.0000 </r>
       <r>   -64.6607     0.0000     0.0000 </r>
       <r>   -64.4028     0.0000     0.0000 </r>
       <r>   -64.1449     0.0000     0.0000 </r>
       <r>   -63.8871     0.0000     0.0000 </r>
       <r>   -63.6292     0.0000     0.0000 </r>
       <r>   -63.3713     0.1012     0.0261 </r>
       <r>   -63.1134    16.0393     4.1622 </r>
       <r>   -62.8556   187.2163    52.4398 </r>
       <r>   -62.5977   282.5356   125.2974 </r>
       <r>   -62.3398   133.6534   159.7626 </r>
       <r>   -62.0820    70.2331   177.8737 </r>
       <r>   -61.8241    61.2872   193.6779 </r>
       <r>   -61.5662    56.5320   208.2558 </r>
       <r>   -61.3084    26.3446   215.0493 </r>
       <r>   -61.0505     3.6383   215.9875 </r>
       <r>   -60.7926     0.0484   216.0000 </r>
       <r>   -60.5347     0.0000   216.0000 </r>
       <r>   -60.2769     0.0000   216.0000 </r>
       <r>   -60.0190     0.0000   216.0000 </r>
       <r>   -59.7611     0.0000   216.0000 </r>
       <r>   -59.5033     0.0000   216.0000 </r>
       <r>   -59.2454     0.0000   216.0000 </r>
       <r>   -58.9875     0.0000   216.0000 </r>
       <r>   -58.7296     0.0000   216.0000 </r>
       <r>   -58.4718     0.0000   216.0000 </r>
       <r>   -58.2139     0.0000   216.0000 </r>
       <r>   -57.9560     0.0000   216.0000 </r>
       <r>   -57.6982     0.0000   216.0000 </r>
       <r>   -57.4403     0.0000   216.0000 </r>
       <r>   -57.1824     0.0000   216.0000 </r>
       <r>   -56.9246     0.0000   216.0000 </r>
       <r>   -56.6667     0.0000   216.0000 </r>
       <r>   -56.4088     0.0000   216.0000 </r>
       <r>   -56.1509     0.0000   216.0000 </r>
       <r>   -55.8931     0.0000   216.0000 </r>
       <r>   -55.6352     0.0000   216.0000 </r>
       <r>   -55.3773     0.0000   216.0000 </r>
       <r>   -55.1195     0.0000   216.0000 </r>
       <r>   -54.8616     0.0000   216.0000 </r>
       <r>   -54.6037     0.0000   216.0000 </r>
       <r>   -54.3458     0.0000   216.0000 </r>
       <r>   -54.0880     0.0000   216.0000 </r>
       <r>   -53.8301     0.0000   216.0000 </r>
       <r>   -53.5722     0.0000   216.0000 </r>
       <r>   -53.3144     0.0000   216.0000 </r>
       <r>   -53.0565     0.0000   216.0000 </r>
       <r>   -52.7986     0.0000   216.0000 </r>
       <r>   -52.5408     0.0000   216.0000 </r>
       <r>   -52.2829     0.0000   216.0000 </r>
       <r>   -52.0250     0.0000   216.0000 </r>
       <r>   -51.7671     0.0000   216.0000 </r>
       <r>   -51.5093     0.0000   216.0000 </r>
       <r>   -51.2514     0.0000   216.0000 </r>
       <r>   -50.9935     0.0000   216.0000 </r>
       <r>   -50.7357     0.0000   216.0000 </r>
       <r>   -50.4778     0.0000   216.0000 </r>
       <r>   -50.2199     0.0000   216.0000 </r>
       <r>   -49.9620     0.0000   216.0000 </r>
       <r>   -49.7042     0.0000   216.0000 </r>
       <r>   -49.4463     0.0000   216.0000 </r>
       <r>   -49.1884     0.0000   216.0000 </r>
       <r>   -48.9306     0.0000   216.0000 </r>
       <r>   -48.6727     0.0000   216.0000 </r>
       <r>   -48.4148     0.0000   216.0000 </r>
       <r>   -48.1570     0.0000   216.0000 </r>
       <r>   -47.8991     0.0000   216.0000 </r>
       <r>   -47.6412     0.0000   216.0000 </r>
       <r>   -47.3833     0.0000   216.0000 </r>
       <r>   -47.1255     0.0000   216.0000 </r>
       <r>   -46.8676     0.0000   216.0000 </r>
       <r>   -46.6097     0.0000   216.0000 </r>
       <r>   -46.3519     0.0000   216.0000 </r>
       <r>   -46.0940     0.0000   216.0000 </r>
       <r>   -45.8361     0.0000   216.0000 </r>
       <r>   -45.5783     0.0000   216.0000 </r>
       <r>   -45.3204     0.0000   216.0000 </r>
       <r>   -45.0625     0.0000   216.0000 </r>
       <r>   -44.8046     0.0000   216.0000 </r>
       <r>   -44.5468     0.0000   216.0000 </r>
       <r>   -44.2889     0.0000   216.0000 </r>
       <r>   -44.0310     0.0000   216.0000 </r>
       <r>   -43.7732     0.0000   216.0000 </r>
       <r>   -43.5153     0.0000   216.0000 </r>
       <r>   -43.2574     0.0000   216.0000 </r>
       <r>   -42.9995     0.0000   216.0000 </r>
       <r>   -42.7417     0.0000   216.0000 </r>
       <r>   -42.4838     0.0000   216.0000 </r>
       <r>   -42.2259     0.0000   216.0000 </r>
       <r>   -41.9681     0.0000   216.0000 </r>
       <r>   -41.7102     0.0000   216.0000 </r>
       <r>   -41.4523     0.0000   216.0000 </r>
       <r>   -41.1945     0.0000   216.0000 </r>
       <r>   -40.9366     0.0000   216.0000 </r>
       <r>   -40.6787     0.0000   216.0000 </r>
       <r>   -40.4208     0.0000   216.0000 </r>
       <r>   -40.1630     0.0000   216.0000 </r>
       <r>   -39.9051     0.0000   216.0000 </r>
       <r>   -39.6472     0.0000   216.0000 </r>
       <r>   -39.3894     0.0000   216.0000 </r>
       <r>   -39.1315     0.0000   216.0000 </r>
       <r>   -38.8736     0.0000   216.0000 </r>
       <r>   -38.6157     0.0000   216.0000 </r>
       <r>   -38.3579     0.0000   216.0000 </r>
       <r>   -38.1000     0.0000   216.0000 </r>
       <r>   -37.8421     0.0000   216.0000 </r>
       <r>   -37.5843     0.0000   216.0000 </r>
       <r>   -37.3264     0.0000   216.0000 </r>
       <r>   -37.0685     0.0000   216.0000 </r>
       <r>   -36.8107     0.0000   216.0000 </r>
       <r>   -36.5528     0.0000   216.0000 </r>
       <r>   -36.2949     0.0000   216.0000 </r>
       <r>   -36.0370     0.0000   216.0000 </r>
       <r>   -35.7792     0.0000   216.0000 </r>
       <r>   -35.5213     0.0000   216.0000 </r>
       <r>   -35.2634     0.0000   216.0000 </r>
       <r>   -35.0056     0.0000   216.0000 </r>
       <r>   -34.7477     0.0000   216.0000 </r>
       <r>   -34.4898     0.0000   216.0000 </r>
       <r>   -34.2319     0.0000   216.0000 </r>
       <r>   -33.9741     0.0000   216.0000 </r>
       <r>   -33.7162     0.0000   216.0000 </r>
       <r>   -33.4583     0.0000   216.0000 </r>
       <r>   -33.2005     0.0000   216.0000 </r>
       <r>   -32.9426     0.0000   216.0000 </r>
       <r>   -32.6847     0.0000   216.0000 </r>
       <r>   -32.4269     0.0000   216.0000 </r>
       <r>   -32.1690     0.0000   216.0000 </r>
       <r>   -31.9111     0.0000   216.0000 </r>
       <r>   -31.6532     0.0000   216.0000 </r>
       <r>   -31.3954     0.0000   216.0000 </r>
       <r>   -31.1375     0.0000   216.0000 </r>
       <r>   -30.8796     0.0000   216.0000 </r>
       <r>   -30.6218     0.0000   216.0000 </r>
       <r>   -30.3639     0.0000   216.0000 </r>
       <r>   -30.1060     0.0000   216.0000 </r>
       <r>   -29.8481     0.0000   216.0000 </r>
       <r>   -29.5903     0.0000   216.0000 </r>
       <r>   -29.3324     0.0000   216.0000 </r>
       <r>   -29.0745     0.0000   216.0000 </r>
       <r>   -28.8167     0.0000   216.0000 </r>
       <r>   -28.5588     0.0000   216.0000 </r>
       <r>   -28.3009     0.0000   216.0000 </r>
       <r>   -28.0431     0.0000   216.0000 </r>
       <r>   -27.7852     0.0000   216.0000 </r>
       <r>   -27.5273     0.0000   216.0000 </r>
       <r>   -27.2694     0.0000   216.0000 </r>
       <r>   -27.0116     0.0000   216.0000 </r>
       <r>   -26.7537     0.0000   216.0000 </r>
       <r>   -26.4958     0.0000   216.0000 </r>
       <r>   -26.2380     0.0000   216.0000 </r>
       <r>   -25.9801     0.0000   216.0000 </r>
       <r>   -25.7222     0.0000   216.0000 </r>
       <r>   -25.4643     0.0000   216.0000 </r>
       <r>   -25.2065     0.0000   216.0000 </r>
       <r>   -24.9486     0.0000   216.0000 </r>
       <r>   -24.6907     0.0000   216.0000 </r>
       <r>   -24.4329     0.0000   216.0000 </r>
       <r>   -24.1750     0.0000   216.0000 </r>
       <r>   -23.9171     0.0000   216.0000 </r>
       <r>   -23.6593     0.0000   216.0000 </r>
       <r>   -23.4014     0.0000   216.0000 </r>
       <r>   -23.1435     0.0000   216.0000 </r>
       <r>   -22.8856     0.0000   216.0000 </r>
       <r>   -22.6278     0.0000   216.0000 </r>
       <r>   -22.3699     0.0000   216.0000 </r>
       <r>   -22.1120     0.0000   216.0000 </r>
       <r>   -21.8542     0.0000   216.0000 </r>
       <r>   -21.5963     0.0000   216.0000 </r>
       <r>   -21.3384     0.0000   216.0000 </r>
       <r>   -21.0805     0.0000   216.0000 </r>
       <r>   -20.8227     0.0000   216.0000 </r>
       <r>   -20.5648     0.0000   216.0000 </r>
       <r>   -20.3069     0.0000   216.0000 </r>
       <r>   -20.0491     0.0000   216.0000 </r>
       <r>   -19.7912     0.0000   216.0000 </r>
       <r>   -19.5333     0.0000   216.0000 </r>
       <r>   -19.2755     0.0000   216.0000 </r>
       <r>   -19.0176     0.0000   216.0000 </r>
       <r>   -18.7597     0.0000   216.0000 </r>
       <r>   -18.5018     0.0000   216.0000 </r>
       <r>   -18.2440     0.0000   216.0000 </r>
       <r>   -17.9861     0.0000   216.0000 </r>
       <r>   -17.7282     0.0000   216.0000 </r>
       <r>   -17.4704     0.0000   216.0000 </r>
       <r>   -17.2125     0.0000   216.0000 </r>
       <r>   -16.9546     0.0000   216.0000 </r>
       <r>   -16.6967     0.0000   216.0000 </r>
       <r>   -16.4389     0.0000   216.0000 </r>
       <r>   -16.1810     0.0000   216.0000 </r>
       <r>   -15.9231     0.0000   216.0000 </r>
       <r>   -15.6653     0.0000   216.0000 </r>
       <r>   -15.4074     0.0000   216.0000 </r>
       <r>   -15.1495     0.0000   216.0000 </r>
       <r>   -14.8917     0.0000   216.0000 </r>
       <r>   -14.6338     0.0075   216.0019 </r>
       <r>   -14.3759     0.7731   216.2013 </r>
       <r>   -14.1180     4.7056   217.4147 </r>
       <r>   -13.8602     2.3693   218.0257 </r>
       <r>   -13.6023     4.8529   219.2771 </r>
       <r>   -13.3444    16.3859   223.5026 </r>
       <r>   -13.0866    18.1751   228.1894 </r>
       <r>   -12.8287    26.7333   235.0831 </r>
       <r>   -12.5708    27.4552   242.1630 </r>
       <r>   -12.3129    33.8603   250.8945 </r>
       <r>   -12.0551    41.4912   261.5939 </r>
       <r>   -11.7972    27.8115   268.7657 </r>
       <r>   -11.5393    21.1339   274.2155 </r>
       <r>   -11.2815    14.4236   277.9349 </r>
       <r>   -11.0236    13.3957   281.3893 </r>
       <r>   -10.7657    13.4089   284.8470 </r>
       <r>   -10.5079    10.3613   287.5189 </r>
       <r>   -10.2500     1.8429   287.9941 </r>
       <r>    -9.9921     0.0228   288.0000 </r>
       <r>    -9.7342     0.0000   288.0000 </r>
       <r>    -9.4764     0.0000   288.0000 </r>
       <r>    -9.2185     0.0000   288.0000 </r>
       <r>    -8.9606     0.0000   288.0000 </r>
       <r>    -8.7028     0.0000   288.0000 </r>
       <r>    -8.4449     0.0000   288.0000 </r>
       <r>    -8.1870     0.0000   288.0000 </r>
       <r>    -7.9291     0.0000   288.0000 </r>
       <r>    -7.6713     0.0000   288.0000 </r>
       <r>    -7.4134     0.0000   288.0000 </r>
       <r>    -7.1555     0.0000   288.0000 </r>
       <r>    -6.8977     0.0000   288.0000 </r>
       <r>    -6.6398     0.0016   288.0004 </r>
       <r>    -6.3819     0.3698   288.0958 </r>
       <r>    -6.1241     5.5851   289.5360 </r>
       <r>    -5.8662     9.2240   291.9146 </r>
       <r>    -5.6083    13.6108   295.4244 </r>
       <r>    -5.3504    27.1837   302.4343 </r>
       <r>    -5.0926    40.0898   312.7723 </r>
       <r>    -4.8347    49.7069   325.5902 </r>
       <r>    -4.5768    45.3797   337.2923 </r>
       <r>    -4.3190    39.1247   347.3814 </r>
       <r>    -4.0611    35.8091   356.6155 </r>
       <r>    -3.8032    40.6907   367.1085 </r>
       <r>    -3.5453    49.7710   379.9429 </r>
       <r>    -3.2875    59.5073   395.2881 </r>
       <r>    -3.0296    62.6607   411.4464 </r>
       <r>    -2.7717    69.5216   429.3740 </r>
       <r>    -2.5139    76.7093   449.1551 </r>
       <r>    -2.2560    64.6744   465.8327 </r>
       <r>    -1.9981    49.3706   478.5639 </r>
       <r>    -1.7403    48.8786   491.1683 </r>
       <r>    -1.4824    54.3308   505.1786 </r>
       <r>    -1.2245    65.0605   521.9558 </r>
       <r>    -0.9666    92.8319   545.8944 </r>
       <r>    -0.7088   114.1673   575.3348 </r>
       <r>    -0.4509   156.3367   615.6494 </r>
       <r>    -0.1930   165.0718   658.2166 </r>
       <r>     0.0648   136.0564   693.3015 </r>
       <r>     0.3227   113.6789   722.6160 </r>
       <r>     0.5806   103.1778   749.2225 </r>
       <r>     0.8385    81.9625   770.3582 </r>
       <r>     1.0963    57.7304   785.2452 </r>
       <r>     1.3542    53.3776   799.0097 </r>
       <r>     1.6121    62.5330   815.1351 </r>
       <r>     1.8699    66.9024   832.3872 </r>
       <r>     2.1278    52.9215   846.0341 </r>
       <r>     2.3857    43.8690   857.3467 </r>
       <r>     2.6435    27.8975   864.5406 </r>
       <r>     2.9014     6.2503   866.1524 </r>
       <r>     3.1593     5.7898   867.6454 </r>
       <r>     3.4172     8.0368   869.7178 </r>
       <r>     3.6750     6.8048   871.4726 </r>
       <r>     3.9329     4.6415   872.6695 </r>
       <r>     4.1908     7.6881   874.6520 </r>
       <r>     4.4486    16.4056   878.8825 </r>
       <r>     4.7065    19.3258   883.8661 </r>
       <r>     4.9644    16.0507   888.0051 </r>
       <r>     5.2222    13.1287   891.3906 </r>
       <r>     5.4801    12.5739   894.6331 </r>
       <r>     5.7380    27.1732   901.6402 </r>
       <r>     5.9959    26.6495   908.5123 </r>
       <r>     6.2537    30.4767   916.3714 </r>
       <r>     6.5116    33.1942   924.9312 </r>
       <r>     6.7695    32.8440   933.4007 </r>
       <r>     7.0273    36.5161   942.8171 </r>
       <r>     7.2852    40.9303   953.3718 </r>
       <r>     7.5431    23.1840   959.3503 </r>
       <r>     7.8010     2.4980   959.9945 </r>
       <r>     8.0588     0.0215   960.0000 </r>
       <r>     8.3167     0.0000   960.0000 </r>
       <r>     8.5746     0.0000   960.0000 </r>
       <r>     8.8324     0.0000   960.0000 </r>
       <r>     9.0903     0.0000   960.0000 </r>
       <r>     9.3482     0.0000   960.0000 </r>
       <r>     9.6060     0.0000   960.0000 </r>
       <r>     9.8639     0.0000   960.0000 </r>
       <r>    10.1218     0.0000   960.0000 </r>
       <r>    10.3797     0.0000   960.0000 </r>
       <r>    10.6375     0.0000   960.0000 </r>
       <r>    10.8954     0.0000   960.0000 </r>
      </set>
     </set>
    </array>
   </total>
  </dos>
 </calculation>
 <structure name="finalpos" >
  <crystal>
   <varray name="basis" >
    <v>      10.40335375      -4.78920500       0.00000000 </v>
    <v>       0.00000000       9.57841000       0.00000000 </v>
    <v>       0.00000000       0.00000000      20.50076286 </v>
   </varray>
   <i name="volume">   2042.85156262 </i>
   <varray name="rec_basis" >
    <v>       0.09612285       0.00000000       0.00000000 </v>
    <v>       0.04806142       0.10440146       0.00000000 </v>
    <v>       0.00000000       0.00000000       0.04877867 </v>
   </varray>
  </crystal>
  <varray name="positions" >
   <v>       0.58044680       0.07437514       0.34941513 </v>
   <v>       0.76256081       0.16543215       0.22731652 </v>
   <v>       0.94467483       0.25648915       0.10521791 </v>
   <v>       0.39833278       0.98331813       0.47151374 </v>
   <v>       0.03518947       0.80174648       0.26801605 </v>
   <v>       0.21730349       0.89280348       0.14591744 </v>
   <v>       0.39941750       0.98386049       0.02381883 </v>
   <v>       0.85307546       0.71068947       0.39011466 </v>
   <v>       0.12570412       0.34700380       0.43081420 </v>
   <v>       0.30781813       0.43806081       0.30871559 </v>
   <v>       0.48993215       0.52911781       0.18661698 </v>
   <v>       0.67204616       0.62017482       0.06451837 </v>
   <v>       0.23035801       0.03143375       0.40699537 </v>
   <v>       0.41247203       0.12249075       0.28489676 </v>
   <v>       0.59458604       0.21354776       0.16279815 </v>
   <v>       0.77670006       0.30460477       0.04069954 </v>
   <v>       0.04932872       0.94091910       0.08139907 </v>
   <v>       0.50298667       0.66774808       0.44769490 </v>
   <v>       0.68510069       0.75880508       0.32559629 </v>
   <v>       0.86721470       0.84986209       0.20349768 </v>
   <v>       0.13984337       0.48617642       0.24419722 </v>
   <v>       0.32195738       0.57723343       0.12209861 </v>
   <v>       0.50407140       0.66829044       0.00000000 </v>
   <v>       0.77561534       0.30406241       0.48839444 </v>
   <v>       0.95772935       0.39511942       0.36629583 </v>
   <v>       0.39833278       0.24752413       0.47151374 </v>
   <v>       0.58044680       0.33858114       0.34941513 </v>
   <v>       0.76256081       0.42963815       0.22731652 </v>
   <v>       0.03518947       0.06595248       0.26801605 </v>
   <v>       0.21730349       0.15700948       0.14591744 </v>
   <v>       0.39941750       0.24806649       0.02381883 </v>
   <v>       0.85307546       0.97489547       0.39011466 </v>
   <v>       0.12570412       0.61120980       0.43081420 </v>
   <v>       0.30781813       0.70226681       0.30871559 </v>
   <v>       0.48993215       0.79332382       0.18661698 </v>
   <v>       0.67204616       0.88438082       0.06451837 </v>
   <v>       0.18441112       0.17667530       0.48070540 </v>
   <v>       0.36652513       0.26773231       0.35860679 </v>
   <v>       0.54863915       0.35878931       0.23650818 </v>
   <v>       0.73075316       0.44984632       0.11440957 </v>
   <v>       0.00338182       0.08616065       0.15510911 </v>
   <v>       0.18549584       0.17721766       0.03301050 </v>
   <v>       0.63915379       0.90404664       0.39930633 </v>
   <v>       0.82126781       0.99510365       0.27720772 </v>
   <v>       0.09389647       0.63141797       0.31790726 </v>
   <v>       0.27601049       0.72247498       0.19580864 </v>
   <v>       0.45812450       0.81353199       0.07371003 </v>
   <v>       0.91178246       0.54036097       0.44000587 </v>
   <v>       0.12675994       0.47963471       0.07446623 </v>
   <v>       0.58041790       0.20646369       0.44076206 </v>
   <v>       0.76253191       0.29752070       0.31866345 </v>
   <v>       0.94464593       0.38857770       0.19656484 </v>
   <v>       0.21727459       0.02489203       0.23726438 </v>
   <v>       0.39938860       0.11594904       0.11516577 </v>
   <v>       0.03516057       0.93383503       0.35936299 </v>
   <v>       0.85304656       0.84277802       0.48146160 </v>
   <v>       0.30778923       0.57014936       0.40006253 </v>
   <v>       0.48990325       0.66120636       0.27796392 </v>
   <v>       0.67201726       0.75226337       0.15586531 </v>
   <v>       0.85413128       0.84332038       0.03376670 </v>
   <v>       0.54863915       0.02235931       0.23650818 </v>
   <v>       0.73075316       0.11341632       0.11440957 </v>
   <v>       0.18441112       0.84024530       0.48070540 </v>
   <v>       0.36652513       0.93130231       0.35860679 </v>
   <v>       0.00338182       0.74973065       0.15510911 </v>
   <v>       0.18549584       0.84078766       0.03301050 </v>
   <v>       0.63915379       0.56761664       0.39930633 </v>
   <v>       0.82126781       0.65867365       0.27720772 </v>
   <v>       0.09389647       0.29498797       0.31790726 </v>
   <v>       0.27601049       0.38604498       0.19580864 </v>
   <v>       0.45812450       0.47710199       0.07371003 </v>
   <v>       0.91178246       0.20393097       0.44000587 </v>
  </varray>
 </structure>
</modeling>
