  74  74   0   0
  0.3540023E+02  0.1688469E-08  0.9578410E-09  0.1619762E-08  0.5000000E-15
  1.000000000000000E-004
  CAR 
 "Millerite NiS"                         
      9.06942176    -67.87814903  301     -0.25096240      1.00000000
    -67.878  0.0000E+00  0.0000E+00
    -67.622  0.0000E+00  0.0000E+00
    -67.365  0.0000E+00  0.0000E+00
    -67.109  0.0000E+00  0.0000E+00
    -66.852  0.0000E+00  0.0000E+00
    -66.596  0.0000E+00  0.0000E+00
    -66.339  0.0000E+00  0.0000E+00
    -66.083  0.0000E+00  0.0000E+00
    -65.826  0.0000E+00  0.0000E+00
    -65.570  0.0000E+00  0.0000E+00
    -65.313  0.3936E-09  0.1010E-09
    -65.057  0.2086E-04  0.5351E-05
    -64.800  0.5411E-01  0.1388E-01
    -64.544  0.8510E+01  0.2197E+01
    -64.287  0.1137E+03  0.3136E+02
    -64.031  0.2209E+03  0.8802E+02
    -63.774  0.1667E+03  0.1308E+03
    -63.518  0.1387E+03  0.1664E+03
    -63.261  0.1057E+03  0.1935E+03
    -63.005  0.7687E+02  0.2132E+03
    -62.748  0.3183E+02  0.2213E+03
    -62.492  0.2532E+01  0.2220E+03
    -62.235  0.1619E-01  0.2220E+03
    -61.979  0.5366E-05  0.2220E+03
    -61.722  0.7833E-10  0.2220E+03
    -61.466  0.0000E+00  0.2220E+03
    -61.209  0.0000E+00  0.2220E+03
    -60.953  0.0000E+00  0.2220E+03
    -60.696  0.0000E+00  0.2220E+03
    -60.440  0.0000E+00  0.2220E+03
    -60.183  0.0000E+00  0.2220E+03
    -59.927  0.0000E+00  0.2220E+03
    -59.670  0.0000E+00  0.2220E+03
    -59.414  0.0000E+00  0.2220E+03
    -59.157  0.0000E+00  0.2220E+03
    -58.901  0.0000E+00  0.2220E+03
    -58.644  0.0000E+00  0.2220E+03
    -58.388  0.0000E+00  0.2220E+03
    -58.131  0.0000E+00  0.2220E+03
    -57.875  0.0000E+00  0.2220E+03
    -57.618  0.0000E+00  0.2220E+03
    -57.362  0.0000E+00  0.2220E+03
    -57.105  0.0000E+00  0.2220E+03
    -56.849  0.0000E+00  0.2220E+03
    -56.593  0.0000E+00  0.2220E+03
    -56.336  0.0000E+00  0.2220E+03
    -56.080  0.0000E+00  0.2220E+03
    -55.823  0.0000E+00  0.2220E+03
    -55.567  0.0000E+00  0.2220E+03
    -55.310  0.0000E+00  0.2220E+03
    -55.054  0.0000E+00  0.2220E+03
    -54.797  0.0000E+00  0.2220E+03
    -54.541  0.0000E+00  0.2220E+03
    -54.284  0.0000E+00  0.2220E+03
    -54.028  0.0000E+00  0.2220E+03
    -53.771  0.0000E+00  0.2220E+03
    -53.515  0.0000E+00  0.2220E+03
    -53.258  0.0000E+00  0.2220E+03
    -53.002  0.0000E+00  0.2220E+03
    -52.745  0.0000E+00  0.2220E+03
    -52.489  0.0000E+00  0.2220E+03
    -52.232  0.0000E+00  0.2220E+03
    -51.976  0.0000E+00  0.2220E+03
    -51.719  0.0000E+00  0.2220E+03
    -51.463  0.0000E+00  0.2220E+03
    -51.206  0.0000E+00  0.2220E+03
    -50.950  0.0000E+00  0.2220E+03
    -50.693  0.0000E+00  0.2220E+03
    -50.437  0.0000E+00  0.2220E+03
    -50.180  0.0000E+00  0.2220E+03
    -49.924  0.0000E+00  0.2220E+03
    -49.667  0.0000E+00  0.2220E+03
    -49.411  0.0000E+00  0.2220E+03
    -49.154  0.0000E+00  0.2220E+03
    -48.898  0.0000E+00  0.2220E+03
    -48.641  0.0000E+00  0.2220E+03
    -48.385  0.0000E+00  0.2220E+03
    -48.128  0.0000E+00  0.2220E+03
    -47.872  0.0000E+00  0.2220E+03
    -47.615  0.0000E+00  0.2220E+03
    -47.359  0.0000E+00  0.2220E+03
    -47.102  0.0000E+00  0.2220E+03
    -46.846  0.0000E+00  0.2220E+03
    -46.589  0.0000E+00  0.2220E+03
    -46.333  0.0000E+00  0.2220E+03
    -46.076  0.0000E+00  0.2220E+03
    -45.820  0.0000E+00  0.2220E+03
    -45.563  0.0000E+00  0.2220E+03
    -45.307  0.0000E+00  0.2220E+03
    -45.050  0.0000E+00  0.2220E+03
    -44.794  0.0000E+00  0.2220E+03
    -44.537  0.0000E+00  0.2220E+03
    -44.281  0.0000E+00  0.2220E+03
    -44.024  0.0000E+00  0.2220E+03
    -43.768  0.0000E+00  0.2220E+03
    -43.511  0.0000E+00  0.2220E+03
    -43.255  0.0000E+00  0.2220E+03
    -42.998  0.0000E+00  0.2220E+03
    -42.742  0.0000E+00  0.2220E+03
    -42.485  0.0000E+00  0.2220E+03
    -42.229  0.0000E+00  0.2220E+03
    -41.972  0.0000E+00  0.2220E+03
    -41.716  0.0000E+00  0.2220E+03
    -41.459  0.0000E+00  0.2220E+03
    -41.203  0.0000E+00  0.2220E+03
    -40.946  0.0000E+00  0.2220E+03
    -40.690  0.0000E+00  0.2220E+03
    -40.434  0.0000E+00  0.2220E+03
    -40.177  0.0000E+00  0.2220E+03
    -39.921  0.0000E+00  0.2220E+03
    -39.664  0.0000E+00  0.2220E+03
    -39.408  0.0000E+00  0.2220E+03
    -39.151  0.0000E+00  0.2220E+03
    -38.895  0.0000E+00  0.2220E+03
    -38.638  0.0000E+00  0.2220E+03
    -38.382  0.0000E+00  0.2220E+03
    -38.125  0.0000E+00  0.2220E+03
    -37.869  0.0000E+00  0.2220E+03
    -37.612  0.0000E+00  0.2220E+03
    -37.356  0.0000E+00  0.2220E+03
    -37.099  0.0000E+00  0.2220E+03
    -36.843  0.0000E+00  0.2220E+03
    -36.586  0.0000E+00  0.2220E+03
    -36.330  0.0000E+00  0.2220E+03
    -36.073  0.0000E+00  0.2220E+03
    -35.817  0.0000E+00  0.2220E+03
    -35.560  0.0000E+00  0.2220E+03
    -35.304  0.0000E+00  0.2220E+03
    -35.047  0.0000E+00  0.2220E+03
    -34.791  0.0000E+00  0.2220E+03
    -34.534  0.0000E+00  0.2220E+03
    -34.278  0.0000E+00  0.2220E+03
    -34.021  0.0000E+00  0.2220E+03
    -33.765  0.0000E+00  0.2220E+03
    -33.508  0.0000E+00  0.2220E+03
    -33.252  0.0000E+00  0.2220E+03
    -32.995  0.0000E+00  0.2220E+03
    -32.739  0.0000E+00  0.2220E+03
    -32.482  0.0000E+00  0.2220E+03
    -32.226  0.0000E+00  0.2220E+03
    -31.969  0.0000E+00  0.2220E+03
    -31.713  0.0000E+00  0.2220E+03
    -31.456  0.0000E+00  0.2220E+03
    -31.200  0.0000E+00  0.2220E+03
    -30.943  0.0000E+00  0.2220E+03
    -30.687  0.0000E+00  0.2220E+03
    -30.430  0.0000E+00  0.2220E+03
    -30.174  0.0000E+00  0.2220E+03
    -29.917  0.0000E+00  0.2220E+03
    -29.661  0.0000E+00  0.2220E+03
    -29.404  0.0000E+00  0.2220E+03
    -29.148  0.0000E+00  0.2220E+03
    -28.891  0.0000E+00  0.2220E+03
    -28.635  0.0000E+00  0.2220E+03
    -28.378  0.0000E+00  0.2220E+03
    -28.122  0.0000E+00  0.2220E+03
    -27.865  0.0000E+00  0.2220E+03
    -27.609  0.0000E+00  0.2220E+03
    -27.352  0.0000E+00  0.2220E+03
    -27.096  0.0000E+00  0.2220E+03
    -26.839  0.0000E+00  0.2220E+03
    -26.583  0.0000E+00  0.2220E+03
    -26.326  0.0000E+00  0.2220E+03
    -26.070  0.0000E+00  0.2220E+03
    -25.813  0.0000E+00  0.2220E+03
    -25.557  0.0000E+00  0.2220E+03
    -25.300  0.0000E+00  0.2220E+03
    -25.044  0.0000E+00  0.2220E+03
    -24.788  0.0000E+00  0.2220E+03
    -24.531  0.0000E+00  0.2220E+03
    -24.275  0.0000E+00  0.2220E+03
    -24.018  0.0000E+00  0.2220E+03
    -23.762  0.0000E+00  0.2220E+03
    -23.505  0.0000E+00  0.2220E+03
    -23.249  0.0000E+00  0.2220E+03
    -22.992  0.0000E+00  0.2220E+03
    -22.736  0.0000E+00  0.2220E+03
    -22.479  0.0000E+00  0.2220E+03
    -22.223  0.0000E+00  0.2220E+03
    -21.966  0.0000E+00  0.2220E+03
    -21.710  0.0000E+00  0.2220E+03
    -21.453  0.0000E+00  0.2220E+03
    -21.197  0.0000E+00  0.2220E+03
    -20.940  0.0000E+00  0.2220E+03
    -20.684  0.0000E+00  0.2220E+03
    -20.427  0.0000E+00  0.2220E+03
    -20.171  0.0000E+00  0.2220E+03
    -19.914  0.0000E+00  0.2220E+03
    -19.658  0.0000E+00  0.2220E+03
    -19.401  0.0000E+00  0.2220E+03
    -19.145  0.0000E+00  0.2220E+03
    -18.888  0.0000E+00  0.2220E+03
    -18.632  0.0000E+00  0.2220E+03
    -18.375  0.0000E+00  0.2220E+03
    -18.119  0.0000E+00  0.2220E+03
    -17.862  0.0000E+00  0.2220E+03
    -17.606  0.0000E+00  0.2220E+03
    -17.349  0.0000E+00  0.2220E+03
    -17.093  0.0000E+00  0.2220E+03
    -16.836  0.0000E+00  0.2220E+03
    -16.580  0.0000E+00  0.2220E+03
    -16.323  0.3160E-13  0.2220E+03
    -16.067  0.1029E-07  0.2220E+03
    -15.810  0.1360E-03  0.2220E+03
    -15.554  0.7816E-01  0.2220E+03
    -15.297  0.2376E+01  0.2226E+03
    -15.041  0.8000E+01  0.2247E+03
    -14.784  0.1089E+02  0.2275E+03
    -14.528  0.9941E+01  0.2300E+03
    -14.271  0.1818E+02  0.2347E+03
    -14.015  0.2630E+02  0.2414E+03
    -13.758  0.3222E+02  0.2497E+03
    -13.502  0.3206E+02  0.2579E+03
    -13.245  0.1743E+02  0.2624E+03
    -12.989  0.1959E+02  0.2674E+03
    -12.732  0.2401E+02  0.2736E+03
    -12.476  0.3149E+02  0.2817E+03
    -12.219  0.2560E+02  0.2882E+03
    -11.963  0.1540E+02  0.2922E+03
    -11.706  0.9047E+01  0.2945E+03
    -11.450  0.5181E+01  0.2958E+03
    -11.193  0.7005E+00  0.2960E+03
    -10.937  0.6290E-02  0.2960E+03
    -10.680  0.2650E-05  0.2960E+03
    -10.424  0.4661E-10  0.2960E+03
    -10.167  0.0000E+00  0.2960E+03
     -9.911  0.0000E+00  0.2960E+03
     -9.654  0.0000E+00  0.2960E+03
     -9.398  0.0000E+00  0.2960E+03
     -9.142  0.0000E+00  0.2960E+03
     -8.885  0.0000E+00  0.2960E+03
     -8.629  0.0000E+00  0.2960E+03
     -8.372  0.0000E+00  0.2960E+03
     -8.116  0.6060E-14  0.2960E+03
     -7.859  0.2969E-08  0.2960E+03
     -7.603  0.6099E-04  0.2960E+03
     -7.346  0.6083E-01  0.2960E+03
     -7.090  0.3810E+01  0.2970E+03
     -6.833  0.2171E+02  0.3026E+03
     -6.577  0.2198E+02  0.3082E+03
     -6.320  0.3290E+02  0.3166E+03
     -6.064  0.4150E+02  0.3273E+03
     -5.807  0.4491E+02  0.3388E+03
     -5.551  0.4848E+02  0.3512E+03
     -5.294  0.5283E+02  0.3648E+03
     -5.038  0.4108E+02  0.3753E+03
     -4.781  0.4120E+02  0.3859E+03
     -4.525  0.5318E+02  0.3995E+03
     -4.268  0.5473E+02  0.4136E+03
     -4.012  0.5910E+02  0.4287E+03
     -3.755  0.7273E+02  0.4474E+03
     -3.499  0.6144E+02  0.4631E+03
     -3.242  0.6190E+02  0.4790E+03
     -2.986  0.6485E+02  0.4957E+03
     -2.729  0.6512E+02  0.5124E+03
     -2.473  0.7555E+02  0.5317E+03
     -2.216  0.1092E+03  0.5597E+03
     -1.960  0.1408E+03  0.5959E+03
     -1.703  0.1641E+03  0.6380E+03
     -1.447  0.1589E+03  0.6787E+03
     -1.190  0.1508E+03  0.7174E+03
     -0.934  0.1289E+03  0.7504E+03
     -0.677  0.1033E+03  0.7769E+03
     -0.421  0.9232E+02  0.8006E+03
     -0.164  0.7445E+02  0.8197E+03
      0.092  0.5473E+02  0.8337E+03
      0.349  0.5329E+02  0.8474E+03
      0.605  0.5611E+02  0.8618E+03
      0.862  0.5787E+02  0.8767E+03
      1.118  0.5597E+02  0.8910E+03
      1.375  0.1841E+02  0.8957E+03
      1.631  0.1160E+01  0.8960E+03
      1.888  0.3020E+01  0.8968E+03
      2.144  0.9893E+01  0.8993E+03
      2.401  0.1116E+02  0.9022E+03
      2.657  0.7654E+01  0.9042E+03
      2.914  0.9662E+01  0.9066E+03
      3.170  0.6872E+01  0.9084E+03
      3.427  0.1040E+02  0.9111E+03
      3.683  0.2087E+02  0.9164E+03
      3.940  0.1627E+02  0.9206E+03
      4.196  0.2304E+02  0.9265E+03
      4.453  0.2953E+02  0.9341E+03
      4.709  0.2947E+02  0.9416E+03
      4.966  0.2991E+02  0.9493E+03
      5.222  0.3773E+02  0.9590E+03
      5.479  0.4210E+02  0.9698E+03
      5.735  0.2201E+02  0.9754E+03
      5.992  0.2182E+01  0.9760E+03
      6.248  0.1890E-01  0.9760E+03
      6.505  0.9123E-05  0.9760E+03
      6.761  0.2003E-09  0.9760E+03
      7.017  0.0000E+00  0.9760E+03
      7.274  0.0000E+00  0.9760E+03
      7.530  0.0000E+00  0.9760E+03
      7.787  0.0000E+00  0.9760E+03
      8.043  0.0000E+00  0.9760E+03
      8.300  0.0000E+00  0.9760E+03
      8.556  0.0000E+00  0.9760E+03
      8.813  0.0000E+00  0.9760E+03
      9.069  0.0000E+00  0.9760E+03
