"Millerite NiS"                         
           1
     6.169087    1.167339    0.000000
     0.000000   11.256463    0.000000
     0.000000    0.000000   27.891483
   Ni   S 
    48    48
Direct configuration=     1
   0.25630944  0.01645859  0.00000000
   0.25630944  0.01645859  0.34341702
   0.00630944  0.26645858  0.17170851
   0.00630944  0.26645858  0.51512553
   0.25630944  0.01645859  0.25268418
   0.25630944  0.01645859  0.59610120
   0.00630944  0.26645858  0.08097567
   0.00630944  0.26645858  0.42439269
   0.19025794  0.21461309  0.29805060
   0.19025794  0.21461309  0.64146762
   0.44025794  0.46461308  0.12634209
   0.44025794  0.46461308  0.46975911
   0.75630944  0.01645859  0.00000000
   0.75630944  0.01645859  0.34341702
   0.50630944  0.26645858  0.17170851
   0.50630944  0.26645858  0.51512553
   0.75630944  0.01645859  0.25268418
   0.75630944  0.01645859  0.59610120
   0.50630944  0.26645858  0.08097567
   0.50630944  0.26645858  0.42439269
   0.69025794  0.21461309  0.29805060
   0.69025794  0.21461309  0.64146762
   0.94025794  0.46461308  0.12634209
   0.94025794  0.46461308  0.46975911
   0.25630944  0.51645859  0.00000000
   0.25630944  0.51645859  0.34341702
   0.00630944  0.76645858  0.17170851
   0.00630944  0.76645858  0.51512553
   0.25630944  0.51645859  0.25268418
   0.25630944  0.51645859  0.59610120
   0.00630944  0.76645858  0.08097567
   0.00630944  0.76645858  0.42439269
   0.19025794  0.71461309  0.29805060
   0.19025794  0.71461309  0.64146762
   0.44025794  0.96461308  0.12634209
   0.44025794  0.96461308  0.46975911
   0.75630944  0.51645859  0.00000000
   0.75630944  0.51645859  0.34341702
   0.50630944  0.76645858  0.17170851
   0.50630944  0.76645858  0.51512553
   0.75630944  0.51645859  0.25268418
   0.75630944  0.51645859  0.59610120
   0.50630944  0.76645858  0.08097567
   0.50630944  0.76645858  0.42439269
   0.69025794  0.71461309  0.29805060
   0.69025794  0.71461309  0.64146762
   0.94025794  0.96461308  0.12634209
   0.94025794  0.96461308  0.46975911
   0.46840410  0.16661759  0.24028270
   0.46840410  0.16661759  0.58369972
   0.21840410  0.41661758  0.06857420
   0.21840410  0.41661758  0.41199121
   0.46840410  0.16661759  0.01240147
   0.46840410  0.16661759  0.35581849
   0.21840410  0.41661758  0.18410998
   0.21840410  0.41661758  0.52752700
   0.05251160  0.41429508  0.29805060
   0.05251160  0.41429508  0.64146762
   0.30251160  0.16429509  0.12634209
   0.30251160  0.16429509  0.46975911
   0.96840410  0.16661759  0.24028270
   0.96840410  0.16661759  0.58369972
   0.71840410  0.41661758  0.06857420
   0.71840410  0.41661758  0.41199121
   0.96840410  0.16661759  0.01240147
   0.96840410  0.16661759  0.35581849
   0.71840410  0.41661758  0.18410998
   0.71840410  0.41661758  0.52752700
   0.55251160  0.41429508  0.29805060
   0.55251160  0.41429508  0.64146762
   0.80251160  0.16429509  0.12634209
   0.80251160  0.16429509  0.46975911
   0.46840410  0.66661759  0.24028270
   0.46840410  0.66661759  0.58369972
   0.21840410  0.91661758  0.06857420
   0.21840410  0.91661758  0.41199121
   0.46840410  0.66661759  0.01240147
   0.46840410  0.66661759  0.35581849
   0.21840410  0.91661758  0.18410998
   0.21840410  0.91661758  0.52752700
   0.05251160  0.91429508  0.29805060
   0.05251160  0.91429508  0.64146762
   0.30251160  0.66429509  0.12634209
   0.30251160  0.66429509  0.46975911
   0.96840410  0.66661759  0.24028270
   0.96840410  0.66661759  0.58369972
   0.71840410  0.91661758  0.06857420
   0.71840410  0.91661758  0.41199121
   0.96840410  0.66661759  0.01240147
   0.96840410  0.66661759  0.35581849
   0.71840410  0.91661758  0.18410998
   0.71840410  0.91661758  0.52752700
   0.55251160  0.91429508  0.29805060
   0.55251160  0.91429508  0.64146762
   0.80251160  0.66429509  0.12634209
   0.80251160  0.66429509  0.46975911
