<?xml version="1.0" encoding="ISO-8859-1"?>
<modeling>
 <generator>
  <i name="program" type="string">vasp </i>
  <i name="version" type="string">5.4.4.18Apr17-6-g9f103f2a35  </i>
  <i name="subversion" type="string">(build Aug 13 2019 17:33:20) gamma-only         parallel </i>
  <i name="platform" type="string">LinuxIFC </i>
  <i name="date" type="string">2020 05 12 </i>
  <i name="time" type="string">00:43:15 </i>
 </generator>
 <incar>
  <i type="string" name="SYSTEM">"Millerite NiS"</i>
  <i type="string" name="PREC">normal</i>
  <i type="int" name="NSIM">     4</i>
  <i type="int" name="NELM">   100</i>
  <i name="ENCUT">    450.00000000</i>
  <i type="string" name="LREAL">A</i>
  <i type="int" name="ISMEAR">     0</i>
  <i type="int" name="NWRITE">     2</i>
  <i type="logical" name="LWAVE"> F  </i>
  <i type="logical" name="LCHARG"> F  </i>
  <v type="int" name="KPOINT_BSE">    -1     0     0     0</v>
  <i type="int" name="NELM">   100</i>
 </incar>
 <structure name="primitive_cell" >
  <crystal>
   <varray name="basis" >
    <v>      16.88469405       0.00000000       0.00000000 </v>
    <v>       0.00000000       9.57841000       0.00000000 </v>
    <v>       0.00000000       0.00000000      16.65464569 </v>
   </varray>
   <i name="volume">   2693.53123734 </i>
   <varray name="rec_basis" >
    <v>       0.05922524       0.00000000       0.00000000 </v>
    <v>       0.00000000       0.10440146       0.00000000 </v>
    <v>       0.00000000       0.00000000       0.06004331 </v>
   </varray>
  </crystal>
  <varray name="positions" >
   <v>      -0.23260872       0.14021337       0.15278760 </v>
   <v>      -0.35339478       0.14529696       0.12175764 </v>
   <v>      -0.14877165       0.20548066       0.06572898 </v>
   <v>      -0.17093895      -0.02291804       0.21464750 </v>
   <v>      -0.20923568       0.01735621       0.04182737 </v>
   <v>      -0.30558649       0.14910127       0.26750647 </v>
   <v>      -0.17559248       0.32526317       0.21677210 </v>
   <v>      -0.18096728       0.15288575       0.28789305 </v>
   <v>      -0.10211981       0.02037145       0.10909615 </v>
   <v>      -0.23408869      -0.13619681       0.12077135 </v>
   <v>      -0.40270525       0.01319396       0.22247530 </v>
   <v>      -0.40270525       0.27739996       0.22247530 </v>
   <v>      -0.05527231       0.27576009       0.23407567 </v>
   <v>      -0.39799881      -0.06916803       0.09286280 </v>
   <v>      -0.34336694      -0.18648804       0.18377980 </v>
   <v>      -0.04810059       0.01805640       0.24853577 </v>
   <v>      -0.23027726      -0.22260004       0.25334300 </v>
   <v>      -0.34920154       0.48070692       0.19619771 </v>
   <v>      -0.00199976       0.13519304       0.15372523 </v>
   <v>      -0.23027726      -0.48680604       0.25334300 </v>
   <v>      -0.46940710       0.14963505       0.09062090 </v>
   <v>      -0.03458094      -0.16746912       0.08969128 </v>
   <v>      -0.17919997      -0.33279292       0.15746795 </v>
   <v>      -0.30570950      -0.20543863       0.34726521 </v>
   <v>      -0.00171795       0.16481286       0.32600652 </v>
   <v>      -0.29949588      -0.49024362       0.35131469 </v>
   <v>       0.48420507      -0.02291804       0.15291210 </v>
   <v>       0.48420507       0.31351196       0.15291210 </v>
   <v>      -0.47271307       0.00390681       0.32435853 </v>
   <v>      -0.47203459       0.28728868       0.32350001 </v>
   <v>      -0.02095986      -0.48727560       0.06634143 </v>
   <v>       0.46975828       0.14529696       0.24694159 </v>
   <v>       0.00148905      -0.18648804       0.24551520 </v>
   <v>       0.00148905       0.47708196       0.24551520 </v>
   <v>      -0.35781373      -0.35470304       0.27780929 </v>
   <v>      -0.14978043      -0.35722527       0.31343380 </v>
   <v>      -0.04752570      -0.35470304       0.15433850 </v>
   <v>      -0.42969226      -0.34872903       0.16190067 </v>
   <v>       0.12490229       0.14529696       0.18520619 </v>
   <v>       0.08001077      -0.22260004       0.12987220 </v>
   <v>       0.39260062       0.14793790       0.13034103 </v>
   <v>       0.08001077      -0.48680604       0.12987220 </v>
   <v>      -0.02579114      -0.35528416       0.31671542 </v>
   <v>       0.14111112      -0.03262752       0.10709835 </v>
   <v>       0.14009082       0.32192512       0.10744141 </v>
   <v>       0.46427417      -0.17359049       0.32849176 </v>
   <v>       0.11862074       0.14534631       0.33015496 </v>
   <v>       0.46442165       0.46394106       0.32825492 </v>
   <v>      -0.49125482      -0.35470304       0.27609614 </v>
   <v>       0.42486675      -0.22260004       0.19160760 </v>
   <v>       0.42486675      -0.48680604       0.19160760 </v>
   <v>       0.47417723      -0.35470304       0.09088994 </v>
   <v>       0.17433638       0.14522658       0.04752819 </v>
   <v>       0.11203697      -0.21706085       0.29469916 </v>
   <v>       0.11184694      -0.49253805       0.29434733 </v>
   <v>       0.17391704      -0.02291804       0.27638290 </v>
   <v>       0.17391704       0.31351196       0.27638290 </v>
   <v>       0.33631719       0.14529696       0.24522844 </v>
   <v>       0.39345213      -0.48363969       0.03865354 </v>
   <v>       0.39049496      -0.23427933       0.03713736 </v>
   <v>       0.13091141      -0.35304628       0.04648307 </v>
   <v>       0.07723810      -0.35504454       0.38167915 </v>
   <v>       0.34866809      -0.20256962       0.29403302 </v>
   <v>       0.29190188       0.14527263       0.06483136 </v>
   <v>       0.34882088       0.49342386       0.29404140 </v>
   <v>       0.16388920      -0.35470304       0.21436074 </v>
   <v>       0.25243876       0.01319396       0.16073990 </v>
   <v>       0.25243876       0.27739996       0.16073990 </v>
   <v>       0.31177707      -0.18648804       0.12204440 </v>
   <v>       0.31177707       0.47708196       0.12204440 </v>
   <v>       0.29016248      -0.01662767       0.30987130 </v>
   <v>       0.29026093       0.30751032       0.30966956 </v>
   <v>       0.29733028      -0.35470304       0.21607389 </v>
   <v>       0.24783817      -0.35473320       0.07708377 </v>
  </varray>
 </structure>
 <varray name="primitive_index" >
  <v type="int" >        1 </v>
  <v type="int" >       42 </v>
  <v type="int" >       51 </v>
  <v type="int" >       66 </v>
  <v type="int" >       65 </v>
  <v type="int" >       43 </v>
  <v type="int" >       52 </v>
  <v type="int" >        2 </v>
  <v type="int" >       14 </v>
  <v type="int" >       36 </v>
  <v type="int" >       20 </v>
  <v type="int" >       31 </v>
  <v type="int" >       26 </v>
  <v type="int" >       19 </v>
  <v type="int" >       61 </v>
  <v type="int" >       15 </v>
  <v type="int" >       37 </v>
  <v type="int" >       71 </v>
  <v type="int" >       39 </v>
  <v type="int" >       25 </v>
  <v type="int" >       30 </v>
  <v type="int" >       58 </v>
  <v type="int" >       49 </v>
  <v type="int" >       62 </v>
  <v type="int" >       38 </v>
  <v type="int" >       72 </v>
  <v type="int" >       69 </v>
  <v type="int" >       55 </v>
  <v type="int" >       70 </v>
  <v type="int" >       56 </v>
  <v type="int" >       68 </v>
  <v type="int" >        6 </v>
  <v type="int" >       57 </v>
  <v type="int" >       67 </v>
  <v type="int" >       13 </v>
  <v type="int" >       50 </v>
  <v type="int" >        7 </v>
  <v type="int" >       12 </v>
  <v type="int" >       10 </v>
  <v type="int" >       32 </v>
  <v type="int" >        5 </v>
  <v type="int" >       21 </v>
  <v type="int" >        8 </v>
  <v type="int" >       73 </v>
  <v type="int" >       59 </v>
  <v type="int" >       29 </v>
  <v type="int" >       11 </v>
  <v type="int" >       18 </v>
  <v type="int" >       41 </v>
  <v type="int" >       28 </v>
  <v type="int" >       17 </v>
  <v type="int" >       40 </v>
  <v type="int" >        9 </v>
  <v type="int" >       33 </v>
  <v type="int" >       22 </v>
  <v type="int" >       74 </v>
  <v type="int" >       60 </v>
  <v type="int" >       48 </v>
  <v type="int" >       16 </v>
  <v type="int" >       27 </v>
  <v type="int" >       44 </v>
  <v type="int" >       46 </v>
  <v type="int" >       54 </v>
  <v type="int" >       47 </v>
  <v type="int" >       64 </v>
  <v type="int" >       45 </v>
  <v type="int" >       23 </v>
  <v type="int" >       34 </v>
  <v type="int" >       53 </v>
  <v type="int" >       63 </v>
  <v type="int" >       24 </v>
  <v type="int" >       35 </v>
  <v type="int" >        4 </v>
  <v type="int" >        3 </v>
 </varray>
 <kpoints>
  <generation param="Gamma">
   <v type="int" name="divisions">       1        1        1 </v>
   <v name="usershift">      0.00000000       0.00000000       0.00000000 </v>
   <v name="genvec1">      1.00000000       0.00000000       0.00000000 </v>
   <v name="genvec2">      0.00000000       1.00000000       0.00000000 </v>
   <v name="genvec3">      0.00000000       0.00000000       1.00000000 </v>
   <v name="shift">      0.00000000       0.00000000       0.00000000 </v>
  </generation>
  <varray name="kpointlist" >
   <v>       0.00000000       0.00000000       0.00000000 </v>
  </varray>
  <varray name="weights" >
   <v>       1.00000000 </v>
  </varray>
 </kpoints>
 <parameters>
  <separator name="general" >
   <i type="string" name="SYSTEM">"Millerite NiS"</i>
   <i type="logical" name="LCOMPAT"> F  </i>
  </separator>
  <separator name="electronic" >
   <i type="string" name="PREC">normal</i>
   <i name="ENMAX">    450.00000000</i>
   <i name="ENAUG">    703.44300000</i>
   <i name="EDIFF">      0.00010000</i>
   <i type="int" name="IALGO">    38</i>
   <i type="int" name="IWAVPR">    10</i>
   <i type="int" name="NBANDS">   488</i>
   <i name="NELECT">    814.00000000</i>
   <i type="int" name="TURBO">     0</i>
   <i type="int" name="IRESTART">     0</i>
   <i type="int" name="NREBOOT">     0</i>
   <i type="int" name="NMIN">     0</i>
   <i name="EREF">      0.00000000</i>
   <separator name="electronic smearing" >
    <i type="int" name="ISMEAR">     0</i>
    <i name="SIGMA">      0.20000000</i>
    <i name="KSPACING">      0.50000000</i>
    <i type="logical" name="KGAMMA"> T  </i>
   </separator>
   <separator name="electronic projectors" >
    <i type="logical" name="LREAL"> T  </i>
    <v name="ROPT">     -0.00050000     -0.00050000</v>
    <i type="int" name="LMAXPAW">  -100</i>
    <i type="int" name="LMAXMIX">     2</i>
    <i type="logical" name="NLSPLINE"> F  </i>
   </separator>
   <separator name="electronic startup" >
    <i type="int" name="ISTART">     0</i>
    <i type="int" name="ICHARG">     2</i>
    <i type="int" name="INIWAV">     1</i>
   </separator>
   <separator name="electronic spin" >
    <i type="int" name="ISPIN">     1</i>
    <i type="logical" name="LNONCOLLINEAR"> F  </i>
    <v name="MAGMOM">      1.00000000      1.00000000      1.00000000      1.00000000      1.00000000      1.00000000      1.00000000      1.00000000      1.00000000      1.00000000      1.00000000      1.00000000      1.00000000      1.00000000      1.00000000      1.00000000      1.00000000      1.00000000      1.00000000      1.00000000
      1.00000000      1.00000000      1.00000000      1.00000000      1.00000000      1.00000000      1.00000000      1.00000000      1.00000000      1.00000000      1.00000000      1.00000000      1.00000000      1.00000000      1.00000000      1.00000000      1.00000000      1.00000000      1.00000000      1.00000000
      1.00000000      1.00000000      1.00000000      1.00000000      1.00000000      1.00000000      1.00000000      1.00000000      1.00000000      1.00000000      1.00000000      1.00000000      1.00000000      1.00000000      1.00000000      1.00000000      1.00000000      1.00000000      1.00000000      1.00000000
      1.00000000      1.00000000      1.00000000      1.00000000      1.00000000      1.00000000      1.00000000      1.00000000      1.00000000      1.00000000      1.00000000      1.00000000      1.00000000      1.00000000</v>
    <i name="NUPDOWN">     -1.00000000</i>
    <i type="logical" name="LSORBIT"> F  </i>
    <v name="SAXIS">      0.00000000      0.00000000      1.00000000</v>
    <i type="logical" name="LSPIRAL"> F  </i>
    <v name="QSPIRAL">      0.00000000      0.00000000      0.00000000</v>
    <i type="logical" name="LZEROZ"> F  </i>
   </separator>
   <separator name="electronic exchange-correlation" >
    <i type="logical" name="LASPH"> F  </i>
    <i type="logical" name="LMETAGGA"> F  </i>
   </separator>
   <separator name="electronic convergence" >
    <i type="int" name="NELM">   100</i>
    <i type="int" name="NELMDL">    -5</i>
    <i type="int" name="NELMIN">     2</i>
    <i name="ENINI">    450.00000000</i>
    <separator name="electronic convergence detail" >
     <i type="logical" name="LDIAG"> T  </i>
     <i type="logical" name="LSUBROT"> F  </i>
     <i name="WEIMIN">      0.00000000</i>
     <i name="EBREAK">      0.00000005</i>
     <i name="DEPER">      0.30000000</i>
     <i type="int" name="NRMM">     4</i>
     <i name="TIME">      0.40000000</i>
    </separator>
   </separator>
   <separator name="electronic mixer" >
    <i name="AMIX">      0.40000000</i>
    <i name="BMIX">      1.00000000</i>
    <i name="AMIN">      0.10000000</i>
    <i name="AMIX_MAG">      1.60000000</i>
    <i name="BMIX_MAG">      1.00000000</i>
    <separator name="electronic mixer details" >
     <i type="int" name="IMIX">     4</i>
     <i type="logical" name="MIXFIRST"> F  </i>
     <i type="int" name="MAXMIX">   -45</i>
     <i name="WC">    100.00000000</i>
     <i type="int" name="INIMIX">     1</i>
     <i type="int" name="MIXPRE">     1</i>
     <i type="int" name="MREMOVE">     5</i>
    </separator>
   </separator>
   <separator name="electronic dipolcorrection" >
    <i type="logical" name="LDIPOL"> F  </i>
    <i type="logical" name="LMONO"> F  </i>
    <i type="int" name="IDIPOL">     0</i>
    <i name="EPSILON">      1.00000000</i>
    <v name="DIPOL">   -100.00000000   -100.00000000   -100.00000000</v>
    <i name="EFIELD">      0.00000000</i>
   </separator>
  </separator>
  <separator name="grids" >
   <i type="int" name="NGX">    90</i>
   <i type="int" name="NGY">    50</i>
   <i type="int" name="NGZ">    90</i>
   <i type="int" name="NGXF">   180</i>
   <i type="int" name="NGYF">   100</i>
   <i type="int" name="NGZF">   180</i>
   <i type="logical" name="ADDGRID"> F  </i>
  </separator>
  <separator name="ionic" >
   <i type="int" name="NSW">     0</i>
   <i type="int" name="IBRION">    -1</i>
   <i type="int" name="MDALGO">     0</i>
   <i type="int" name="ISIF">     2</i>
   <i name="PSTRESS">      0.00000000</i>
   <i name="EDIFFG">      0.00100000</i>
   <i type="int" name="NFREE">     0</i>
   <i name="POTIM">      0.50000000</i>
   <i name="SMASS">     -3.00000000</i>
   <i name="SCALEE">      1.00000000</i>
  </separator>
  <separator name="ionic md" >
   <i name="TEBEG">      0.00010000</i>
   <i name="TEEND">      0.00010000</i>
   <i type="int" name="NBLOCK">     1</i>
   <i type="int" name="KBLOCK">     1</i>
   <i type="int" name="NPACO">   256</i>
   <i name="APACO">     16.00000000</i>
  </separator>
  <separator name="symmetry" >
   <i type="int" name="ISYM">     2</i>
   <i name="SYMPREC">      0.00001000</i>
  </separator>
  <separator name="dos" >
   <i type="int" name="LORBIT">     0</i>
   <v name="RWIGS">     -1.00000000     -1.00000000</v>
   <i type="int" name="NEDOS">   301</i>
   <i name="EMIN">     10.00000000</i>
   <i name="EMAX">    -10.00000000</i>
   <i name="EFERMI">      0.00000000</i>
  </separator>
  <separator name="writing" >
   <i type="int" name="NWRITE">     2</i>
   <i type="logical" name="LWAVE"> F  </i>
   <i type="logical" name="LDOWNSAMPLE"> F  </i>
   <i type="logical" name="LCHARG"> F  </i>
   <i type="logical" name="LPARD"> F  </i>
   <i type="logical" name="LVTOT"> F  </i>
   <i type="logical" name="LVHAR"> F  </i>
   <i type="logical" name="LELF"> F  </i>
   <i type="logical" name="LOPTICS"> F  </i>
   <v name="STM">      0.00000000      0.00000000      0.00000000      0.00000000      0.00000000      0.00000000      0.00000000</v>
  </separator>
  <separator name="performance" >
   <i type="int" name="NPAR">     2</i>
   <i type="int" name="NSIM">     4</i>
   <i type="int" name="NBLK">    -1</i>
   <i type="logical" name="LPLANE"> T  </i>
   <i type="logical" name="LSCALAPACK"> T  </i>
   <i type="logical" name="LSCAAWARE"> F  </i>
   <i type="logical" name="LSCALU"> F  </i>
   <i type="logical" name="LASYNC"> F  </i>
   <i type="logical" name="LORBITALREAL"> F  </i>
  </separator>
  <separator name="miscellaneous" >
   <i type="int" name="IDIOT">     3</i>
   <i type="int" name="ISPECIAL">     0</i>
   <i type="logical" name="LMUSIC"> F  </i>
   <v name="POMASS">     58.69000000     32.06600000</v>
   <v name="DARWINR">      0.00000000      0.00000000</v>
   <v name="DARWINV">      1.00000000      1.00000000</v>
   <i type="logical" name="LCORR"> T  </i>
  </separator>
  <i type="logical" name="GGA_COMPAT"> T  </i>
  <i type="logical" name="LBERRY"> F  </i>
  <i type="int" name="ICORELEVEL">     0</i>
  <i type="logical" name="LDAU"> F  </i>
  <i type="int" name="I_CONSTRAINED_M">     0</i>
  <separator name="electronic exchange-correlation" >
   <i type="string" name="GGA">--</i>
   <i type="int" name="VOSKOWN">     0</i>
   <i type="logical" name="LHFCALC"> F  </i>
   <i type="string" name="PRECFOCK"></i>
   <i type="logical" name="LSYMGRAD"> F  </i>
   <i type="logical" name="LHFONE"> F  </i>
   <i type="logical" name="LRHFCALC"> F  </i>
   <i type="logical" name="LTHOMAS"> F  </i>
   <i type="logical" name="LMODELHF"> F  </i>
   <i name="ENCUT4O">     -1.00000000</i>
   <i type="int" name="EXXOEP">     0</i>
   <i type="int" name="FOURORBIT">     0</i>
   <i name="AEXX">      0.00000000</i>
   <i name="HFALPHA">      0.00000000</i>
   <i name="MCALPHA">      0.00000000</i>
   <i name="ALDAX">      1.00000000</i>
   <i name="AGGAX">      1.00000000</i>
   <i name="ALDAC">      1.00000000</i>
   <i name="AGGAC">      1.00000000</i>
   <i type="int" name="NKREDX">     1</i>
   <i type="int" name="NKREDY">     1</i>
   <i type="int" name="NKREDZ">     1</i>
   <i type="logical" name="SHIFTRED"> F  </i>
   <i type="logical" name="ODDONLY"> F  </i>
   <i type="logical" name="EVENONLY"> F  </i>
   <i type="int" name="LMAXFOCK">     0</i>
   <i type="int" name="NMAXFOCKAE">     0</i>
   <i type="logical" name="LFOCKAEDFT"> F  </i>
   <i name="HFSCREEN">      0.00000000</i>
   <i name="HFSCREENC">      0.00000000</i>
   <i type="int" name="NBANDSGWLOW">     0</i>
  </separator>
  <separator name="vdW DFT" >
   <i type="logical" name="LUSE_VDW"> F  </i>
   <i name="Zab_VDW">     -0.84910000</i>
   <i name="PARAM1">      0.12340000</i>
   <i name="PARAM2">      1.00000000</i>
   <i name="PARAM3">      0.00000000</i>
  </separator>
  <separator name="model GW" >
   <i type="int" name="MODEL_GW">     0</i>
   <i name="MODEL_EPS0">     21.83944246</i>
   <i name="MODEL_ALPHA">      1.00000000</i>
  </separator>
  <separator name="linear response parameters" >
   <i type="logical" name="LEPSILON"> F  </i>
   <i type="logical" name="LRPA"> F  </i>
   <i type="logical" name="LNABLA"> F  </i>
   <i type="logical" name="LVEL"> F  </i>
   <i type="int" name="KINTER">     0</i>
   <i name="CSHIFT">      0.10000000</i>
   <i name="OMEGAMAX">     -1.00000000</i>
   <i name="DEG_THRESHOLD">      0.00200000</i>
   <i name="RTIME">     -0.10000000</i>
   <i name="WPLASMAI">      0.00000000</i>
   <v name="DFIELD">      0.00000000      0.00000000      0.00000000</v>
   <v name="WPLASMA">      0.00000000      0.00000000      0.00000000      0.00000000      0.00000000      0.00000000      0.00000000      0.00000000      0.00000000</v>
  </separator>
  <separator name="orbital magnetization" >
   <i type="logical" name="NUCIND"> F  </i>
   <v name="MAGPOS">      0.00000000      0.00000000      0.00000000</v>
   <i type="logical" name="LNICSALL"> T  </i>
   <i type="logical" name="ORBITALMAG"> F  </i>
   <i type="logical" name="LMAGBLOCH"> F  </i>
   <i type="logical" name="LCHIMAG"> F  </i>
   <i type="logical" name="LGAUGE"> T  </i>
   <i type="int" name="MAGATOM">     0</i>
   <v name="MAGDIPOL">      0.00000000      0.00000000      0.00000000</v>
   <v name="AVECCONST">      0.00000000      0.00000000      0.00000000</v>
  </separator>
  <separator name="response functions" >
   <i type="logical" name="LADDER"> F  </i>
   <i type="logical" name="LRPAFORCE"> F  </i>
   <i type="logical" name="LFXC"> F  </i>
   <i type="logical" name="LHARTREE"> T  </i>
   <i type="int" name="IBSE">     0</i>
   <v type="int" name="KPOINT">    -1     0     0     0</v>
   <i type="logical" name="LTCTE"> F  </i>
   <i type="logical" name="LTETE"> F  </i>
   <i type="logical" name="LTRIPLET"> F  </i>
   <i type="logical" name="LFXCEPS"> F  </i>
   <i type="logical" name="LFXHEG"> F  </i>
   <i type="int" name="NATURALO">     2</i>
   <i type="logical" name="L2ORDER"> F  </i>
   <i type="logical" name="LMP2LT"> F  </i>
   <i type="logical" name="LUSEW"> F  </i>
   <i name="ENCUTGW">     -2.00000000</i>
   <i name="ENCUTGWSOFT">     -2.00000000</i>
   <i name="ENCUTLF">     -1.00000000</i>
   <i type="int" name="LMAXMP2">    -1</i>
   <i name="SCISSOR">      0.00000000</i>
   <i type="int" name="NOMEGA">     0</i>
   <i type="int" name="NOMEGAR">     0</i>
   <i type="int" name="NBANDSGW">    -1</i>
   <i type="int" name="NBANDSO">    -1</i>
   <i type="int" name="NBANDSV">    -1</i>
   <i type="int" name="NELM">   100</i>
   <i type="int" name="NELMHF">     1</i>
   <i type="int" name="DIM">     3</i>
   <i type="int" name="ANTIRES">     0</i>
   <i name="OMEGAMAX">    -30.00000000</i>
   <i name="OMEGAMIN">    -30.00000000</i>
   <i name="OMEGATL">   -200.00000000</i>
   <i type="int" name="OMEGAGRID">   140</i>
   <i name="CSHIFT">     -0.10000000</i>
   <i type="logical" name="SELFENERGY"> F  </i>
   <i type="logical" name="LSPECTRAL"> F  </i>
   <i type="logical" name="LSPECTRALGW"> F  </i>
   <i type="logical" name="LSINGLES"> F  </i>
   <i type="logical" name="LFERMIGW"> F  </i>
   <i type="logical" name="ODDONLYGW"> F  </i>
   <i type="logical" name="EVENONLYGW"> F  </i>
   <i type="int" name="NKREDLFX">     1</i>
   <i type="int" name="NKREDLFY">     1</i>
   <i type="int" name="NKREDLFZ">     1</i>
   <i type="int" name="MAXMEM">  2800</i>
   <i type="int" name="TELESCOPE">     0</i>
   <i type="int" name="TAUPAR">     1</i>
   <i type="int" name="OMEGAPAR">    -1</i>
   <i name="LAMBDA">      1.00000000</i>
  </separator>
  <separator name="External order field" >
   <i name="OFIELD_KAPPA">      0.00000000</i>
   <v name="OFIELD_K">      0.00000000      0.00000000      0.00000000</v>
   <i name="OFIELD_Q6_NEAR">      0.00000000</i>
   <i name="OFIELD_Q6_FAR">      0.00000000</i>
   <i name="OFIELD_A">      0.00000000</i>
  </separator>
 </parameters>
 <atominfo>
  <atoms>      74 </atoms>
  <types>       2 </types>
  <array name="atoms" >
   <dimension dim="1">ion</dimension>
   <field type="string">element</field>
   <field type="int">atomtype</field>
   <set>
    <rc><c>Ni</c><c>   1</c></rc>
    <rc><c>Ni</c><c>   1</c></rc>
    <rc><c>Ni</c><c>   1</c></rc>
    <rc><c>Ni</c><c>   1</c></rc>
    <rc><c>Ni</c><c>   1</c></rc>
    <rc><c>Ni</c><c>   1</c></rc>
    <rc><c>Ni</c><c>   1</c></rc>
    <rc><c>Ni</c><c>   1</c></rc>
    <rc><c>Ni</c><c>   1</c></rc>
    <rc><c>Ni</c><c>   1</c></rc>
    <rc><c>Ni</c><c>   1</c></rc>
    <rc><c>Ni</c><c>   1</c></rc>
    <rc><c>Ni</c><c>   1</c></rc>
    <rc><c>Ni</c><c>   1</c></rc>
    <rc><c>Ni</c><c>   1</c></rc>
    <rc><c>Ni</c><c>   1</c></rc>
    <rc><c>Ni</c><c>   1</c></rc>
    <rc><c>Ni</c><c>   1</c></rc>
    <rc><c>Ni</c><c>   1</c></rc>
    <rc><c>Ni</c><c>   1</c></rc>
    <rc><c>Ni</c><c>   1</c></rc>
    <rc><c>Ni</c><c>   1</c></rc>
    <rc><c>Ni</c><c>   1</c></rc>
    <rc><c>Ni</c><c>   1</c></rc>
    <rc><c>Ni</c><c>   1</c></rc>
    <rc><c>Ni</c><c>   1</c></rc>
    <rc><c>Ni</c><c>   1</c></rc>
    <rc><c>Ni</c><c>   1</c></rc>
    <rc><c>Ni</c><c>   1</c></rc>
    <rc><c>Ni</c><c>   1</c></rc>
    <rc><c>Ni</c><c>   1</c></rc>
    <rc><c>Ni</c><c>   1</c></rc>
    <rc><c>Ni</c><c>   1</c></rc>
    <rc><c>Ni</c><c>   1</c></rc>
    <rc><c>Ni</c><c>   1</c></rc>
    <rc><c>Ni</c><c>   1</c></rc>
    <rc><c>Ni</c><c>   1</c></rc>
    <rc><c>S </c><c>   2</c></rc>
    <rc><c>S </c><c>   2</c></rc>
    <rc><c>S </c><c>   2</c></rc>
    <rc><c>S </c><c>   2</c></rc>
    <rc><c>S </c><c>   2</c></rc>
    <rc><c>S </c><c>   2</c></rc>
    <rc><c>S </c><c>   2</c></rc>
    <rc><c>S </c><c>   2</c></rc>
    <rc><c>S </c><c>   2</c></rc>
    <rc><c>S </c><c>   2</c></rc>
    <rc><c>S </c><c>   2</c></rc>
    <rc><c>S </c><c>   2</c></rc>
    <rc><c>S </c><c>   2</c></rc>
    <rc><c>S </c><c>   2</c></rc>
    <rc><c>S </c><c>   2</c></rc>
    <rc><c>S </c><c>   2</c></rc>
    <rc><c>S </c><c>   2</c></rc>
    <rc><c>S </c><c>   2</c></rc>
    <rc><c>S </c><c>   2</c></rc>
    <rc><c>S </c><c>   2</c></rc>
    <rc><c>S </c><c>   2</c></rc>
    <rc><c>S </c><c>   2</c></rc>
    <rc><c>S </c><c>   2</c></rc>
    <rc><c>S </c><c>   2</c></rc>
    <rc><c>S </c><c>   2</c></rc>
    <rc><c>S </c><c>   2</c></rc>
    <rc><c>S </c><c>   2</c></rc>
    <rc><c>S </c><c>   2</c></rc>
    <rc><c>S </c><c>   2</c></rc>
    <rc><c>S </c><c>   2</c></rc>
    <rc><c>S </c><c>   2</c></rc>
    <rc><c>S </c><c>   2</c></rc>
    <rc><c>S </c><c>   2</c></rc>
    <rc><c>S </c><c>   2</c></rc>
    <rc><c>S </c><c>   2</c></rc>
    <rc><c>S </c><c>   2</c></rc>
    <rc><c>S </c><c>   2</c></rc>
   </set>
  </array>
  <array name="atomtypes" >
   <dimension dim="1">type</dimension>
   <field type="int">atomspertype</field>
   <field type="string">element</field>
   <field>mass</field>
   <field>valence</field>
   <field type="string">pseudopotential</field>
   <set>
    <rc><c>  37</c><c>Ni</c><c>     58.69000000</c><c>     16.00000000</c><c>  PAW_PBE Ni_pv 06Sep2000               </c></rc>
    <rc><c>  37</c><c>S </c><c>     32.06600000</c><c>      6.00000000</c><c>  PAW_PBE S 06Sep2000                   </c></rc>
   </set>
  </array>
 </atominfo>
 <structure name="initialpos" >
  <crystal>
   <varray name="basis" >
    <v>      16.88469405       0.00000000       0.00000000 </v>
    <v>       0.00000000       9.57841000       0.00000000 </v>
    <v>       0.00000000       0.00000000      16.65464569 </v>
   </varray>
   <i name="volume">   2693.53123734 </i>
   <varray name="rec_basis" >
    <v>       0.05922524       0.00000000       0.00000000 </v>
    <v>       0.00000000       0.10440146       0.00000000 </v>
    <v>       0.00000000       0.00000000       0.06004331 </v>
   </varray>
  </crystal>
  <varray name="positions" >
   <v>       0.76739128       0.14021337       0.15278760 </v>
   <v>       0.81903272       0.15288575       0.28789305 </v>
   <v>       0.24783817       0.64526680       0.07708377 </v>
   <v>       0.29733028       0.64529696       0.21607389 </v>
   <v>       0.39260062       0.14793790       0.13034103 </v>
   <v>       0.46975828       0.14529696       0.24694159 </v>
   <v>       0.95247430       0.64529696       0.15433850 </v>
   <v>       0.97420886       0.64471584       0.31671542 </v>
   <v>       0.17433638       0.14522658       0.04752819 </v>
   <v>       0.12490229       0.14529696       0.18520619 </v>
   <v>       0.11862074       0.14534631       0.33015496 </v>
   <v>       0.57030774       0.65127097       0.16190067 </v>
   <v>       0.64218627       0.64529696       0.27780929 </v>
   <v>       0.89788019       0.02037145       0.10909615 </v>
   <v>       0.95189941       0.01805640       0.24853577 </v>
   <v>       0.39345213       0.51636031       0.03865354 </v>
   <v>       0.42486675       0.51319396       0.19160760 </v>
   <v>       0.46442165       0.46394106       0.32825492 </v>
   <v>       0.60200119       0.93083197       0.09286280 </v>
   <v>       0.59729475       0.01319396       0.22247530 </v>
   <v>       0.08001077       0.51319396       0.12987220 </v>
   <v>       0.11184694       0.50746195       0.29434733 </v>
   <v>       0.25243876       0.01319396       0.16073990 </v>
   <v>       0.29016248       0.98337233       0.30987130 </v>
   <v>       0.76972274       0.51319396       0.25334300 </v>
   <v>       0.94472769       0.27576009       0.23407567 </v>
   <v>       0.39049496       0.76572067       0.03713736 </v>
   <v>       0.42486675       0.77739996       0.19160760 </v>
   <v>       0.46427417       0.82640951       0.32849176 </v>
   <v>       0.53059290       0.14963505       0.09062090 </v>
   <v>       0.59729475       0.27739996       0.22247530 </v>
   <v>       0.08001077       0.77739996       0.12987220 </v>
   <v>       0.11203697       0.78293915       0.29469916 </v>
   <v>       0.25243876       0.27739996       0.16073990 </v>
   <v>       0.29026093       0.30751032       0.30966956 </v>
   <v>       0.76591131       0.86380319       0.12077135 </v>
   <v>       0.76972274       0.77739996       0.25334300 </v>
   <v>       0.99828205       0.16481286       0.32600652 </v>
   <v>       0.99800024       0.13519304       0.15372523 </v>
   <v>       0.47417723       0.64529696       0.09088994 </v>
   <v>       0.50874518       0.64529696       0.27609614 </v>
   <v>       0.64660522       0.14529696       0.12175764 </v>
   <v>       0.69441351       0.14910127       0.26750647 </v>
   <v>       0.13091141       0.64695372       0.04648307 </v>
   <v>       0.16388920       0.64529696       0.21436074 </v>
   <v>       0.07723810       0.64495546       0.38167915 </v>
   <v>       0.29190188       0.14527263       0.06483136 </v>
   <v>       0.33631719       0.14529696       0.24522844 </v>
   <v>       0.82080003       0.66720708       0.15746795 </v>
   <v>       0.85021957       0.64277473       0.31343380 </v>
   <v>       0.85122835       0.20548066       0.06572898 </v>
   <v>       0.82440752       0.32526317       0.21677210 </v>
   <v>       0.31177707       0.81351196       0.12204440 </v>
   <v>       0.34866809       0.79743038       0.29403302 </v>
   <v>       0.48420507       0.31351196       0.15291210 </v>
   <v>       0.52796541       0.28728868       0.32350001 </v>
   <v>       0.00148905       0.81351196       0.24551520 </v>
   <v>       0.96541906       0.83253088       0.08969128 </v>
   <v>       0.14009082       0.32192512       0.10744141 </v>
   <v>       0.17391704       0.31351196       0.27638290 </v>
   <v>       0.65663306       0.81351196       0.18377980 </v>
   <v>       0.69429050       0.79456137       0.34726521 </v>
   <v>       0.31177707       0.47708196       0.12204440 </v>
   <v>       0.34882088       0.49342386       0.29404140 </v>
   <v>       0.79076432       0.01735621       0.04182737 </v>
   <v>       0.82906105       0.97708196       0.21464750 </v>
   <v>       0.00148905       0.47708196       0.24551520 </v>
   <v>       0.97904014       0.51272440       0.06634143 </v>
   <v>       0.48420507       0.97708196       0.15291210 </v>
   <v>       0.52728693       0.00390681       0.32435853 </v>
   <v>       0.65079846       0.48070692       0.19619771 </v>
   <v>       0.70050412       0.50975638       0.35131469 </v>
   <v>       0.14111112       0.96737248       0.10709835 </v>
   <v>       0.17391704       0.97708196       0.27638290 </v>
  </varray>
 </structure>
 <calculation>
  <scstep>
   <time name="dav">    9.44    9.45</time>
   <time name="total">    9.81    9.82</time>
   <energy>
    <i name="alphaZ">   1458.83996183 </i>
    <i name="ewald"> 165837.76707813 </i>
    <i name="hartreedc">-289465.22596705 </i>
    <i name="XCdc">   3784.43018992 </i>
    <i name="pawpsdc"> 115860.90926010 </i>
    <i name="pawaedc">-120909.33166199 </i>
    <i name="eentropy">     -0.55198970 </i>
    <i name="bandstr">  -7197.96068302 </i>
    <i name="atom"> 139780.45519414 </i>
    <i name="e_fr_energy">   9149.33138236 </i>
    <i name="e_wo_entrp">   9149.88337206 </i>
    <i name="e_0_energy">   9149.60737721 </i>
   </energy>
  </scstep>
  <scstep>
   <time name="dav">    8.31    8.31</time>
   <time name="total">    8.32    8.32</time>
   <energy>
    <i name="e_fr_energy">    495.95138614 </i>
    <i name="e_wo_entrp">    496.63347678 </i>
    <i name="e_0_energy">    496.29243146 </i>
   </energy>
  </scstep>
  <scstep>
   <time name="dav">    9.12    9.12</time>
   <time name="total">    9.12    9.12</time>
   <energy>
    <i name="e_fr_energy">   -354.96704563 </i>
    <i name="e_wo_entrp">   -353.68261019 </i>
    <i name="e_0_energy">   -354.32482791 </i>
   </energy>
  </scstep>
  <scstep>
   <time name="dav">    8.84    8.84</time>
   <time name="total">    8.84    8.85</time>
   <energy>
    <i name="e_fr_energy">   -398.62140611 </i>
    <i name="e_wo_entrp">   -397.35803320 </i>
    <i name="e_0_energy">   -397.98971965 </i>
   </energy>
  </scstep>
  <scstep>
   <time name="dav">    9.72    9.72</time>
   <time name="total">   10.03   10.04</time>
   <energy>
    <i name="e_fr_energy">   -400.21598353 </i>
    <i name="e_wo_entrp">   -398.95848396 </i>
    <i name="e_0_energy">   -399.58723375 </i>
   </energy>
  </scstep>
  <scstep>
   <time name="dav">    9.57    9.58</time>
   <time name="total">   10.25   10.25</time>
   <energy>
    <i name="e_fr_energy">   -466.28597905 </i>
    <i name="e_wo_entrp">   -465.44656366 </i>
    <i name="e_0_energy">   -465.86627136 </i>
   </energy>
  </scstep>
  <scstep>
   <time name="dav">    8.86    8.86</time>
   <time name="total">    9.53    9.53</time>
   <energy>
    <i name="e_fr_energy">   -367.79119241 </i>
    <i name="e_wo_entrp">   -366.76234068 </i>
    <i name="e_0_energy">   -367.27676654 </i>
   </energy>
  </scstep>
  <scstep>
   <time name="dav">   10.15   10.15</time>
   <time name="total">   10.82   10.82</time>
   <energy>
    <i name="e_fr_energy">   -431.75786292 </i>
    <i name="e_wo_entrp">   -430.78361847 </i>
    <i name="e_0_energy">   -431.27074069 </i>
   </energy>
  </scstep>
  <scstep>
   <time name="dav">   10.34   10.36</time>
   <time name="total">   11.01   11.02</time>
   <energy>
    <i name="e_fr_energy">   -369.17364227 </i>
    <i name="e_wo_entrp">   -368.02561107 </i>
    <i name="e_0_energy">   -368.59962667 </i>
   </energy>
  </scstep>
  <scstep>
   <time name="dav">   10.16   10.16</time>
   <time name="total">   10.83   10.84</time>
   <energy>
    <i name="e_fr_energy">   -382.87274309 </i>
    <i name="e_wo_entrp">   -381.62289057 </i>
    <i name="e_0_energy">   -382.24781683 </i>
   </energy>
  </scstep>
  <scstep>
   <time name="dav">   10.29   10.29</time>
   <time name="total">   10.97   10.97</time>
   <energy>
    <i name="e_fr_energy">   -361.79020689 </i>
    <i name="e_wo_entrp">   -360.81015524 </i>
    <i name="e_0_energy">   -361.30018106 </i>
   </energy>
  </scstep>
  <scstep>
   <time name="dav">   10.32   10.32</time>
   <time name="total">   11.00   11.00</time>
   <energy>
    <i name="e_fr_energy">   -360.23785755 </i>
    <i name="e_wo_entrp">   -359.12005866 </i>
    <i name="e_0_energy">   -359.67895810 </i>
   </energy>
  </scstep>
  <scstep>
   <time name="dav">   10.07   10.08</time>
   <time name="total">   10.75   10.75</time>
   <energy>
    <i name="e_fr_energy">   -353.85946609 </i>
    <i name="e_wo_entrp">   -352.72720849 </i>
    <i name="e_0_energy">   -353.29333729 </i>
   </energy>
  </scstep>
  <scstep>
   <time name="dav">   10.05   10.05</time>
   <time name="total">   10.73   10.73</time>
   <energy>
    <i name="e_fr_energy">   -350.56044029 </i>
    <i name="e_wo_entrp">   -349.31908866 </i>
    <i name="e_0_energy">   -349.93976448 </i>
   </energy>
  </scstep>
  <scstep>
   <time name="dav">   10.15   10.16</time>
   <time name="total">   10.82   10.83</time>
   <energy>
    <i name="e_fr_energy">   -350.32346034 </i>
    <i name="e_wo_entrp">   -349.09259959 </i>
    <i name="e_0_energy">   -349.70802997 </i>
   </energy>
  </scstep>
  <scstep>
   <time name="dav">    9.63    9.63</time>
   <time name="total">   10.32   10.32</time>
   <energy>
    <i name="e_fr_energy">   -349.92024013 </i>
    <i name="e_wo_entrp">   -348.67680342 </i>
    <i name="e_0_energy">   -349.29852177 </i>
   </energy>
  </scstep>
  <scstep>
   <time name="dav">    9.86    9.87</time>
   <time name="total">   10.54   10.55</time>
   <energy>
    <i name="e_fr_energy">   -349.79137655 </i>
    <i name="e_wo_entrp">   -348.52280763 </i>
    <i name="e_0_energy">   -349.15709209 </i>
   </energy>
  </scstep>
  <scstep>
   <time name="dav">   10.88   10.88</time>
   <time name="total">   11.58   11.58</time>
   <energy>
    <i name="e_fr_energy">   -349.43712870 </i>
    <i name="e_wo_entrp">   -348.16388859 </i>
    <i name="e_0_energy">   -348.80050864 </i>
   </energy>
  </scstep>
  <scstep>
   <time name="dav">    9.90    9.90</time>
   <time name="total">   10.60   10.60</time>
   <energy>
    <i name="e_fr_energy">   -349.25394270 </i>
    <i name="e_wo_entrp">   -347.97835155 </i>
    <i name="e_0_energy">   -348.61614712 </i>
   </energy>
  </scstep>
  <scstep>
   <time name="dav">   10.26   10.26</time>
   <time name="total">   10.94   10.95</time>
   <energy>
    <i name="e_fr_energy">   -349.15776740 </i>
    <i name="e_wo_entrp">   -347.85292697 </i>
    <i name="e_0_energy">   -348.50534719 </i>
   </energy>
  </scstep>
  <scstep>
   <time name="dav">    8.88    8.88</time>
   <time name="total">    9.67    9.68</time>
   <energy>
    <i name="e_fr_energy">   -349.11932901 </i>
    <i name="e_wo_entrp">   -347.81919877 </i>
    <i name="e_0_energy">   -348.46926389 </i>
   </energy>
  </scstep>
  <scstep>
   <time name="dav">    8.52    8.52</time>
   <time name="total">    9.28    9.28</time>
   <energy>
    <i name="e_fr_energy">   -349.11846391 </i>
    <i name="e_wo_entrp">   -347.80761642 </i>
    <i name="e_0_energy">   -348.46304017 </i>
   </energy>
  </scstep>
  <scstep>
   <time name="dav">    9.39    9.40</time>
   <time name="total">   10.09   10.09</time>
   <energy>
    <i name="e_fr_energy">   -349.10689637 </i>
    <i name="e_wo_entrp">   -347.80622342 </i>
    <i name="e_0_energy">   -348.45655989 </i>
   </energy>
  </scstep>
  <scstep>
   <time name="dav">   10.25   10.25</time>
   <time name="total">   10.94   10.95</time>
   <energy>
    <i name="e_fr_energy">   -349.05626047 </i>
    <i name="e_wo_entrp">   -347.76191573 </i>
    <i name="e_0_energy">   -348.40908810 </i>
   </energy>
  </scstep>
  <scstep>
   <time name="dav">    9.54    9.54</time>
   <time name="total">   10.23   10.23</time>
   <energy>
    <i name="e_fr_energy">   -349.07247405 </i>
    <i name="e_wo_entrp">   -347.78110077 </i>
    <i name="e_0_energy">   -348.42678741 </i>
   </energy>
  </scstep>
  <scstep>
   <time name="dav">   10.38   10.38</time>
   <time name="total">   11.07   11.08</time>
   <energy>
    <i name="e_fr_energy">   -349.04387981 </i>
    <i name="e_wo_entrp">   -347.75472154 </i>
    <i name="e_0_energy">   -348.39930068 </i>
   </energy>
  </scstep>
  <scstep>
   <time name="dav">    9.62    9.62</time>
   <time name="total">   10.32   10.32</time>
   <energy>
    <i name="e_fr_energy">   -349.04474377 </i>
    <i name="e_wo_entrp">   -347.75884241 </i>
    <i name="e_0_energy">   -348.40179309 </i>
   </energy>
  </scstep>
  <scstep>
   <time name="dav">    9.19    9.19</time>
   <time name="total">    9.89    9.90</time>
   <energy>
    <i name="e_fr_energy">   -349.04268310 </i>
    <i name="e_wo_entrp">   -347.75623469 </i>
    <i name="e_0_energy">   -348.39945889 </i>
   </energy>
  </scstep>
  <scstep>
   <time name="dav">   10.10   10.11</time>
   <time name="total">   10.80   10.80</time>
   <energy>
    <i name="e_fr_energy">   -349.04282705 </i>
    <i name="e_wo_entrp">   -347.75698588 </i>
    <i name="e_0_energy">   -348.39990646 </i>
   </energy>
  </scstep>
  <scstep>
   <time name="dav">    8.68    8.68</time>
   <time name="total">    9.39    9.39</time>
   <energy>
    <i name="e_fr_energy">   -349.04258694 </i>
    <i name="e_wo_entrp">   -347.75625756 </i>
    <i name="e_0_energy">   -348.39942225 </i>
   </energy>
  </scstep>
  <scstep>
   <time name="dav">    8.77    8.77</time>
   <time name="total">    9.46    9.47</time>
   <energy>
    <i name="e_fr_energy">   -349.04288225 </i>
    <i name="e_wo_entrp">   -347.75598701 </i>
    <i name="e_0_energy">   -348.39943463 </i>
   </energy>
  </scstep>
  <scstep>
   <time name="dav">    7.86    7.86</time>
   <time name="total">    8.57    8.57</time>
   <energy>
    <i name="e_fr_energy">   -349.04319766 </i>
    <i name="e_wo_entrp">   -347.75708414 </i>
    <i name="e_0_energy">   -348.40014090 </i>
   </energy>
  </scstep>
  <scstep>
   <time name="dav">    7.36    7.36</time>
   <time name="total">    8.08    8.08</time>
   <energy>
    <i name="e_fr_energy">   -349.04354346 </i>
    <i name="e_wo_entrp">   -347.75607909 </i>
    <i name="e_0_energy">   -348.39981128 </i>
   </energy>
  </scstep>
  <scstep>
   <time name="dav">    6.94    6.94</time>
   <time name="total">    7.82    7.82</time>
   <energy>
    <i name="e_fr_energy">   -349.04411456 </i>
    <i name="e_wo_entrp">   -347.75816527 </i>
    <i name="e_0_energy">   -348.40113991 </i>
   </energy>
  </scstep>
  <scstep>
   <time name="dav">    5.82    5.82</time>
   <time name="total">    6.54    6.54</time>
   <energy>
    <i name="e_fr_energy">   -349.04424587 </i>
    <i name="e_wo_entrp">   -347.75746911 </i>
    <i name="e_0_energy">   -348.40085749 </i>
   </energy>
  </scstep>
  <scstep>
   <time name="dav">    5.67    5.67</time>
   <time name="total">    6.38    6.39</time>
   <energy>
    <i name="e_fr_energy">   -349.04459157 </i>
    <i name="e_wo_entrp">   -347.75782282 </i>
    <i name="e_0_energy">   -348.40120720 </i>
   </energy>
  </scstep>
  <scstep>
   <time name="dav">    5.67    5.67</time>
   <time name="total">    6.40    6.40</time>
   <energy>
    <i name="e_fr_energy">   -349.04491960 </i>
    <i name="e_wo_entrp">   -347.75821465 </i>
    <i name="e_0_energy">   -348.40156712 </i>
   </energy>
  </scstep>
  <scstep>
   <time name="dav">    6.44    6.44</time>
   <time name="total">    7.17    7.17</time>
   <energy>
    <i name="e_fr_energy">   -349.04566790 </i>
    <i name="e_wo_entrp">   -347.75876511 </i>
    <i name="e_0_energy">   -348.40221651 </i>
   </energy>
  </scstep>
  <scstep>
   <time name="dav">    5.72    5.72</time>
   <time name="total">    6.58    6.58</time>
   <energy>
    <i name="e_fr_energy">   -349.04620272 </i>
    <i name="e_wo_entrp">   -347.75928338 </i>
    <i name="e_0_energy">   -348.40274305 </i>
   </energy>
  </scstep>
  <scstep>
   <time name="dav">    6.00    6.01</time>
   <time name="total">    6.74    6.74</time>
   <energy>
    <i name="e_fr_energy">   -349.04665300 </i>
    <i name="e_wo_entrp">   -347.76002825 </i>
    <i name="e_0_energy">   -348.40334062 </i>
   </energy>
  </scstep>
  <scstep>
   <time name="dav">    5.66    5.67</time>
   <time name="total">    6.40    6.41</time>
   <energy>
    <i name="e_fr_energy">   -349.04682335 </i>
    <i name="e_wo_entrp">   -347.76008988 </i>
    <i name="e_0_energy">   -348.40345661 </i>
   </energy>
  </scstep>
  <scstep>
   <time name="dav">    5.61    5.62</time>
   <time name="total">    6.37    6.37</time>
   <energy>
    <i name="e_fr_energy">   -349.04696836 </i>
    <i name="e_wo_entrp">   -347.76030900 </i>
    <i name="e_0_energy">   -348.40363868 </i>
   </energy>
  </scstep>
  <scstep>
   <time name="dav">    5.58    5.59</time>
   <time name="total">    6.33    6.33</time>
   <energy>
    <i name="e_fr_energy">   -349.04717662 </i>
    <i name="e_wo_entrp">   -347.76054746 </i>
    <i name="e_0_energy">   -348.40386204 </i>
   </energy>
  </scstep>
  <scstep>
   <time name="dav">    5.74    5.74</time>
   <time name="total">    6.66    6.66</time>
   <energy>
    <i name="e_fr_energy">   -349.04728709 </i>
    <i name="e_wo_entrp">   -347.76063041 </i>
    <i name="e_0_energy">   -348.40395875 </i>
   </energy>
  </scstep>
  <scstep>
   <time name="dav">    5.59    5.59</time>
   <time name="total">    6.36    6.36</time>
   <energy>
    <i name="e_fr_energy">   -349.04742123 </i>
    <i name="e_wo_entrp">   -347.76074708 </i>
    <i name="e_0_energy">   -348.40408416 </i>
   </energy>
  </scstep>
  <scstep>
   <time name="dav">    5.75    5.75</time>
   <time name="total">    6.12    6.12</time>
   <energy>
    <i name="alphaZ">   1458.83996183 </i>
    <i name="ewald"> 165837.76707813 </i>
    <i name="hartreedc">-288922.37660665 </i>
    <i name="XCdc">   3755.78138583 </i>
    <i name="pawpsdc"> 144984.58890505 </i>
    <i name="pawaedc">-150114.58641397 </i>
    <i name="eentropy">     -1.28667783 </i>
    <i name="bandstr"> -17128.23028181 </i>
    <i name="atom"> 139780.45519414 </i>
    <i name="e_fr_energy">   -349.04745527 </i>
    <i name="e_wo_entrp">   -347.76077744 </i>
    <i name="e_0_energy">   -348.40411636 </i>
   </energy>
  </scstep>
  <structure>
   <crystal>
    <varray name="basis" >
     <v>      16.88469405       0.00000000       0.00000000 </v>
     <v>       0.00000000       9.57841000       0.00000000 </v>
     <v>       0.00000000       0.00000000      16.65464569 </v>
    </varray>
    <i name="volume">   2693.53123734 </i>
    <varray name="rec_basis" >
     <v>       0.05922524       0.00000000       0.00000000 </v>
     <v>       0.00000000       0.10440146       0.00000000 </v>
     <v>       0.00000000       0.00000000       0.06004331 </v>
    </varray>
   </crystal>
   <varray name="positions" >
    <v>       0.76739128       0.14021337       0.15278760 </v>
    <v>       0.81903272       0.15288575       0.28789305 </v>
    <v>       0.24783817       0.64526680       0.07708377 </v>
    <v>       0.29733028       0.64529696       0.21607389 </v>
    <v>       0.39260062       0.14793790       0.13034103 </v>
    <v>       0.46975828       0.14529696       0.24694159 </v>
    <v>       0.95247430       0.64529696       0.15433850 </v>
    <v>       0.97420886       0.64471584       0.31671542 </v>
    <v>       0.17433638       0.14522658       0.04752819 </v>
    <v>       0.12490229       0.14529696       0.18520619 </v>
    <v>       0.11862074       0.14534631       0.33015496 </v>
    <v>       0.57030774       0.65127097       0.16190067 </v>
    <v>       0.64218627       0.64529696       0.27780929 </v>
    <v>       0.89788019       0.02037145       0.10909615 </v>
    <v>       0.95189941       0.01805640       0.24853577 </v>
    <v>       0.39345213       0.51636031       0.03865354 </v>
    <v>       0.42486675       0.51319396       0.19160760 </v>
    <v>       0.46442165       0.46394106       0.32825492 </v>
    <v>       0.60200119       0.93083197       0.09286280 </v>
    <v>       0.59729475       0.01319396       0.22247530 </v>
    <v>       0.08001077       0.51319396       0.12987220 </v>
    <v>       0.11184694       0.50746195       0.29434733 </v>
    <v>       0.25243876       0.01319396       0.16073990 </v>
    <v>       0.29016248       0.98337233       0.30987130 </v>
    <v>       0.76972274       0.51319396       0.25334300 </v>
    <v>       0.94472769       0.27576009       0.23407567 </v>
    <v>       0.39049496       0.76572067       0.03713736 </v>
    <v>       0.42486675       0.77739996       0.19160760 </v>
    <v>       0.46427417       0.82640951       0.32849176 </v>
    <v>       0.53059290       0.14963505       0.09062090 </v>
    <v>       0.59729475       0.27739996       0.22247530 </v>
    <v>       0.08001077       0.77739996       0.12987220 </v>
    <v>       0.11203697       0.78293915       0.29469916 </v>
    <v>       0.25243876       0.27739996       0.16073990 </v>
    <v>       0.29026093       0.30751032       0.30966956 </v>
    <v>       0.76591131       0.86380319       0.12077135 </v>
    <v>       0.76972274       0.77739996       0.25334300 </v>
    <v>       0.99828205       0.16481286       0.32600652 </v>
    <v>       0.99800024       0.13519304       0.15372523 </v>
    <v>       0.47417723       0.64529696       0.09088994 </v>
    <v>       0.50874518       0.64529696       0.27609614 </v>
    <v>       0.64660522       0.14529696       0.12175764 </v>
    <v>       0.69441351       0.14910127       0.26750647 </v>
    <v>       0.13091141       0.64695372       0.04648307 </v>
    <v>       0.16388920       0.64529696       0.21436074 </v>
    <v>       0.07723810       0.64495546       0.38167915 </v>
    <v>       0.29190188       0.14527263       0.06483136 </v>
    <v>       0.33631719       0.14529696       0.24522844 </v>
    <v>       0.82080003       0.66720708       0.15746795 </v>
    <v>       0.85021957       0.64277473       0.31343380 </v>
    <v>       0.85122835       0.20548066       0.06572898 </v>
    <v>       0.82440752       0.32526317       0.21677210 </v>
    <v>       0.31177707       0.81351196       0.12204440 </v>
    <v>       0.34866809       0.79743038       0.29403302 </v>
    <v>       0.48420507       0.31351196       0.15291210 </v>
    <v>       0.52796541       0.28728868       0.32350001 </v>
    <v>       0.00148905       0.81351196       0.24551520 </v>
    <v>       0.96541906       0.83253088       0.08969128 </v>
    <v>       0.14009082       0.32192512       0.10744141 </v>
    <v>       0.17391704       0.31351196       0.27638290 </v>
    <v>       0.65663306       0.81351196       0.18377980 </v>
    <v>       0.69429050       0.79456137       0.34726521 </v>
    <v>       0.31177707       0.47708196       0.12204440 </v>
    <v>       0.34882088       0.49342386       0.29404140 </v>
    <v>       0.79076432       0.01735621       0.04182737 </v>
    <v>       0.82906105       0.97708196       0.21464750 </v>
    <v>       0.00148905       0.47708196       0.24551520 </v>
    <v>       0.97904014       0.51272440       0.06634143 </v>
    <v>       0.48420507       0.97708196       0.15291210 </v>
    <v>       0.52728693       0.00390681       0.32435853 </v>
    <v>       0.65079846       0.48070692       0.19619771 </v>
    <v>       0.70050412       0.50975638       0.35131469 </v>
    <v>       0.14111112       0.96737248       0.10709835 </v>
    <v>       0.17391704       0.97708196       0.27638290 </v>
   </varray>
  </structure>
  <varray name="forces" >
   <v>      -0.47008670       0.87189891       0.11017094 </v>
   <v>       0.23711774      -0.29314685       1.49877825 </v>
   <v>       0.51376673      -0.02220268      -0.89788782 </v>
   <v>      -0.36428558       0.04742534      -0.28107937 </v>
   <v>       0.19825052      -0.05427286      -0.11716466 </v>
   <v>      -0.29244706       0.08617283      -0.41199712 </v>
   <v>      -0.58513049       1.02266651       2.49037282 </v>
   <v>      -1.71554848      -0.10556126       0.38485825 </v>
   <v>      -1.01830204      -0.00342132      -1.92541668 </v>
   <v>      -0.27265149      -0.31045539       0.64710741 </v>
   <v>      -0.11469371      -0.00265879       1.02451220 </v>
   <v>       0.42840644       0.04992397      -0.73939744 </v>
   <v>      -0.91944194       0.27057236      -0.18698786 </v>
   <v>       2.06384665      -1.33636792      -0.31409231 </v>
   <v>      -1.07747986      -0.69946569       0.48266537 </v>
   <v>       0.26339534      -0.45277360      -0.99217191 </v>
   <v>       0.25750069      -0.12482992      -1.18959852 </v>
   <v>      -0.08741675       0.63716612       0.93500290 </v>
   <v>       0.11915998      -0.42754582      -1.12868983 </v>
   <v>       0.84638603       0.37662534       0.28427128 </v>
   <v>       1.01331708      -0.00525384       2.10600151 </v>
   <v>       1.19224023      -1.36857821       0.63336801 </v>
   <v>       1.02960802      -0.75019720       0.88669869 </v>
   <v>       0.21119934      -0.15388102       0.75784887 </v>
   <v>       0.52948020       0.17756476      -2.64475787 </v>
   <v>      -0.03644293       1.14651378       0.76190757 </v>
   <v>       0.13680432       0.46484637      -1.06719685 </v>
   <v>       0.13794672       0.05385737      -1.16562422 </v>
   <v>      -0.19477988      -0.60214926       0.84459088 </v>
   <v>      -0.38982802       0.13504436      -1.58962352 </v>
   <v>       0.91808160       0.28028950      -1.47199139 </v>
   <v>       0.03863290       0.50497733       1.84971001 </v>
   <v>       1.12119591       1.39826278       0.54219879 </v>
   <v>       0.89305643       0.82293553       0.79680607 </v>
   <v>       0.11921892       0.15620005       0.74829642 </v>
   <v>      -0.48789361      -0.71479501       0.10259687 </v>
   <v>       1.24897465       0.39991808      -0.43227064 </v>
   <v>       0.17883020       0.10626772       2.52074553 </v>
   <v>       0.96794578       0.92479267      -1.29018936 </v>
   <v>       1.08680755      -0.08815063      -2.00347746 </v>
   <v>       0.76222838       0.10557067       1.48164401 </v>
   <v>      -0.24768411       0.16054824      -2.36856455 </v>
   <v>      -0.03199220      -0.27503940       2.13294617 </v>
   <v>       0.21688148      -0.00176768      -3.57275729 </v>
   <v>       1.67029386      -0.00834727      -1.32559694 </v>
   <v>       0.93254067       0.02186642       4.21820747 </v>
   <v>       1.45593393      -0.00082730      -3.03428127 </v>
   <v>       1.01971460      -0.02640905       0.78422115 </v>
   <v>       0.48045788      -1.52660628      -2.04804675 </v>
   <v>       0.74011419       0.08228570       2.64245377 </v>
   <v>       0.12624305       2.14679543      -1.96341492 </v>
   <v>       0.25387770       1.17754561      -0.42981887 </v>
   <v>      -1.23032646       1.73449249       0.25519000 </v>
   <v>      -0.97557106       0.48057470       1.92371396 </v>
   <v>      -0.96761775       1.46670240      -0.16731206 </v>
   <v>       0.14301034       0.16021780       2.92190154 </v>
   <v>      -1.07134009       1.70834352      -0.84371412 </v>
   <v>      -0.37650761       0.13311885      -2.85138564 </v>
   <v>      -0.86170521       0.97307564      -1.35514777 </v>
   <v>      -0.42569058       0.71606833       0.56795699 </v>
   <v>      -0.69423608       0.70477970      -0.54773687 </v>
   <v>      -0.61865215       1.28574874       3.79554413 </v>
   <v>      -1.31979988      -1.81408238       0.28027146 </v>
   <v>      -1.02790008      -0.55769216       1.95166900 </v>
   <v>      -1.03098205      -0.06975967      -3.88422220 </v>
   <v>       0.53442707      -1.60007376       2.68486202 </v>
   <v>      -1.69646514      -2.21727555      -1.87877695 </v>
   <v>      -1.68146033      -1.97191733      -3.45087285 </v>
   <v>      -0.61757036      -1.21933249      -0.86735799 </v>
   <v>       0.46464712      -0.11135907       2.80309828 </v>
   <v>       0.00750465      -1.33145645      -1.48345244 </v>
   <v>      -0.53933919      -1.07393534       3.81631024 </v>
   <v>      -0.73802992      -0.87288560      -1.35476352 </v>
   <v>      -0.37974609      -0.79718186       0.60833903 </v>
  </varray>
  <varray name="stress" >
   <v>      78.21965342      -2.15099637       1.91772423 </v>
   <v>      -2.15099649      73.59699675       1.04487897 </v>
   <v>       1.91772421       1.04487916      83.47243470 </v>
  </varray>
  <energy>
   <i name="e_fr_energy">   -349.04745527 </i>
   <i name="e_wo_entrp">   -348.40411636 </i>
   <i name="e_0_energy">     -1.28667783 </i>
  </energy>
  <time name="totalsc">  428.72  428.84</time>
  <eigenvalues>
   <array>
    <dimension dim="1">band</dimension>
    <dimension dim="2">kpoint</dimension>
    <dimension dim="3">spin</dimension>
    <field>eigene</field>
    <field>occ</field>
    <set>
     <set comment="spin 1">
      <set comment="kpoint 1">
       <r>  -65.1607    1.0000 </r>
       <r>  -65.1340    1.0000 </r>
       <r>  -65.0730    1.0000 </r>
       <r>  -64.9199    1.0000 </r>
       <r>  -64.8947    1.0000 </r>
       <r>  -64.8638    1.0000 </r>
       <r>  -64.8400    1.0000 </r>
       <r>  -64.8162    1.0000 </r>
       <r>  -64.8150    1.0000 </r>
       <r>  -64.8098    1.0000 </r>
       <r>  -64.7973    1.0000 </r>
       <r>  -64.7879    1.0000 </r>
       <r>  -64.7872    1.0000 </r>
       <r>  -64.7137    1.0000 </r>
       <r>  -64.6953    1.0000 </r>
       <r>  -64.6902    1.0000 </r>
       <r>  -64.6775    1.0000 </r>
       <r>  -64.6678    1.0000 </r>
       <r>  -64.6327    1.0000 </r>
       <r>  -64.5963    1.0000 </r>
       <r>  -64.5920    1.0000 </r>
       <r>  -64.5837    1.0000 </r>
       <r>  -64.5728    1.0000 </r>
       <r>  -64.5692    1.0000 </r>
       <r>  -64.5585    1.0000 </r>
       <r>  -64.5417    1.0000 </r>
       <r>  -64.5381    1.0000 </r>
       <r>  -64.5278    1.0000 </r>
       <r>  -64.5273    1.0000 </r>
       <r>  -64.5094    1.0000 </r>
       <r>  -64.5006    1.0000 </r>
       <r>  -64.5000    1.0000 </r>
       <r>  -64.4901    1.0000 </r>
       <r>  -64.4871    1.0000 </r>
       <r>  -64.4676    1.0000 </r>
       <r>  -64.4641    1.0000 </r>
       <r>  -64.4592    1.0000 </r>
       <r>  -64.4574    1.0000 </r>
       <r>  -64.4284    1.0000 </r>
       <r>  -64.4253    1.0000 </r>
       <r>  -64.4187    1.0000 </r>
       <r>  -64.4112    1.0000 </r>
       <r>  -64.4038    1.0000 </r>
       <r>  -64.4033    1.0000 </r>
       <r>  -64.4014    1.0000 </r>
       <r>  -64.3930    1.0000 </r>
       <r>  -64.3888    1.0000 </r>
       <r>  -64.3827    1.0000 </r>
       <r>  -64.3761    1.0000 </r>
       <r>  -64.3631    1.0000 </r>
       <r>  -64.3266    1.0000 </r>
       <r>  -64.3219    1.0000 </r>
       <r>  -64.3113    1.0000 </r>
       <r>  -64.3008    1.0000 </r>
       <r>  -64.2866    1.0000 </r>
       <r>  -64.2857    1.0000 </r>
       <r>  -64.2738    1.0000 </r>
       <r>  -64.2658    1.0000 </r>
       <r>  -64.2495    1.0000 </r>
       <r>  -64.2382    1.0000 </r>
       <r>  -64.2338    1.0000 </r>
       <r>  -64.2165    1.0000 </r>
       <r>  -64.1999    1.0000 </r>
       <r>  -64.1992    1.0000 </r>
       <r>  -64.1855    1.0000 </r>
       <r>  -64.1805    1.0000 </r>
       <r>  -64.1726    1.0000 </r>
       <r>  -64.1632    1.0000 </r>
       <r>  -64.1583    1.0000 </r>
       <r>  -64.1531    1.0000 </r>
       <r>  -64.1505    1.0000 </r>
       <r>  -64.1394    1.0000 </r>
       <r>  -64.1337    1.0000 </r>
       <r>  -64.1318    1.0000 </r>
       <r>  -64.1001    1.0000 </r>
       <r>  -64.0825    1.0000 </r>
       <r>  -64.0569    1.0000 </r>
       <r>  -64.0507    1.0000 </r>
       <r>  -64.0484    1.0000 </r>
       <r>  -64.0424    1.0000 </r>
       <r>  -64.0381    1.0000 </r>
       <r>  -64.0170    1.0000 </r>
       <r>  -64.0155    1.0000 </r>
       <r>  -64.0054    1.0000 </r>
       <r>  -64.0040    1.0000 </r>
       <r>  -64.0031    1.0000 </r>
       <r>  -64.0005    1.0000 </r>
       <r>  -63.9976    1.0000 </r>
       <r>  -63.9784    1.0000 </r>
       <r>  -63.9674    1.0000 </r>
       <r>  -63.9288    1.0000 </r>
       <r>  -63.9151    1.0000 </r>
       <r>  -63.9011    1.0000 </r>
       <r>  -63.8238    1.0000 </r>
       <r>  -63.7916    1.0000 </r>
       <r>  -63.7905    1.0000 </r>
       <r>  -63.7876    1.0000 </r>
       <r>  -63.6166    1.0000 </r>
       <r>  -63.6066    1.0000 </r>
       <r>  -63.6006    1.0000 </r>
       <r>  -63.5903    1.0000 </r>
       <r>  -63.5778    1.0000 </r>
       <r>  -63.5750    1.0000 </r>
       <r>  -63.5078    1.0000 </r>
       <r>  -63.4889    1.0000 </r>
       <r>  -63.4723    1.0000 </r>
       <r>  -63.4071    1.0000 </r>
       <r>  -63.4017    1.0000 </r>
       <r>  -63.3914    1.0000 </r>
       <r>  -63.2409    1.0000 </r>
       <r>  -63.1685    1.0000 </r>
       <r>  -17.1431    1.0000 </r>
       <r>  -16.3072    1.0000 </r>
       <r>  -16.0509    1.0000 </r>
       <r>  -15.9469    1.0000 </r>
       <r>  -15.7237    1.0000 </r>
       <r>  -15.4998    1.0000 </r>
       <r>  -15.4231    1.0000 </r>
       <r>  -15.2205    1.0000 </r>
       <r>  -15.1461    1.0000 </r>
       <r>  -15.0652    1.0000 </r>
       <r>  -14.9928    1.0000 </r>
       <r>  -14.9430    1.0000 </r>
       <r>  -14.8736    1.0000 </r>
       <r>  -14.8106    1.0000 </r>
       <r>  -14.7394    1.0000 </r>
       <r>  -14.6620    1.0000 </r>
       <r>  -14.5997    1.0000 </r>
       <r>  -14.5052    1.0000 </r>
       <r>  -14.4162    1.0000 </r>
       <r>  -14.3957    1.0000 </r>
       <r>  -14.3062    1.0000 </r>
       <r>  -14.2071    1.0000 </r>
       <r>  -14.1580    1.0000 </r>
       <r>  -14.1341    1.0000 </r>
       <r>  -14.0000    1.0000 </r>
       <r>  -13.9172    1.0000 </r>
       <r>  -13.7465    1.0000 </r>
       <r>  -13.7319    1.0000 </r>
       <r>  -13.6046    1.0000 </r>
       <r>  -13.5712    1.0000 </r>
       <r>  -13.5067    1.0000 </r>
       <r>  -13.3302    1.0000 </r>
       <r>  -13.2108    1.0000 </r>
       <r>  -13.0321    1.0000 </r>
       <r>  -12.8992    1.0000 </r>
       <r>  -12.7748    1.0000 </r>
       <r>  -12.6559    1.0000 </r>
       <r>   -8.2923    1.0000 </r>
       <r>   -8.1335    1.0000 </r>
       <r>   -8.0194    1.0000 </r>
       <r>   -7.9120    1.0000 </r>
       <r>   -7.8019    1.0000 </r>
       <r>   -7.7890    1.0000 </r>
       <r>   -7.6989    1.0000 </r>
       <r>   -7.6472    1.0000 </r>
       <r>   -7.5591    1.0000 </r>
       <r>   -7.4678    1.0000 </r>
       <r>   -7.4422    1.0000 </r>
       <r>   -7.4065    1.0000 </r>
       <r>   -7.3729    1.0000 </r>
       <r>   -7.2968    1.0000 </r>
       <r>   -7.2502    1.0000 </r>
       <r>   -7.1827    1.0000 </r>
       <r>   -7.1308    1.0000 </r>
       <r>   -7.0822    1.0000 </r>
       <r>   -7.0305    1.0000 </r>
       <r>   -6.9825    1.0000 </r>
       <r>   -6.9543    1.0000 </r>
       <r>   -6.8632    1.0000 </r>
       <r>   -6.8272    1.0000 </r>
       <r>   -6.7610    1.0000 </r>
       <r>   -6.7335    1.0000 </r>
       <r>   -6.6969    1.0000 </r>
       <r>   -6.6589    1.0000 </r>
       <r>   -6.6405    1.0000 </r>
       <r>   -6.5312    1.0000 </r>
       <r>   -6.4879    1.0000 </r>
       <r>   -6.4605    1.0000 </r>
       <r>   -6.4452    1.0000 </r>
       <r>   -6.3577    1.0000 </r>
       <r>   -6.3155    1.0000 </r>
       <r>   -6.2922    1.0000 </r>
       <r>   -6.2652    1.0000 </r>
       <r>   -6.2214    1.0000 </r>
       <r>   -6.1981    1.0000 </r>
       <r>   -6.1616    1.0000 </r>
       <r>   -6.0991    1.0000 </r>
       <r>   -6.0024    1.0000 </r>
       <r>   -5.9880    1.0000 </r>
       <r>   -5.9463    1.0000 </r>
       <r>   -5.9386    1.0000 </r>
       <r>   -5.9197    1.0000 </r>
       <r>   -5.8794    1.0000 </r>
       <r>   -5.8470    1.0000 </r>
       <r>   -5.8249    1.0000 </r>
       <r>   -5.7821    1.0000 </r>
       <r>   -5.7252    1.0000 </r>
       <r>   -5.6774    1.0000 </r>
       <r>   -5.6622    1.0000 </r>
       <r>   -5.6226    1.0000 </r>
       <r>   -5.6213    1.0000 </r>
       <r>   -5.5565    1.0000 </r>
       <r>   -5.5023    1.0000 </r>
       <r>   -5.4701    1.0000 </r>
       <r>   -5.4149    1.0000 </r>
       <r>   -5.3869    1.0000 </r>
       <r>   -5.3674    1.0000 </r>
       <r>   -5.3353    1.0000 </r>
       <r>   -5.3164    1.0000 </r>
       <r>   -5.2755    1.0000 </r>
       <r>   -5.2532    1.0000 </r>
       <r>   -5.2158    1.0000 </r>
       <r>   -5.1723    1.0000 </r>
       <r>   -5.1446    1.0000 </r>
       <r>   -5.1271    1.0000 </r>
       <r>   -5.1074    1.0000 </r>
       <r>   -5.0688    1.0000 </r>
       <r>   -5.0413    1.0000 </r>
       <r>   -5.0089    1.0000 </r>
       <r>   -4.9848    1.0000 </r>
       <r>   -4.9715    1.0000 </r>
       <r>   -4.9373    1.0000 </r>
       <r>   -4.8829    1.0000 </r>
       <r>   -4.8717    1.0000 </r>
       <r>   -4.8520    1.0000 </r>
       <r>   -4.8230    1.0000 </r>
       <r>   -4.7854    1.0000 </r>
       <r>   -4.7493    1.0000 </r>
       <r>   -4.7360    1.0000 </r>
       <r>   -4.6883    1.0000 </r>
       <r>   -4.6693    1.0000 </r>
       <r>   -4.6169    1.0000 </r>
       <r>   -4.5889    1.0000 </r>
       <r>   -4.5304    1.0000 </r>
       <r>   -4.4959    1.0000 </r>
       <r>   -4.4763    1.0000 </r>
       <r>   -4.4096    1.0000 </r>
       <r>   -4.3440    1.0000 </r>
       <r>   -4.3218    1.0000 </r>
       <r>   -4.2620    1.0000 </r>
       <r>   -4.2482    1.0000 </r>
       <r>   -4.1764    1.0000 </r>
       <r>   -4.1309    1.0000 </r>
       <r>   -4.0829    1.0000 </r>
       <r>   -4.0411    1.0000 </r>
       <r>   -4.0100    1.0000 </r>
       <r>   -3.9435    1.0000 </r>
       <r>   -3.9284    1.0000 </r>
       <r>   -3.8519    1.0000 </r>
       <r>   -3.7902    1.0000 </r>
       <r>   -3.7753    1.0000 </r>
       <r>   -3.7457    1.0000 </r>
       <r>   -3.7115    1.0000 </r>
       <r>   -3.6526    1.0000 </r>
       <r>   -3.5629    1.0000 </r>
       <r>   -3.5272    1.0000 </r>
       <r>   -3.4723    1.0000 </r>
       <r>   -3.4303    1.0000 </r>
       <r>   -3.4035    1.0000 </r>
       <r>   -3.3952    1.0000 </r>
       <r>   -3.3437    1.0000 </r>
       <r>   -3.3265    1.0000 </r>
       <r>   -3.2833    1.0000 </r>
       <r>   -3.2257    1.0000 </r>
       <r>   -3.2073    1.0000 </r>
       <r>   -3.1907    1.0000 </r>
       <r>   -3.1444    1.0000 </r>
       <r>   -3.1014    1.0000 </r>
       <r>   -3.0980    1.0000 </r>
       <r>   -3.0563    1.0000 </r>
       <r>   -3.0512    1.0000 </r>
       <r>   -3.0158    1.0000 </r>
       <r>   -2.9935    1.0000 </r>
       <r>   -2.9604    1.0000 </r>
       <r>   -2.9323    1.0000 </r>
       <r>   -2.9030    1.0000 </r>
       <r>   -2.8949    1.0000 </r>
       <r>   -2.8474    1.0000 </r>
       <r>   -2.8370    1.0000 </r>
       <r>   -2.8096    1.0000 </r>
       <r>   -2.8023    1.0000 </r>
       <r>   -2.7686    1.0000 </r>
       <r>   -2.7619    1.0000 </r>
       <r>   -2.7264    1.0000 </r>
       <r>   -2.7052    1.0000 </r>
       <r>   -2.6867    1.0000 </r>
       <r>   -2.6737    1.0000 </r>
       <r>   -2.6378    1.0000 </r>
       <r>   -2.6092    1.0000 </r>
       <r>   -2.5974    1.0000 </r>
       <r>   -2.5930    1.0000 </r>
       <r>   -2.5757    1.0000 </r>
       <r>   -2.5529    1.0000 </r>
       <r>   -2.5392    1.0000 </r>
       <r>   -2.5239    1.0000 </r>
       <r>   -2.5069    1.0000 </r>
       <r>   -2.4812    1.0000 </r>
       <r>   -2.4617    1.0000 </r>
       <r>   -2.4511    1.0000 </r>
       <r>   -2.4379    1.0000 </r>
       <r>   -2.4127    1.0000 </r>
       <r>   -2.3912    1.0000 </r>
       <r>   -2.3804    1.0000 </r>
       <r>   -2.3682    1.0000 </r>
       <r>   -2.3434    1.0000 </r>
       <r>   -2.3258    1.0000 </r>
       <r>   -2.3180    1.0000 </r>
       <r>   -2.2961    1.0000 </r>
       <r>   -2.2817    1.0000 </r>
       <r>   -2.2727    1.0000 </r>
       <r>   -2.2508    1.0000 </r>
       <r>   -2.2402    1.0000 </r>
       <r>   -2.2297    1.0000 </r>
       <r>   -2.2149    1.0000 </r>
       <r>   -2.1950    1.0000 </r>
       <r>   -2.1649    1.0000 </r>
       <r>   -2.1596    1.0000 </r>
       <r>   -2.1449    1.0000 </r>
       <r>   -2.1428    1.0000 </r>
       <r>   -2.1294    1.0000 </r>
       <r>   -2.1187    1.0000 </r>
       <r>   -2.0983    1.0000 </r>
       <r>   -2.0852    1.0000 </r>
       <r>   -2.0713    1.0000 </r>
       <r>   -2.0654    1.0000 </r>
       <r>   -2.0514    1.0000 </r>
       <r>   -2.0309    1.0000 </r>
       <r>   -1.9952    1.0000 </r>
       <r>   -1.9865    1.0000 </r>
       <r>   -1.9720    1.0000 </r>
       <r>   -1.9657    1.0000 </r>
       <r>   -1.9135    1.0000 </r>
       <r>   -1.9011    1.0000 </r>
       <r>   -1.8926    1.0000 </r>
       <r>   -1.8862    1.0000 </r>
       <r>   -1.8749    1.0000 </r>
       <r>   -1.8482    1.0000 </r>
       <r>   -1.8468    1.0000 </r>
       <r>   -1.8318    1.0000 </r>
       <r>   -1.8032    1.0000 </r>
       <r>   -1.7772    1.0000 </r>
       <r>   -1.7676    1.0000 </r>
       <r>   -1.7591    1.0000 </r>
       <r>   -1.7236    1.0000 </r>
       <r>   -1.6993    1.0000 </r>
       <r>   -1.6880    1.0000 </r>
       <r>   -1.6671    1.0000 </r>
       <r>   -1.6576    1.0000 </r>
       <r>   -1.6343    1.0000 </r>
       <r>   -1.5952    1.0000 </r>
       <r>   -1.5837    1.0000 </r>
       <r>   -1.5828    1.0000 </r>
       <r>   -1.5780    1.0000 </r>
       <r>   -1.5408    1.0000 </r>
       <r>   -1.5325    1.0000 </r>
       <r>   -1.4971    1.0000 </r>
       <r>   -1.4683    1.0000 </r>
       <r>   -1.4570    1.0000 </r>
       <r>   -1.4479    1.0000 </r>
       <r>   -1.4203    1.0000 </r>
       <r>   -1.3955    1.0000 </r>
       <r>   -1.3852    1.0000 </r>
       <r>   -1.3522    1.0000 </r>
       <r>   -1.3299    1.0000 </r>
       <r>   -1.3246    1.0000 </r>
       <r>   -1.2951    1.0000 </r>
       <r>   -1.2759    1.0000 </r>
       <r>   -1.2685    1.0000 </r>
       <r>   -1.2407    1.0000 </r>
       <r>   -1.2171    1.0000 </r>
       <r>   -1.1523    1.0000 </r>
       <r>   -1.1334    1.0000 </r>
       <r>   -1.1281    1.0000 </r>
       <r>   -1.1210    1.0000 </r>
       <r>   -1.0792    1.0000 </r>
       <r>   -1.0572    1.0000 </r>
       <r>   -1.0443    1.0000 </r>
       <r>   -0.9893    1.0000 </r>
       <r>   -0.9794    1.0000 </r>
       <r>   -0.9651    1.0000 </r>
       <r>   -0.9310    1.0000 </r>
       <r>   -0.9202    1.0000 </r>
       <r>   -0.8967    1.0000 </r>
       <r>   -0.8451    1.0000 </r>
       <r>   -0.8236    1.0000 </r>
       <r>   -0.7926    1.0000 </r>
       <r>   -0.7630    1.0000 </r>
       <r>   -0.6865    1.0000 </r>
       <r>   -0.6553    1.0000 </r>
       <r>   -0.6240    1.0000 </r>
       <r>   -0.5704    0.9998 </r>
       <r>   -0.5478    0.9997 </r>
       <r>   -0.5318    0.9996 </r>
       <r>   -0.5147    0.9994 </r>
       <r>   -0.4815    0.9986 </r>
       <r>   -0.4264    0.9953 </r>
       <r>   -0.4079    0.9932 </r>
       <r>   -0.3875    0.9899 </r>
       <r>   -0.2896    0.9484 </r>
       <r>   -0.2453    0.9058 </r>
       <r>   -0.2146    0.8640 </r>
       <r>   -0.1871    0.8170 </r>
       <r>   -0.1513    0.7424 </r>
       <r>   -0.1357    0.7056 </r>
       <r>   -0.0998    0.6129 </r>
       <r>   -0.0842    0.5701 </r>
       <r>   -0.0445    0.4585 </r>
       <r>   -0.0157    0.3790 </r>
       <r>    0.0161    0.2972 </r>
       <r>    0.0372    0.2476 </r>
       <r>    0.0768    0.1681 </r>
       <r>    0.1168    0.1066 </r>
       <r>    0.1265    0.0946 </r>
       <r>    0.1537    0.0661 </r>
       <r>    0.2379    0.0178 </r>
       <r>    0.2572    0.0126 </r>
       <r>    0.2918    0.0065 </r>
       <r>    0.3371    0.0025 </r>
       <r>    0.3907    0.0007 </r>
       <r>    0.4191    0.0004 </r>
       <r>    0.4616    0.0001 </r>
       <r>    0.4984    0.0000 </r>
       <r>    0.5657    0.0000 </r>
       <r>    0.6439    0.0000 </r>
       <r>    0.6995    0.0000 </r>
       <r>    0.7758    0.0000 </r>
       <r>    0.8311    0.0000 </r>
       <r>    0.8738    0.0000 </r>
       <r>    0.9446    0.0000 </r>
       <r>    0.9770    0.0000 </r>
       <r>    1.0064    0.0000 </r>
       <r>    1.0624    0.0000 </r>
       <r>    1.0902    0.0000 </r>
       <r>    1.1975    0.0000 </r>
       <r>    1.2325    0.0000 </r>
       <r>    1.2436    0.0000 </r>
       <r>    1.2687    0.0000 </r>
       <r>    1.3035    0.0000 </r>
       <r>    1.4153    0.0000 </r>
       <r>    1.4904    0.0000 </r>
       <r>    1.5063    0.0000 </r>
       <r>    1.6735    0.0000 </r>
       <r>    1.9073    0.0000 </r>
       <r>    1.9879    0.0000 </r>
       <r>    2.4826    0.0000 </r>
       <r>    2.6815    0.0000 </r>
       <r>    2.8365    0.0000 </r>
       <r>    2.9168    0.0000 </r>
       <r>    3.0460    0.0000 </r>
       <r>    3.2842    0.0000 </r>
       <r>    3.4930    0.0000 </r>
       <r>    3.5468    0.0000 </r>
       <r>    3.6906    0.0000 </r>
       <r>    3.8533    0.0000 </r>
       <r>    4.0952    0.0000 </r>
       <r>    4.1082    0.0000 </r>
       <r>    4.1924    0.0000 </r>
       <r>    4.3407    0.0000 </r>
       <r>    4.3882    0.0000 </r>
       <r>    4.4705    0.0000 </r>
       <r>    4.5622    0.0000 </r>
       <r>    4.5942    0.0000 </r>
       <r>    4.6272    0.0000 </r>
       <r>    4.7000    0.0000 </r>
       <r>    4.7118    0.0000 </r>
       <r>    4.8285    0.0000 </r>
       <r>    4.8811    0.0000 </r>
       <r>    4.8981    0.0000 </r>
       <r>    4.9292    0.0000 </r>
       <r>    5.0060    0.0000 </r>
       <r>    5.1352    0.0000 </r>
       <r>    5.1518    0.0000 </r>
       <r>    5.1615    0.0000 </r>
       <r>    5.1807    0.0000 </r>
       <r>    5.2366    0.0000 </r>
       <r>    5.2740    0.0000 </r>
       <r>    5.3301    0.0000 </r>
       <r>    5.3668    0.0000 </r>
       <r>    5.4184    0.0000 </r>
       <r>    5.4358    0.0000 </r>
       <r>    5.4855    0.0000 </r>
       <r>    5.5420    0.0000 </r>
       <r>    5.5671    0.0000 </r>
       <r>    5.6128    0.0000 </r>
       <r>    5.6633    0.0000 </r>
       <r>    5.6899    0.0000 </r>
       <r>    5.7773    0.0000 </r>
      </set>
     </set>
    </set>
   </array>
  </eigenvalues>
  <separator name="orbital magnetization" >
   <v name="MAGDIPOLOUT">      0.00000000      0.00000000      0.00000000</v>
  </separator>
  <dos>
   <i name="efermi">     -0.05923237 </i>
   <total>
    <array>
     <dimension dim="1">gridpoints</dimension>
     <dimension dim="2">spin</dimension>
     <field>energy</field>
     <field>total</field>
     <field>integrated</field>
     <set>
      <set comment="spin 1">
       <r>   -68.7076     0.0000     0.0000 </r>
       <r>   -68.4475     0.0000     0.0000 </r>
       <r>   -68.1874     0.0000     0.0000 </r>
       <r>   -67.9272     0.0000     0.0000 </r>
       <r>   -67.6671     0.0000     0.0000 </r>
       <r>   -67.4070     0.0000     0.0000 </r>
       <r>   -67.1469     0.0000     0.0000 </r>
       <r>   -66.8868     0.0000     0.0000 </r>
       <r>   -66.6267     0.0000     0.0000 </r>
       <r>   -66.3666     0.0000     0.0000 </r>
       <r>   -66.1065     0.0000     0.0000 </r>
       <r>   -65.8464     0.0000     0.0000 </r>
       <r>   -65.5863     0.0165     0.0043 </r>
       <r>   -65.3262     1.9013     0.4988 </r>
       <r>   -65.0661    17.7629     5.1191 </r>
       <r>   -64.8060    60.0968    20.7506 </r>
       <r>   -64.5459   137.8448    56.6049 </r>
       <r>   -64.2858   205.6791   110.1032 </r>
       <r>   -64.0257   194.0464   160.5759 </r>
       <r>   -63.7655   113.7285   190.1573 </r>
       <r>   -63.5054    64.0655   206.8212 </r>
       <r>   -63.2453    44.5017   218.3963 </r>
       <r>   -62.9852    12.7890   221.7228 </r>
       <r>   -62.7251     1.0580   221.9980 </r>
       <r>   -62.4650     0.0076   222.0000 </r>
       <r>   -62.2049     0.0000   222.0000 </r>
       <r>   -61.9448     0.0000   222.0000 </r>
       <r>   -61.6847     0.0000   222.0000 </r>
       <r>   -61.4246     0.0000   222.0000 </r>
       <r>   -61.1645     0.0000   222.0000 </r>
       <r>   -60.9044     0.0000   222.0000 </r>
       <r>   -60.6443     0.0000   222.0000 </r>
       <r>   -60.3842     0.0000   222.0000 </r>
       <r>   -60.1241     0.0000   222.0000 </r>
       <r>   -59.8640     0.0000   222.0000 </r>
       <r>   -59.6039     0.0000   222.0000 </r>
       <r>   -59.3437     0.0000   222.0000 </r>
       <r>   -59.0836     0.0000   222.0000 </r>
       <r>   -58.8235     0.0000   222.0000 </r>
       <r>   -58.5634     0.0000   222.0000 </r>
       <r>   -58.3033     0.0000   222.0000 </r>
       <r>   -58.0432     0.0000   222.0000 </r>
       <r>   -57.7831     0.0000   222.0000 </r>
       <r>   -57.5230     0.0000   222.0000 </r>
       <r>   -57.2629     0.0000   222.0000 </r>
       <r>   -57.0028     0.0000   222.0000 </r>
       <r>   -56.7427     0.0000   222.0000 </r>
       <r>   -56.4826     0.0000   222.0000 </r>
       <r>   -56.2225     0.0000   222.0000 </r>
       <r>   -55.9624     0.0000   222.0000 </r>
       <r>   -55.7023     0.0000   222.0000 </r>
       <r>   -55.4422     0.0000   222.0000 </r>
       <r>   -55.1820     0.0000   222.0000 </r>
       <r>   -54.9219     0.0000   222.0000 </r>
       <r>   -54.6618     0.0000   222.0000 </r>
       <r>   -54.4017     0.0000   222.0000 </r>
       <r>   -54.1416     0.0000   222.0000 </r>
       <r>   -53.8815     0.0000   222.0000 </r>
       <r>   -53.6214     0.0000   222.0000 </r>
       <r>   -53.3613     0.0000   222.0000 </r>
       <r>   -53.1012     0.0000   222.0000 </r>
       <r>   -52.8411     0.0000   222.0000 </r>
       <r>   -52.5810     0.0000   222.0000 </r>
       <r>   -52.3209     0.0000   222.0000 </r>
       <r>   -52.0608     0.0000   222.0000 </r>
       <r>   -51.8007     0.0000   222.0000 </r>
       <r>   -51.5406     0.0000   222.0000 </r>
       <r>   -51.2805     0.0000   222.0000 </r>
       <r>   -51.0204     0.0000   222.0000 </r>
       <r>   -50.7602     0.0000   222.0000 </r>
       <r>   -50.5001     0.0000   222.0000 </r>
       <r>   -50.2400     0.0000   222.0000 </r>
       <r>   -49.9799     0.0000   222.0000 </r>
       <r>   -49.7198     0.0000   222.0000 </r>
       <r>   -49.4597     0.0000   222.0000 </r>
       <r>   -49.1996     0.0000   222.0000 </r>
       <r>   -48.9395     0.0000   222.0000 </r>
       <r>   -48.6794     0.0000   222.0000 </r>
       <r>   -48.4193     0.0000   222.0000 </r>
       <r>   -48.1592     0.0000   222.0000 </r>
       <r>   -47.8991     0.0000   222.0000 </r>
       <r>   -47.6390     0.0000   222.0000 </r>
       <r>   -47.3789     0.0000   222.0000 </r>
       <r>   -47.1188     0.0000   222.0000 </r>
       <r>   -46.8587     0.0000   222.0000 </r>
       <r>   -46.5985     0.0000   222.0000 </r>
       <r>   -46.3384     0.0000   222.0000 </r>
       <r>   -46.0783     0.0000   222.0000 </r>
       <r>   -45.8182     0.0000   222.0000 </r>
       <r>   -45.5581     0.0000   222.0000 </r>
       <r>   -45.2980     0.0000   222.0000 </r>
       <r>   -45.0379     0.0000   222.0000 </r>
       <r>   -44.7778     0.0000   222.0000 </r>
       <r>   -44.5177     0.0000   222.0000 </r>
       <r>   -44.2576     0.0000   222.0000 </r>
       <r>   -43.9975     0.0000   222.0000 </r>
       <r>   -43.7374     0.0000   222.0000 </r>
       <r>   -43.4773     0.0000   222.0000 </r>
       <r>   -43.2172     0.0000   222.0000 </r>
       <r>   -42.9571     0.0000   222.0000 </r>
       <r>   -42.6970     0.0000   222.0000 </r>
       <r>   -42.4369     0.0000   222.0000 </r>
       <r>   -42.1767     0.0000   222.0000 </r>
       <r>   -41.9166     0.0000   222.0000 </r>
       <r>   -41.6565     0.0000   222.0000 </r>
       <r>   -41.3964     0.0000   222.0000 </r>
       <r>   -41.1363     0.0000   222.0000 </r>
       <r>   -40.8762     0.0000   222.0000 </r>
       <r>   -40.6161     0.0000   222.0000 </r>
       <r>   -40.3560     0.0000   222.0000 </r>
       <r>   -40.0959     0.0000   222.0000 </r>
       <r>   -39.8358     0.0000   222.0000 </r>
       <r>   -39.5757     0.0000   222.0000 </r>
       <r>   -39.3156     0.0000   222.0000 </r>
       <r>   -39.0555     0.0000   222.0000 </r>
       <r>   -38.7954     0.0000   222.0000 </r>
       <r>   -38.5353     0.0000   222.0000 </r>
       <r>   -38.2752     0.0000   222.0000 </r>
       <r>   -38.0151     0.0000   222.0000 </r>
       <r>   -37.7549     0.0000   222.0000 </r>
       <r>   -37.4948     0.0000   222.0000 </r>
       <r>   -37.2347     0.0000   222.0000 </r>
       <r>   -36.9746     0.0000   222.0000 </r>
       <r>   -36.7145     0.0000   222.0000 </r>
       <r>   -36.4544     0.0000   222.0000 </r>
       <r>   -36.1943     0.0000   222.0000 </r>
       <r>   -35.9342     0.0000   222.0000 </r>
       <r>   -35.6741     0.0000   222.0000 </r>
       <r>   -35.4140     0.0000   222.0000 </r>
       <r>   -35.1539     0.0000   222.0000 </r>
       <r>   -34.8938     0.0000   222.0000 </r>
       <r>   -34.6337     0.0000   222.0000 </r>
       <r>   -34.3736     0.0000   222.0000 </r>
       <r>   -34.1135     0.0000   222.0000 </r>
       <r>   -33.8534     0.0000   222.0000 </r>
       <r>   -33.5932     0.0000   222.0000 </r>
       <r>   -33.3331     0.0000   222.0000 </r>
       <r>   -33.0730     0.0000   222.0000 </r>
       <r>   -32.8129     0.0000   222.0000 </r>
       <r>   -32.5528     0.0000   222.0000 </r>
       <r>   -32.2927     0.0000   222.0000 </r>
       <r>   -32.0326     0.0000   222.0000 </r>
       <r>   -31.7725     0.0000   222.0000 </r>
       <r>   -31.5124     0.0000   222.0000 </r>
       <r>   -31.2523     0.0000   222.0000 </r>
       <r>   -30.9922     0.0000   222.0000 </r>
       <r>   -30.7321     0.0000   222.0000 </r>
       <r>   -30.4720     0.0000   222.0000 </r>
       <r>   -30.2119     0.0000   222.0000 </r>
       <r>   -29.9518     0.0000   222.0000 </r>
       <r>   -29.6917     0.0000   222.0000 </r>
       <r>   -29.4316     0.0000   222.0000 </r>
       <r>   -29.1714     0.0000   222.0000 </r>
       <r>   -28.9113     0.0000   222.0000 </r>
       <r>   -28.6512     0.0000   222.0000 </r>
       <r>   -28.3911     0.0000   222.0000 </r>
       <r>   -28.1310     0.0000   222.0000 </r>
       <r>   -27.8709     0.0000   222.0000 </r>
       <r>   -27.6108     0.0000   222.0000 </r>
       <r>   -27.3507     0.0000   222.0000 </r>
       <r>   -27.0906     0.0000   222.0000 </r>
       <r>   -26.8305     0.0000   222.0000 </r>
       <r>   -26.5704     0.0000   222.0000 </r>
       <r>   -26.3103     0.0000   222.0000 </r>
       <r>   -26.0502     0.0000   222.0000 </r>
       <r>   -25.7901     0.0000   222.0000 </r>
       <r>   -25.5300     0.0000   222.0000 </r>
       <r>   -25.2699     0.0000   222.0000 </r>
       <r>   -25.0097     0.0000   222.0000 </r>
       <r>   -24.7496     0.0000   222.0000 </r>
       <r>   -24.4895     0.0000   222.0000 </r>
       <r>   -24.2294     0.0000   222.0000 </r>
       <r>   -23.9693     0.0000   222.0000 </r>
       <r>   -23.7092     0.0000   222.0000 </r>
       <r>   -23.4491     0.0000   222.0000 </r>
       <r>   -23.1890     0.0000   222.0000 </r>
       <r>   -22.9289     0.0000   222.0000 </r>
       <r>   -22.6688     0.0000   222.0000 </r>
       <r>   -22.4087     0.0000   222.0000 </r>
       <r>   -22.1486     0.0000   222.0000 </r>
       <r>   -21.8885     0.0000   222.0000 </r>
       <r>   -21.6284     0.0000   222.0000 </r>
       <r>   -21.3683     0.0000   222.0000 </r>
       <r>   -21.1082     0.0000   222.0000 </r>
       <r>   -20.8481     0.0000   222.0000 </r>
       <r>   -20.5879     0.0000   222.0000 </r>
       <r>   -20.3278     0.0000   222.0000 </r>
       <r>   -20.0677     0.0000   222.0000 </r>
       <r>   -19.8076     0.0000   222.0000 </r>
       <r>   -19.5475     0.0000   222.0000 </r>
       <r>   -19.2874     0.0000   222.0000 </r>
       <r>   -19.0273     0.0000   222.0000 </r>
       <r>   -18.7672     0.0000   222.0000 </r>
       <r>   -18.5071     0.0000   222.0000 </r>
       <r>   -18.2470     0.0000   222.0000 </r>
       <r>   -17.9869     0.0000   222.0000 </r>
       <r>   -17.7268     0.0001   222.0000 </r>
       <r>   -17.4667     0.0850   222.0222 </r>
       <r>   -17.2066     2.4284   222.6538 </r>
       <r>   -16.9465     4.5439   223.8357 </r>
       <r>   -16.6864     0.6551   224.0061 </r>
       <r>   -16.4263     1.5467   224.4084 </r>
       <r>   -16.1661     6.9622   226.2193 </r>
       <r>   -15.9060    11.1484   229.1191 </r>
       <r>   -15.6459    10.3062   231.7998 </r>
       <r>   -15.3858    12.8177   235.1337 </r>
       <r>   -15.1257    18.2813   239.8888 </r>
       <r>   -14.8656    27.9857   247.1680 </r>
       <r>   -14.6055    28.3528   254.5428 </r>
       <r>   -14.3454    27.6928   261.7458 </r>
       <r>   -14.0853    27.5642   268.9154 </r>
       <r>   -13.8252    21.5335   274.5164 </r>
       <r>   -13.5651    23.3520   280.5904 </r>
       <r>   -13.3050    18.6929   285.4526 </r>
       <r>   -13.0449    13.6666   289.0073 </r>
       <r>   -12.7848    14.5978   292.8043 </r>
       <r>   -12.5247    10.5994   295.5612 </r>
       <r>   -12.2646     1.6639   295.9940 </r>
       <r>   -12.0044     0.0229   296.0000 </r>
       <r>   -11.7443     0.0000   296.0000 </r>
       <r>   -11.4842     0.0000   296.0000 </r>
       <r>   -11.2241     0.0000   296.0000 </r>
       <r>   -10.9640     0.0000   296.0000 </r>
       <r>   -10.7039     0.0000   296.0000 </r>
       <r>   -10.4438     0.0000   296.0000 </r>
       <r>   -10.1837     0.0000   296.0000 </r>
       <r>    -9.9236     0.0000   296.0000 </r>
       <r>    -9.6635     0.0000   296.0000 </r>
       <r>    -9.4034     0.0000   296.0000 </r>
       <r>    -9.1433     0.0000   296.0000 </r>
       <r>    -8.8832     0.0001   296.0000 </r>
       <r>    -8.6231     0.0765   296.0199 </r>
       <r>    -8.3630     2.7641   296.7389 </r>
       <r>    -8.1029    11.7256   299.7888 </r>
       <r>    -7.8428    20.5558   305.1355 </r>
       <r>    -7.5826    28.9987   312.6782 </r>
       <r>    -7.3225    35.9008   322.0162 </r>
       <r>    -7.0624    38.0533   331.9141 </r>
       <r>    -6.8023    40.0492   342.3312 </r>
       <r>    -6.5422    43.4337   353.6285 </r>
       <r>    -6.2821    46.7841   365.7973 </r>
       <r>    -6.0220    49.5580   378.6877 </r>
       <r>    -5.7619    56.4372   393.3673 </r>
       <r>    -5.5018    54.9407   407.6577 </r>
       <r>    -5.2417    60.6307   423.4281 </r>
       <r>    -4.9816    68.6953   441.2962 </r>
       <r>    -4.7215    66.5285   458.6007 </r>
       <r>    -4.4614    53.1786   472.4328 </r>
       <r>    -4.2013    44.7915   484.0833 </r>
       <r>    -3.9412    44.1105   495.5567 </r>
       <r>    -3.6811    44.1348   507.0364 </r>
       <r>    -3.4209    46.3179   519.0840 </r>
       <r>    -3.1608    60.5289   534.8279 </r>
       <r>    -2.9007    75.1821   554.3832 </r>
       <r>    -2.6406    92.4242   578.4233 </r>
       <r>    -2.3805   112.6607   607.7270 </r>
       <r>    -2.1204   129.0416   641.2915 </r>
       <r>    -1.8603   123.9953   673.5435 </r>
       <r>    -1.6002   110.3541   702.2472 </r>
       <r>    -1.3401   100.0989   728.2836 </r>
       <r>    -1.0800    86.8344   750.8697 </r>
       <r>    -0.8199    73.5526   770.0012 </r>
       <r>    -0.5598    58.4636   785.2079 </r>
       <r>    -0.2997    55.5723   799.6626 </r>
       <r>    -0.0396    59.9865   815.2655 </r>
       <r>     0.2205    59.6112   830.7707 </r>
       <r>     0.4806    47.2110   843.0506 </r>
       <r>     0.7407    35.7887   852.3594 </r>
       <r>     1.0009    38.1848   862.2915 </r>
       <r>     1.2610    42.1328   873.2505 </r>
       <r>     1.5211    32.7653   881.7730 </r>
       <r>     1.7812    16.1242   885.9670 </r>
       <r>     2.0413    11.4403   888.9427 </r>
       <r>     2.3014     4.7397   890.1755 </r>
       <r>     2.5615     6.5671   891.8837 </r>
       <r>     2.8216    12.7207   895.1924 </r>
       <r>     3.0817    14.7358   899.0253 </r>
       <r>     3.3418    10.3723   901.7231 </r>
       <r>     3.6019    14.3069   905.4444 </r>
       <r>     3.8620    13.6325   908.9904 </r>
       <r>     4.1221    15.3713   912.9885 </r>
       <r>     4.3822    22.8151   918.9229 </r>
       <r>     4.6423    31.6692   927.1602 </r>
       <r>     4.9024    36.8789   936.7526 </r>
       <r>     5.1626    40.1559   947.1974 </r>
       <r>     5.4227    48.1089   959.7109 </r>
       <r>     5.6828    42.8994   970.8693 </r>
       <r>     5.9429    18.1976   975.6026 </r>
       <r>     6.2030     1.5162   975.9969 </r>
       <r>     6.4631     0.0118   976.0000 </r>
       <r>     6.7232     0.0000   976.0000 </r>
       <r>     6.9833     0.0000   976.0000 </r>
       <r>     7.2434     0.0000   976.0000 </r>
       <r>     7.5035     0.0000   976.0000 </r>
       <r>     7.7636     0.0000   976.0000 </r>
       <r>     8.0237     0.0000   976.0000 </r>
       <r>     8.2838     0.0000   976.0000 </r>
       <r>     8.5439     0.0000   976.0000 </r>
       <r>     8.8040     0.0000   976.0000 </r>
       <r>     9.0641     0.0000   976.0000 </r>
       <r>     9.3242     0.0000   976.0000 </r>
      </set>
     </set>
    </array>
   </total>
  </dos>
 </calculation>
 <structure name="finalpos" >
  <crystal>
   <varray name="basis" >
    <v>      16.88469405       0.00000000       0.00000000 </v>
    <v>       0.00000000       9.57841000       0.00000000 </v>
    <v>       0.00000000       0.00000000      16.65464569 </v>
   </varray>
   <i name="volume">   2693.53123734 </i>
   <varray name="rec_basis" >
    <v>       0.05922524       0.00000000       0.00000000 </v>
    <v>       0.00000000       0.10440146       0.00000000 </v>
    <v>       0.00000000       0.00000000       0.06004331 </v>
   </varray>
  </crystal>
  <varray name="positions" >
   <v>       0.76739128       0.14021337       0.15278760 </v>
   <v>       0.81903272       0.15288575       0.28789305 </v>
   <v>       0.24783817       0.64526680       0.07708377 </v>
   <v>       0.29733028       0.64529696       0.21607389 </v>
   <v>       0.39260062       0.14793790       0.13034103 </v>
   <v>       0.46975828       0.14529696       0.24694159 </v>
   <v>       0.95247430       0.64529696       0.15433850 </v>
   <v>       0.97420886       0.64471584       0.31671542 </v>
   <v>       0.17433638       0.14522658       0.04752819 </v>
   <v>       0.12490229       0.14529696       0.18520619 </v>
   <v>       0.11862074       0.14534631       0.33015496 </v>
   <v>       0.57030774       0.65127097       0.16190067 </v>
   <v>       0.64218627       0.64529696       0.27780929 </v>
   <v>       0.89788019       0.02037145       0.10909615 </v>
   <v>       0.95189941       0.01805640       0.24853577 </v>
   <v>       0.39345213       0.51636031       0.03865354 </v>
   <v>       0.42486675       0.51319396       0.19160760 </v>
   <v>       0.46442165       0.46394106       0.32825492 </v>
   <v>       0.60200119       0.93083197       0.09286280 </v>
   <v>       0.59729475       0.01319396       0.22247530 </v>
   <v>       0.08001077       0.51319396       0.12987220 </v>
   <v>       0.11184694       0.50746195       0.29434733 </v>
   <v>       0.25243876       0.01319396       0.16073990 </v>
   <v>       0.29016248       0.98337233       0.30987130 </v>
   <v>       0.76972274       0.51319396       0.25334300 </v>
   <v>       0.94472769       0.27576009       0.23407567 </v>
   <v>       0.39049496       0.76572067       0.03713736 </v>
   <v>       0.42486675       0.77739996       0.19160760 </v>
   <v>       0.46427417       0.82640951       0.32849176 </v>
   <v>       0.53059290       0.14963505       0.09062090 </v>
   <v>       0.59729475       0.27739996       0.22247530 </v>
   <v>       0.08001077       0.77739996       0.12987220 </v>
   <v>       0.11203697       0.78293915       0.29469916 </v>
   <v>       0.25243876       0.27739996       0.16073990 </v>
   <v>       0.29026093       0.30751032       0.30966956 </v>
   <v>       0.76591131       0.86380319       0.12077135 </v>
   <v>       0.76972274       0.77739996       0.25334300 </v>
   <v>       0.99828205       0.16481286       0.32600652 </v>
   <v>       0.99800024       0.13519304       0.15372523 </v>
   <v>       0.47417723       0.64529696       0.09088994 </v>
   <v>       0.50874518       0.64529696       0.27609614 </v>
   <v>       0.64660522       0.14529696       0.12175764 </v>
   <v>       0.69441351       0.14910127       0.26750647 </v>
   <v>       0.13091141       0.64695372       0.04648307 </v>
   <v>       0.16388920       0.64529696       0.21436074 </v>
   <v>       0.07723810       0.64495546       0.38167915 </v>
   <v>       0.29190188       0.14527263       0.06483136 </v>
   <v>       0.33631719       0.14529696       0.24522844 </v>
   <v>       0.82080003       0.66720708       0.15746795 </v>
   <v>       0.85021957       0.64277473       0.31343380 </v>
   <v>       0.85122835       0.20548066       0.06572898 </v>
   <v>       0.82440752       0.32526317       0.21677210 </v>
   <v>       0.31177707       0.81351196       0.12204440 </v>
   <v>       0.34866809       0.79743038       0.29403302 </v>
   <v>       0.48420507       0.31351196       0.15291210 </v>
   <v>       0.52796541       0.28728868       0.32350001 </v>
   <v>       0.00148905       0.81351196       0.24551520 </v>
   <v>       0.96541906       0.83253088       0.08969128 </v>
   <v>       0.14009082       0.32192512       0.10744141 </v>
   <v>       0.17391704       0.31351196       0.27638290 </v>
   <v>       0.65663306       0.81351196       0.18377980 </v>
   <v>       0.69429050       0.79456137       0.34726521 </v>
   <v>       0.31177707       0.47708196       0.12204440 </v>
   <v>       0.34882088       0.49342386       0.29404140 </v>
   <v>       0.79076432       0.01735621       0.04182737 </v>
   <v>       0.82906105       0.97708196       0.21464750 </v>
   <v>       0.00148905       0.47708196       0.24551520 </v>
   <v>       0.97904014       0.51272440       0.06634143 </v>
   <v>       0.48420507       0.97708196       0.15291210 </v>
   <v>       0.52728693       0.00390681       0.32435853 </v>
   <v>       0.65079846       0.48070692       0.19619771 </v>
   <v>       0.70050412       0.50975638       0.35131469 </v>
   <v>       0.14111112       0.96737248       0.10709835 </v>
   <v>       0.17391704       0.97708196       0.27638290 </v>
  </varray>
 </structure>
</modeling>
