 vasp.5.4.4.18Apr17-6-g9f103f2a35 (build Aug 13 2019 17:33:20) gamma-only       
  
 executed on             LinuxIFC date 2020.05.11  05:38:49
 running on   12 total cores
 distrk:  each k-point on   12 cores,    1 groups
 distr:  one band on NCORES_PER_BAND=   6 cores,    2 groups


--------------------------------------------------------------------------------------------------------


 INCAR:
 POTCAR:    PAW_PBE Ni_pv 06Sep2000               
 POTCAR:    PAW_PBE S 06Sep2000                   
 POTCAR:    PAW_PBE Ni_pv 06Sep2000               
   VRHFIN =Ni:                                                                  
   LEXCH  = PE                                                                  
   EATOM  =  3501.1230 eV,  257.3253 Ry                                         
                                                                                
   TITEL  = PAW_PBE Ni_pv 06Sep2000                                             
   LULTRA =        F    use ultrasoft PP ?                                      
   IUNSCR =        1    unscreen: 0-lin 1-nonlin 2-no                           
   RPACOR =    1.500    partial core radius                                     
   POMASS =   58.690; ZVAL   =   16.000    mass and valenz                      
   RCORE  =    2.000    outmost cutoff radius                                   
   RWIGS  =    2.000; RWIGS  =    1.058    wigner-seitz radius (au A)           
   ENMAX  =  367.986; ENMIN  =  275.989 eV                                      
   RCLOC  =    1.301    cutoff for local pot                                    
   LCOR   =        T    correct aug charges                                     
   LPAW   =        T    paw PP                                                  
   EAUG   =  703.443                                                            
   DEXC   =    0.000                                                            
   RMAX   =    2.041    core radius for proj-oper                               
   RAUG   =    1.300    factor for augmentation sphere                          
   RDEP   =    2.103    radius for radial grids                                 
   RDEPT  =    1.618    core radius for aug-charge                              
                                                                                
   Atomic configuration                                                         
    8 entries                                                                   
     n  l   j            E        occ.                                          
     1  0  0.50     -8206.4253   2.0000                                         
     2  0  0.50      -976.1748   2.0000                                         
     2  1  1.50      -839.0571   6.0000                                         
     3  0  0.50      -105.9991   2.0000                                         
     3  1  1.50       -66.4603   6.0000                                         
     3  2  2.50        -4.6458   9.0000                                         
     4  0  0.50        -4.4926   1.0000                                         
     4  3  2.50        -1.3606   0.0000                                         
   Description                                                                  
     l       E           TYP  RCUT    TYP  RCUT                                 
     1    -66.4602962     23  1.700                                             
     1     -1.3605826     23  1.700                                             
     2     -4.6457867     23  2.000                                             
     2     -6.0063693     23  2.000                                             
     0     -4.4925576     23  1.900                                             
     0     16.3626226     23  1.900                                             
  local pseudopotential read in
  partial core-charges read in
  partial kinetic energy density read in
  atomic valenz-charges read in
  non local Contribution for L=           1  read in
    real space projection operators read in
  non local Contribution for L=           1  read in
    real space projection operators read in
  non local Contribution for L=           2  read in
    real space projection operators read in
  non local Contribution for L=           2  read in
    real space projection operators read in
  non local Contribution for L=           0  read in
    real space projection operators read in
  non local Contribution for L=           0  read in
    real space projection operators read in
    PAW grid and wavefunctions read in
 
   number of l-projection  operators is LMAX  =           6
   number of lm-projection operators is LMMAX =          18
 
 POTCAR:    PAW_PBE S 06Sep2000                   
   VRHFIN =S : s2p4                                                             
   LEXCH  = PE                                                                  
   EATOM  =   276.8230 eV,   20.3459 Ry                                         
                                                                                
   TITEL  = PAW_PBE S 06Sep2000                                                 
   LULTRA =        F    use ultrasoft PP ?                                      
   IUNSCR =        1    unscreen: 0-lin 1-nonlin 2-no                           
   RPACOR =    1.500    partial core radius                                     
   POMASS =   32.066; ZVAL   =    6.000    mass and valenz                      
   RCORE  =    1.900    outmost cutoff radius                                   
   RWIGS  =    2.200; RWIGS  =    1.164    wigner-seitz radius (au A)           
   ENMAX  =  258.689; ENMIN  =  194.016 eV                                      
   ICORE  =        2    local potential                                         
   LCOR   =        T    correct aug charges                                     
   LPAW   =        T    paw PP                                                  
   EAUG   =  335.092                                                            
   DEXC   =    0.000                                                            
   RMAX   =    1.942    core radius for proj-oper                               
   RAUG   =    1.300    factor for augmentation sphere                          
   RDEP   =    1.954    radius for radial grids                                 
   RDEPT  =    1.744    core radius for aug-charge                              
                                                                                
   Atomic configuration                                                         
    6 entries                                                                   
     n  l   j            E        occ.                                          
     1  0  0.50     -2405.8406   2.0000                                         
     2  0  0.50      -211.7007   2.0000                                         
     2  1  1.50      -156.4958   6.0000                                         
     3  0  0.50       -17.2562   2.0000                                         
     3  1  0.50        -7.0085   4.0000                                         
     3  2  1.50        -6.8029   0.0000                                         
   Description                                                                  
     l       E           TYP  RCUT    TYP  RCUT                                 
     0    -17.2561641     23  1.900                                             
     0    -15.8743224     23  1.900                                             
     1     -7.0085400     23  1.900                                             
     1     -2.7779785     23  1.900                                             
     2     -6.8029130     23  1.900                                             
  local pseudopotential read in
  partial core-charges read in
  partial kinetic energy density read in
  atomic valenz-charges read in
  non local Contribution for L=           0  read in
    real space projection operators read in
  non local Contribution for L=           0  read in
    real space projection operators read in
  non local Contribution for L=           1  read in
    real space projection operators read in
  non local Contribution for L=           1  read in
    real space projection operators read in
    PAW grid and wavefunctions read in
 
   number of l-projection  operators is LMAX  =           4
   number of lm-projection operators is LMMAX =           8
 
 Optimization of the real space projectors (new method)

 maximal supplied QI-value         = 18.90
 optimisation between [QCUT,QGAM] = [ 10.77, 21.73] = [ 32.49,132.25] Ry 
 Optimized for a Real-space Cutoff    1.38 Angstroem

   l    n(q)    QCUT    max X(q) W(low)/X(q) W(high)/X(q)  e(spline) 
   1      8    10.771     2.836    0.40E-04    0.29E-04    0.12E-06
   1      8    10.771     4.023    0.10E-03    0.48E-04    0.29E-06
   2      8    10.771    73.368    0.42E-03    0.97E-04    0.44E-06
   2      8    10.771    69.010    0.42E-03    0.99E-04    0.45E-06
   0      9    10.771    54.797    0.10E-03    0.56E-04    0.74E-07
   0      9    10.771    24.266    0.89E-04    0.49E-04    0.67E-07
 Optimization of the real space projectors (new method)

 maximal supplied QI-value         = 19.84
 optimisation between [QCUT,QGAM] = [ 10.71, 21.63] = [ 32.15,130.99] Ry 
 Optimized for a Real-space Cutoff    1.19 Angstroem

   l    n(q)    QCUT    max X(q) W(low)/X(q) W(high)/X(q)  e(spline) 
   0      8    10.715   187.594    0.41E-03    0.53E-04    0.66E-07
   0      8    10.715   164.243    0.41E-03    0.53E-04    0.65E-07
   1      7    10.715    67.533    0.19E-03    0.59E-03    0.68E-07
   1      7    10.715    50.729    0.19E-03    0.58E-03    0.67E-07
  PAW_PBE Ni_pv 06Sep2000               :
 energy of atom  1       EATOM=-3501.1230
 kinetic energy error for atom=    0.0925 (will be added to EATOM!!)
  PAW_PBE S 06Sep2000                   :
 energy of atom  2       EATOM= -276.8230
 kinetic energy error for atom=    0.0033 (will be added to EATOM!!)
 
 
 POSCAR: Type_052 Type_152                       
  positions in cartesian coordinates
  No initial velocities read in
 exchange correlation table for  LEXCH =        8
   RHO(1)=    0.500       N(1)  =     2000
   RHO(2)=  100.500       N(2)  =     4000
 


--------------------------------------------------------------------------------------------------------


 ion  position               nearest neighbor table
   1  0.261  0.479  0.291-  79 2.25  63 2.26  87 2.26  59 2.36  64 2.36   7 2.53  23 2.53
   2  0.355  0.385  0.419-  71 2.07  65 2.17  80 2.25  59 2.26  64 2.26   8 2.53  24 2.53
   3  0.167  0.073  0.162-  60 2.11  69 2.25  61 2.36  89 2.36  88 2.38  13 2.49  39 2.53  33 2.53

   4  0.050  0.048  0.498-  54 2.06  83 2.08  84 2.09  78 2.11  16 2.42  29 2.52
   5  0.209  0.524  0.055-  55 2.01  62 2.06  86 2.08  30 2.50  40 2.52
   6  0.274  0.333  0.128-  62 2.09  60 2.12  56 2.36  63 2.36  55 2.44  12 2.53  30 2.53
   7  0.368  0.239  0.257-  61 2.25  63 2.26  56 2.26  64 2.36  66 2.36   1 2.53  23 2.53
   8  0.462  0.145  0.385-  65 2.08  67 2.15  85 2.25  64 2.26  66 2.26  18 2.42   2 2.53  24 2.53

   9  0.000  0.372  0.257-  63 2.25  69 2.26 100 2.26  53 2.36  72 2.36  14 2.53  21 2.53
  10  0.094  0.278  0.385-  64 2.25  53 2.26  72 2.26  54 2.36  58 2.36  22 2.53  15 2.53
  11  0.206  0.208  0.485-  58 2.05  83 2.11  54 2.11  65 2.12  29 2.39
  12  0.406  0.465  0.128-  55 2.05  75 2.14  86 2.21  40 2.33  56 2.36  87 2.36  30 2.53   6 2.53

  13  0.216  0.031  0.056-  81 2.03  60 2.07  88 2.07   3 2.49  32 2.51
  14  0.761  0.479  0.291-  92 2.25  76 2.26 100 2.26  72 2.36  77 2.36  21 2.53   9 2.53
  15  0.855  0.385  0.419-  70 2.18  72 2.26  77 2.26  93 2.30  78 2.32  58 2.36  22 2.53  10 2.53

  16  0.944  0.282  0.523-  58 2.02  78 2.06  70 2.09  83 2.16   4 2.42
  17  0.667  0.073  0.162- 101 2.10  56 2.25  74 2.36 102 2.36  46 2.46  73 2.46  52 2.53  47 2.53

  18  0.564  0.021  0.472-  96 2.05  97 2.05  67 2.09  65 2.14   8 2.42
  19  0.715  0.527  0.057-  68 2.01  75 2.05  99 2.06  44 2.47
  20  0.774  0.333  0.128-  68 2.06  73 2.18  75 2.21  69 2.36  76 2.36  25 2.53  44 2.53
  21  0.868  0.239  0.257-  74 2.25  76 2.26  69 2.26  77 2.36  53 2.36  14 2.53   9 2.53
  22  0.962  0.145  0.385-  78 2.04  98 2.25  77 2.26  53 2.26  54 2.36  15 2.53  10 2.53
  23  0.500  0.372  0.257-  76 2.25  56 2.26  87 2.26  66 2.36  59 2.36   1 2.53   7 2.53
  24  0.594  0.278  0.385-  71 2.07  67 2.13  77 2.25  66 2.26  59 2.26   8 2.53   2 2.53
  25  0.906  0.465  0.128-  68 2.06  99 2.12  62 2.13  69 2.36 100 2.36  44 2.53  20 2.53
  26  0.932  0.012  0.032-  94 2.09  88 2.10  73 2.20  52 2.32  46 2.49
  27  0.261  0.979  0.291-  53 2.25  89 2.26  61 2.26  85 2.36  90 2.36  34 2.53  50 2.53
  28  0.355  0.885  0.419-  97 2.04  54 2.25  85 2.26  90 2.26  91 2.36  29 2.37  35 2.53  51 2.53

  29  0.294  0.980  0.513-  83 2.09  97 2.11  54 2.24  28 2.37  11 2.39   4 2.52
  30  0.167  0.573  0.162-  62 2.11  86 2.25  95 2.25  87 2.36  63 2.36   5 2.50  12 2.53   6 2.53

  31  0.040  0.557  0.494-  80 2.04  57 2.05 104 2.09  58 2.10  43 2.44
  32  0.212  0.815  0.033-  81 2.14  86 2.15  88 2.18  33 2.33  13 2.51
  33  0.274  0.833  0.128-  81 2.09  88 2.15  86 2.16  32 2.33  82 2.36  89 2.36  39 2.53   3 2.53

  34  0.368  0.739  0.257-  87 2.25  89 2.26  82 2.26  90 2.36  92 2.36  27 2.53  50 2.53
  35  0.462  0.645  0.385-  93 2.12  59 2.25  90 2.26  92 2.26  91 2.36  45 2.42  28 2.53  51 2.53

  36  0.000  0.872  0.257-  89 2.25  95 2.26  74 2.26  79 2.36  98 2.36  41 2.53  48 2.53
  37  0.094  0.778  0.385-  90 2.25  79 2.26  98 2.26  80 2.36  84 2.36  49 2.53  42 2.53
  38  0.186  0.695  0.497-  57 2.05  80 2.05  84 2.06  91 2.10
  39  0.406  0.965  0.128-  60 2.11 101 2.13  81 2.22  82 2.36  61 2.36   3 2.53  33 2.53
  40  0.411  0.560  0.039-  86 2.10  55 2.14  75 2.19  12 2.33   5 2.52
  41  0.761  0.979  0.291-  66 2.25 102 2.26  74 2.26  98 2.36 103 2.36  48 2.53  36 2.53
  42  0.855  0.885  0.419- 104 2.24  96 2.24  67 2.25  98 2.26 103 2.26  84 2.36  49 2.53  37 2.53

  43  0.933  0.791  0.523-  57 2.04  96 2.05  84 2.05 104 2.08  31 2.44
  44  0.667  0.573  0.162-  99 2.11  75 2.20  82 2.25 100 2.36  76 2.36  19 2.47  25 2.53  20 2.53

  45  0.558  0.541  0.477-  71 2.05  93 2.07  70 2.09  91 2.17  35 2.42
  46  0.711  0.025  0.057-  94 2.03 101 2.06  73 2.07  17 2.46  26 2.49  47 2.54
  47  0.774  0.833  0.128- 101 2.11  99 2.14  94 2.17  95 2.36 102 2.36  52 2.53  17 2.53  46 2.54

  48  0.868  0.739  0.257- 100 2.25 102 2.26  95 2.26 103 2.36  79 2.36  41 2.53  36 2.53
  49  0.962  0.645  0.385- 104 2.05  72 2.25 103 2.26  79 2.26  80 2.36  42 2.53  37 2.53
  50  0.500  0.872  0.257- 102 2.25  82 2.26  61 2.26  92 2.36  85 2.36  27 2.53  34 2.53
  51  0.594  0.778  0.385-  93 2.09 103 2.25  92 2.26  85 2.26  97 2.49  35 2.53  28 2.53
  52  0.906  0.965  0.128-  73 2.10  94 2.10  88 2.18  26 2.32  95 2.36  74 2.36  17 2.53  47 2.53

  53  0.073  0.167  0.306-  27 2.25  10 2.26  22 2.26   9 2.36  21 2.36
  54  0.167  0.073  0.435-   4 2.06  11 2.11  29 2.24  28 2.25  10 2.36  22 2.36
  55  0.397  0.379  0.051-   5 2.01  12 2.05  40 2.14   6 2.44
  56  0.479  0.261  0.178-  17 2.25   7 2.26  23 2.26   6 2.36  12 2.36
  57  0.095  0.642  0.562-  43 2.04  31 2.05  38 2.05
  58  0.030  0.378  0.478-  16 2.02  11 2.05  31 2.10  10 2.36  15 2.36
  59  0.436  0.472  0.350-  35 2.25   2 2.26  24 2.26   1 2.36  23 2.36  71 2.74
  60  0.259  0.157  0.107-  13 2.07  39 2.11   3 2.11   6 2.12
  61  0.342  0.066  0.221-   7 2.25  27 2.26  50 2.26   3 2.36  39 2.36
  62  0.084  0.479  0.107-   5 2.06   6 2.09  30 2.11  25 2.13
  63  0.174  0.397  0.221-   9 2.25   7 2.26   1 2.26   6 2.36  30 2.36
  64  0.268  0.303  0.350-  10 2.25   2 2.26   8 2.26   1 2.36   7 2.36
  65  0.391  0.208  0.469-   8 2.08  11 2.12  18 2.14   2 2.17
  66  0.573  0.167  0.306-  41 2.25  24 2.26   8 2.26  23 2.36   7 2.36  67 2.61
  67  0.666  0.075  0.410-  18 2.09  24 2.13   8 2.15  42 2.25  96 2.56  66 2.61
  68  0.883  0.357  0.061-  19 2.01  25 2.06  20 2.06
  69  0.979  0.261  0.178-   3 2.25  21 2.26   9 2.26  20 2.36  25 2.36
  70  0.757  0.437  0.504-  16 2.09  45 2.09  15 2.18  93 2.58  78 2.61
  71  0.518  0.384  0.461-  45 2.05  24 2.07   2 2.07  59 2.74
  72  0.936  0.472  0.350-  49 2.25  15 2.26  10 2.26  14 2.36   9 2.36
  73  0.782  0.151  0.092-  46 2.07  52 2.10  20 2.18  26 2.20  17 2.46
  74  0.842  0.066  0.221-  21 2.25  41 2.26  36 2.26  17 2.36  52 2.36
  75  0.577  0.488  0.100-  19 2.05  12 2.14  40 2.19  44 2.20  20 2.21
  76  0.674  0.397  0.221-  23 2.25  21 2.26  14 2.26  20 2.36  44 2.36
  77  0.768  0.303  0.350-  24 2.25  15 2.26  22 2.26  14 2.36  21 2.36
  78  0.870  0.194  0.464-  22 2.04  16 2.06   4 2.11  15 2.32  70 2.61
  79  0.073  0.667  0.306-   1 2.25  37 2.26  49 2.26  36 2.36  48 2.36
  80  0.167  0.573  0.435-  31 2.04  38 2.05   2 2.25  37 2.36  49 2.36
  81  0.377  0.850  0.055-  13 2.03  33 2.09  32 2.14  39 2.22
  82  0.479  0.761  0.178-  44 2.25  34 2.26  50 2.26  33 2.36  39 2.36
  83  0.134  0.135  0.555-   4 2.08  29 2.09  11 2.11  16 2.16
  84  0.030  0.878  0.478-  43 2.05  38 2.06   4 2.09  37 2.36  42 2.36
  85  0.436  0.972  0.350-   8 2.25  28 2.26  51 2.26  27 2.36  50 2.36
  86  0.255  0.662  0.098-   5 2.08  40 2.10  32 2.15  33 2.16  12 2.21  30 2.25
  87  0.342  0.566  0.221-  34 2.25   1 2.26  23 2.26  30 2.36  12 2.36
  88  0.084  0.970  0.093-  13 2.07  26 2.10  33 2.15  52 2.18  32 2.18   3 2.38
  89  0.174  0.897  0.221-  36 2.25  34 2.26  27 2.26  33 2.36   3 2.36
  90  0.268  0.803  0.350-  37 2.25  28 2.26  35 2.26  27 2.36  34 2.36
  91  0.362  0.709  0.478-  38 2.10  45 2.17  28 2.36  35 2.36
  92  0.573  0.667  0.306-  14 2.25  51 2.26  35 2.26  50 2.36  34 2.36  93 2.62
  93  0.662  0.580  0.412-  45 2.07  51 2.09  35 2.12  15 2.30  70 2.58  92 2.62
  94  0.887  0.858  0.057-  46 2.03  26 2.09  52 2.10  47 2.17
  95  0.979  0.761  0.178-  30 2.25  48 2.26  36 2.26  47 2.36  52 2.36
  96  0.753  0.948  0.506-  43 2.05  18 2.05  42 2.24  67 2.56 104 2.65
  97  0.489  0.885  0.479-  28 2.04  18 2.05  29 2.11  51 2.49
  98  0.936  0.972  0.350-  22 2.25  42 2.26  37 2.26  41 2.36  36 2.36
  99  0.757  0.657  0.106-  19 2.06  44 2.11  25 2.12  47 2.14
 100  0.842  0.566  0.221-  48 2.25  14 2.26   9 2.26  44 2.36  25 2.36
 101  0.583  0.982  0.107-  46 2.06  17 2.10  47 2.11  39 2.13
 102  0.674  0.897  0.221-  50 2.25  48 2.26  41 2.26  47 2.36  17 2.36
 103  0.768  0.803  0.350-  51 2.25  42 2.26  49 2.26  41 2.36  48 2.36
 104  0.860  0.704  0.462-  49 2.05  43 2.08  31 2.09  42 2.24  96 2.65
 
  LATTYP: Found a base centered orthorhombic cell.
 ALAT       =    11.8257374459
 B/A-ratio  =     1.6199260857
 C/A-ratio  =     1.9350716598
  
  Lattice vectors:
  
 A1 = (  11.2564630382,   0.0000000000,   0.0000000000)
 A2 = (  -5.0445621212, -10.0628203371,   0.0000000000)
 A3 = (   0.0000000000,   0.0000000000, -22.8836493875)


Analysis of symmetry for initial positions (statically):
=====================================================================
 Subroutine PRICEL returns:
 Original cell was already a primitive cell.
 

 Routine SETGRP: Setting up the symmetry group for a 
 base centered orthorhombic supercell.


 Subroutine GETGRP returns: Found  1 space group operations
 (whereof  1 operations were pure point group operations)
 out of a pool of  8 trial point group operations.


The static configuration has the point symmetry C_1 .


Analysis of symmetry for dynamics (positions and initial velocities):
=====================================================================
 Subroutine PRICEL returns:
 Original cell was already a primitive cell.
 

 Routine SETGRP: Setting up the symmetry group for a 
 base centered orthorhombic supercell.


 Subroutine GETGRP returns: Found  1 space group operations
 (whereof  1 operations were pure point group operations)
 out of a pool of  8 trial point group operations.


The dynamic configuration has the point symmetry C_1 .


 Subroutine INISYM returns: Found  1 space group operations
 (whereof  1 operations are pure point group operations),
 and found     1 'primitive' translations

 
 
 KPOINTS: gamma-point-only calculation. no periodi

Automatic generation of k-mesh.
Space group operators:
 irot       det(A)        alpha          n_x          n_y          n_z        tau_x        tau_y        tau_z
    1     1.000000     0.000001     1.000000     0.000000     0.000000     0.000000     0.000000     0.000000
 
 Subroutine IBZKPT returns following result:
 ===========================================
 
 Found      1 irreducible k-points:
 
 Following reciprocal coordinates:
            Coordinates               Weight
  0.000000  0.000000  0.000000      1.000000
 
 Following cartesian coordinates:
            Coordinates               Weight
  0.000000  0.000000  0.000000      1.000000
 


--------------------------------------------------------------------------------------------------------




 Dimension of arrays:
   k-points           NKPTS =      1   k-points in BZ     NKDIM =      1   number of bands    NBANDS=    686
   number of dos      NEDOS =    301   number of ions     NIONS =    104
   non local maximal  LDIM  =      6   non local SUM 2l+1 LMDIM =     18
   total plane-waves  NPLWV = 432000
   max r-space proj   IRMAX =   1888   max aug-charges    IRDMAX=   5450
   dimension x,y,z NGX =    60 NGY =   60 NGZ =  120
   dimension x,y,z NGXF=   120 NGYF=  120 NGZF=  240
   support grid    NGXF=   120 NGYF=  120 NGZF=  240
   ions per type =              52  52
   NGX,Y,Z   is equivalent  to a cutoff of   8.86,  8.86,  8.72 a.u.
   NGXF,Y,Z  is equivalent  to a cutoff of  17.72, 17.72, 17.44 a.u.

 SYSTEM =  "Millerite NiS"                         
 POSCAR =  Type_052 Type_152                       

 Startparameter for this run:
   NWRITE =      2    write-flag & timer
   PREC   = normal    normal or accurate (medium, high low for compatibility)
   ISTART =      0    job   : 0-new  1-cont  2-samecut
   ICHARG =      2    charge: 1-file 2-atom 10-const
   ISPIN  =      1    spin polarized calculation?
   LNONCOLLINEAR =      F non collinear calculations
   LSORBIT =      F    spin-orbit coupling
   INIWAV =      1    electr: 0-lowe 1-rand  2-diag
   LASPH  =      F    aspherical Exc in radial PAW
   METAGGA=      F    non-selfconsistent MetaGGA calc.

 Electronic Relaxation 1
   ENCUT  =  450.0 eV  33.07 Ry    5.75 a.u.  19.47 19.47 39.58*2*pi/ulx,y,z
   ENINI  =  450.0     initial cutoff
   ENAUG  =  703.4 eV  augmentation charge cutoff
   NELM   =    100;   NELMIN=  2; NELMDL= -5     # of ELM steps 
   EDIFF  = 0.1E-03   stopping-criterion for ELM
   LREAL  =      T    real-space projection
   NLSPLINE    = F    spline interpolate recip. space projectors
   LCOMPAT=      F    compatible to vasp.4.4
   GGA_COMPAT  = T    GGA compatible to vasp.4.4-vasp.4.6
   LMAXPAW     = -100 max onsite density
   LMAXMIX     =    2 max onsite mixed and CHGCAR
   VOSKOWN=      0    Vosko Wilk Nusair interpolation
   ROPT   =   -0.00050  -0.00050
 Ionic relaxation
   EDIFFG = 0.1E-02   stopping-criterion for IOM
   NSW    =      0    number of steps for IOM
   NBLOCK =      1;   KBLOCK =      1    inner block; outer block 
   IBRION =     -1    ionic relax: 0-MD 1-quasi-New 2-CG
   NFREE  =      0    steps in history (QN), initial steepest desc. (CG)
   ISIF   =      2    stress and relaxation
   IWAVPR =     10    prediction:  0-non 1-charg 2-wave 3-comb
   ISYM   =      2    0-nonsym 1-usesym 2-fastsym
   LCORR  =      T    Harris-Foulkes like correction to forces

   POTIM  = 0.5000    time-step for ionic-motion
   TEIN   =    0.0    initial temperature
   TEBEG  =    0.0;   TEEND  =   0.0 temperature during run
   SMASS  =  -3.00    Nose mass-parameter (am)
   estimated Nose-frequenzy (Omega)   =  0.10E-29 period in steps =****** mass=  -0.290E-26a.u.
   SCALEE = 1.0000    scale energy and forces
   NPACO  =    256;   APACO  = 16.0  distance and # of slots for P.C.
   PSTRESS=    0.0 pullay stress

  Mass of Ions in am
   POMASS =  58.69 32.07
  Ionic Valenz
   ZVAL   =  16.00  6.00
  Atomic Wigner-Seitz radii
   RWIGS  =  -1.00 -1.00
  virtual crystal weights 
   VCA    =   1.00  1.00
   NELECT =    1144.0000    total number of electrons
   NUPDOWN=      -1.0000    fix difference up-down

 DOS related values:
   EMIN   =  10.00;   EMAX   =-10.00  energy-range for DOS
   EFERMI =   0.00
   ISMEAR =     0;   SIGMA  =   0.20  broadening in eV -4-tet -1-fermi 0-gaus

 Electronic relaxation 2 (details)
   IALGO  =     38    algorithm
   LDIAG  =      T    sub-space diagonalisation (order eigenvalues)
   LSUBROT=      F    optimize rotation matrix (better conditioning)
   TURBO    =      0    0=normal 1=particle mesh
   IRESTART =      0    0=no restart 2=restart with 2 vectors
   NREBOOT  =      0    no. of reboots
   NMIN     =      0    reboot dimension
   EREF     =   0.00    reference energy to select bands
   IMIX   =      4    mixing-type and parameters
     AMIX     =   0.40;   BMIX     =  1.00
     AMIX_MAG =   1.60;   BMIX_MAG =  1.00
     AMIN     =   0.10
     WC   =   100.;   INIMIX=   1;  MIXPRE=   1;  MAXMIX= -45

 Intra band minimization:
   WEIMIN = 0.0000     energy-eigenvalue tresh-hold
   EBREAK =  0.36E-07  absolut break condition
   DEPER  =   0.30     relativ break condition  

   TIME   =   0.40     timestep for ELM

  volume/ion in A,a.u.               =      24.92       168.19
  Fermi-wavevector in a.u.,A,eV,Ry     =   1.246430  2.355411 21.137841  1.553587
  Thomas-Fermi vector in A             =   2.380608
 
 Write flags
   LWAVE        =      F    write WAVECAR
   LDOWNSAMPLE  =      F    k-point downsampling of WAVECAR
   LCHARG       =      F    write CHGCAR
   LVTOT        =      F    write LOCPOT, total local potential
   LVHAR        =      F    write LOCPOT, Hartree potential only
   LELF         =      F    write electronic localiz. function (ELF)
   LORBIT       =      0    0 simple, 1 ext, 2 COOP (PROOUT), +10 PAW based schemes


 Dipole corrections
   LMONO  =      F    monopole corrections only (constant potential shift)
   LDIPOL =      F    correct potential (dipole corrections)
   IDIPOL =      0    1-x, 2-y, 3-z, 4-all directions 
   EPSILON=  1.0000000 bulk dielectric constant

 Exchange correlation treatment:
   GGA     =    --    GGA type
   LEXCH   =     8    internal setting for exchange type
   VOSKOWN=      0    Vosko Wilk Nusair interpolation
   LHFCALC =     F    Hartree Fock is set to
   LHFONE  =     F    Hartree Fock one center treatment
   AEXX    =    0.0000 exact exchange contribution

 Linear response parameters
   LEPSILON=     F    determine dielectric tensor
   LRPA    =     F    only Hartree local field effects (RPA)
   LNABLA  =     F    use nabla operator in PAW spheres
   LVEL    =     F    velocity operator in full k-point grid
   LINTERFAST=   F  fast interpolation
   KINTER  =     0    interpolate to denser k-point grid
   CSHIFT  =0.1000    complex shift for real part using Kramers Kronig
   OMEGAMAX=  -1.0    maximum frequency
   DEG_THRESHOLD= 0.2000000E-02 threshold for treating states as degnerate
   RTIME   =   -0.100 relaxation time in fs
  (WPLASMAI=    0.000 imaginary part of plasma frequency in eV, 0.658/RTIME)
   DFIELD  = 0.0000000 0.0000000 0.0000000 field for delta impulse in time
 
 Orbital magnetization related:
   ORBITALMAG=     F  switch on orbital magnetization
   LCHIMAG   =     F  perturbation theory with respect to B field
   DQ        =  0.001000  dq finite difference perturbation B field
   LLRAUG    =     F  two centre corrections for induced B field



--------------------------------------------------------------------------------------------------------


 Static calculation
 charge density and potential will be updated during run
 non-spin polarized calculation
 Variant of blocked Davidson
 Davidson routine will perform the subspace rotation
 perform sub-space diagonalisation
    after iterative eigenvector-optimisation
 modified Broyden-mixing scheme, WC =      100.0
 initial mixing is a Kerker type mixing with AMIX =  0.4000 and BMIX =      1.0000
 Hartree-type preconditioning will be used
 using additional bands          114
 real space projection scheme for non local part
 use partial core corrections
 calculate Harris-corrections to forces 
   (improved forces if not selfconsistent)
 use gradient corrections 
 use of overlap-Matrix (Vanderbilt PP)
 Gauss-broadening in eV      SIGMA  =   0.20


--------------------------------------------------------------------------------------------------------


  energy-cutoff  :      450.00
  volume of cell :     2592.07
      direct lattice vectors                 reciprocal lattice vectors
    11.256463038  0.000000000  0.000000000     0.088837852 -0.044535036  0.000000000
     5.044562121 10.062820337  0.000000000     0.000000000  0.099375718  0.000000000
     0.000000000  0.000000000 22.883649388     0.000000000  0.000000000  0.043699324

  length of vectors
    11.256463038 11.256463038 22.883649388     0.099375718  0.099375718  0.043699324


 
 k-points in units of 2pi/SCALE and weight: gamma-point-only calculation. no periodi
   0.00000000  0.00000000  0.00000000       1.000
 
 k-points in reciprocal lattice and weights: gamma-point-only calculation. no periodi
   0.00000000  0.00000000  0.00000000       1.000
 
 position of ions in fractional coordinates (direct lattice) 
   0.26092070  0.47878036  0.29050611
   0.35488056  0.38482049  0.41880986
   0.16696083  0.07274024  0.16220237
   0.05032183  0.04841579  0.49830937
   0.20891204  0.52368846  0.05544850
   0.27423906  0.33335899  0.12830375
   0.36819893  0.23939913  0.25660749
   0.46215880  0.14543926  0.38491124
   0.00030194  0.37150212  0.25660749
   0.09426181  0.27754226  0.38491124
   0.20559284  0.20791836  0.48546334
   0.40634206  0.46546199  0.12830375
   0.21567001  0.03117369  0.05586650
   0.76092070  0.47878036  0.29050611
   0.85488056  0.38482049  0.41880986
   0.94389382  0.28243653  0.52307199
   0.66696083  0.07274024  0.16220237
   0.56383497  0.02110707  0.47243617
   0.71480162  0.52734070  0.05691615
   0.77423906  0.33335899  0.12830375
   0.86819893  0.23939913  0.25660749
   0.96215880  0.14543926  0.38491124
   0.50030194  0.37150212  0.25660749
   0.59426181  0.27754226  0.38491124
   0.90634206  0.46546199  0.12830375
   0.93201714  0.01159271  0.03164971
   0.26092070  0.97878036  0.29050611
   0.35488056  0.88482049  0.41880986
   0.29448208  0.97985355  0.51312031
   0.16696083  0.57274024  0.16220237
   0.03950697  0.55717342  0.49432646
   0.21150072  0.81462784  0.03310933
   0.27423907  0.83335899  0.12830375
   0.36819893  0.73939913  0.25660749
   0.46215880  0.64543926  0.38491124
   0.00030194  0.87150212  0.25660749
   0.09426181  0.77754226  0.38491124
   0.18624891  0.69514899  0.49652663
   0.40634206  0.96546199  0.12830375
   0.41118123  0.56022687  0.03860156
   0.76092070  0.97878036  0.29050611
   0.85488056  0.88482049  0.41880986
   0.93267064  0.79072127  0.52336165
   0.66696083  0.57274024  0.16220237
   0.55845779  0.54106865  0.47726331
   0.71082241  0.02549180  0.05729947
   0.77423907  0.83335899  0.12830375
   0.86819893  0.73939913  0.25660749
   0.96215880  0.64543926  0.38491124
   0.50030194  0.87150212  0.25660749
   0.59426181  0.77754226  0.38491124
   0.90634206  0.96546199  0.12830375
   0.07287763  0.16682343  0.30639927
   0.16683750  0.07286357  0.43470302
   0.39680070  0.37897557  0.05096200
   0.47891775  0.26078330  0.17809552
   0.09463585  0.64156974  0.56169705
   0.03023343  0.37768264  0.47786825
   0.43627354  0.47164251  0.34956450
   0.25918203  0.15741801  0.10728381
   0.34231368  0.06560239  0.22126075
   0.08396307  0.47915133  0.10702035
   0.17409868  0.39738738  0.22126075
   0.26805855  0.30342751  0.34956450
   0.39052472  0.20849320  0.46881418
   0.57287763  0.16682343  0.30639927
   0.66632698  0.07497381  0.40978878
   0.88335924  0.35650154  0.06073502
   0.97891775  0.26078330  0.17809552
   0.75674038  0.43684709  0.50384884
   0.51815316  0.38382617  0.46115467
   0.93627354  0.47164251  0.34956450
   0.78184422  0.15101286  0.09166657
   0.84231368  0.06560239  0.22126075
   0.57697479  0.48753895  0.10027408
   0.67409868  0.39738738  0.22126075
   0.76805855  0.30342751  0.34956450
   0.86961668  0.19421158  0.46404941
   0.07287764  0.66682343  0.30639927
   0.16683750  0.57286357  0.43470302
   0.37700103  0.85046161  0.05543654
   0.47891775  0.76078330  0.17809552
   0.13406458  0.13478221  0.55476791
   0.03023342  0.87768264  0.47786825
   0.43627354  0.97164251  0.34956450
   0.25477597  0.66165604  0.09768939
   0.34231368  0.56560239  0.22126075
   0.08423750  0.97032530  0.09319695
   0.17409868  0.89738738  0.22126075
   0.26805855  0.80342751  0.34956450
   0.36201842  0.70946764  0.47786825
   0.57287764  0.66682343  0.30639927
   0.66229826  0.58041621  0.41168463
   0.88717337  0.85804882  0.05670839
   0.97891775  0.76078330  0.17809552
   0.75274005  0.94804159  0.50558044
   0.48936699  0.88504491  0.47877051
   0.93627354  0.97164251  0.34956450
   0.75730216  0.65710446  0.10590536
   0.84231368  0.56560239  0.22126075
   0.58250171  0.98187608  0.10710777
   0.67409868  0.89738738  0.22126075
   0.76805855  0.80342751  0.34956450
   0.85950824  0.70406424  0.46196227
 
 position of ions in cartesian coordinates  (Angst):
   5.35228144  4.81788074  6.64784006
   5.93595081  3.87237948  9.58389802
   2.24633106  0.73197198  3.71178210
   0.81068231  0.48719940 11.40313688
   4.99338959  5.26978287  1.26886410
   4.76861205  3.35453166  2.93605796
   5.35228143  2.40903041  5.87211592
   5.93595082  1.46352916  8.80817388
   1.87746434  3.73835913  5.87211592
   2.46113373  2.79285788  8.80817388
   3.36310535  2.09224515 11.10917297
   6.92202632  4.68386039  2.93605796
   2.58493904  0.31369519  1.27842937
  10.98051296  4.81788074  6.64784006
  11.56418233  3.87237948  9.58389802
  12.04967456  2.84210808 11.96979598
   7.87456258  0.73197198  3.71178210
   6.45326339  0.21239669 10.81106366
  10.70634095  5.30653471  1.30244912
  10.39684357  3.35453166  2.93605796
  10.98051295  2.40903041  5.87211592
  11.56418234  1.46352916  8.80817388
   7.50569586  3.73835913  5.87211592
   8.08936525  2.79285788  8.80817388
  12.55025784  4.68386039  2.93605796
  10.54969657  0.11665532  0.72426075
   7.87456250  9.84929091  6.64784006
   8.45823187  8.90378965  9.58389802
   8.25775869  9.86009022 11.74206523
   4.76861213  5.76338214  3.71178210
   3.25540474  5.60673604 11.31199350
   6.49019079  8.19745359  0.75766240
   7.29089311  8.38594183  2.93605796
   7.87456249  7.44044058  5.87211592
   8.45823188  6.49493933  8.80817388
   4.39974540  8.76976930  5.87211592
   4.98341479  7.82426805  8.80817388
   5.60322622  6.99515937 11.36234134
   9.44430738  9.71527056  2.93605796
   7.45454554  5.63746235  0.88334454
  13.50279402  9.84929091  6.64784006
  14.08646339  8.90378965  9.58389802
  14.48741512  7.95688608 11.97642454
  10.39684364  5.76338214  3.71178210
   9.01571392  5.44467658 10.92152616
   8.12994121  0.25651943  1.31122098
  12.91912463  8.38594183  2.93605796
  13.50279401  7.44044058  5.87211592
  14.08646340  6.49493933  8.80817388
  10.02797692  8.76976930  5.87211592
  10.61164631  7.82426805  8.80817388
  15.07253890  9.71527056  2.93605796
   1.66189559  1.67871425  7.01153347
   2.24556497  0.73321299  9.94759143
   6.37833820  3.81356303  1.16619663
   6.70645756  2.62421550  4.07547551
   4.30170331  6.45600103 12.85367833
   2.24556497  3.80055255 10.93536942
   7.29012694  4.74605381  7.99931146
   3.71157783  1.58406919  2.45504508
   4.18417657  0.66014504  5.06325349
   3.36223583  4.82161378  2.44901621
   3.96438069  3.99883779  5.06325349
   4.54805007  3.05333654  7.99931146
   5.44768395  2.09802960 10.72817934
   7.29012710  1.67871425  7.01153347
   7.87869506  0.75444793  9.37746274
  11.74189477  3.58741090  1.38983884
  12.33468908  2.62421550  4.07547551
  10.72192234  4.39591374 11.52990015
   7.76880687  3.86237375 10.55290188
  12.91835846  4.74605381  7.99931146
   9.56259431  1.51961529  2.09766554
   9.81240809  0.66014504  5.06325349
   8.95411595  4.90601690  2.29463687
   9.59261221  3.99883779  5.06325349
  10.17628159  3.05333654  7.99931146
  10.76852036  1.95431623 10.61914406
   4.18417665  6.71012442  7.01153347
   4.76784603  5.76462316  9.94759143
   8.53390458  8.55804240  1.26859027
   9.22873862  7.65562567  4.07547551
   2.18901025  1.35628912 12.69511445
   4.76784603  8.83196272 10.93536942
   9.81240800  9.77746398  7.99931146
   6.20564128  6.65812590  2.23548967
   6.70645763  5.69155521  5.06325349
   5.84308251  9.76420917  2.13268623
   6.48666175  9.03024796  5.06325349
   7.07033113  8.08474671  7.99931146
   7.65400052  7.13924545 10.93536942
   9.81240817  6.71012442  7.01153347
  10.38308153  5.84062400  9.42084675
  14.31491482  8.63439109  1.29769497
  14.85697014  7.65562567  4.07547551
  13.25564530  9.53997223 11.56952561
   9.97320543  8.90604788 10.95601648
  15.44063952  9.77746398  7.99931146
  11.83934811  6.61232415  2.42350108
  12.33468915  5.69155521  5.06325349
  11.51004384  9.88044257  2.45101666
  12.11489327  9.03024796  5.06325349
  12.69856265  8.08474671  7.99931146
  13.22671847  7.08487194 10.57138252
 


--------------------------------------------------------------------------------------------------------


 use parallel FFT for orbitals z direction half grid
 k-point  1 :   0.0000 0.0000 0.0000  plane waves:   28140

 maximum and minimum number of plane-waves per node :      4692     4687

 maximum number of plane-waves:     28140
 maximum index in each direction: 
   IXMAX=   19   IYMAX=   19   IZMAX=   39
   IXMIN=  -19   IYMIN=  -19   IZMIN=    0


 real space projection operators:
  total allocation   :      16761.12 KBytes
  max/ min on nodes  :       2816.39       2769.45


 parallel 3D FFT for wavefunctions:
    minimum data exchange during FFTs selected (reduces bandwidth)
 parallel 3D FFT for charge:
    minimum data exchange during FFTs selected (reduces bandwidth)


 total amount of memory used by VASP MPI-rank0    90320. kBytes
=======================================================================

   base      :      30000. kBytes
   nonlr-proj:       3423. kBytes
   fftplans  :      11276. kBytes
   grid      :      19113. kBytes
   one-center:        139. kBytes
   wavefun   :      26369. kBytes
 
     INWAV:  cpu time    0.0000: real time    0.0000
 Broyden mixing: mesh for mixing (old mesh)
   NGX = 39   NGY = 39   NGZ = 79
  (NGX  =120   NGY  =120   NGZ  =240)
  gives a total of 120159 points

 initial charge density was supplied:
 charge density of overlapping atoms calculated
 number of electron    1144.0000000 magnetization 
 keeping initial charge density in first step


--------------------------------------------------------------------------------------------------------


 Maximum index for non-local projection operator          313
 Maximum index for augmentation-charges          484 (set IRDMAX)


--------------------------------------------------------------------------------------------------------


 First call to EWALD:  gamma=   0.129
 Maximum number of real-space cells 4x 4x 2
 Maximum number of reciprocal cells 2x 2x 4

    FEWALD:  cpu time    0.0119: real time    0.0119


--------------------------------------- Iteration      1(   1)  ---------------------------------------


    POTLOK:  cpu time    0.3755: real time    0.3755
    SETDIJ:  cpu time    0.0259: real time    0.0259
     EDDAV:  cpu time   15.6289: real time   15.6320
       DOS:  cpu time    0.0015: real time    0.0015
    --------------------------------------------
      LOOP:  cpu time   16.0318: real time   16.0349

 eigenvalue-minimisations  :  1660
 total energy-change (2. order) : 0.1491136E+05  (-0.7422131E+05)
 number of electron    1144.0000000 magnetization 
 augmentation part     1144.0000000 magnetization 

 Free energy of the ion-electron system (eV)
  ---------------------------------------------------
  alpha Z        PSCENC =      2994.23548884
  Ewald energy   TEWEN  =    333989.12684907
  -Hartree energ DENC   =   -511509.19158360
  -exchange      EXHF   =         0.00000000
  -V(xc)+E(xc)   XCENC  =      5315.92737985
  PAW double counting   =    162831.54814933  -169926.62828172
  entropy T*S    EENTRO =        -0.57249698
  eigenvalues    EBANDS =     -5231.29118073
  atomic energy  EATOM  =    196448.20729987
  Solvation  Ediel_sol  =         0.00000000
  ---------------------------------------------------
  free energy    TOTEN  =     14911.36162393 eV

  energy without entropy =    14911.93412091  energy(sigma->0) =    14911.64787242


--------------------------------------------------------------------------------------------------------




--------------------------------------- Iteration      1(   2)  ---------------------------------------


     EDDAV:  cpu time   14.0849: real time   14.0872
       DOS:  cpu time    0.0015: real time    0.0015
    --------------------------------------------
      LOOP:  cpu time   14.0864: real time   14.0887

 eigenvalue-minimisations  :  1442
 total energy-change (2. order) :-0.1390176E+05  (-0.1342533E+05)
 number of electron    1144.0000000 magnetization 
 augmentation part     1144.0000000 magnetization 

 Free energy of the ion-electron system (eV)
  ---------------------------------------------------
  alpha Z        PSCENC =      2994.23548884
  Ewald energy   TEWEN  =    333989.12684907
  -Hartree energ DENC   =   -511509.19158360
  -exchange      EXHF   =         0.00000000
  -V(xc)+E(xc)   XCENC  =      5315.92737985
  PAW double counting   =    162831.54814933  -169926.62828172
  entropy T*S    EENTRO =        -1.00157810
  eigenvalues    EBANDS =    -19132.61887049
  atomic energy  EATOM  =    196448.20729987
  Solvation  Ediel_sol  =         0.00000000
  ---------------------------------------------------
  free energy    TOTEN  =      1009.60485305 eV

  energy without entropy =     1010.60643115  energy(sigma->0) =     1010.10564210


--------------------------------------------------------------------------------------------------------




--------------------------------------- Iteration      1(   3)  ---------------------------------------


     EDDAV:  cpu time   14.4999: real time   14.5058
       DOS:  cpu time    0.0016: real time    0.0016
    --------------------------------------------
      LOOP:  cpu time   14.5014: real time   14.5073

 eigenvalue-minimisations  :  1544
 total energy-change (2. order) :-0.1487441E+04  (-0.1405654E+04)
 number of electron    1144.0000000 magnetization 
 augmentation part     1144.0000000 magnetization 

 Free energy of the ion-electron system (eV)
  ---------------------------------------------------
  alpha Z        PSCENC =      2994.23548884
  Ewald energy   TEWEN  =    333989.12684907
  -Hartree energ DENC   =   -511509.19158360
  -exchange      EXHF   =         0.00000000
  -V(xc)+E(xc)   XCENC  =      5315.92737985
  PAW double counting   =    162831.54814933  -169926.62828172
  entropy T*S    EENTRO =        -1.38002184
  eigenvalues    EBANDS =    -20619.68124867
  atomic energy  EATOM  =    196448.20729987
  Solvation  Ediel_sol  =         0.00000000
  ---------------------------------------------------
  free energy    TOTEN  =      -477.83596887 eV

  energy without entropy =     -476.45594703  energy(sigma->0) =     -477.14595795


--------------------------------------------------------------------------------------------------------




--------------------------------------- Iteration      1(   4)  ---------------------------------------


     EDDAV:  cpu time   15.0936: real time   15.0962
       DOS:  cpu time    0.0016: real time    0.0016
    --------------------------------------------
      LOOP:  cpu time   15.0953: real time   15.0978

 eigenvalue-minimisations  :  1592
 total energy-change (2. order) :-0.9835745E+02  (-0.9711892E+02)
 number of electron    1144.0000000 magnetization 
 augmentation part     1144.0000000 magnetization 

 Free energy of the ion-electron system (eV)
  ---------------------------------------------------
  alpha Z        PSCENC =      2994.23548884
  Ewald energy   TEWEN  =    333989.12684907
  -Hartree energ DENC   =   -511509.19158360
  -exchange      EXHF   =         0.00000000
  -V(xc)+E(xc)   XCENC  =      5315.92737985
  PAW double counting   =    162831.54814933  -169926.62828172
  entropy T*S    EENTRO =        -1.46560819
  eigenvalues    EBANDS =    -20717.95311424
  atomic energy  EATOM  =    196448.20729987
  Solvation  Ediel_sol  =         0.00000000
  ---------------------------------------------------
  free energy    TOTEN  =      -576.19342080 eV

  energy without entropy =     -574.72781260  energy(sigma->0) =     -575.46061670


--------------------------------------------------------------------------------------------------------




--------------------------------------- Iteration      1(   5)  ---------------------------------------


     EDDAV:  cpu time   16.8614: real time   16.8676
       DOS:  cpu time    0.0017: real time    0.0017
    CHARGE:  cpu time    0.4366: real time    0.4366
    MIXING:  cpu time    0.0120: real time    0.0120
    --------------------------------------------
      LOOP:  cpu time   17.3118: real time   17.3180

 eigenvalue-minimisations  :  1824
 total energy-change (2. order) :-0.3771046E+01  (-0.3765144E+01)
 number of electron    1143.9999144 magnetization 
 augmentation part      414.5794207 magnetization 

 Broyden mixing:
  rms(total) = 0.11588E+02    rms(broyden)= 0.11576E+02
  rms(prec ) = 0.11912E+02
  weight for this iteration     100.00

 Free energy of the ion-electron system (eV)
  ---------------------------------------------------
  alpha Z        PSCENC =      2994.23548884
  Ewald energy   TEWEN  =    333989.12684907
  -Hartree energ DENC   =   -511509.19158360
  -exchange      EXHF   =         0.00000000
  -V(xc)+E(xc)   XCENC  =      5315.92737985
  PAW double counting   =    162831.54814933  -169926.62828172
  entropy T*S    EENTRO =        -1.46957121
  eigenvalues    EBANDS =    -20721.72019754
  atomic energy  EATOM  =    196448.20729987
  Solvation  Ediel_sol  =         0.00000000
  ---------------------------------------------------
  free energy    TOTEN  =      -579.96446711 eV

  energy without entropy =     -578.49489590  energy(sigma->0) =     -579.22968150


--------------------------------------------------------------------------------------------------------




--------------------------------------- Iteration      1(   6)  ---------------------------------------


    POTLOK:  cpu time    0.3600: real time    0.3608
    SETDIJ:  cpu time    0.0264: real time    0.0264
     EDDAV:  cpu time   16.1945: real time   16.2031
       DOS:  cpu time    0.0016: real time    0.0016
    CHARGE:  cpu time    0.4212: real time    0.4213
    MIXING:  cpu time    0.0139: real time    0.0139
    --------------------------------------------
      LOOP:  cpu time   17.0176: real time   17.0270

 eigenvalue-minimisations  :  1728
 total energy-change (2. order) :-0.9691997E+02  (-0.1314407E+03)
 number of electron    1143.9998955 magnetization 
 augmentation part      495.5832326 magnetization 

 Broyden mixing:
  rms(total) = 0.18979E+02    rms(broyden)= 0.18975E+02
  rms(prec ) = 0.19730E+02
  weight for this iteration     100.00

 eigenvalues of (default mixing * dielectric matrix)
  average eigenvalue GAMMA=   0.2444
  0.2444

 Free energy of the ion-electron system (eV)
  ---------------------------------------------------
  alpha Z        PSCENC =      2994.23548884
  Ewald energy   TEWEN  =    333989.12684907
  -Hartree energ DENC   =   -507644.33726320
  -exchange      EXHF   =         0.00000000
  -V(xc)+E(xc)   XCENC  =      5209.47928413
  PAW double counting   =    169764.54331462  -176528.94812089
  entropy T*S    EENTRO =        -1.08871307
  eigenvalues    EBANDS =    -24908.10257701
  atomic energy  EATOM  =    196448.20729987
  Solvation  Ediel_sol  =         0.00000000
  ---------------------------------------------------
  free energy    TOTEN  =      -676.88443763 eV

  energy without entropy =     -675.79572456  energy(sigma->0) =     -676.34008110


--------------------------------------------------------------------------------------------------------




--------------------------------------- Iteration      1(   7)  ---------------------------------------


    POTLOK:  cpu time    0.3549: real time    0.3550
    SETDIJ:  cpu time    0.0271: real time    0.0271
     EDDAV:  cpu time   15.0361: real time   15.0438
       DOS:  cpu time    0.0016: real time    0.0016
    CHARGE:  cpu time    0.4267: real time    0.4267
    MIXING:  cpu time    0.0150: real time    0.0150
    --------------------------------------------
      LOOP:  cpu time   15.8614: real time   15.8691

 eigenvalue-minimisations  :  1560
 total energy-change (2. order) : 0.1251483E+03  (-0.3007548E+02)
 number of electron    1143.9999100 magnetization 
 augmentation part      479.3369632 magnetization 

 Broyden mixing:
  rms(total) = 0.95725E+01    rms(broyden)= 0.95703E+01
  rms(prec ) = 0.10093E+02
  weight for this iteration     100.00

 eigenvalues of (default mixing * dielectric matrix)
  average eigenvalue GAMMA=   0.4113
  0.4113  0.4113

 Free energy of the ion-electron system (eV)
  ---------------------------------------------------
  alpha Z        PSCENC =      2994.23548884
  Ewald energy   TEWEN  =    333989.12684907
  -Hartree energ DENC   =   -509303.19981180
  -exchange      EXHF   =         0.00000000
  -V(xc)+E(xc)   XCENC  =      5243.28079548
  PAW double counting   =    175745.62883871  -182693.92620537
  entropy T*S    EENTRO =        -1.08534374
  eigenvalues    EBANDS =    -22974.00406726
  atomic energy  EATOM  =    196448.20729987
  Solvation  Ediel_sol  =         0.00000000
  ---------------------------------------------------
  free energy    TOTEN  =      -551.73615620 eV

  energy without entropy =     -550.65081246  energy(sigma->0) =     -551.19348433


--------------------------------------------------------------------------------------------------------




--------------------------------------- Iteration      1(   8)  ---------------------------------------


    POTLOK:  cpu time    0.3579: real time    0.3580
    SETDIJ:  cpu time    0.0268: real time    0.0268
     EDDAV:  cpu time   17.3611: real time   17.3648
       DOS:  cpu time    0.0015: real time    0.0015
    CHARGE:  cpu time    0.6853: real time    0.6853
    MIXING:  cpu time    0.0167: real time    0.0167
    --------------------------------------------
      LOOP:  cpu time   18.4494: real time   18.4531

 eigenvalue-minimisations  :  1904
 total energy-change (2. order) :-0.1605431E+03  (-0.2477554E+02)
 number of electron    1143.9998796 magnetization 
 augmentation part      441.0234735 magnetization 

 Broyden mixing:
  rms(total) = 0.20338E+02    rms(broyden)= 0.20334E+02
  rms(prec ) = 0.25635E+02
  weight for this iteration     100.00

 eigenvalues of (default mixing * dielectric matrix)
  average eigenvalue GAMMA=   0.4012
  0.5376  0.5376  0.1283

 Free energy of the ion-electron system (eV)
  ---------------------------------------------------
  alpha Z        PSCENC =      2994.23548884
  Ewald energy   TEWEN  =    333989.12684907
  -Hartree energ DENC   =   -510072.34951046
  -exchange      EXHF   =         0.00000000
  -V(xc)+E(xc)   XCENC  =      5276.04437211
  PAW double counting   =    183322.95904654  -190447.41981408
  entropy T*S    EENTRO =        -0.55980679
  eigenvalues    EBANDS =    -22222.52315527
  atomic energy  EATOM  =    196448.20729987
  Solvation  Ediel_sol  =         0.00000000
  ---------------------------------------------------
  free energy    TOTEN  =      -712.27923016 eV

  energy without entropy =     -711.71942337  energy(sigma->0) =     -711.99932677


--------------------------------------------------------------------------------------------------------




--------------------------------------- Iteration      1(   9)  ---------------------------------------


    POTLOK:  cpu time    0.3561: real time    0.3564
    SETDIJ:  cpu time    0.0269: real time    0.0269
     EDDAV:  cpu time   16.6260: real time   16.6337
       DOS:  cpu time    0.0017: real time    0.0017
    CHARGE:  cpu time    0.4255: real time    0.4255
    MIXING:  cpu time    0.0148: real time    0.0148
    --------------------------------------------
      LOOP:  cpu time   17.4511: real time   17.4590

 eigenvalue-minimisations  :  1784
 total energy-change (2. order) : 0.1441115E+03  (-0.2315724E+02)
 number of electron    1143.9999230 magnetization 
 augmentation part      444.7445879 magnetization 

 Broyden mixing:
  rms(total) = 0.11196E+02    rms(broyden)= 0.11187E+02
  rms(prec ) = 0.13507E+02
  weight for this iteration     100.00

 eigenvalues of (default mixing * dielectric matrix)
  average eigenvalue GAMMA=   0.4744
  1.1228  0.3406  0.3406  0.0936

 Free energy of the ion-electron system (eV)
  ---------------------------------------------------
  alpha Z        PSCENC =      2994.23548884
  Ewald energy   TEWEN  =    333989.12684907
  -Hartree energ DENC   =   -510406.55712910
  -exchange      EXHF   =         0.00000000
  -V(xc)+E(xc)   XCENC  =      5277.52579574
  PAW double counting   =    187755.05832640  -194924.20432975
  entropy T*S    EENTRO =        -1.58954204
  eigenvalues    EBANDS =    -21699.97051974
  atomic energy  EATOM  =    196448.20729987
  Solvation  Ediel_sol  =         0.00000000
  ---------------------------------------------------
  free energy    TOTEN  =      -568.16776069 eV

  energy without entropy =     -566.57821866  energy(sigma->0) =     -567.37298967


--------------------------------------------------------------------------------------------------------




--------------------------------------- Iteration      1(  10)  ---------------------------------------


    POTLOK:  cpu time    0.3610: real time    0.3610
    SETDIJ:  cpu time    0.0265: real time    0.0265
     EDDAV:  cpu time   17.9394: real time   17.9455
       DOS:  cpu time    0.0016: real time    0.0016
    CHARGE:  cpu time    0.4268: real time    0.4269
    MIXING:  cpu time    0.0158: real time    0.0158
    --------------------------------------------
      LOOP:  cpu time   18.7712: real time   18.7774

 eigenvalue-minimisations  :  1984
 total energy-change (2. order) :-0.6929275E+02  (-0.2686137E+02)
 number of electron    1143.9999127 magnetization 
 augmentation part      436.3216439 magnetization 

 Broyden mixing:
  rms(total) = 0.14554E+02    rms(broyden)= 0.14550E+02
  rms(prec ) = 0.16464E+02
  weight for this iteration     100.00

 eigenvalues of (default mixing * dielectric matrix)
  average eigenvalue GAMMA=   0.4800
  1.4831  0.3546  0.3546  0.1038  0.1038

 Free energy of the ion-electron system (eV)
  ---------------------------------------------------
  alpha Z        PSCENC =      2994.23548884
  Ewald energy   TEWEN  =    333989.12684907
  -Hartree energ DENC   =   -510726.17553644
  -exchange      EXHF   =         0.00000000
  -V(xc)+E(xc)   XCENC  =      5273.15398268
  PAW double counting   =    194362.87655672  -201570.43145789
  entropy T*S    EENTRO =        -1.77131321
  eigenvalues    EBANDS =    -21406.68237874
  atomic energy  EATOM  =    196448.20729987
  Solvation  Ediel_sol  =         0.00000000
  ---------------------------------------------------
  free energy    TOTEN  =      -637.46050910 eV

  energy without entropy =     -635.68919589  energy(sigma->0) =     -636.57485250


--------------------------------------------------------------------------------------------------------




--------------------------------------- Iteration      1(  11)  ---------------------------------------


    POTLOK:  cpu time    0.3548: real time    0.3548
    SETDIJ:  cpu time    0.0265: real time    0.0265
     EDDAV:  cpu time   17.3979: real time   17.4071
       DOS:  cpu time    0.0016: real time    0.0016
    CHARGE:  cpu time    0.6605: real time    0.6605
    MIXING:  cpu time    0.0165: real time    0.0165
    --------------------------------------------
      LOOP:  cpu time   18.4578: real time   18.4671

 eigenvalue-minimisations  :  1904
 total energy-change (2. order) : 0.4408355E+02  (-0.1030772E+02)
 number of electron    1143.9999215 magnetization 
 augmentation part      443.1043084 magnetization 

 Broyden mixing:
  rms(total) = 0.10813E+02    rms(broyden)= 0.10810E+02
  rms(prec ) = 0.11928E+02
  weight for this iteration     100.00

 eigenvalues of (default mixing * dielectric matrix)
  average eigenvalue GAMMA=   0.4684
  1.6973  0.3559  0.3559  0.1558  0.1558  0.0897

 Free energy of the ion-electron system (eV)
  ---------------------------------------------------
  alpha Z        PSCENC =      2994.23548884
  Ewald energy   TEWEN  =    333989.12684907
  -Hartree energ DENC   =   -510414.90855772
  -exchange      EXHF   =         0.00000000
  -V(xc)+E(xc)   XCENC  =      5271.27141325
  PAW double counting   =    199321.20427325  -206568.06860425
  entropy T*S    EENTRO =        -1.44663716
  eigenvalues    EBANDS =    -21632.99848203
  atomic energy  EATOM  =    196448.20729987
  Solvation  Ediel_sol  =         0.00000000
  ---------------------------------------------------
  free energy    TOTEN  =      -593.37695688 eV

  energy without entropy =     -591.93031971  energy(sigma->0) =     -592.65363830


--------------------------------------------------------------------------------------------------------




--------------------------------------- Iteration      1(  12)  ---------------------------------------


    POTLOK:  cpu time    0.3555: real time    0.3555
    SETDIJ:  cpu time    0.0264: real time    0.0264
     EDDAV:  cpu time   18.0624: real time   18.0686
       DOS:  cpu time    0.0016: real time    0.0016
    CHARGE:  cpu time    0.4239: real time    0.4239
    MIXING:  cpu time    0.0199: real time    0.0199
    --------------------------------------------
      LOOP:  cpu time   18.8896: real time   18.8958

 eigenvalue-minimisations  :  1984
 total energy-change (2. order) : 0.2624096E+02  (-0.9966854E+01)
 number of electron    1143.9999093 magnetization 
 augmentation part      446.9063178 magnetization 

 Broyden mixing:
  rms(total) = 0.84602E+01    rms(broyden)= 0.84555E+01
  rms(prec ) = 0.94485E+01
  weight for this iteration     100.00

 eigenvalues of (default mixing * dielectric matrix)
  average eigenvalue GAMMA=   0.4991
  1.9187  0.4165  0.3744  0.3744  0.2126  0.1078  0.0892

 Free energy of the ion-electron system (eV)
  ---------------------------------------------------
  alpha Z        PSCENC =      2994.23548884
  Ewald energy   TEWEN  =    333989.12684907
  -Hartree energ DENC   =   -510321.25939487
  -exchange      EXHF   =         0.00000000
  -V(xc)+E(xc)   XCENC  =      5269.75829987
  PAW double counting   =    202292.19465411  -209558.18565668
  entropy T*S    EENTRO =        -1.51797966
  eigenvalues    EBANDS =    -21679.69555885
  atomic energy  EATOM  =    196448.20729987
  Solvation  Ediel_sol  =         0.00000000
  ---------------------------------------------------
  free energy    TOTEN  =      -567.13599831 eV

  energy without entropy =     -565.61801865  energy(sigma->0) =     -566.37700848


--------------------------------------------------------------------------------------------------------




--------------------------------------- Iteration      1(  13)  ---------------------------------------


    POTLOK:  cpu time    0.3544: real time    0.3550
    SETDIJ:  cpu time    0.0264: real time    0.0264
     EDDAV:  cpu time   17.0447: real time   17.0496
       DOS:  cpu time    0.0016: real time    0.0016
    CHARGE:  cpu time    0.4152: real time    0.4153
    MIXING:  cpu time    0.0178: real time    0.0178
    --------------------------------------------
      LOOP:  cpu time   17.8601: real time   17.8656

 eigenvalue-minimisations  :  1856
 total energy-change (2. order) :-0.6188266E+01  (-0.9561365E+01)
 number of electron    1143.9999134 magnetization 
 augmentation part      448.6909063 magnetization 

 Broyden mixing:
  rms(total) = 0.10832E+02    rms(broyden)= 0.10829E+02
  rms(prec ) = 0.12173E+02
  weight for this iteration     100.00

 eigenvalues of (default mixing * dielectric matrix)
  average eigenvalue GAMMA=   0.4902
  2.0615  0.5004  0.3943  0.3943  0.2365  0.0898  0.1222  0.1222

 Free energy of the ion-electron system (eV)
  ---------------------------------------------------
  alpha Z        PSCENC =      2994.23548884
  Ewald energy   TEWEN  =    333989.12684907
  -Hartree energ DENC   =   -510346.58233205
  -exchange      EXHF   =         0.00000000
  -V(xc)+E(xc)   XCENC  =      5268.93771773
  PAW double counting   =    204750.19447984  -212028.48569046
  entropy T*S    EENTRO =        -1.06456620
  eigenvalues    EBANDS =    -21647.89351115
  atomic energy  EATOM  =    196448.20729987
  Solvation  Ediel_sol  =         0.00000000
  ---------------------------------------------------
  free energy    TOTEN  =      -573.32426450 eV

  energy without entropy =     -572.25969830  energy(sigma->0) =     -572.79198140


--------------------------------------------------------------------------------------------------------




--------------------------------------- Iteration      1(  14)  ---------------------------------------


    POTLOK:  cpu time    0.3540: real time    0.3540
    SETDIJ:  cpu time    0.0261: real time    0.0261
     EDDAV:  cpu time   17.3923: real time   17.4002
       DOS:  cpu time    0.0016: real time    0.0016
    CHARGE:  cpu time    0.4164: real time    0.4165
    MIXING:  cpu time    0.0195: real time    0.0195
    --------------------------------------------
      LOOP:  cpu time   18.2100: real time   18.2179

 eigenvalue-minimisations  :  1888
 total energy-change (2. order) : 0.2759857E+02  (-0.4812471E+01)
 number of electron    1143.9999154 magnetization 
 augmentation part      449.1936953 magnetization 

 Broyden mixing:
  rms(total) = 0.80662E+01    rms(broyden)= 0.80643E+01
  rms(prec ) = 0.91471E+01
  weight for this iteration     100.00

 eigenvalues of (default mixing * dielectric matrix)
  average eigenvalue GAMMA=   0.4700
  2.1397  0.4239  0.4239  0.4569  0.3052  0.1443  0.1443  0.0900  0.1015

 Free energy of the ion-electron system (eV)
  ---------------------------------------------------
  alpha Z        PSCENC =      2994.23548884
  Ewald energy   TEWEN  =    333989.12684907
  -Hartree energ DENC   =   -510312.71121140
  -exchange      EXHF   =         0.00000000
  -V(xc)+E(xc)   XCENC  =      5268.55291494
  PAW double counting   =    205922.86429540  -213204.64546380
  entropy T*S    EENTRO =        -1.45296442
  eigenvalues    EBANDS =    -21649.90290539
  atomic energy  EATOM  =    196448.20729987
  Solvation  Ediel_sol  =         0.00000000
  ---------------------------------------------------
  free energy    TOTEN  =      -545.72569688 eV

  energy without entropy =     -544.27273246  energy(sigma->0) =     -544.99921467


--------------------------------------------------------------------------------------------------------




--------------------------------------- Iteration      1(  15)  ---------------------------------------


    POTLOK:  cpu time    0.3563: real time    0.3564
    SETDIJ:  cpu time    0.0265: real time    0.0265
     EDDAV:  cpu time   17.2209: real time   17.2248
       DOS:  cpu time    0.0017: real time    0.0016
    CHARGE:  cpu time    0.4434: real time    0.4434
    MIXING:  cpu time    0.0182: real time    0.0182
    --------------------------------------------
      LOOP:  cpu time   18.0669: real time   18.0709

 eigenvalue-minimisations  :  1888
 total energy-change (2. order) : 0.2080251E+02  (-0.3553218E+01)
 number of electron    1143.9999087 magnetization 
 augmentation part      452.8683704 magnetization 

 Broyden mixing:
  rms(total) = 0.44008E+01    rms(broyden)= 0.43983E+01
  rms(prec ) = 0.49456E+01
  weight for this iteration     100.00

 eigenvalues of (default mixing * dielectric matrix)
  average eigenvalue GAMMA=   0.4419
  2.0957  0.4611  0.4611  0.3834  0.3834  0.1508  0.1508  0.0892  0.1218  0.1218

 Free energy of the ion-electron system (eV)
  ---------------------------------------------------
  alpha Z        PSCENC =      2994.23548884
  Ewald energy   TEWEN  =    333989.12684907
  -Hartree energ DENC   =   -510232.93219415
  -exchange      EXHF   =         0.00000000
  -V(xc)+E(xc)   XCENC  =      5268.68662770
  PAW double counting   =    206397.42817003  -213681.25621637
  entropy T*S    EENTRO =        -1.18390171
  eigenvalues    EBANDS =    -21707.23531060
  atomic energy  EATOM  =    196448.20729987
  Solvation  Ediel_sol  =         0.00000000
  ---------------------------------------------------
  free energy    TOTEN  =      -524.92318732 eV

  energy without entropy =     -523.73928561  energy(sigma->0) =     -524.33123646


--------------------------------------------------------------------------------------------------------




--------------------------------------- Iteration      1(  16)  ---------------------------------------


    POTLOK:  cpu time    0.3599: real time    0.3601
    SETDIJ:  cpu time    0.0266: real time    0.0266
     EDDAV:  cpu time   17.3258: real time   17.3356
       DOS:  cpu time    0.0017: real time    0.0017
    CHARGE:  cpu time    0.4163: real time    0.4165
    MIXING:  cpu time    0.0196: real time    0.0196
    --------------------------------------------
      LOOP:  cpu time   18.1499: real time   18.1600

 eigenvalue-minimisations  :  1896
 total energy-change (2. order) : 0.5502533E+01  (-0.1437653E+01)
 number of electron    1143.9999109 magnetization 
 augmentation part      452.7339937 magnetization 

 Broyden mixing:
  rms(total) = 0.32234E+01    rms(broyden)= 0.32221E+01
  rms(prec ) = 0.37698E+01
  weight for this iteration     100.00

 eigenvalues of (default mixing * dielectric matrix)
  average eigenvalue GAMMA=   0.4325
  1.9909  0.5708  0.5708  0.3752  0.3752  0.2082  0.2082  0.1317  0.1317  0.0898
  0.1050

 Free energy of the ion-electron system (eV)
  ---------------------------------------------------
  alpha Z        PSCENC =      2994.23548884
  Ewald energy   TEWEN  =    333989.12684907
  -Hartree energ DENC   =   -510248.84296746
  -exchange      EXHF   =         0.00000000
  -V(xc)+E(xc)   XCENC  =      5269.51964702
  PAW double counting   =    206004.21758750  -213285.95299885
  entropy T*S    EENTRO =        -1.14890974
  eigenvalues    EBANDS =    -21688.78265077
  atomic energy  EATOM  =    196448.20729987
  Solvation  Ediel_sol  =         0.00000000
  ---------------------------------------------------
  free energy    TOTEN  =      -519.42065451 eV

  energy without entropy =     -518.27174477  energy(sigma->0) =     -518.84619964


--------------------------------------------------------------------------------------------------------




--------------------------------------- Iteration      1(  17)  ---------------------------------------


    POTLOK:  cpu time    0.3578: real time    0.3578
    SETDIJ:  cpu time    0.0265: real time    0.0265
     EDDAV:  cpu time   17.3286: real time   17.3361
       DOS:  cpu time    0.0015: real time    0.0015
    CHARGE:  cpu time    0.4200: real time    0.4203
    MIXING:  cpu time    0.0196: real time    0.0196
    --------------------------------------------
      LOOP:  cpu time   18.1541: real time   18.1617

 eigenvalue-minimisations  :  1872
 total energy-change (2. order) : 0.2297438E+01  (-0.5760316E+00)
 number of electron    1143.9999133 magnetization 
 augmentation part      451.4574040 magnetization 

 Broyden mixing:
  rms(total) = 0.29895E+01    rms(broyden)= 0.29889E+01
  rms(prec ) = 0.34749E+01
  weight for this iteration     100.00

 eigenvalues of (default mixing * dielectric matrix)
  average eigenvalue GAMMA=   0.4188
  1.9597  0.6025  0.6025  0.3453  0.3453  0.2867  0.2867  0.1410  0.1410  0.0895
  0.1128  0.1128

 Free energy of the ion-electron system (eV)
  ---------------------------------------------------
  alpha Z        PSCENC =      2994.23548884
  Ewald energy   TEWEN  =    333989.12684907
  -Hartree energ DENC   =   -510304.78300836
  -exchange      EXHF   =         0.00000000
  -V(xc)+E(xc)   XCENC  =      5270.79175309
  PAW double counting   =    205073.15151263  -212348.12751230
  entropy T*S    EENTRO =        -1.20946322
  eigenvalues    EBANDS =    -21638.51613601
  atomic energy  EATOM  =    196448.20729987
  Solvation  Ediel_sol  =         0.00000000
  ---------------------------------------------------
  free energy    TOTEN  =      -517.12321638 eV

  energy without entropy =     -515.91375317  energy(sigma->0) =     -516.51848478


--------------------------------------------------------------------------------------------------------




--------------------------------------- Iteration      1(  18)  ---------------------------------------


    POTLOK:  cpu time    0.3580: real time    0.3580
    SETDIJ:  cpu time    0.0265: real time    0.0265
     EDDAV:  cpu time   15.8337: real time   15.8369
       DOS:  cpu time    0.0017: real time    0.0017
    CHARGE:  cpu time    0.4142: real time    0.4143
    MIXING:  cpu time    0.0240: real time    0.0240
    --------------------------------------------
      LOOP:  cpu time   16.6582: real time   16.6614

 eigenvalue-minimisations  :  1680
 total energy-change (2. order) : 0.8387919E+00  (-0.2871978E+00)
 number of electron    1143.9999113 magnetization 
 augmentation part      450.9708926 magnetization 

 Broyden mixing:
  rms(total) = 0.26801E+01    rms(broyden)= 0.26797E+01
  rms(prec ) = 0.30809E+01
  weight for this iteration     100.00

 eigenvalues of (default mixing * dielectric matrix)
  average eigenvalue GAMMA=   0.4410
  1.9354  0.7724  0.7724  0.4092  0.4092  0.3968  0.2762  0.1525  0.1525  0.1294
  0.1294  0.0896  0.1077

 Free energy of the ion-electron system (eV)
  ---------------------------------------------------
  alpha Z        PSCENC =      2994.23548884
  Ewald energy   TEWEN  =    333989.12684907
  -Hartree energ DENC   =   -510319.96222446
  -exchange      EXHF   =         0.00000000
  -V(xc)+E(xc)   XCENC  =      5271.16946233
  PAW double counting   =    204621.35936520  -211892.04050361
  entropy T*S    EENTRO =        -1.18588081
  eigenvalues    EBANDS =    -21627.19428092
  atomic energy  EATOM  =    196448.20729987
  Solvation  Ediel_sol  =         0.00000000
  ---------------------------------------------------
  free energy    TOTEN  =      -516.28442449 eV

  energy without entropy =     -515.09854367  energy(sigma->0) =     -515.69148408


--------------------------------------------------------------------------------------------------------




--------------------------------------- Iteration      1(  19)  ---------------------------------------


    POTLOK:  cpu time    0.3570: real time    0.3585
    SETDIJ:  cpu time    0.0268: real time    0.0268
     EDDAV:  cpu time   17.1833: real time   17.1871
       DOS:  cpu time    0.0018: real time    0.0018
    CHARGE:  cpu time    0.4277: real time    0.4277
    MIXING:  cpu time    0.0234: real time    0.0233
    --------------------------------------------
      LOOP:  cpu time   18.0200: real time   18.0252

 eigenvalue-minimisations  :  1872
 total energy-change (2. order) : 0.7558907E+00  (-0.1148604E+00)
 number of electron    1143.9999106 magnetization 
 augmentation part      450.6233519 magnetization 

 Broyden mixing:
  rms(total) = 0.25420E+01    rms(broyden)= 0.25418E+01
  rms(prec ) = 0.29359E+01
  weight for this iteration     100.00

 eigenvalues of (default mixing * dielectric matrix)
  average eigenvalue GAMMA=   0.4673
  1.9406  0.9885  0.9885  0.4506  0.4506  0.3726  0.3726  0.1904  0.1904  0.1392
  0.1392  0.0896  0.1120  0.1171

 Free energy of the ion-electron system (eV)
  ---------------------------------------------------
  alpha Z        PSCENC =      2994.23548884
  Ewald energy   TEWEN  =    333989.12684907
  -Hartree energ DENC   =   -510342.33613291
  -exchange      EXHF   =         0.00000000
  -V(xc)+E(xc)   XCENC  =      5271.37451797
  PAW double counting   =    203894.79086091  -211156.66721147
  entropy T*S    EENTRO =        -1.22047000
  eigenvalues    EBANDS =    -21613.03973603
  atomic energy  EATOM  =    196448.20729987
  Solvation  Ediel_sol  =         0.00000000
  ---------------------------------------------------
  free energy    TOTEN  =      -515.52853375 eV

  energy without entropy =     -514.30806375  energy(sigma->0) =     -514.91829875


--------------------------------------------------------------------------------------------------------




--------------------------------------- Iteration      1(  20)  ---------------------------------------


    POTLOK:  cpu time    0.3599: real time    0.3599
    SETDIJ:  cpu time    0.0273: real time    0.0273
     EDDAV:  cpu time   17.3760: real time   17.3802
       DOS:  cpu time    0.0016: real time    0.0016
    CHARGE:  cpu time    0.4190: real time    0.4190
    MIXING:  cpu time    0.0225: real time    0.0225
    --------------------------------------------
      LOOP:  cpu time   18.2062: real time   18.2105

 eigenvalue-minimisations  :  1904
 total energy-change (2. order) : 0.1048317E+01  (-0.9796780E-01)
 number of electron    1143.9999108 magnetization 
 augmentation part      450.5187651 magnetization 

 Broyden mixing:
  rms(total) = 0.23911E+01    rms(broyden)= 0.23909E+01
  rms(prec ) = 0.27684E+01
  weight for this iteration     100.00

 eigenvalues of (default mixing * dielectric matrix)
  average eigenvalue GAMMA=   0.5142
  1.9721  1.3606  1.3606  0.5228  0.5228  0.4018  0.4018  0.2111  0.2111  0.0896
  0.1418  0.1418  0.1098  0.1353  0.1301

 Free energy of the ion-electron system (eV)
  ---------------------------------------------------
  alpha Z        PSCENC =      2994.23548884
  Ewald energy   TEWEN  =    333989.12684907
  -Hartree energ DENC   =   -510353.27928718
  -exchange      EXHF   =         0.00000000
  -V(xc)+E(xc)   XCENC  =      5271.45892780
  PAW double counting   =    203248.06749379  -210500.73952313
  entropy T*S    EENTRO =        -1.24311145
  eigenvalues    EBANDS =    -21610.31435424
  atomic energy  EATOM  =    196448.20729987
  Solvation  Ediel_sol  =         0.00000000
  ---------------------------------------------------
  free energy    TOTEN  =      -514.48021663 eV

  energy without entropy =     -513.23710518  energy(sigma->0) =     -513.85866091


--------------------------------------------------------------------------------------------------------




--------------------------------------- Iteration      1(  21)  ---------------------------------------


    POTLOK:  cpu time    0.3618: real time    0.3621
    SETDIJ:  cpu time    0.0421: real time    0.0421
     EDDAV:  cpu time   18.1285: real time   18.1319
       DOS:  cpu time    0.0018: real time    0.0018
    CHARGE:  cpu time    0.4238: real time    0.4239
    MIXING:  cpu time    0.0225: real time    0.0225
    --------------------------------------------
      LOOP:  cpu time   18.9806: real time   18.9843

 eigenvalue-minimisations  :  1984
 total energy-change (2. order) : 0.2414687E+01  (-0.1534466E+00)
 number of electron    1143.9999096 magnetization 
 augmentation part      450.6221481 magnetization 

 Broyden mixing:
  rms(total) = 0.16722E+01    rms(broyden)= 0.16718E+01
  rms(prec ) = 0.18893E+01
  weight for this iteration     100.00

 eigenvalues of (default mixing * dielectric matrix)
  average eigenvalue GAMMA=   0.5182
  1.9463  1.5232  1.5232  0.5489  0.5489  0.3924  0.3924  0.2511  0.2511  0.0896
  0.1563  0.1563  0.1400  0.1400  0.1103  0.1212

 Free energy of the ion-electron system (eV)
  ---------------------------------------------------
  alpha Z        PSCENC =      2994.23548884
  Ewald energy   TEWEN  =    333989.12684907
  -Hartree energ DENC   =   -510364.56764209
  -exchange      EXHF   =         0.00000000
  -V(xc)+E(xc)   XCENC  =      5271.57183990
  PAW double counting   =    202018.70656435  -209252.60170856
  entropy T*S    EENTRO =        -1.28965756
  eigenvalues    EBANDS =    -21615.45456355
  atomic energy  EATOM  =    196448.20729987
  Solvation  Ediel_sol  =         0.00000000
  ---------------------------------------------------
  free energy    TOTEN  =      -512.06552973 eV

  energy without entropy =     -510.77587217  energy(sigma->0) =     -511.42070095


--------------------------------------------------------------------------------------------------------




--------------------------------------- Iteration      1(  22)  ---------------------------------------


    POTLOK:  cpu time    0.3624: real time    0.3626
    SETDIJ:  cpu time    0.0264: real time    0.0264
     EDDAV:  cpu time   17.1818: real time   17.1848
       DOS:  cpu time    0.0017: real time    0.0017
    CHARGE:  cpu time    0.4283: real time    0.4284
    MIXING:  cpu time    0.0234: real time    0.0234
    --------------------------------------------
      LOOP:  cpu time   18.0239: real time   18.0271

 eigenvalue-minimisations  :  1888
 total energy-change (2. order) : 0.9076232E+00  (-0.1182907E+00)
 number of electron    1143.9999092 magnetization 
 augmentation part      450.3676899 magnetization 

 Broyden mixing:
  rms(total) = 0.11927E+01    rms(broyden)= 0.11923E+01
  rms(prec ) = 0.13229E+01
  weight for this iteration     100.00

 eigenvalues of (default mixing * dielectric matrix)
  average eigenvalue GAMMA=   0.5250
  1.8843  1.6656  1.6656  0.5818  0.5818  0.3945  0.3945  0.4127  0.2383  0.1822
  0.1822  0.0896  0.1404  0.1404  0.1100  0.1253  0.1349

 Free energy of the ion-electron system (eV)
  ---------------------------------------------------
  alpha Z        PSCENC =      2994.23548884
  Ewald energy   TEWEN  =    333989.12684907
  -Hartree energ DENC   =   -510385.27748961
  -exchange      EXHF   =         0.00000000
  -V(xc)+E(xc)   XCENC  =      5271.84983814
  PAW double counting   =    201280.39626293  -208503.94841387
  entropy T*S    EENTRO =        -1.30276819
  eigenvalues    EBANDS =    -21604.44497367
  atomic energy  EATOM  =    196448.20729987
  Solvation  Ediel_sol  =         0.00000000
  ---------------------------------------------------
  free energy    TOTEN  =      -511.15790648 eV

  energy without entropy =     -509.85513830  energy(sigma->0) =     -510.50652239


--------------------------------------------------------------------------------------------------------




--------------------------------------- Iteration      1(  23)  ---------------------------------------


    POTLOK:  cpu time    0.3680: real time    0.3682
    SETDIJ:  cpu time    0.0352: real time    0.0352
     EDDAV:  cpu time   17.0024: real time   17.0049
       DOS:  cpu time    0.0017: real time    0.0017
    CHARGE:  cpu time    0.4296: real time    0.4297
    MIXING:  cpu time    0.0248: real time    0.0248
    --------------------------------------------
      LOOP:  cpu time   17.8618: real time   17.8645

 eigenvalue-minimisations  :  1864
 total energy-change (2. order) : 0.4324546E+00  (-0.4958588E-01)
 number of electron    1143.9999088 magnetization 
 augmentation part      450.0680306 magnetization 

 Broyden mixing:
[...]
   -.512E+03 0.657E+01 -.222E+04   0.514E+03 -.605E+01 0.222E+04   -.165E+01 -.621E+00 0.248E+01   0.280E+00 0.115E+00 -.563E+00
   -.792E+03 0.346E+03 -.532E+04   0.799E+03 -.347E+03 0.533E+04   -.625E+01 0.106E+01 -.247E+01   0.368E+00 -.411E-01 0.434E+00
   -.894E+03 -.475E+02 0.390E+04   0.897E+03 0.467E+02 -.390E+04   -.275E+01 0.259E+00 0.165E+00   -.827E-01 0.860E-01 -.381E+00
   -.648E+03 0.153E+03 0.608E+04   0.649E+03 -.153E+03 -.608E+04   -.473E-01 0.395E+00 0.130E+01   -.129E+00 0.175E+00 -.107E+00
   0.265E+03 -.408E+03 -.374E+03   -.265E+03 0.408E+03 0.373E+03   0.478E+00 -.833E+00 0.115E+01   -.698E-02 0.151E+00 -.903E+00
   0.336E+03 -.570E+03 -.337E+04   -.334E+03 0.571E+03 0.337E+04   -.145E+01 -.889E+00 0.296E+01   -.292E+00 0.486E+00 -.244E+00
   0.537E+03 -.436E+03 -.604E+04   -.538E+03 0.435E+03 0.605E+04   0.281E+00 0.660E+00 -.661E+01   -.545E-02 0.239E+00 0.608E+00
   0.199E+03 -.500E+03 0.258E+04   -.202E+03 0.504E+03 -.257E+04   0.184E+01 -.289E+01 -.181E+01   -.248E-02 -.110E+00 -.348E+00
   -.150E+02 0.149E+03 -.549E+04   0.110E+02 -.148E+03 0.549E+04   0.352E+01 0.590E-01 -.546E+00   -.132E+00 -.388E-01 0.288E+00
   0.884E+03 -.409E+03 0.601E+04   -.889E+03 0.409E+03 -.601E+04   0.275E+01 0.407E-01 0.453E+01   0.306E+00 0.429E-01 -.329E-01
   0.430E+03 0.725E+03 0.390E+04   -.432E+03 -.729E+03 -.390E+04   0.128E+01 0.245E+01 0.972E-01   0.227E+00 0.185E+00 -.325E+00
   0.283E+03 0.468E+03 0.700E+03   -.284E+03 -.469E+03 -.700E+03   0.641E+00 0.599E+00 0.105E+01   0.253E-01 0.217E+00 -.875E+00
   0.327E+03 0.457E+03 -.220E+04   -.327E+03 -.459E+03 0.219E+04   0.679E+00 0.166E+01 0.259E+01   -.153E+00 -.965E-01 -.658E+00
   -.556E+03 -.103E+02 0.697E+03   0.557E+03 0.109E+02 -.697E+03   -.787E+00 -.598E+00 0.118E+01   -.157E+00 0.496E-01 -.610E+00
   -.561E+03 0.632E+02 -.270E+04   0.563E+03 -.610E+02 0.270E+04   -.209E+01 -.139E+01 0.435E+00   -.120E+00 0.247E+00 -.453E+00
   -.383E+03 0.568E+02 0.323E+04   0.385E+03 -.583E+02 -.322E+04   -.825E+00 0.487E+00 -.368E+01   0.830E-01 0.930E-01 -.498E+00
   -.673E+02 0.106E+03 -.783E+02   0.684E+02 -.108E+03 0.777E+02   -.939E+00 0.180E+01 0.104E+01   0.271E-01 -.396E-01 -.490E+00
   -.274E+02 0.117E+03 -.109E+04   0.273E+02 -.119E+03 0.109E+04   0.875E+00 0.880E+00 0.224E+01   0.166E+00 -.101E+00 0.762E-01
   -.541E+02 0.586E+03 0.228E+04   0.553E+02 -.592E+03 -.229E+04   -.107E+01 0.211E+01 0.125E+01   0.507E-01 0.126E+00 -.523E-01
   -.699E+02 0.160E+03 0.109E+04   0.709E+02 -.161E+03 -.109E+04   -.808E+00 0.124E+01 0.161E+01   0.475E-01 -.888E-02 -.118E+00
   -.131E+03 0.215E+03 -.250E+04   0.132E+03 -.217E+03 0.250E+04   0.876E-02 0.608E-01 -.418E+00   0.736E-01 0.200E-02 0.259E+00
   -.683E+02 -.282E+03 -.182E+04   0.700E+02 0.285E+03 0.182E+04   -.332E+00 -.112E+01 -.174E+01   0.212E-01 -.134E+00 0.202E+00
   -.722E+02 -.128E+03 -.610E+03   0.733E+02 0.131E+03 0.610E+03   -.144E+01 -.248E+01 -.761E+00   0.296E-03 -.107E+00 -.254E+00
   -.146E+03 -.315E+03 0.178E+04   0.146E+03 0.317E+03 -.178E+04   0.429E+00 -.415E+00 0.930E+00   -.880E-01 -.298E-01 -.142E+00
   -.995E+02 -.167E+03 0.566E+03   0.100E+03 0.169E+03 -.566E+03   -.730E+00 -.208E+01 0.823E+00   -.945E-02 -.950E-02 -.136E+00
   0.348E+03 0.103E+02 0.178E+04   -.349E+03 -.950E+01 -.178E+04   -.356E+00 -.350E+00 0.671E+00   0.335E-01 0.420E-01 -.823E-01
   0.181E+03 0.132E+02 0.564E+03   -.183E+03 -.130E+02 -.564E+03   0.234E+01 -.383E+00 0.813E+00   -.240E-01 -.172E-01 -.235E+00
   0.130E+03 -.246E+02 -.566E+03   -.133E+03 0.243E+02 0.567E+03   0.288E+01 0.573E+00 -.751E+00   0.166E+00 -.782E-01 -.242E+00
   -.155E+03 -.136E+03 -.207E+04   0.154E+03 0.137E+03 0.208E+04   0.188E+00 -.343E+00 -.223E+01   0.422E-01 -.726E-01 0.162E-01
   -.776E+02 0.982E+02 -.106E+03   0.788E+02 -.998E+02 0.104E+03   -.130E+01 0.188E+01 0.136E+01   0.120E-02 -.160E-01 -.282E+00
   -.208E+03 -.109E+02 -.126E+04   0.210E+03 0.115E+02 0.126E+04   -.968E+00 -.690E+00 0.200E+01   -.142E+00 0.687E-01 -.105E+00
   -.263E+03 0.269E+03 0.232E+04   0.265E+03 -.272E+03 -.232E+04   -.528E+00 0.104E+01 0.978E+00   -.256E-02 -.338E-01 -.463E-02
   -.963E+02 0.990E+02 0.108E+04   0.969E+02 -.100E+03 -.108E+04   -.739E+00 0.708E+00 0.150E+01   -.279E-01 0.763E-02 -.122E+00
   0.173E+03 -.195E+03 -.219E+04   -.172E+03 0.198E+03 0.220E+04   -.113E+01 -.219E+01 -.274E+01   -.813E-01 0.158E-02 0.194E+00
   -.482E+02 0.103E+03 -.205E+04   0.484E+02 -.106E+03 0.206E+04   0.808E-02 0.213E+01 -.232E+01   -.475E-01 -.214E-01 0.205E-01
   -.555E+02 -.170E+03 -.570E+03   0.566E+02 0.173E+03 0.570E+03   -.697E+00 -.292E+01 -.476E+00   -.940E-01 -.111E-01 -.450E+00
   0.186E+02 -.411E+03 0.177E+04   -.191E+02 0.414E+03 -.178E+04   0.111E+00 -.618E+00 0.110E+01   0.272E-01 -.136E+00 -.874E-01
   -.569E+02 -.175E+03 0.535E+03   0.582E+02 0.178E+03 -.535E+03   -.110E+01 -.251E+01 0.540E+00   -.201E-01 -.239E-01 -.228E+00
   0.553E+02 0.763E+02 0.168E+04   -.556E+02 -.771E+02 -.168E+04   -.480E+00 0.774E+00 -.113E+01   -.749E-01 0.246E-01 -.142E+00
   0.166E+03 0.104E+02 0.547E+03   -.168E+03 -.103E+02 -.548E+03   0.284E+01 -.158E+00 0.102E+01   0.253E-01 -.293E-01 -.163E+00
   0.207E+03 -.322E+01 -.606E+03   -.210E+03 0.356E+01 0.606E+03   0.270E+01 -.433E+00 -.159E+00   -.128E+00 0.606E-01 -.401E+00
   0.587E+03 0.711E+00 -.176E+04   -.595E+03 -.304E+01 0.176E+04   0.533E+01 0.186E+01 0.815E+00   -.723E-01 0.655E-02 0.192E+00
   -.684E+02 0.130E+03 -.102E+03   0.693E+02 -.132E+03 0.101E+03   -.787E+00 0.181E+01 0.139E+01   0.218E-01 0.326E-02 -.503E+00
   -.175E+03 0.238E+03 -.126E+04   0.176E+03 -.240E+03 0.126E+04   -.434E+00 0.515E+00 -.828E+00   0.184E+00 -.183E+00 -.894E-02
   -.551E+03 0.175E+03 0.224E+04   0.556E+03 -.177E+03 -.224E+04   -.309E+01 0.116E+01 0.106E+01   -.169E+00 0.105E-02 -.160E+00
   -.144E+03 0.116E+03 0.104E+04   0.145E+03 -.117E+03 -.104E+04   -.697E+00 0.925E+00 0.173E+01   -.243E-02 -.400E-01 -.781E-01
   -.861E+02 -.421E+02 -.256E+04   0.872E+02 0.422E+02 0.257E+04   -.361E+00 -.244E-01 -.278E+01   0.445E-01 -.482E-02 0.132E+00
   -.445E+02 -.212E+03 -.177E+04   0.465E+02 0.215E+03 0.177E+04   -.947E+00 -.120E+01 -.117E+01   0.667E-01 0.849E-01 0.179E+00
   -.933E+02 -.124E+03 -.551E+03   0.947E+02 0.127E+03 0.552E+03   -.168E+01 -.252E+01 -.111E+01   -.207E-01 0.953E-01 -.257E+00
   0.109E+03 -.137E+03 0.150E+04   -.109E+03 0.140E+03 -.150E+04   0.280E+00 -.108E+01 -.228E+01   -.658E-02 -.202E-01 -.269E+00
   -.764E+02 -.128E+03 0.506E+03   0.774E+02 0.131E+03 -.507E+03   -.971E+00 -.273E+01 0.100E+01   0.383E-01 0.355E-02 -.229E+00
   0.136E+03 -.193E+03 0.157E+04   -.138E+03 0.195E+03 -.156E+04   0.433E+00 -.476E+00 -.198E+01   -.716E-01 -.656E-02 -.244E+00
   0.165E+03 -.156E+02 0.510E+03   -.168E+03 0.155E+02 -.510E+03   0.278E+01 0.241E-01 0.560E+00   -.131E-01 0.137E-01 -.163E+00
   0.154E+03 0.258E+02 -.571E+03   -.156E+03 -.259E+02 0.572E+03   0.257E+01 0.149E+00 -.350E+00   0.145E+00 0.713E-01 -.362E+00
   -.665E+02 0.886E+02 -.200E+04   0.657E+02 -.881E+02 0.201E+04   0.141E+01 -.360E+00 -.304E+01   0.631E-01 -.627E-02 0.120E+00
   -.817E+02 0.117E+03 -.113E+03   0.827E+02 -.118E+03 0.111E+03   -.114E+01 0.195E+01 0.210E+01   -.309E-01 -.346E-01 -.419E+00
   -.207E+03 0.578E+02 -.128E+04   0.209E+03 -.569E+02 0.128E+04   -.441E+00 -.854E+00 0.744E+00   -.859E-01 -.538E-01 -.589E-01
   0.102E+03 0.524E+03 0.223E+04   -.102E+03 -.530E+03 -.223E+04   -.639E+00 0.304E+01 0.976E+00   0.127E+00 0.126E+00 -.175E-01
   -.237E+02 0.160E+03 0.104E+04   0.242E+02 -.161E+03 -.104E+04   -.296E+00 0.114E+01 0.134E+01   0.480E-01 0.616E-01 -.193E+00
   0.117E+03 -.257E+03 -.220E+04   -.116E+03 0.261E+03 0.221E+04   -.913E+00 -.233E+01 -.375E+01   -.129E+00 0.128E+00 0.132E+00
   -.259E+03 0.267E+03 -.207E+04   0.261E+03 -.271E+03 0.207E+04   -.343E+00 0.269E+01 -.243E+01   -.910E-02 0.140E+00 0.103E+00
   -.501E+02 -.168E+03 -.572E+03   0.510E+02 0.171E+03 0.572E+03   -.343E+00 -.268E+01 -.202E+00   -.116E+00 0.797E-01 -.432E+00
   -.124E+03 -.276E+03 0.181E+04   0.124E+03 0.278E+03 -.181E+04   0.482E+00 -.315E+00 0.137E+01   0.374E-02 -.464E-01 -.690E-01
   -.797E+02 -.153E+03 0.567E+03   0.808E+02 0.155E+03 -.567E+03   -.893E+00 -.221E+01 0.977E+00   -.304E-01 -.863E-01 -.209E+00
   0.316E+03 -.420E+02 0.179E+04   -.318E+03 0.422E+02 -.179E+04   -.705E-01 0.219E-01 0.110E+01   0.100E+00 0.485E-01 -.999E-01
   0.183E+03 0.250E+01 0.563E+03   -.185E+03 -.253E+01 -.563E+03   0.211E+01 -.935E-01 0.972E+00   0.457E-01 0.606E-01 -.166E+00
   0.197E+03 0.116E+02 -.589E+03   -.200E+03 -.114E+02 0.589E+03   0.266E+01 -.558E+00 -.339E+00   -.485E-01 0.164E+00 -.382E+00
   0.556E+03 0.416E+02 -.175E+04   -.564E+03 -.438E+02 0.175E+04   0.529E+01 0.170E+01 0.675E+00   -.138E+00 0.766E-01 0.120E+00
 -----------------------------------------------------------------------------------------------
   -.585E+01 -.776E+01 0.120E+02   0.682E-12 -.639E-13 -.182E-11   0.512E+01 0.650E+01 0.105E+02   0.471E+00 0.132E+01 -.226E+02
 
 
 POSITION                                       TOTAL-FORCE (eV/Angst)
 -----------------------------------------------------------------------------------
      5.35228      4.81788      6.64784         0.027977     -0.209340     -0.075708
      5.93595      3.87238      9.58390        -0.762452      0.807703     -1.345812
      2.24633      0.73197      3.71178        -0.626069      0.449423      1.265567
      0.81068      0.48720     11.40314        -1.283204     -1.057126      0.519603
      4.99339      5.26978      1.26886        -1.115276      0.962893     -1.600244
      4.76861      3.35453      2.93606         0.638493     -0.923648      0.750322
      5.35228      2.40903      5.87212        -0.001632      0.126356     -0.019172
      5.93595      1.46353      8.80817        -0.615597      0.022649     -2.629624
      1.87746      3.73836      5.87212         0.054586      0.014021      0.032912
      2.46113      2.79286      8.80817         0.072104      0.191747     -0.436707
      3.36311      2.09225     11.10917         0.793851      0.061172      0.105960
      6.92203      4.68386      2.93606         0.345942     -0.462345      3.592356
      2.58494      0.31370      1.27843        -0.404481      1.283698     -1.565997
     10.98051      4.81788      6.64784         0.264276     -0.305414     -0.185681
     11.56418      3.87238      9.58390        -0.007978      0.118832     -0.102603
     12.04967      2.84211     11.96980        -0.457215     -0.499653      1.987924
      7.87456      0.73197      3.71178         0.039129      0.714782      1.395204
      6.45326      0.21240     10.81106         0.143760      0.640480      0.175035
     10.70634      5.30653      1.30245        -0.582375      1.089365     -1.923210
     10.39684      3.35453      2.93606        -0.567396     -0.916689      1.598746
     10.98051      2.40903      5.87212         0.067918      0.052872      0.068953
     11.56418      1.46353      8.80817         0.732011     -0.489247     -1.691729
      7.50570      3.73836      5.87212        -0.174229      0.035038      0.116372
      8.08937      2.79286      8.80817         0.578611      0.515738     -1.698064
     12.55026      4.68386      2.93606         1.331493     -0.198254      2.043466
     10.54970      0.11666      0.72426         0.817559      0.540073     -1.255878
      7.87456      9.84929      6.64784         0.105876     -0.215269     -0.070567
      8.45823      8.90379      9.58390        -1.321225     -0.293760     -1.906893
      8.25776      9.86009     11.74207        -0.688127     -0.815760      0.059156
      4.76861      5.76338      3.71178        -0.291654      0.666318      1.460068
      3.25540      5.60674     11.31199        -1.372420     -1.537939      0.443213
      6.49019      8.19745      0.75766        -0.665394     -0.271998     -0.998780
      7.29089      8.38594      2.93606         0.502510     -0.687392      3.294629
      7.87456      7.44044      5.87212         0.074553      0.086803      0.022606
      8.45823      6.49494      8.80817        -0.959032      0.504612     -1.345217
      4.39975      8.76977      5.87212        -0.112317     -0.024549      0.084529
      4.98341      7.82427      8.80817         0.031940      0.008444     -0.181706
      5.60323      6.99516     11.36234         1.632610     -0.190565      0.052135
      9.44431      9.71527      2.93606         0.756990     -0.516887      1.268752
      7.45455      5.63746      0.88334         0.898425      0.639590     -1.119441
     13.50279      9.84929      6.64784         0.113723     -0.281368     -0.135543
     14.08646      8.90379      9.58390         0.243314      0.029438      0.143844
     14.48742      7.95689     11.97642        -0.835251      0.132108      1.131031
     10.39684      5.76338      3.71178        -0.596346      0.591954      1.827104
      9.01571      5.44468     10.92153        -0.628275      0.401894      1.244664
      8.12994      0.25652      1.31122        -1.026673      0.903402     -1.614102
     12.91912      8.38594      2.93606        -0.077547     -1.056586      1.500766
     13.50279      7.44044      5.87212        -0.078290      0.010951      0.085671
     14.08646      6.49494      8.80817         0.888767     -0.609733     -1.546498
     10.02798      8.76977      5.87212         0.055216      0.075894      0.134437
     10.61165      7.82427      8.80817         0.187591      0.997471     -0.627385
     15.07254      9.71527      2.93606         0.632930     -0.972570      3.761035
      1.66190      1.67871      7.01153         0.236221     -0.089738     -0.021726
      2.24556      0.73321      9.94759         1.029680     -1.046503     -2.528726
      6.37834      3.81356      1.16620         0.165169     -3.049718     -2.623484
      6.70646      2.62422      4.07548         0.237175     -0.078082     -0.202641
      4.30170      6.45600     12.85368         0.917798     -1.206759      4.127235
      2.24556      3.80055     10.93537         1.437912      2.054398     -1.432809
      7.29013      4.74605      7.99931        -0.297245      0.325373     -0.790848
      3.71158      1.58407      2.45505         0.519883      1.648962     -1.355033
      4.18418      0.66015      5.06325         0.036095     -0.211887      0.758850
      3.36224      4.82161      2.44902        -1.676941      0.471360     -1.309680
      3.96438      3.99884      5.06325         0.183564     -0.171467      0.760792
      4.54805      3.05334      7.99931        -0.309881      0.151362     -0.069449
      5.44768      2.09803     10.72818        -0.685162      0.635867      2.488659
      7.29013      1.67871      7.01153        -0.068842      0.182733     -0.973626
      7.87870      0.75445      9.37746         0.781742      0.032408      0.501741
     11.74189      3.58741      1.38984         1.425818     -2.057068     -3.313425
     12.33469      2.62422      4.07548        -0.095234     -0.332933      0.253675
     10.72192      4.39591     11.52990        -0.286072      1.331572      2.030844
      7.76881      3.86237     10.55290         0.182375     -0.755069      2.674256
     12.91836      4.74605      7.99931         0.308758     -0.189897     -0.582142
      9.56259      1.51962      2.09767        -0.365557      2.280980     -0.538609
      9.81241      0.66015      5.06325         0.099472      0.093162     -0.131779
      8.95412      4.90602      2.29464        -0.864039     -0.011342     -0.482875
      9.59261      3.99884      5.06325        -0.070299     -0.110301      0.192569
     10.17628      3.05334      7.99931        -0.159385     -0.029127     -0.742508
     10.76852      1.95432     10.61914        -2.899003     -0.465640      0.596231
      4.18418      6.71012      7.01153         0.180491     -0.096511     -0.034075
      4.76785      5.76462      9.94759         1.164009     -1.435909     -2.499990
      8.53390      8.55804      1.26859         2.175465     -1.598765     -2.839775
      9.22874      7.65563      4.07548        -0.046850     -0.106553      0.207281
      2.18901      1.35629     12.69511         0.794820      0.091850      3.957666
      4.76785      8.83196     10.93537         1.145605      1.620706     -1.358262
      9.81241      9.77746      7.99931        -0.289902      0.032913     -0.402103
      6.20564      6.65813      2.23549        -0.297354      1.405249      0.095209
      6.70646      5.69156      5.06325         0.116594      0.044670      0.119811
      5.84308      9.76421      2.13269        -1.008812      0.920836      0.062221
      6.48666      9.03025      5.06325        -0.088885      0.029583     -0.023224
      7.07033      8.08475      7.99931        -0.183164      0.077306      0.009911
      7.65400      7.13925     10.93537         0.683243      0.181399      0.526268
      9.81241      6.71012      7.01153        -0.188804      0.266947     -0.798535
     10.38308      5.84062      9.42085         1.038260      0.006190      0.353839
     14.31491      8.63439      1.29769         0.136471     -2.723937     -2.842584
     14.85697      7.65563      4.07548         0.266859      0.012627      0.065693
     13.25565      9.53997     11.56953        -0.348982      1.653093      2.146964
      9.97321      8.90605     10.95602         1.703005     -1.266580      2.097596
     15.44064      9.77746      7.99931         0.502437     -0.212561     -0.575801
     11.83935      6.61232      2.42350         0.522340      1.955578     -1.340729
     12.33469      5.69156      5.06325         0.091662     -0.135263      0.606799
     11.51004      9.88044      2.45102        -1.639908      0.302068     -1.338318
     12.11489      9.03025      5.06325         0.118710     -0.061895      0.674262
     12.69856      8.08475      7.99931        -0.312095     -0.109596     -0.690556
     13.22672      7.08487     10.57138        -2.800917     -0.395719      0.445433
 -----------------------------------------------------------------------------------
    total drift:                               -0.260371      0.053171     -0.085217


--------------------------------------------------------------------------------------------------------



  FREE ENERGIE OF THE ION-ELECTRON SYSTEM (eV)
  ---------------------------------------------------
  free  energy   TOTEN  =      -510.32453098 eV

  energy  without entropy=     -509.01477928  energy(sigma->0) =     -509.66965513
 


--------------------------------------------------------------------------------------------------------


    POTLOK:  cpu time    0.3922: real time    0.3924


--------------------------------------------------------------------------------------------------------


     LOOP+:  cpu time  664.3177: real time  664.5090
    4ORBIT:  cpu time    0.0000: real time    0.0000

 total amount of memory used by VASP MPI-rank0    90320. kBytes
=======================================================================

   base      :      30000. kBytes
   nonlr-proj:       3423. kBytes
   fftplans  :      11276. kBytes
   grid      :      19113. kBytes
   one-center:        139. kBytes
   wavefun   :      26369. kBytes
 
  
  
 General timing and accounting informations for this job:
 ========================================================
  
                  Total CPU time used (sec):      668.844
                            User time (sec):      668.319
                          System time (sec):        0.525
                         Elapsed time (sec):      669.281
  
                   Maximum memory used (kb):      252096.
                   Average memory used (kb):           0.
  
                          Minor page faults:       143148
                          Major page faults:            0
                 Voluntary context switches:          286
