
72 atoms
2 atom types
   0.0000000000   11.8257374458 xlo xhi
   0.0000000000   11.2351097481 ylo yhi
   0.0000000000   19.1935896625 zlo zhi
   3.6905792348    0.0000000000    0.0000000000 xy xz yz

Atoms # atomic

     1      1   -0.1824136822    2.1775614116    2.1930504955
     2      1    0.9287310228    0.6430082393    4.6961651403
     3      1    2.0398756763   -0.8915450904    7.1992797851
     4      1    1.8673382384    1.5042460594    0.8703746854
     5      1    2.9784829435   -0.0303071130    3.3734893303
     6      1    4.0896275969   -1.5648604427    5.8766039751
     7      1    1.8673382382    3.6617530698    2.1930504955
     8      1    2.9784829432    2.1271998974    4.6961651403
     9      1    4.0896275967    0.5926465677    7.1992797851
    10      1    5.7304550407    2.1775614116    2.1930504955
    11      1    6.8415997458    0.6430082393    4.6961651403
    12      1    7.9527443992   -0.8915450904    7.1992797851
    13      1    7.7802069613    1.5042460594    0.8703746854
    14      1    8.8913516664   -0.0303071130    3.3734893303
    15      1   10.0024963198   -1.5648604427    5.8766039751
    16      1    7.7802069611    3.6617530698    2.1930504955
    17      1    8.8913516662    2.1271998974    4.6961651403
    18      1   10.0024963196    0.5926465677    7.1992797851
    19      1    1.6628759352    7.7951162857    2.1930504955
    20      1    2.7740206403    6.2605631133    4.6961651403
    21      1    3.8851652937    4.7260097836    7.1992797851
    22      1    3.7126278558    7.1218009334    0.8703746854
    23      1    4.8237725609    5.5872477610    3.3734893303
    24      1    5.9349172143    4.0526944314    5.8766039751
    25      1    3.7126278556    9.2793079438    2.1930504955
    26      1    4.8237725607    7.7447547714    4.6961651403
    27      1    5.9349172141    6.2102014417    7.1992797851
    28      1    7.5757446581    7.7951162857    2.1930504955
    29      1    8.6868893632    6.2605631133    4.6961651403
    30      1    9.7980340166    4.7260097836    7.1992797851
    31      1    9.6254965787    7.1218009334    0.8703746854
    32      1   10.7366412838    5.5872477610    3.3734893303
    33      1   11.8477859372    4.0526944314    5.8766039751
    34      1    9.6254965785    9.2793079438    2.1930504955
    35      1   10.7366412836    7.7447547714    4.6961651403
    36      1   11.8477859370    6.2102014417    7.1992797851
    37      2    2.3955621211    3.5220274251    0.0000000000
    38      2    3.5067070073    1.9874742640    2.5031146448
    39      2    4.6178517124    0.4529210916    5.0062292897
    40      2    5.7289963658   -1.0816322380    7.5093439345
    41      2   -0.2145150189    4.3794019067    1.6842457269
    42      2    0.8966298673    2.8448487456    4.1873603718
    43      2    2.0077745760    1.3102955844    6.6904750166
    44      2   -0.2145150117    1.6321134950    0.0000000000
    45      2    0.8966298744    0.0975603339    2.5031146448
    46      2    2.0077745795   -1.4369928385    5.0062292897
    47      2    3.1189192329   -2.9715461681    7.5093439345
    48      2    8.3084308440    3.5220274251    0.0000000000
    49      2    9.4195757302    1.9874742640    2.5031146448
    50      2   10.5307204353    0.4529210916    5.0062292897
    51      2    5.6983537040    4.3794019067    1.6842457269
    52      2    6.8094985902    2.8448487456    4.1873603718
    53      2    5.6983537112    1.6321134950    0.0000000000
    54      2    6.8094985973    0.0975603339    2.5031146448
    55      2    7.9206433024   -1.4369928385    5.0062292897
    56      2    9.0317879558   -2.9715461681    7.5093439345
    57      2    5.3519966247    7.6050291380    2.5031146448
    58      2    6.4631413298    6.0704759657    5.0062292897
    59      2    7.5742859832    4.5359226360    7.5093439345
    60      2    1.6307745985    9.9969567807    1.6842457269
    61      2    2.7419194847    8.4624036196    4.1873603718
    62      2    1.6307746057    7.2496683691    0.0000000000
    63      2    2.7419194918    5.7151152079    2.5031146448
    64      2    3.8530641969    4.1805620356    5.0062292897
    65      2    4.9642088503    2.6460087059    7.5093439345
    66      2   11.2648653476    7.6050291380    2.5031146448
    67      2   12.3760100527    6.0704759657    5.0062292897
    68      2   13.4871547061    4.5359226360    7.5093439345
    69      2    8.6547882076    8.4624036196    4.1873603718
    70      2    7.5436433286    7.2496683691    0.0000000000
    71      2    8.6547882147    5.7151152079    2.5031146448
    72      2    9.7659329198    4.1805620356    5.0062292897
