LAMMPS (5 Jun 2019)
OMP_NUM_THREADS environment is not set. Defaulting to 1 thread. (../comm.cpp:88)
  using 1 OpenMP thread(s) per MPI task
Reading data file ...
  triclinic box = (0 0 0) to (11.8257 11.2351 19.1936) with tilt (3.69058 0 0)
  1 by 1 by 1 MPI processor grid
  reading atoms ...
  72 atoms
  read_data CPU = 0.000802804 secs
32 atoms in group bulk
WARNING: Using 'neigh_modify every 1 delay 0 check yes' setting during minimization (../min.cpp:168)
Neighbor list info ...
  update every 1 steps, delay 0 steps, check yes
  max neighbors/atom: 2000, page size: 100000
  master list distance cutoff = 8.5
  ghost atom cutoff = 8.5
  binsize = 4.25, bins = 4 3 5
  1 neighbor lists, perpetual/occasional/extra = 1 0 0
  (1) pair eam/alloy, perpetual
      attributes: half, newton on
      pair build: half/bin/newton/tri
      stencil: half/bin/3d/newton/tri
      bin: standard
Setting up cg style minimization ...
  Unit style    : metal
  Current step  : 0
Per MPI rank memory allocation (min/avg/max) = 4.116 | 4.116 | 4.116 Mbytes
Step Temp E_pair E_mol TotEng Press 
       0            0   -299.43301            0   -299.43301   -102332.24 
      94            0   -325.43251            0   -325.43251   -14032.084 
Loop time of 0.0550499 on 1 procs for 94 steps with 72 atoms

99.8% CPU use with 1 MPI tasks x 1 OpenMP threads

Minimization stats:
  Stopping criterion = energy tolerance
  Energy initial, next-to-last, final = 
        -299.433010096     -325.430380492      -325.43251359
  Force two-norm initial, final = 14.1312 0.206169
  Force max component initial, final = 2.96796 0.113909
  Final line search alpha, max atom move = 0.446228 0.0508295
  Iterations, force evaluations = 94 152

MPI task timing breakdown:
Section |  min time  |  avg time  |  max time  |%varavg| %total
---------------------------------------------------------------
Pair    | 0.05047    | 0.05047    | 0.05047    |   0.0 | 91.68
Neigh   | 0.0023     | 0.0023     | 0.0023     |   0.0 |  4.18
Comm    | 0.0012191  | 0.0012191  | 0.0012191  |   0.0 |  2.21
Output  | 0          | 0          | 0          |   0.0 |  0.00
Modify  | 8.9712e-05 | 8.9712e-05 | 8.9712e-05 |   0.0 |  0.16
Other   |            | 0.000971   |            |       |  1.76

Nlocal:    72 ave 72 max 72 min
Histogram: 1 0 0 0 0 0 0 0 0 0
Nghost:    868 ave 868 max 868 min
Histogram: 1 0 0 0 0 0 0 0 0 0
Neighs:    3875 ave 3875 max 3875 min
Histogram: 1 0 0 0 0 0 0 0 0 0

Total # of neighbors = 3875
Ave neighs/atom = 53.8194
Neighbor list builds = 5
Dangerous builds = 0
System init for write_data ...
Total wall time: 0:00:00
