       N       E                     dE             d eps       ncg     rms          rms(c)
DAV:   1     0.146150459324E+05    0.14615E+05   -0.73512E+05  1664   0.169E+03
DAV:   2     0.101685931666E+04   -0.13598E+05   -0.13147E+05  1432   0.545E+02
DAV:   3    -0.472910463536E+03   -0.14898E+04   -0.13854E+04  1576   0.191E+02
DAV:   4    -0.581103547969E+03   -0.10819E+03   -0.10649E+03  1640   0.446E+01
DAV:   5    -0.584967031058E+03   -0.38635E+01   -0.38571E+01  1752   0.911E+00    0.100E+02
DAV:   6    -0.762298758712E+03   -0.17733E+03   -0.14189E+03  1696   0.122E+02    0.206E+02
DAV:   7    -0.590058498550E+03    0.17224E+03   -0.22701E+02  1624   0.834E+01    0.131E+02
DAV:   8    -0.632166252963E+03   -0.42108E+02   -0.17914E+02  1704   0.936E+01    0.120E+02
DAV:   9    -0.655824338484E+03   -0.23658E+02   -0.27406E+02  1872   0.996E+01    0.162E+02
DAV:  10    -0.555350217573E+03    0.10047E+03   -0.12108E+02  1856   0.458E+01    0.722E+01
DAV:  11    -0.561598803232E+03   -0.62486E+01   -0.93376E+01  1856   0.671E+01    0.123E+02
DAV:  12    -0.556975449240E+03    0.46234E+01   -0.11557E+02  1864   0.502E+01    0.119E+02
DAV:  13    -0.525381194009E+03    0.31594E+02   -0.70157E+01  1912   0.362E+01    0.638E+01
DAV:  14    -0.520836084381E+03    0.45451E+01   -0.49876E+01  1904   0.312E+01    0.396E+01
DAV:  15    -0.514373875725E+03    0.64622E+01   -0.14306E+01  1912   0.225E+01    0.326E+01
DAV:  16    -0.515462899650E+03   -0.10890E+01   -0.19156E+01  1872   0.141E+01    0.314E+01
DAV:  17    -0.515737973580E+03   -0.27507E+00   -0.11093E+01  1824   0.112E+01    0.273E+01
DAV:  18    -0.513228207059E+03    0.25098E+01   -0.23717E+00  1696   0.838E+00    0.221E+01
DAV:  19    -0.512450357007E+03    0.77785E+00   -0.17170E+00  1880   0.641E+00    0.206E+01
DAV:  20    -0.511957906844E+03    0.49245E+00   -0.18609E+00  1840   0.581E+00    0.168E+01
DAV:  21    -0.511350953497E+03    0.60695E+00   -0.57616E-01  1864   0.435E+00    0.139E+01
DAV:  22    -0.511061679106E+03    0.28927E+00   -0.80957E-01  1960   0.495E+00    0.128E+01
DAV:  23    -0.510800134838E+03    0.26154E+00   -0.74800E-01  1888   0.437E+00    0.108E+01
DAV:  24    -0.510641900748E+03    0.15823E+00   -0.50779E-01  1832   0.359E+00    0.873E+00
DAV:  25    -0.510603843805E+03    0.38057E-01   -0.62042E-01  1872   0.375E+00    0.818E+00
DAV:  26    -0.510434814915E+03    0.16903E+00   -0.43266E-01  1832   0.362E+00    0.540E+00
DAV:  27    -0.510401916003E+03    0.32899E-01   -0.28037E-01  1864   0.217E+00    0.399E+00
DAV:  28    -0.510381910010E+03    0.20006E-01   -0.12561E-01  1792   0.208E+00    0.336E+00
DAV:  29    -0.510375828444E+03    0.60816E-02   -0.95262E-02  1888   0.130E+00    0.333E+00
DAV:  30    -0.510351637272E+03    0.24191E-01   -0.42866E-02  1840   0.102E+00    0.226E+00
DAV:  31    -0.510347152381E+03    0.44849E-02   -0.22588E-02  1808   0.749E-01    0.175E+00
DAV:  32    -0.510348602038E+03   -0.14497E-02   -0.20570E-02  1808   0.781E-01    0.172E+00
DAV:  33    -0.510346193759E+03    0.24083E-02   -0.20610E-02  1800   0.775E-01    0.149E+00
DAV:  34    -0.510341382898E+03    0.48109E-02   -0.13279E-02  1696   0.693E-01    0.107E+00
DAV:  35    -0.510342755790E+03   -0.13729E-02   -0.11354E-02  1848   0.550E-01    0.123E+00
DAV:  36    -0.510339278831E+03    0.34770E-02   -0.63569E-03  1832   0.467E-01    0.811E-01
DAV:  37    -0.510338830502E+03    0.44833E-03   -0.23047E-03  1752   0.227E-01    0.678E-01
DAV:  38    -0.510338669880E+03    0.16062E-03   -0.18187E-03  1584   0.235E-01    0.565E-01
DAV:  39    -0.510338881360E+03   -0.21148E-03   -0.18410E-03  1680   0.235E-01    0.577E-01
DAV:  40    -0.510338719264E+03    0.16210E-03   -0.73820E-04  1400   0.169E-01    0.501E-01
DAV:  41    -0.510338635906E+03    0.83358E-04   -0.62244E-04  1264   0.122E-01
   1 F= -.51033864E+03 E0= -.50947727E+03  d E =-.172274E+01
