
54 atoms
2 atom types
   0.0000000000    9.5784100000 xlo xhi
   0.0000000000    8.2951463879 ylo yhi
   0.0000000000   18.9708965207 zlo zhi
  -4.7892050000    0.0000000000    0.0000000000 xy xz yz

Atoms # atomic

     1      1    1.7973757009    4.4923822472    1.0464266653
     2      1    1.7973757009    4.4923822472    4.1857066613
     3      1    1.7973757009    4.4923822472    7.3249866573
     4      1   -2.9918292943    7.2574310404    2.0928533307
     5      1   -2.9918292943    7.2574310404    5.2321333267
     6      1   -2.9918292943    7.2574310404    8.3714133416
     7      1    6.5865807105    1.7273334457    0.0000000000
     8      1    6.5865807105    1.7273334457    3.1392799960
     9      1    6.5865807105    1.7273334457    6.2785599920
    10      1    3.0627123971    2.3007548006    1.0464266653
    11      1    3.0627123971    2.3007548006    4.1857066613
    12      1    3.0627123971    2.3007548006    7.3249866573
    13      1   -1.7264925981    5.0658035938    2.0928533307
    14      1   -1.7264925981    5.0658035938    5.2321333267
    15      1   -1.7264925981    5.0658035938    8.3714133416
    16      1    3.0627124067    7.8308523870    0.0000000000
    17      1    3.0627124067    7.8308523870    3.1392799960
    18      1    3.0627124067    7.8308523870    6.2785599920
    19      1    4.3280490933    4.4923822472    1.0464266653
    20      1    4.3280490933    4.4923822472    4.1857066613
    21      1    4.3280490933    4.4923822472    7.3249866573
    22      1   -0.4611559019    7.2574310404    2.0928533307
    23      1   -0.4611559019    7.2574310404    5.2321333267
    24      1   -0.4611559019    7.2574310404    8.3714133416
    25      1   -0.4611558971    1.7273334457    0.0000000000
    26      1   -0.4611558971    1.7273334457    3.1392799960
    27      1   -0.4611558971    1.7273334457    6.2785599920
    28      2    4.6739446353    2.8315943986    2.6923365253
    29      2    4.6739446353    2.8315943986    5.8316165213
    30      2    4.6739446353    2.8315943986    8.9708965173
    31      2   -0.1152603600    5.5966431918    0.5994831947
    32      2   -0.1152603600    5.5966431918    3.7387631907
    33      2   -0.1152603600    5.5966431918    6.8780431867
    34      2    9.4631496448    0.0665455971    1.6459098600
    35      2    9.4631496448    0.0665455971    4.7851898560
    36      2    9.4631496448    0.0665455971    7.9244698520
    37      2    3.0627123971    5.6223304979    2.6923365253
    38      2    3.0627123971    5.6223304979    5.8316165213
    39      2    3.0627123971    5.6223304979    8.9708965173
    40      2    3.0627124019    0.0922329032    0.5994831947
    41      2    3.0627124019    0.0922329032    3.7387631907
    42      2    3.0627124019    0.0922329032    6.8780431867
    43      2    7.8519174067    2.8572816964    1.6459098600
    44      2    7.8519174067    2.8572816964    4.7851898560
    45      2    7.8519174067    2.8572816964    7.9244698520
    46      2    1.4514801590    2.8315943986    2.6923365253
    47      2    1.4514801590    2.8315943986    5.8316165213
    48      2    1.4514801590    2.8315943986    8.9708965173
    49      2    6.2406851638    5.5966431918    0.5994831947
    50      2    6.2406851638    5.5966431918    3.7387631907
    51      2    6.2406851638    5.5966431918    6.8780431867
    52      2    6.2406851685    0.0665455971    1.6459098600
    53      2    6.2406851685    0.0665455971    4.7851898560
    54      2    6.2406851685    0.0665455971    7.9244698520
