LAMMPS (5 Jun 2019)
OMP_NUM_THREADS environment is not set. Defaulting to 1 thread. (../comm.cpp:88)
  using 1 OpenMP thread(s) per MPI task
Reading data file ...
  triclinic box = (0 0 0) to (9.57841 8.29515 18.9709) with tilt (-4.7892 0 0)
  1 by 1 by 1 MPI processor grid
  reading atoms ...
  54 atoms
  read_data CPU = 0.000742055 secs
36 atoms in group bulk
WARNING: Using 'neigh_modify every 1 delay 0 check yes' setting during minimization (../min.cpp:168)
Neighbor list info ...
  update every 1 steps, delay 0 steps, check yes
  max neighbors/atom: 2000, page size: 100000
  master list distance cutoff = 8.5
  ghost atom cutoff = 8.5
  binsize = 4.25, bins = 4 2 5
  1 neighbor lists, perpetual/occasional/extra = 1 0 0
  (1) pair eam/alloy, perpetual
      attributes: half, newton on
      pair build: half/bin/newton/tri
      stencil: half/bin/3d/newton/tri
      bin: standard
Setting up cg style minimization ...
  Unit style    : metal
  Current step  : 0
Per MPI rank memory allocation (min/avg/max) = 4.139 | 4.139 | 4.139 Mbytes
Step Temp E_pair E_mol TotEng Press 
       0            0   -227.13625            0   -227.13625   -124240.45 
      20            0   -241.93456            0   -241.93456   -40776.311 
Loop time of 0.0103915 on 1 procs for 20 steps with 54 atoms

98.5% CPU use with 1 MPI tasks x 1 OpenMP threads

Minimization stats:
  Stopping criterion = energy tolerance
  Energy initial, next-to-last, final = 
        -227.136246532     -241.933668274     -241.934561351
  Force two-norm initial, final = 10.1957 0.106559
  Force max component initial, final = 2.65297 0.0412318
  Final line search alpha, max atom move = 1 0.0412318
  Iterations, force evaluations = 20 28

MPI task timing breakdown:
Section |  min time  |  avg time  |  max time  |%varavg| %total
---------------------------------------------------------------
Pair    | 0.0093473  | 0.0093473  | 0.0093473  |   0.0 | 89.95
Neigh   | 0.00043036 | 0.00043036 | 0.00043036 |   0.0 |  4.14
Comm    | 0.00034073 | 0.00034073 | 0.00034073 |   0.0 |  3.28
Output  | 0          | 0          | 0          |   0.0 |  0.00
Modify  | 1.7937e-05 | 1.7937e-05 | 1.7937e-05 |   0.0 |  0.17
Other   |            | 0.0002551  |            |       |  2.45

Nlocal:    54 ave 54 max 54 min
Histogram: 1 0 0 0 0 0 0 0 0 0
Nghost:    1005 ave 1005 max 1005 min
Histogram: 1 0 0 0 0 0 0 0 0 0
Neighs:    3366 ave 3366 max 3366 min
Histogram: 1 0 0 0 0 0 0 0 0 0

Total # of neighbors = 3366
Ave neighs/atom = 62.3333
Neighbor list builds = 1
Dangerous builds = 0
System init for write_data ...
Total wall time: 0:00:00
