       N       E                     dE             d eps       ncg     rms          rms(c)
DAV:   1     0.146265378238E+05    0.14627E+05   -0.73530E+05  1664   0.169E+03
DAV:   2     0.100719833339E+04   -0.13619E+05   -0.13162E+05  1440   0.545E+02
DAV:   3    -0.473918611267E+03   -0.14811E+04   -0.13803E+04  1560   0.191E+02
DAV:   4    -0.582032496517E+03   -0.10811E+03   -0.10640E+03  1632   0.450E+01
DAV:   5    -0.586106549468E+03   -0.40741E+01   -0.40673E+01  1792   0.944E+00    0.996E+01
DAV:   6    -0.728690487272E+03   -0.14258E+03   -0.14299E+03  1664   0.119E+02    0.195E+02
DAV:   7    -0.557666753826E+03    0.17102E+03   -0.23850E+02  1640   0.664E+01    0.969E+01
DAV:   8    -0.827526765424E+03   -0.26986E+03   -0.17865E+02  1712   0.128E+02    0.205E+02
DAV:   9    -0.648266624428E+03    0.17926E+03   -0.24194E+02  1984   0.615E+01    0.136E+02
DAV:  10    -0.563723456984E+03    0.84543E+02   -0.99537E+01  2008   0.525E+01    0.863E+01
DAV:  11    -0.538805206200E+03    0.24918E+02   -0.12029E+02  1880   0.552E+01    0.975E+01
DAV:  12    -0.561981017951E+03   -0.23176E+02   -0.10309E+02  1856   0.343E+01    0.105E+02
DAV:  13    -0.570200225857E+03   -0.82192E+01   -0.87165E+01  1832   0.319E+01    0.878E+01
DAV:  14    -0.550616326829E+03    0.19584E+02   -0.58092E+01  1872   0.309E+01    0.695E+01
DAV:  15    -0.535720448840E+03    0.14896E+02   -0.30424E+01  1880   0.317E+01    0.568E+01
DAV:  16    -0.529566285805E+03    0.61542E+01   -0.29023E+01  1896   0.223E+01    0.598E+01
DAV:  17    -0.521954990208E+03    0.76113E+01   -0.11781E+01  1880   0.122E+01    0.346E+01
DAV:  18    -0.516920632931E+03    0.50344E+01   -0.48891E+00  1896   0.118E+01    0.262E+01
DAV:  19    -0.516293170960E+03    0.62746E+00   -0.44305E+00  1936   0.111E+01    0.366E+01
DAV:  20    -0.516051039391E+03    0.24213E+00   -0.13582E+01  1872   0.847E+00    0.243E+01
DAV:  21    -0.514692765638E+03    0.13583E+01   -0.20196E+00  1936   0.502E+00    0.227E+01
DAV:  22    -0.514243975738E+03    0.44879E+00   -0.11716E+00  1888   0.559E+00    0.213E+01
DAV:  23    -0.513445302187E+03    0.79867E+00   -0.10196E+00  1864   0.559E+00    0.179E+01
DAV:  24    -0.512933766801E+03    0.51154E+00   -0.89292E-01  1792   0.531E+00    0.162E+01
DAV:  25    -0.512603383529E+03    0.33038E+00   -0.86172E-01  1872   0.372E+00    0.142E+01
DAV:  26    -0.512411615320E+03    0.19177E+00   -0.68893E-01  1840   0.388E+00    0.145E+01
DAV:  27    -0.512104206200E+03    0.30741E+00   -0.93361E-01  1888   0.332E+00    0.113E+01
DAV:  28    -0.511911666393E+03    0.19254E+00   -0.48717E-01  1872   0.259E+00    0.888E+00
DAV:  29    -0.511969503306E+03   -0.57837E-01   -0.73293E-01  2024   0.441E+00    0.117E+01
DAV:  30    -0.511772383419E+03    0.19712E+00   -0.24653E-01  1888   0.236E+00    0.818E+00
DAV:  31    -0.511671343127E+03    0.10104E+00   -0.83606E-02  1896   0.120E+00    0.590E+00
DAV:  32    -0.511657385040E+03    0.13958E-01   -0.82403E-02  1848   0.161E+00    0.517E+00
DAV:  33    -0.511665676074E+03   -0.82910E-02   -0.92072E-02  1848   0.186E+00    0.517E+00
DAV:  34    -0.511664522083E+03    0.11540E-02   -0.82119E-02  1848   0.148E+00    0.537E+00
DAV:  35    -0.511628914728E+03    0.35607E-01   -0.10687E-01  1920   0.128E+00    0.397E+00
DAV:  36    -0.511612556120E+03    0.16359E-01   -0.65506E-02  1848   0.140E+00    0.321E+00
DAV:  37    -0.511609962571E+03    0.25935E-02   -0.51147E-02  1880   0.116E+00    0.291E+00
DAV:  38    -0.511596898595E+03    0.13064E-01   -0.35908E-02  1712   0.962E-01    0.219E+00
DAV:  39    -0.511592153945E+03    0.47447E-02   -0.10807E-02  1872   0.533E-01    0.197E+00
DAV:  40    -0.511585367905E+03    0.67860E-02   -0.48962E-03  1816   0.386E-01    0.151E+00
DAV:  41    -0.511583047092E+03    0.23208E-02   -0.22058E-03  1744   0.283E-01    0.131E+00
DAV:  42    -0.511578980833E+03    0.40663E-02   -0.24938E-03  1792   0.268E-01    0.883E-01
DAV:  43    -0.511578138406E+03    0.84243E-03   -0.17570E-03  1768   0.215E-01    0.713E-01
DAV:  44    -0.511577132357E+03    0.10060E-02   -0.14813E-03  1600   0.207E-01    0.428E-01
DAV:  45    -0.511577175994E+03   -0.43638E-04   -0.86683E-04  1576   0.139E-01
   1 F= -.51157718E+03 E0= -.51076094E+03  d E =-.163247E+01
