   60   60    1    1
  0.3182702E+02  0.9578410E-09  0.1125646E-08  0.1771136E-08  0.5000000E-15
  1.000000000000000E-004
  CAR 
 "Millerite NiS"                         
    660      1    400
 
  0.0000000E+00  0.0000000E+00  0.0000000E+00  0.1000000E+01
    1      -63.634382   1.000000
    2      -63.620674   1.000000
    3      -63.602889   1.000000
    4      -63.577176   1.000000
    5      -63.574943   1.000000
    6      -63.557869   1.000000
    7      -63.556425   1.000000
    8      -63.552401   1.000000
    9      -63.552136   1.000000
   10      -63.544593   1.000000
   11      -63.537708   1.000000
   12      -63.531345   1.000000
   13      -63.518210   1.000000
   14      -63.510964   1.000000
   15      -63.509614   1.000000
   16      -63.508163   1.000000
   17      -63.504147   1.000000
   18      -63.498950   1.000000
   19      -63.497797   1.000000
   20      -63.492818   1.000000
   21      -63.492248   1.000000
   22      -63.492060   1.000000
   23      -63.489539   1.000000
   24      -63.487999   1.000000
   25      -63.482022   1.000000
   26      -63.475366   1.000000
   27      -63.469487   1.000000
   28      -63.467803   1.000000
   29      -63.459629   1.000000
   30      -63.452739   1.000000
   31      -63.445322   1.000000
   32      -63.444232   1.000000
   33      -63.440198   1.000000
   34      -63.438778   1.000000
   35      -63.425295   1.000000
   36      -63.423782   1.000000
   37      -63.423043   1.000000
   38      -63.422894   1.000000
   39      -63.393994   1.000000
   40      -63.369229   1.000000
   41      -63.363857   1.000000
   42      -63.356735   1.000000
   43      -63.354321   1.000000
   44      -63.347249   1.000000
   45      -63.336509   1.000000
   46      -63.319185   1.000000
   47      -63.318593   1.000000
   48      -63.305169   1.000000
   49      -63.302065   1.000000
   50      -63.291921   1.000000
   51      -63.281098   1.000000
   52      -63.274634   1.000000
   53      -63.264617   1.000000
   54      -63.228054   1.000000
   55      -63.091292   1.000000
   56      -63.047036   1.000000
   57      -62.968375   1.000000
   58      -62.864440   1.000000
   59      -62.855932   1.000000
   60      -62.854437   1.000000
   61      -62.847597   1.000000
   62      -62.826501   1.000000
   63      -62.825567   1.000000
   64      -62.822171   1.000000
   65      -62.796250   1.000000
   66      -62.785337   1.000000
   67      -62.763312   1.000000
   68      -62.760946   1.000000
   69      -62.755868   1.000000
   70      -62.747401   1.000000
   71      -62.745304   1.000000
   72      -62.722893   1.000000
   73      -62.698240   1.000000
   74      -62.674493   1.000000
   75      -62.653541   1.000000
   76      -62.572873   1.000000
   77      -62.570478   1.000000
   78      -62.549908   1.000000
   79      -62.537137   1.000000
   80      -62.520940   1.000000
   81      -62.448861   1.000000
   82      -62.442906   1.000000
   83      -62.437832   1.000000
   84      -62.419211   1.000000
   85      -62.323542   1.000000
   86      -62.314336   1.000000
   87      -62.276557   1.000000
   88      -62.235281   1.000000
   89      -62.189645   1.000000
   90      -62.170695   1.000000
   91      -14.610820   1.000000
   92      -14.001732   1.000000
   93      -13.966108   1.000000
   94      -13.875895   1.000000
   95      -13.587592   1.000000
   96      -13.514523   1.000000
   97      -13.344322   1.000000
   98      -13.267384   1.000000
   99      -13.241447   1.000000
  100      -13.169901   1.000000
  101      -13.046443   1.000000
  102      -12.944592   1.000000
  103      -12.894054   1.000000
  104      -12.856391   1.000000
  105      -12.814688   1.000000
  106      -12.791565   1.000000
  107      -12.635129   1.000000
  108      -12.572487   1.000000
  109      -12.457725   1.000000
  110      -12.300467   1.000000
  111      -12.281262   1.000000
  112      -12.159284   1.000000
  113      -12.140880   1.000000
  114      -11.985124   1.000000
  115      -11.890187   1.000000
  116      -11.863027   1.000000
  117      -11.824356   1.000000
  118      -11.706127   1.000000
  119      -11.626169   1.000000
  120      -11.538610   1.000000
  121       -6.399989   1.000000
  122       -6.285692   1.000000
  123       -6.179596   1.000000
  124       -6.147466   1.000000
  125       -6.067399   1.000000
  126       -5.965668   1.000000
  127       -5.687247   1.000000
  128       -5.671385   1.000000
  129       -5.626836   1.000000
  130       -5.573032   1.000000
  131       -5.527192   1.000000
  132       -5.412892   1.000000
  133       -5.391008   1.000000
  134       -5.354622   1.000000
  135       -5.317971   1.000000
  136       -5.263143   1.000000
  137       -5.179261   1.000000
  138       -5.130316   1.000000
  139       -5.101196   1.000000
  140       -5.040097   1.000000
  141       -5.007810   1.000000
  142       -4.865368   1.000000
  143       -4.843309   1.000000
  144       -4.836641   1.000000
  145       -4.730632   1.000000
  146       -4.713529   1.000000
  147       -4.681031   1.000000
  148       -4.607963   1.000000
  149       -4.552828   1.000000
  150       -4.527854   1.000000
  151       -4.499706   1.000000
  152       -4.414929   1.000000
  153       -4.386220   1.000000
  154       -4.231141   1.000000
  155       -4.211344   1.000000
  156       -4.152433   1.000000
  157       -4.110985   1.000000
  158       -4.034340   1.000000
  159       -3.969682   1.000000
  160       -3.958431   1.000000
  161       -3.935504   1.000000
  162       -3.909209   1.000000
  163       -3.823853   1.000000
  164       -3.773994   1.000000
  165       -3.755472   1.000000
  166       -3.718863   1.000000
  167       -3.695716   1.000000
  168       -3.647190   1.000000
  169       -3.628055   1.000000
  170       -3.601449   1.000000
  171       -3.570576   1.000000
  172       -3.546795   1.000000
  173       -3.515740   1.000000
  174       -3.464706   1.000000
  175       -3.442047   1.000000
  176       -3.376893   1.000000
  177       -3.351786   1.000000
  178       -3.336484   1.000000
  179       -3.310053   1.000000
  180       -3.283824   1.000000
  181       -3.277209   1.000000
  182       -3.258892   1.000000
  183       -3.201443   1.000000
  184       -3.153065   1.000000
  185       -3.096765   1.000000
  186       -3.071290   1.000000
  187       -3.059894   1.000000
  188       -3.029344   1.000000
  189       -2.918799   1.000000
  190       -2.891557   1.000000
  191       -2.888334   1.000000
  192       -2.805720   1.000000
  193       -2.786598   1.000000
  194       -2.733239   1.000000
  195       -2.696844   1.000000
  196       -2.537316   1.000000
  197       -2.528213   1.000000
  198       -2.510185   1.000000
  199       -2.484040   1.000000
  200       -2.396750   1.000000
  201       -2.373321   1.000000
  202       -2.330099   1.000000
  203       -2.281104   1.000000
  204       -2.228407   1.000000
  205       -2.211100   1.000000
  206       -2.179519   1.000000
  207       -2.150363   1.000000
  208       -2.109697   1.000000
  209       -2.071554   1.000000
  210       -2.036365   1.000000
  211       -2.016581   1.000000
  212       -2.005940   1.000000
  213       -1.909852   1.000000
  214       -1.886958   1.000000
  215       -1.873752   1.000000
  216       -1.838052   1.000000
  217       -1.761990   1.000000
  218       -1.727911   1.000000
  219       -1.699873   1.000000
  220       -1.695332   1.000000
  221       -1.655193   1.000000
  222       -1.629937   1.000000
  223       -1.622247   1.000000
  224       -1.609398   1.000000
  225       -1.570267   1.000000
  226       -1.563447   1.000000
  227       -1.548300   1.000000
  228       -1.509885   1.000000
  229       -1.482224   1.000000
  230       -1.444419   1.000000
  231       -1.433249   1.000000
  232       -1.414574   1.000000
  233       -1.400903   1.000000
  234       -1.373954   1.000000
  235       -1.363605   1.000000
  236       -1.346149   1.000000
  237       -1.329151   1.000000
  238       -1.288345   1.000000
  239       -1.269362   1.000000
  240       -1.259113   1.000000
  241       -1.241748   1.000000
  242       -1.236356   1.000000
  243       -1.219535   1.000000
  244       -1.210652   1.000000
  245       -1.203212   1.000000
  246       -1.192682   1.000000
  247       -1.190068   1.000000
  248       -1.160126   1.000000
  249       -1.145123   1.000000
  250       -1.121127   1.000000
  251       -1.107537   1.000000
  252       -1.094033   1.000000
  253       -1.085442   1.000000
  254       -1.072595   1.000000
  255       -1.070028   1.000000
  256       -1.056058   1.000000
  257       -1.044472   1.000000
  258       -1.035199   1.000000
  259       -1.025751   1.000000
  260       -1.012169   1.000000
  261       -0.977195   1.000000
  262       -0.966749   1.000000
  263       -0.947270   1.000000
  264       -0.933924   1.000000
  265       -0.922479   1.000000
  266       -0.918491   1.000000
  267       -0.915404   1.000000
  268       -0.902813   1.000000
  269       -0.896789   1.000000
  270       -0.881768   1.000000
  271       -0.871587   1.000000
  272       -0.837346   1.000000
  273       -0.806307   1.000000
  274       -0.801755   1.000000
  275       -0.776278   1.000000
  276       -0.745522   1.000000
  277       -0.733487   1.000000
  278       -0.724701   1.000000
  279       -0.706951   1.000000
  280       -0.691107   1.000000
  281       -0.674094   1.000000
  282       -0.646615   1.000000
  283       -0.616989   1.000000
  284       -0.603781   1.000000
  285       -0.588859   1.000000
  286       -0.583333   1.000000
  287       -0.569339   1.000000
  288       -0.564101   1.000000
  289       -0.539563   1.000000
  290       -0.535122   1.000000
  291       -0.514188   1.000000
  292       -0.486573   1.000000
  293       -0.476062   1.000000
  294       -0.464171   1.000000
  295       -0.421174   1.000000
  296       -0.417519   1.000000
  297       -0.395167   1.000000
  298       -0.384874   1.000000
  299       -0.368728   1.000000
  300       -0.350641   1.000000
  301       -0.329556   1.000000
  302       -0.299840   1.000000
  303       -0.287008   1.000000
  304       -0.259861   1.000000
  305       -0.243309   1.000000
  306       -0.217217   1.000000
  307       -0.198343   1.000000
  308       -0.165997   1.000000
  309       -0.148285   1.000000
  310       -0.116985   0.999999
  311       -0.076804   0.999997
  312       -0.063443   0.999995
  313       -0.040264   0.999990
  314       -0.023707   0.999984
  315        0.007512   0.999959
  316        0.072646   0.999745
  317        0.105976   0.999401
  318        0.111839   0.999308
  319        0.121761   0.999119
  320        0.159024   0.997911
  321        0.213389   0.993430
  322        0.245305   0.987910
  323        0.275189   0.979470
  324        0.299850   0.969158
  325        0.374668   0.909797
  326        0.396781   0.881624
  327        0.438315   0.813122
  328        0.459039   0.771235
  329        0.482525   0.717977
  330        0.502314   0.668912
  331        0.607811   0.378637
  332        0.612018   0.367377
  333        0.673835   0.218899
  334        0.740286   0.106418
  335        0.750178   0.094129
  336        0.783776   0.060173
  337        0.786560   0.057859
  338        0.852474   0.020721
  339        0.924269   0.005436
  340        0.968264   0.002133
  341        1.095843   0.000085
  342        1.118958   0.000044
  343        1.133698   0.000028
  344        1.160550   0.000012
  345        1.187086   0.000005
  346        1.220988   0.000002
  347        1.260407   0.000000
  348        1.304191   0.000000
  349        1.326539   0.000000
  350        1.351514   0.000000
  351        1.428168   0.000000
  352        1.455527   0.000000
  353        1.491151   0.000000
  354        1.513014   0.000000
  355        1.559593   0.000000
  356        1.624494   0.000000
  357        1.662946   0.000000
  358        1.737160   0.000000
  359        1.767507   0.000000
  360        1.778729   0.000000
  361        1.856103   0.000000
  362        1.901555   0.000000
  363        1.947640   0.000000
  364        2.770461   0.000000
  365        2.875028   0.000000
  366        3.218383   0.000000
  367        3.243912   0.000000
  368        3.553205   0.000000
  369        4.072865   0.000000
  370        4.387149   0.000000
  371        4.467165   0.000000
  372        4.608557   0.000000
  373        4.812812   0.000000
  374        4.951110   0.000000
  375        5.008128   0.000000
  376        5.046975   0.000000
  377        5.074136   0.000000
  378        5.131711   0.000000
  379        5.295573   0.000000
  380        5.408043   0.000000
  381        5.444933   0.000000
  382        5.497963   0.000000
  383        5.588684   0.000000
  384        5.685121   0.000000
  385        5.779599   0.000000
  386        5.855973   0.000000
  387        5.912189   0.000000
  388        5.972738   0.000000
  389        6.019029   0.000000
  390        6.072945   0.000000
  391        6.080172   0.000000
  392        6.177680   0.000000
  393        6.217245   0.000000
  394        6.243720   0.000000
  395        6.345402   0.000000
  396        6.367154   0.000000
  397        6.409545   0.000000
  398        6.515160   0.000000
  399        6.542438   0.000000
  400        6.635690   0.000000
