 vasp.6.1.0 28Jan20 (build Mar 31 2020 17:42:31) gamma-only                     
  
 executed on             LinuxIFC date 2020.04.12  17:43:51
 running on   48 total cores
 distrk:  each k-point on   48 cores,    1 groups
 distr:  one band on NCORE=   6 cores,    8 groups


--------------------------------------------------------------------------------------------------------


 INCAR:
 POTCAR:    PAW_PBE Ni_pv 06Sep2000               
 POTCAR:    PAW_PBE S 06Sep2000                   
 POTCAR:    PAW_PBE Ni_pv 06Sep2000               
   VRHFIN =Ni:                                                                                      
   LEXCH  = PE                                                                                      
   EATOM  =  3501.1230 eV,  257.3253 Ry                                                             
                                                                                                    
   TITEL  = PAW_PBE Ni_pv 06Sep2000                                                                 
   LULTRA =        F    use ultrasoft PP ?                                                          
   IUNSCR =        1    unscreen: 0-lin 1-nonlin 2-no                                               
   RPACOR =    1.500    partial core radius                                                         
   POMASS =   58.690; ZVAL   =   16.000    mass and valenz                                          
   RCORE  =    2.000    outmost cutoff radius                                                       
   RWIGS  =    2.000; RWIGS  =    1.058    wigner-seitz radius (au A)                               
   ENMAX  =  367.986; ENMIN  =  275.989 eV                                                          
   RCLOC  =    1.301    cutoff for local pot                                                        
   LCOR   =        T    correct aug charges                                                         
   LPAW   =        T    paw PP                                                                      
   EAUG   =  703.443                                                                                
   DEXC   =    0.000                                                                                
   RMAX   =    2.041    core radius for proj-oper                                                   
   RAUG   =    1.300    factor for augmentation sphere                                              
   RDEP   =    2.103    radius for radial grids                                                     
   RDEPT  =    1.618    core radius for aug-charge                                                  
                                                                                                    
   Atomic configuration                                                                             
    8 entries                                                                                       
     n  l   j            E        occ.                                                              
     1  0  0.50     -8206.4253   2.0000                                                             
     2  0  0.50      -976.1748   2.0000                                                             
     2  1  1.50      -839.0571   6.0000                                                             
     3  0  0.50      -105.9991   2.0000                                                             
     3  1  1.50       -66.4603   6.0000                                                             
     3  2  2.50        -4.6458   9.0000                                                             
     4  0  0.50        -4.4926   1.0000                                                             
     4  3  2.50        -1.3606   0.0000                                                             
   Description                                                                                      
     l       E           TYP  RCUT    TYP  RCUT                                                     
     1    -66.4602962     23  1.700                                                                 
     1     -1.3605826     23  1.700                                                                 
     2     -4.6457867     23  2.000                                                                 
     2     -6.0063693     23  2.000                                                                 
     0     -4.4925576     23  1.900                                                                 
     0     16.3626226     23  1.900                                                                 
  local pseudopotential read in
  partial core-charges read in
  partial kinetic energy density read in
  atomic valenz-charges read in
  non local Contribution for L=           1  read in
    real space projection operators read in
  non local Contribution for L=           1  read in
    real space projection operators read in
  non local Contribution for L=           2  read in
    real space projection operators read in
  non local Contribution for L=           2  read in
    real space projection operators read in
  non local Contribution for L=           0  read in
    real space projection operators read in
  non local Contribution for L=           0  read in
    real space projection operators read in
    PAW grid and wavefunctions read in
 
   number of l-projection  operators is LMAX  =           6
   number of lm-projection operators is LMMAX =          18
 
 POTCAR:    PAW_PBE S 06Sep2000                   
   VRHFIN =S : s2p4                                                                                 
   LEXCH  = PE                                                                                      
   EATOM  =   276.8230 eV,   20.3459 Ry                                                             
                                                                                                    
   TITEL  = PAW_PBE S 06Sep2000                                                                     
   LULTRA =        F    use ultrasoft PP ?                                                          
   IUNSCR =        1    unscreen: 0-lin 1-nonlin 2-no                                               
   RPACOR =    1.500    partial core radius                                                         
   POMASS =   32.066; ZVAL   =    6.000    mass and valenz                                          
   RCORE  =    1.900    outmost cutoff radius                                                       
   RWIGS  =    2.200; RWIGS  =    1.164    wigner-seitz radius (au A)                               
   ENMAX  =  258.689; ENMIN  =  194.016 eV                                                          
   ICORE  =        2    local potential                                                             
   LCOR   =        T    correct aug charges                                                         
   LPAW   =        T    paw PP                                                                      
   EAUG   =  335.092                                                                                
   DEXC   =    0.000                                                                                
   RMAX   =    1.942    core radius for proj-oper                                                   
   RAUG   =    1.300    factor for augmentation sphere                                              
   RDEP   =    1.954    radius for radial grids                                                     
   RDEPT  =    1.744    core radius for aug-charge                                                  
                                                                                                    
   Atomic configuration                                                                             
    6 entries                                                                                       
     n  l   j            E        occ.                                                              
     1  0  0.50     -2405.8406   2.0000                                                             
     2  0  0.50      -211.7007   2.0000                                                             
     2  1  1.50      -156.4958   6.0000                                                             
     3  0  0.50       -17.2562   2.0000                                                             
     3  1  0.50        -7.0085   4.0000                                                             
     3  2  1.50        -6.8029   0.0000                                                             
   Description                                                                                      
     l       E           TYP  RCUT    TYP  RCUT                                                     
     0    -17.2561641     23  1.900                                                                 
     0    -15.8743224     23  1.900                                                                 
     1     -7.0085400     23  1.900                                                                 
     1     -2.7779785     23  1.900                                                                 
     2     -6.8029130     23  1.900                                                                 
  local pseudopotential read in
  partial core-charges read in
  partial kinetic energy density read in
  atomic valenz-charges read in
  non local Contribution for L=           0  read in
    real space projection operators read in
  non local Contribution for L=           0  read in
    real space projection operators read in
  non local Contribution for L=           1  read in
    real space projection operators read in
  non local Contribution for L=           1  read in
    real space projection operators read in
    PAW grid and wavefunctions read in
 
   number of l-projection  operators is LMAX  =           4
   number of lm-projection operators is LMMAX =           8
 
 Optimization of the real space projectors (new method)

 maximal supplied QI-value         = 18.90
 optimisation between [QCUT,QGAM] = [ 10.77, 21.73] = [ 32.49,132.25] Ry 
 Optimized for a Real-space Cutoff    1.38 Angstroem

   l    n(q)    QCUT    max X(q) W(low)/X(q) W(high)/X(q)  e(spline) 
   1      8    10.771     2.836    0.40E-04    0.29E-04    0.12E-06
   1      8    10.771     4.023    0.10E-03    0.48E-04    0.29E-06
   2      8    10.771    73.368    0.42E-03    0.97E-04    0.44E-06
   2      8    10.771    69.010    0.42E-03    0.99E-04    0.45E-06
   0      9    10.771    54.797    0.10E-03    0.56E-04    0.74E-07
   0      9    10.771    24.266    0.89E-04    0.49E-04    0.67E-07
 Optimization of the real space projectors (new method)

 maximal supplied QI-value         = 19.84
 optimisation between [QCUT,QGAM] = [ 10.71, 21.63] = [ 32.15,130.99] Ry 
 Optimized for a Real-space Cutoff    1.19 Angstroem

   l    n(q)    QCUT    max X(q) W(low)/X(q) W(high)/X(q)  e(spline) 
   0      8    10.715   187.594    0.41E-03    0.53E-04    0.66E-07
   0      8    10.715   164.243    0.41E-03    0.53E-04    0.65E-07
   1      7    10.715    67.533    0.19E-03    0.59E-03    0.68E-07
   1      7    10.715    50.729    0.19E-03    0.58E-03    0.67E-07
  PAW_PBE Ni_pv 06Sep2000               :
 energy of atom  1       EATOM=-3501.1230
 kinetic energy error for atom=    0.0925 (will be added to EATOM!!)
  PAW_PBE S 06Sep2000                   :
 energy of atom  2       EATOM= -276.8230
 kinetic energy error for atom=    0.0033 (will be added to EATOM!!)
 
 
 POSCAR: Structure 34 made from -211-7.xsd file
  positions in direct lattice
  No initial velocities read in
 exchange correlation table for  LEXCH =        8
   RHO(1)=    0.500       N(1)  =     2000
   RHO(2)=  100.500       N(2)  =     4000
 


--------------------------------------------------------------------------------------------------------


 ion  position               nearest neighbor table
   1  0.247  0.945  0.000-  41 2.25  49 2.36  61 2.36
   2  0.397  0.795  0.127-  42 2.25  49 2.26  61 2.26  50 2.36  62 2.36  14 2.53  26 2.53
   3  0.547  0.645  0.254-  43 2.25  62 2.26  50 2.26  63 2.36  51 2.36  27 2.53  15 2.53
   4  0.698  0.494  0.381-  44 2.25  51 2.26  63 2.26  52 2.36  64 2.36  16 2.53  28 2.53
   5  0.848  0.344  0.508-  64 2.26  52 2.26  17 2.53
   6  0.114  0.412  0.169-  45 2.25  68 2.26  53 2.26  65 2.36  54 2.36  29 2.53  18 2.53
   7  0.264  0.261  0.296-  46 2.25  65 2.26  54 2.26  55 2.36  66 2.36  19 2.53  30 2.53
   8  0.414  0.111  0.423-  47 2.25  55 2.26  66 2.26  56 2.36  67 2.36  31 2.53  20 2.53
   9  0.964  0.562  0.042-  48 2.25  53 2.36  68 2.36  22 2.53
  10  0.131  0.728  0.465-  37 2.25  72 2.26  58 2.26  59 2.36  35 2.53
  11  0.680  0.178  0.085-  38 2.25  69 2.26  70 2.36  60 2.36  23 2.53  36 2.53
  12  0.831  0.028  0.212-  39 2.25  60 2.26  70 2.26  57 2.36  71 2.36  24 2.53  33 2.53
  13  0.981  0.878  0.338-  40 2.25  57 2.26  71 2.26  58 2.36  72 2.36  34 2.53  25 2.53
  14  0.357  0.570  0.093-  53 2.25  61 2.26  62 2.36  38 2.36   2 2.53  26 2.53
  15  0.508  0.420  0.220-  54 2.25  62 2.26  38 2.26  39 2.36  63 2.36  27 2.53   3 2.53
  16  0.658  0.270  0.347-  55 2.25  63 2.26  39 2.26  64 2.36  40 2.36   4 2.53  28 2.53
  17  0.808  0.120  0.474-  56 2.25  40 2.26  64 2.26  37 2.36   5 2.53
  18  0.074  0.187  0.136-  60 2.25  68 2.26  41 2.26  42 2.36  65 2.36   6 2.53  29 2.53
  19  0.224  0.037  0.263-  57 2.25  42 2.26  65 2.26  66 2.36  43 2.36   7 2.53  30 2.53
  20  0.375  0.886  0.390-  58 2.25  66 2.26  43 2.26  44 2.36  67 2.36  31 2.53   8 2.53
  21  0.525  0.736  0.517-  59 2.25  67 2.26  44 2.26  32 2.53
  22  0.924  0.337  0.009-  41 2.36  68 2.36   9 2.53
  23  0.641  0.954  0.051-  49 2.25  69 2.26  48 2.36  70 2.36  36 2.53  11 2.53
  24  0.791  0.804  0.178-  50 2.25  70 2.26  48 2.26  71 2.36  45 2.36  12 2.53  33 2.53
  25  0.941  0.653  0.305-  51 2.25  71 2.26  45 2.26  46 2.36  72 2.36  34 2.53  13 2.53
  26  0.582  0.610  0.060-  49 2.26  50 2.36  38 2.36   2 2.53  14 2.53
  27  0.732  0.460  0.187-  68 2.25  50 2.26  38 2.26  51 2.36  39 2.36  15 2.53   3 2.53
  28  0.882  0.310  0.314-  65 2.25  39 2.26  51 2.26  40 2.36  52 2.36   4 2.53  16 2.53
  29  0.299  0.227  0.102-  69 2.25  53 2.26  41 2.26  54 2.36  42 2.36   6 2.53  18 2.53
  30  0.449  0.076  0.229-  70 2.25  42 2.26  54 2.26  55 2.36  43 2.36  19 2.53   7 2.53
  31  0.599  0.926  0.356-  71 2.25  55 2.26  43 2.26  56 2.36  44 2.36   8 2.53  20 2.53
  32  0.749  0.776  0.483-  72 2.25  56 2.26  44 2.26  21 2.53
  33  0.015  0.843  0.144-  61 2.25  48 2.26  60 2.26  45 2.36  57 2.36  24 2.53  12 2.53
  34  0.166  0.693  0.271-  62 2.25  57 2.26  45 2.26  46 2.36  58 2.36  13 2.53  25 2.53
  35  0.316  0.543  0.398-  63 2.25  58 2.26  46 2.26  47 2.36  59 2.36  10 2.53
  36  0.865  0.994  0.018-  60 2.36  48 2.36  23 2.53  11 2.53
  37  0.037  0.955  0.498-  10 2.25  17 2.36
  38  0.586  0.406  0.117-  11 2.25  15 2.26  27 2.26  26 2.36  14 2.36
  39  0.736  0.256  0.244-  12 2.25  28 2.26  16 2.26  15 2.36  27 2.36
  40  0.886  0.105  0.371-  13 2.25  17 2.26  16 2.36  28 2.36
  41  0.152  0.173  0.033-   1 2.25  18 2.26  29 2.26  22 2.36
  42  0.303  0.023  0.160-   2 2.25  30 2.26  19 2.26  18 2.36  29 2.36
  43  0.453  0.872  0.286-   3 2.25  20 2.26  31 2.26  19 2.36  30 2.36
  44  0.603  0.722  0.413-   4 2.25  21 2.26  32 2.26  31 2.36  20 2.36
  45  0.019  0.639  0.202-   6 2.25  25 2.26  34 2.26  24 2.36  33 2.36
  46  0.170  0.489  0.329-   7 2.25  35 2.26  34 2.36  25 2.36
  47  0.320  0.339  0.456-   8 2.25  35 2.36
  48  0.869  0.789  0.075-   9 2.25  33 2.26  24 2.26  23 2.36  36 2.36
  49  0.486  0.842  0.033-  23 2.25   2 2.26  26 2.26   1 2.36
  50  0.636  0.692  0.160-  24 2.25  27 2.26   3 2.26   2 2.36  26 2.36
  51  0.787  0.542  0.287-  25 2.25   4 2.26  28 2.26  27 2.36   3 2.36
  52  0.937  0.391  0.414-   5 2.26   4 2.36  28 2.36
  53  0.203  0.459  0.075-  14 2.25  29 2.26   6 2.26   9 2.36
  54  0.353  0.308  0.202-  15 2.25   7 2.26  30 2.26  29 2.36   6 2.36
  55  0.503  0.158  0.329-  16 2.25   8 2.26  31 2.26   7 2.36  30 2.36
  56  0.654  0.008  0.456-  17 2.25  32 2.26  31 2.36   8 2.36
  57  0.070  0.925  0.245-  19 2.25  34 2.26  13 2.26  12 2.36  33 2.36
  58  0.220  0.775  0.372-  20 2.25  10 2.26  35 2.26  34 2.36  13 2.36
  59  0.370  0.624  0.498-  21 2.25  35 2.36  10 2.36
  60  0.920  0.075  0.118-  18 2.25  12 2.26  33 2.26  36 2.36  11 2.36
  61  0.200  0.792  0.076-  33 2.25  14 2.26   2 2.26   1 2.36
  62  0.350  0.641  0.203-  34 2.25  15 2.26   3 2.26  14 2.36   2 2.36
  63  0.501  0.491  0.330-  35 2.25   4 2.26  16 2.26   3 2.36  15 2.36
  64  0.651  0.341  0.457-   5 2.26  17 2.26  16 2.36   4 2.36
  65  0.067  0.258  0.245-  28 2.25   7 2.26  19 2.26   6 2.36  18 2.36
  66  0.218  0.108  0.372-  20 2.26   8 2.26  19 2.36   7 2.36
  67  0.368  0.957  0.499-  21 2.26  20 2.36   8 2.36
  68  0.917  0.408  0.118-  27 2.25  18 2.26   6 2.26  22 2.36   9 2.36
  69  0.483  0.175  0.033-  29 2.25  11 2.26  23 2.26
  70  0.634  0.025  0.160-  30 2.25  12 2.26  24 2.26  11 2.36  23 2.36
  71  0.784  0.874  0.287-  31 2.25  25 2.26  13 2.26  24 2.36  12 2.36
  72  0.934  0.724  0.414-  32 2.25  10 2.26  13 2.36  25 2.36
 
  LATTYP: Found a base centered orthorhombic cell.
 ALAT       =    11.4527836704
 B/A-ratio  =     1.4485816945
 C/A-ratio  =     1.8059804630
  
  Lattice vectors:
  
 A1 = (   9.4251025535,   3.5732980427,   0.0000000000)
 A2 = (   0.0000000000, -10.0797329849,   0.0000000000)
 A3 = (   0.0000000000,   0.0000000000, -20.6835035552)


Analysis of symmetry for initial positions (statically):
=====================================================================
 Subroutine PRICEL returns:
 Original cell was already a primitive cell.
 

 Routine SETGRP: Setting up the symmetry group for a 
 base centered orthorhombic supercell.


 Subroutine GETGRP returns: Found  1 space group operations
 (whereof  1 operations were pure point group operations)
 out of a pool of  8 trial point group operations.


The static configuration has the point symmetry C_1 .


Analysis of symmetry for dynamics (positions and initial velocities):
=====================================================================
 Subroutine PRICEL returns:
 Original cell was already a primitive cell.
 

 Routine SETGRP: Setting up the symmetry group for a 
 base centered orthorhombic supercell.


 Subroutine GETGRP returns: Found  1 space group operations
 (whereof  1 operations were pure point group operations)
 out of a pool of  8 trial point group operations.


The dynamic configuration has the point symmetry C_1 .


 Subroutine INISYM returns: Found  1 space group operations
 (whereof  1 operations are pure point group operations),
 and found     1 'primitive' translations


----------------------------------------------------------------------------------------

                                     Primitive cell                                     

  volume of cell :    1964.9849

  direct lattice vectors                    reciprocal lattice vectors
     9.425102554  3.573298043  0.000000000     0.106099641  0.000000000  0.000000000
     0.000000000 10.079732985  0.000000000    -0.037612667  0.099208977  0.000000000
     0.000000000  0.000000000 20.683503555     0.000000000  0.000000000  0.048347708

  length of vectors
    10.079732985 10.079732985 20.683503555     0.106099641  0.106099641  0.048347708

  position of ions in fractional coordinates (direct lattice)
     0.246790380  0.945220301  0.000000000
     0.397058892  0.794951789  0.126937024
     0.547327404  0.644683277  0.253874049
     0.697595917  0.494414764  0.380811073
     0.847864429  0.344146252  0.507748097
     0.113815063  0.411528951  0.169249366
     0.264083575  0.261260439  0.296186390
     0.414352088  0.110991927  0.423123414
     0.963546550  0.561797464  0.042312341
     0.131108258  0.727569089  0.465435756
     0.680302721  0.178374626  0.084624683
     0.830571234  0.028106114  0.211561707
     0.980839746  0.877837602  0.338498732
     0.357357049  0.570447632  0.093399501
     0.507625562  0.420179119  0.220336525
     0.657894074  0.269910607  0.347273550
     0.808162587  0.119642094  0.474210574
     0.074113220  0.187024794  0.135711842
     0.224381733  0.036756282  0.262648867
     0.374650245  0.886487769  0.389585891
     0.524918757  0.736219257  0.516522915
     0.923844708  0.337293306  0.008774818
     0.640600879  0.953870469  0.051087159
     0.790869391  0.803601957  0.178024184
     0.941137903  0.653333444  0.304961208
     0.581861207  0.610149474  0.059861977
     0.732129719  0.459880962  0.186799002
     0.882398232  0.309612449  0.313736026
     0.298617378  0.226726637  0.102174319
     0.448885890  0.076458124  0.229111343
     0.599154402  0.926189612  0.356048368
     0.749422915  0.775921099  0.482985392
     0.015373548  0.843303799  0.144486660
     0.165642061  0.693035287  0.271423685
     0.315910573  0.542766774  0.398360709
     0.865105036  0.993572312  0.017549636
     0.036604831  0.955193850  0.498057640
     0.585799294  0.405999387  0.117246567
     0.736067806  0.255730875  0.244183592
     0.886336318  0.105462363  0.371120616
     0.152286952  0.172845062  0.032621884
     0.302555464  0.022576550  0.159558909
     0.452823977  0.872308037  0.286495933
     0.603092489  0.722039525  0.413432957
     0.019311635  0.639153712  0.201871250
     0.169580148  0.488885200  0.328808274
     0.319848660  0.338616688  0.455745299
     0.869043123  0.789422225  0.074934226
     0.486085617  0.842143064  0.033014966
     0.636354129  0.691874552  0.159951990
     0.786622642  0.541606039  0.286889015
     0.936891154  0.391337527  0.413826039
     0.202841788  0.458720227  0.075327307
     0.353110300  0.308451714  0.202264332
     0.503378812  0.158183202  0.329201356
     0.653647325  0.007914689  0.456138380
     0.069866471  0.925028877  0.244576673
     0.220134983  0.774760364  0.371513698
     0.370403496  0.624491852  0.498450722
     0.919597958  0.075297389  0.117639649
     0.200210452  0.791588228  0.075720389
     0.350478965  0.641319716  0.202657413
     0.500747477  0.491051204  0.329594438
     0.651015990  0.340782691  0.456531462
     0.067235136  0.257896879  0.244969755
     0.217503648  0.107628366  0.371906779
     0.367772160  0.957359854  0.498843804
     0.916966623  0.408165391  0.118032731
     0.483454282  0.175011066  0.033408048
     0.633722794  0.024742554  0.160345072
     0.783991306  0.874474041  0.287282096
     0.934259819  0.724205529  0.414219121

  ion indices of the primitive-cell ions
   primitive index   ion index
                 1           1
                 2           2
                 3           3
                 4           4
                 5           5
                 6           6
                 7           7
                 8           8
                 9           9
                10          10
                11          11
                12          12
                13          13
                14          14
                15          15
                16          16
                17          17
                18          18
                19          19
                20          20
                21          21
                22          22
                23          23
                24          24
                25          25
                26          26
                27          27
                28          28
                29          29
                30          30
                31          31
                32          32
                33          33
                34          34
                35          35
                36          36
                37          37
                38          38
                39          39
                40          40
                41          41
                42          42
                43          43
                44          44
                45          45
                46          46
                47          47
                48          48
                49          49
                50          50
                51          51
                52          52
                53          53
                54          54
                55          55
                56          56
                57          57
                58          58
                59          59
                60          60
                61          61
                62          62
                63          63
                64          64
                65          65
                66          66
                67          67
                68          68
                69          69
                70          70
                71          71
                72          72

----------------------------------------------------------------------------------------

 
 
 KPOINTS: gamma-point-only calculation. no periodi

Automatic generation of k-mesh.
Space group operators:
 irot       det(A)        alpha          n_x          n_y          n_z        tau_x        tau_y        tau_z
    1     1.000000     0.000000     1.000000     0.000000     0.000000     0.000000     0.000000     0.000000
 
 Subroutine IBZKPT returns following result:
 ===========================================
 
 Found      1 irreducible k-points:
 
 Following reciprocal coordinates:
            Coordinates               Weight
  0.000000  0.000000  0.000000      1.000000
 
 Following cartesian coordinates:
            Coordinates               Weight
  0.000000  0.000000  0.000000      1.000000
 


--------------------------------------------------------------------------------------------------------




 Dimension of arrays:
   k-points           NKPTS =      1   k-points in BZ     NKDIM =      1   number of bands    NBANDS=    480
   number of dos      NEDOS =    301   number of ions     NIONS =     72
   non local maximal  LDIM  =      6   non local SUM 2l+1 LMDIM =     18
   total plane-waves  NPLWV = 314928
   max r-space proj   IRMAX =   1817   max aug-charges    IRDMAX=   5248
   dimension x,y,z NGX =    54 NGY =   54 NGZ =  108
   dimension x,y,z NGXF=   108 NGYF=  108 NGZF=  216
   support grid    NGXF=   108 NGYF=  108 NGZF=  216
   ions per type =              36  36
   NGX,Y,Z   is equivalent  to a cutoff of   8.91,  8.91,  8.68 a.u.
   NGXF,Y,Z  is equivalent  to a cutoff of  17.81, 17.81, 17.36 a.u.

 SYSTEM =  "Millerite NiS"                         
 POSCAR =  Structure 34 made from -211-7.xsd file  

 Startparameter for this run:
   NWRITE =      2    write-flag & timer
   PREC   = normal    normal or accurate (medium, high low for compatibility)
   ISTART =      0    job   : 0-new  1-cont  2-samecut
   ICHARG =      2    charge: 1-file 2-atom 10-const
   ISPIN  =      1    spin polarized calculation?
   LNONCOLLINEAR =      F non collinear calculations
   LSORBIT =      F    spin-orbit coupling
   INIWAV =      1    electr: 0-lowe 1-rand  2-diag
   LASPH  =      F    aspherical Exc in radial PAW
   METAGGA=      F    non-selfconsistent MetaGGA calc.

 Electronic Relaxation 1
   ENCUT  =  450.0 eV  33.07 Ry    5.75 a.u.  17.43 17.43 35.78*2*pi/ulx,y,z
   ENINI  =  450.0     initial cutoff
   ENAUG  =  703.4 eV  augmentation charge cutoff
   NELM   =    100;   NELMIN=  2; NELMDL= -5     # of ELM steps 
   EDIFF  = 0.1E-03   stopping-criterion for ELM
   LREAL  =      T    real-space projection
   NLSPLINE    = F    spline interpolate recip. space projectors
   LCOMPAT=      F    compatible to vasp.4.4
   GGA_COMPAT  = T    GGA compatible to vasp.4.4-vasp.4.6
   LMAXPAW     = -100 max onsite density
   LMAXMIX     =    2 max onsite mixed and CHGCAR
   VOSKOWN=      0    Vosko Wilk Nusair interpolation
   ROPT   =   -0.00050  -0.00050
 Ionic relaxation
   EDIFFG = 0.1E-02   stopping-criterion for IOM
   NSW    =      0    number of steps for IOM
   NBLOCK =      1;   KBLOCK =      1    inner block; outer block 
   IBRION =     -1    ionic relax: 0-MD 1-quasi-New 2-CG
   NFREE  =      0    steps in history (QN), initial steepest desc. (CG)
   ISIF   =      2    stress and relaxation
   IWAVPR =     10    prediction:  0-non 1-charg 2-wave 3-comb
   ISYM   =      2    0-nonsym 1-usesym 2-fastsym
   LCORR  =      T    Harris-Foulkes like correction to forces

   POTIM  = 0.5000    time-step for ionic-motion
   TEIN   =    0.0    initial temperature
   TEBEG  =    0.0;   TEEND  =   0.0 temperature during run
   SMASS  =  -3.00    Nose mass-parameter (am)
   estimated Nose-frequenzy (Omega)   =  0.10E-29 period in steps = 0.13E+47 mass=  -0.232E-26a.u.
   SCALEE = 1.0000    scale energy and forces
   NPACO  =    256;   APACO  = 16.0  distance and # of slots for P.C.
   PSTRESS=    0.0 pullay stress

  Mass of Ions in am
   POMASS =  58.69 32.07
  Ionic Valenz
   ZVAL   =  16.00  6.00
  Atomic Wigner-Seitz radii
   RWIGS  =  -1.00 -1.00
  virtual crystal weights 
   VCA    =   1.00  1.00
   NELECT =     792.0000    total number of electrons
   NUPDOWN=      -1.0000    fix difference up-down

 DOS related values:
   EMIN   =  10.00;   EMAX   =-10.00  energy-range for DOS
   EFERMI =   0.00
   ISMEAR =     0;   SIGMA  =   0.20  broadening in eV -4-tet -1-fermi 0-gaus

 Electronic relaxation 2 (details)
   IALGO  =     38    algorithm
   LDIAG  =      T    sub-space diagonalisation (order eigenvalues)
   LSUBROT=      F    optimize rotation matrix (better conditioning)
   TURBO    =      0    0=normal 1=particle mesh
   IRESTART =      0    0=no restart 2=restart with 2 vectors
   NREBOOT  =      0    no. of reboots
   NMIN     =      0    reboot dimension
   EREF     =   0.00    reference energy to select bands
   IMIX   =      4    mixing-type and parameters
     AMIX     =   0.40;   BMIX     =  1.00
     AMIX_MAG =   1.60;   BMIX_MAG =  1.00
     AMIN     =   0.10
     WC   =   100.;   INIMIX=   1;  MIXPRE=   1;  MAXMIX= -45

 Intra band minimization:
   WEIMIN = 0.0000     energy-eigenvalue tresh-hold
   EBREAK =  0.52E-07  absolut break condition
   DEPER  =   0.30     relativ break condition  

   TIME   =   0.40     timestep for ELM

  volume/ion in A,a.u.               =      27.29       184.17
  Fermi-wavevector in a.u.,A,eV,Ry     =   1.209289  2.285225 19.896891  1.462380
  Thomas-Fermi vector in A             =   2.344871
 
 Write flags
   LWAVE        =      F    write WAVECAR
   LDOWNSAMPLE  =      F    k-point downsampling of WAVECAR
   LCHARG       =      F    write CHGCAR
   LVTOT        =      F    write LOCPOT, total local potential
   LVHAR        =      F    write LOCPOT, Hartree potential only
   LELF         =      F    write electronic localiz. function (ELF)
   LORBIT       =      0    0 simple, 1 ext, 2 COOP (PROOUT), +10 PAW based schemes


 Dipole corrections
   LMONO  =      F    monopole corrections only (constant potential shift)
   LDIPOL =      F    correct potential (dipole corrections)
   IDIPOL =      0    1-x, 2-y, 3-z, 4-all directions 
   EPSILON=  1.0000000 bulk dielectric constant

 Exchange correlation treatment:
   GGA     =    --    GGA type
   LEXCH   =     8    internal setting for exchange type
   VOSKOWN=      0    Vosko Wilk Nusair interpolation
   LHFCALC =     F    Hartree Fock is set to
   LHFONE  =     F    Hartree Fock one center treatment
   AEXX    =    0.0000 exact exchange contribution

 Linear response parameters
   LEPSILON=     F    determine dielectric tensor
   LRPA    =     F    only Hartree local field effects (RPA)
   LNABLA  =     F    use nabla operator in PAW spheres
   LVEL    =     F    velocity operator in full k-point grid
   LINTERFAST=   F  fast interpolation
   KINTER  =     0    interpolate to denser k-point grid
   CSHIFT  =0.1000    complex shift for real part using Kramers Kronig
   OMEGAMAX=  -1.0    maximum frequency
   DEG_THRESHOLD= 0.2000000E-02 threshold for treating states as degnerate
   RTIME   =   -0.100 relaxation time in fs
  (WPLASMAI=    0.000 imaginary part of plasma frequency in eV, 0.658/RTIME)
   DFIELD  = 0.0000000 0.0000000 0.0000000 field for delta impulse in time
 
 Orbital magnetization related:
   ORBITALMAG=     F  switch on orbital magnetization
   LCHIMAG   =     F  perturbation theory with respect to B field
   DQ        =  0.001000  dq finite difference perturbation B field
   LLRAUG    =     F  two centre corrections for induced B field



--------------------------------------------------------------------------------------------------------


 Static calculation
 charge density and potential will be updated during run
 non-spin polarized calculation
 Variant of blocked Davidson
 Davidson routine will perform the subspace rotation
 perform sub-space diagonalisation
    after iterative eigenvector-optimisation
 modified Broyden-mixing scheme, WC =      100.0
 initial mixing is a Kerker type mixing with AMIX =  0.4000 and BMIX =      1.0000
 Hartree-type preconditioning will be used
 using additional bands           84
 real space projection scheme for non local part
 use partial core corrections
 calculate Harris-corrections to forces 
   (improved forces if not selfconsistent)
 use gradient corrections 
 use of overlap-Matrix (Vanderbilt PP)
 Gauss-broadening in eV      SIGMA  =   0.20


--------------------------------------------------------------------------------------------------------


  energy-cutoff  :      450.00
  volume of cell :     1964.98
      direct lattice vectors                 reciprocal lattice vectors
     9.425102554  3.573298043  0.000000000     0.106099641  0.000000000  0.000000000
     0.000000000 10.079732985  0.000000000    -0.037612667  0.099208977  0.000000000
     0.000000000  0.000000000 20.683503555     0.000000000  0.000000000  0.048347708

  length of vectors
    10.079732985 10.079732985 20.683503555     0.106099641  0.106099641  0.048347708


 
 k-points in units of 2pi/SCALE and weight: gamma-point-only calculation. no periodi
   0.00000000  0.00000000  0.00000000       1.000
 
 k-points in reciprocal lattice and weights: gamma-point-only calculation. no periodi
   0.00000000  0.00000000  0.00000000       1.000
 
 position of ions in fractional coordinates (direct lattice) 
   0.24679038  0.94522030  0.00000000
   0.39705889  0.79495179  0.12693702
   0.54732740  0.64468328  0.25387405
   0.69759592  0.49441476  0.38081107
   0.84786443  0.34414625  0.50774810
   0.11381506  0.41152895  0.16924937
   0.26408358  0.26126044  0.29618639
   0.41435209  0.11099193  0.42312341
   0.96354655  0.56179746  0.04231234
   0.13110826  0.72756909  0.46543576
   0.68030272  0.17837463  0.08462468
   0.83057123  0.02810611  0.21156171
   0.98083975  0.87783760  0.33849873
   0.35735705  0.57044763  0.09339950
   0.50762556  0.42017912  0.22033653
   0.65789407  0.26991061  0.34727355
   0.80816259  0.11964209  0.47421057
   0.07411322  0.18702479  0.13571184
   0.22438173  0.03675628  0.26264887
   0.37465024  0.88648777  0.38958589
   0.52491876  0.73621926  0.51652292
   0.92384471  0.33729331  0.00877482
   0.64060088  0.95387047  0.05108716
   0.79086939  0.80360196  0.17802418
   0.94113790  0.65333344  0.30496121
   0.58186121  0.61014947  0.05986198
   0.73212972  0.45988096  0.18679900
   0.88239823  0.30961245  0.31373603
   0.29861738  0.22672664  0.10217432
   0.44888589  0.07645812  0.22911134
   0.59915440  0.92618961  0.35604837
   0.74942291  0.77592110  0.48298539
   0.01537355  0.84330380  0.14448666
   0.16564206  0.69303529  0.27142369
   0.31591057  0.54276677  0.39836071
   0.86510504  0.99357231  0.01754964
   0.03660483  0.95519385  0.49805764
   0.58579929  0.40599939  0.11724657
   0.73606781  0.25573087  0.24418359
   0.88633632  0.10546236  0.37112062
   0.15228695  0.17284506  0.03262188
   0.30255546  0.02257655  0.15955891
   0.45282398  0.87230804  0.28649593
   0.60309249  0.72203952  0.41343296
   0.01931164  0.63915371  0.20187125
   0.16958015  0.48888520  0.32880827
   0.31984866  0.33861669  0.45574530
   0.86904312  0.78942223  0.07493423
   0.48608562  0.84214306  0.03301497
   0.63635413  0.69187455  0.15995199
   0.78662264  0.54160604  0.28688901
   0.93689115  0.39133753  0.41382604
   0.20284179  0.45872023  0.07532731
   0.35311030  0.30845171  0.20226433
   0.50337881  0.15818320  0.32920136
   0.65364733  0.00791469  0.45613838
   0.06986647  0.92502888  0.24457667
   0.22013498  0.77476036  0.37151370
   0.37040350  0.62449185  0.49845072
   0.91959796  0.07529739  0.11763965
   0.20021045  0.79158823  0.07572039
   0.35047897  0.64131972  0.20265741
   0.50074748  0.49105120  0.32959444
   0.65101599  0.34078269  0.45653146
   0.06723514  0.25789688  0.24496975
   0.21750365  0.10762837  0.37190678
   0.36777216  0.95735985  0.49884380
   0.91696662  0.40816539  0.11803273
   0.48345428  0.17501107  0.03340805
   0.63372279  0.02474255  0.16034507
   0.78399131  0.87447404  0.28728210
   0.93425982  0.72420553  0.41421912
 
 position of ions in cartesian coordinates  (Angst):
   2.32602464 10.40942383  0.00000000
   3.74232078  9.43171153  2.62550239
   5.15861691  8.45399923  5.25100480
   6.57491306  7.47628693  7.87650718
   7.99120919  6.49857463 10.50200957
   1.07271864  4.55479708  3.50066986
   2.48901478  3.57708479  6.12617225
   3.90531092  2.59937249  8.75167464
   9.08152505  9.10580743  0.87516746
   1.23570878  7.80219103  9.62684211
   6.41192291  4.22889298  1.75033493
   7.82821906  3.25118069  4.37583732
   9.24451519 12.35320138  7.00133973
   3.36812684  7.02690306  1.93182891
   4.78442298  6.04919075  4.55733130
   6.20071912  5.07147846  7.18283371
   7.61701526  4.09376615  9.80833609
   0.69852470  2.14998861  2.80699637
   2.11482084  1.17227632  5.43249877
   3.53111698 10.27429699  8.05800116
   4.94741312  9.29658470 10.68350355
   8.70733112  6.70099895  0.18149398
   6.03772898 11.90381750  1.05666143
   7.45402512 10.92610520  3.68216384
   8.87032125  9.94839289  6.30766623
   5.48410155  8.22930729  1.23815541
   6.90039768  7.25159499  3.86365782
   8.31669383  6.27388269  6.48916021
   2.81449941  3.35239285  2.11332289
   4.23079555  2.37468055  4.73882528
   5.64709168 11.47670123  7.36432769
   7.06338783 10.49898893  9.98983007
   0.14489727  8.55521139  2.98849035
   1.56119341  7.57749909  5.61399275
   2.97748955  6.59978679  8.23949514
   8.15370368 13.10622174  0.36298796
   0.34500429  9.75889893 10.30157697
   5.52121842  6.18560088  2.42506979
   6.93751456  5.20788859  5.05057219
   8.35381069  4.23017629  7.67607458
   1.43532014  2.28639874  0.67473485
   2.85161628  1.30868644  3.30023726
   4.26791242 10.41070712  5.92573965
   5.68420856  9.43299483  8.55124204
   0.18201414  6.51150498  4.17540472
   1.59831029  5.53379269  6.80090710
   3.01460642  4.55608039  9.42640951
   8.19082056 11.06251533  1.54990233
   4.58140679 10.22550600  0.68286517
   5.99770293  9.24779371  3.30836755
   7.41399907  8.27008140  5.93386996
   8.83029521  7.29236911  8.55937235
   1.91180465  5.34859157  1.55803262
   3.32810079  4.37087926  4.18353503
   4.74439693  3.39316696  6.80903742
   6.16069307  2.41545466  9.43453980
   0.65849865  9.57369781  5.05870249
   2.07479479  8.59598550  7.68420489
   3.49109094  7.61827321 10.30970728
   8.66730506  4.04497516  2.43320010
   1.88700404  8.69440959  1.56616294
   3.30330019  7.71669729  4.19166532
   4.71959632  6.73898500  6.81716773
   6.13589247  5.76127269  9.44267012
   0.63369805  2.83978286  5.06683280
   2.04999419  1.86207055  7.69233519
   3.46629032 10.96409124 10.31783759
   8.64250446  7.39079319  2.44133041
   4.55660619  3.49159105  0.69099548
   5.97290232  2.51387876  3.31649787
   7.38919846 11.61589943  5.94200025
   8.80549461 10.63818714  8.56750266
 


--------------------------------------------------------------------------------------------------------


 use parallel FFT for orbitals z direction half grid
 k-point   1 :   0.0000 0.0000 0.0000  plane waves:   21301

 maximum and minimum number of plane-waves per node :      3554     3548

 maximum number of plane-waves:     21301
 maximum index in each direction: 
   IXMAX=   17   IYMAX=   17   IZMAX=   35
   IXMIN=  -17   IYMIN=  -17   IZMIN=    0


 real space projection operators:
  total allocation   :      11162.16 KBytes
  max/ min on nodes  :       1863.09       1857.05


 parallel 3D FFT for wavefunctions:
    minimum data exchange during FFTs selected (reduces bandwidth)
 parallel 3D FFT for charge:
    minimum data exchange during FFTs selected (reduces bandwidth)


 total amount of memory used by VASP MPI-rank0    45295. kBytes
=======================================================================

   base      :      30000. kBytes
   nonlr-proj:       2281. kBytes
   fftplans  :       3383. kBytes
   grid      :       6052. kBytes
   one-center:         93. kBytes
   wavefun   :       3486. kBytes
 
     INWAV:  cpu time    0.0000: real time    0.0000
 Broyden mixing: mesh for mixing (old mesh)
   NGX = 35   NGY = 35   NGZ = 71
  (NGX  =108   NGY  =108   NGZ  =216)
  gives a total of  86975 points

 initial charge density was supplied:
 charge density of overlapping atoms calculated
 number of electron     792.0000000 magnetization 
 keeping initial charge density in first step


--------------------------------------------------------------------------------------------------------


 Maximum index for non-local projection operator          301
 Maximum index for augmentation-charges          468 (set IRDMAX)


--------------------------------------------------------------------------------------------------------


 First call to EWALD:  gamma=   0.142
 Maximum number of real-space cells 3x 3x 2
 Maximum number of reciprocal cells 2x 2x 4

    FEWALD:  cpu time    0.0045: real time    0.0045


--------------------------------------- Iteration      1(   1)  ---------------------------------------


    POTLOK:  cpu time    0.0469: real time    0.0492
    SETDIJ:  cpu time    0.0049: real time    0.0068
     EDDAV:  cpu time    2.0226: real time    2.0288
       DOS:  cpu time    0.0010: real time    0.0012
    --------------------------------------------
      LOOP:  cpu time    2.0755: real time    2.0859

 eigenvalue-minimisations  :  1184
 total energy-change (2. order) : 0.9670735E+04  (-0.5082265E+05)
 number of electron     792.0000000 magnetization 
 augmentation part      792.0000000 magnetization 

 Free energy of the ion-electron system (eV)
  ---------------------------------------------------
  alpha Z        PSCENC =      1893.09323658
  Ewald energy   TEWEN  =    159489.30032209
  -Hartree energ DENC   =   -282083.62771856
  -exchange      EXHF   =         0.00000000
  -V(xc)+E(xc)   XCENC  =      3650.25882993
  PAW double counting   =    112729.53333415  -117641.51188735
  entropy T*S    EENTRO =        -0.51854233
  eigenvalues    EBANDS =     -4368.39793499
  atomic energy  EATOM  =    136002.60505376
  Solvation  Ediel_sol  =         0.00000000
  ---------------------------------------------------
  free energy    TOTEN  =      9670.73469328 eV

  energy without entropy =     9671.25323561  energy(sigma->0) =     9670.99396445


--------------------------------------------------------------------------------------------------------




--------------------------------------- Iteration      1(   2)  ---------------------------------------


     EDDAV:  cpu time    1.7763: real time    1.7837
       DOS:  cpu time    0.0011: real time    0.0011
    --------------------------------------------
      LOOP:  cpu time    1.7774: real time    1.7849

 eigenvalue-minimisations  :  1016
 total energy-change (2. order) :-0.9075960E+04  (-0.8755517E+04)
 number of electron     792.0000000 magnetization 
 augmentation part      792.0000000 magnetization 

 Free energy of the ion-electron system (eV)
  ---------------------------------------------------
  alpha Z        PSCENC =      1893.09323658
  Ewald energy   TEWEN  =    159489.30032209
  -Hartree energ DENC   =   -282083.62771856
  -exchange      EXHF   =         0.00000000
  -V(xc)+E(xc)   XCENC  =      3650.25882993
  PAW double counting   =    112729.53333415  -117641.51188735
  entropy T*S    EENTRO =        -0.83457226
  eigenvalues    EBANDS =    -13444.04141454
  atomic energy  EATOM  =    136002.60505376
  Solvation  Ediel_sol  =         0.00000000
  ---------------------------------------------------
  free energy    TOTEN  =       594.77518381 eV

  energy without entropy =      595.60975607  energy(sigma->0) =      595.19246994


--------------------------------------------------------------------------------------------------------




--------------------------------------- Iteration      1(   3)  ---------------------------------------


     EDDAV:  cpu time    1.9085: real time    1.9150
       DOS:  cpu time    0.0010: real time    0.0010
    --------------------------------------------
      LOOP:  cpu time    1.9095: real time    1.9160

 eigenvalue-minimisations  :  1120
 total energy-change (2. order) :-0.9370950E+03  (-0.8836302E+03)
 number of electron     792.0000000 magnetization 
 augmentation part      792.0000000 magnetization 

 Free energy of the ion-electron system (eV)
  ---------------------------------------------------
  alpha Z        PSCENC =      1893.09323658
  Ewald energy   TEWEN  =    159489.30032209
  -Hartree energ DENC   =   -282083.62771856
  -exchange      EXHF   =         0.00000000
  -V(xc)+E(xc)   XCENC  =      3650.25882993
  PAW double counting   =    112729.53333415  -117641.51188735
  entropy T*S    EENTRO =        -1.30698231
  eigenvalues    EBANDS =    -14380.66399518
  atomic energy  EATOM  =    136002.60505376
  Solvation  Ediel_sol  =         0.00000000
  ---------------------------------------------------
  free energy    TOTEN  =      -342.31980689 eV

  energy without entropy =     -341.01282457  energy(sigma->0) =     -341.66631573


--------------------------------------------------------------------------------------------------------




--------------------------------------- Iteration      1(   4)  ---------------------------------------


     EDDAV:  cpu time    1.9279: real time    1.9356
       DOS:  cpu time    0.0014: real time    0.0014
    --------------------------------------------
      LOOP:  cpu time    1.9293: real time    1.9370

 eigenvalue-minimisations  :  1120
 total energy-change (2. order) :-0.5932620E+02  (-0.5861045E+02)
 number of electron     792.0000000 magnetization 
 augmentation part      792.0000000 magnetization 

 Free energy of the ion-electron system (eV)
  ---------------------------------------------------
  alpha Z        PSCENC =      1893.09323658
  Ewald energy   TEWEN  =    159489.30032209
  -Hartree energ DENC   =   -282083.62771856
  -exchange      EXHF   =         0.00000000
  -V(xc)+E(xc)   XCENC  =      3650.25882993
  PAW double counting   =    112729.53333415  -117641.51188735
  entropy T*S    EENTRO =        -1.31994166
  eigenvalues    EBANDS =    -14439.97723099
  atomic energy  EATOM  =    136002.60505376
  Solvation  Ediel_sol  =         0.00000000
  ---------------------------------------------------
  free energy    TOTEN  =      -401.64600205 eV

  energy without entropy =     -400.32606038  energy(sigma->0) =     -400.98603121


--------------------------------------------------------------------------------------------------------




--------------------------------------- Iteration      1(   5)  ---------------------------------------


     EDDAV:  cpu time    2.0318: real time    2.0389
       DOS:  cpu time    0.0009: real time    0.0009
    CHARGE:  cpu time    0.0446: real time    0.0447
    MIXING:  cpu time    0.0025: real time    0.0026
    --------------------------------------------
      LOOP:  cpu time    2.0799: real time    2.0872

 eigenvalue-minimisations  :  1216
 total energy-change (2. order) :-0.2257919E+01  (-0.2253858E+01)
 number of electron     792.0000098 magnetization 
 augmentation part      286.1538905 magnetization 

 Broyden mixing:
  rms(total) = 0.81954E+01    rms(broyden)= 0.81805E+01
  rms(prec ) = 0.86208E+01
  weight for this iteration     100.00

 Free energy of the ion-electron system (eV)
  ---------------------------------------------------
  alpha Z        PSCENC =      1893.09323658
  Ewald energy   TEWEN  =    159489.30032209
  -Hartree energ DENC   =   -282083.62771856
  -exchange      EXHF   =         0.00000000
  -V(xc)+E(xc)   XCENC  =      3650.25882993
  PAW double counting   =    112729.53333415  -117641.51188735
  entropy T*S    EENTRO =        -1.32275180
  eigenvalues    EBANDS =    -14442.23233996
  atomic energy  EATOM  =    136002.60505376
  Solvation  Ediel_sol  =         0.00000000
  ---------------------------------------------------
  free energy    TOTEN  =      -403.90392116 eV

  energy without entropy =     -402.58116936  energy(sigma->0) =     -403.24254526


--------------------------------------------------------------------------------------------------------




--------------------------------------- Iteration      1(   6)  ---------------------------------------


    POTLOK:  cpu time    0.0433: real time    0.0435
    SETDIJ:  cpu time    0.0046: real time    0.0063
     EDDAV:  cpu time    1.9424: real time    1.9471
       DOS:  cpu time    0.0008: real time    0.0009
    CHARGE:  cpu time    0.0379: real time    0.0380
    MIXING:  cpu time    0.0020: real time    0.0020
    --------------------------------------------
      LOOP:  cpu time    2.0310: real time    2.0377

 eigenvalue-minimisations  :  1144
 total energy-change (2. order) :-0.9074547E+02  (-0.9686031E+02)
 number of electron     792.0000118 magnetization 
 augmentation part      354.3479508 magnetization 

 Broyden mixing:
  rms(total) = 0.15832E+02    rms(broyden)= 0.15828E+02
  rms(prec ) = 0.16615E+02
  weight for this iteration     100.00

 eigenvalues of (default mixing * dielectric matrix)
  average eigenvalue GAMMA=   0.2270
  0.2270

 Free energy of the ion-electron system (eV)
  ---------------------------------------------------
  alpha Z        PSCENC =      1893.09323658
  Ewald energy   TEWEN  =    159489.30032209
  -Hartree energ DENC   =   -279363.90533077
  -exchange      EXHF   =         0.00000000
  -V(xc)+E(xc)   XCENC  =      3573.06161244
  PAW double counting   =    114418.43565307  -119089.69282126
  entropy T*S    EENTRO =        -0.90118648
  eigenvalues    EBANDS =    -17416.64592793
  atomic energy  EATOM  =    136002.60505376
  Solvation  Ediel_sol  =         0.00000000
  ---------------------------------------------------
  free energy    TOTEN  =      -494.64938849 eV

  energy without entropy =     -493.74820201  energy(sigma->0) =     -494.19879525


--------------------------------------------------------------------------------------------------------




--------------------------------------- Iteration      1(   7)  ---------------------------------------


    POTLOK:  cpu time    0.0430: real time    0.0431
    SETDIJ:  cpu time    0.0049: real time    0.0049
     EDDAV:  cpu time    1.9889: real time    1.9936
       DOS:  cpu time    0.0006: real time    0.0006
    CHARGE:  cpu time    0.0381: real time    0.0382
    MIXING:  cpu time    0.0017: real time    0.0017
    --------------------------------------------
      LOOP:  cpu time    2.0772: real time    2.0821

 eigenvalue-minimisations  :  1168
 total energy-change (2. order) : 0.1182325E+03  (-0.1727160E+02)
 number of electron     792.0000121 magnetization 
 augmentation part      330.8964246 magnetization 

 Broyden mixing:
  rms(total) = 0.69560E+01    rms(broyden)= 0.69542E+01
  rms(prec ) = 0.76320E+01
  weight for this iteration     100.00

 eigenvalues of (default mixing * dielectric matrix)
  average eigenvalue GAMMA=   0.4669
  0.4669  0.4669

 Free energy of the ion-electron system (eV)
  ---------------------------------------------------
  alpha Z        PSCENC =      1893.09323658
  Ewald energy   TEWEN  =    159489.30032209
  -Hartree energ DENC   =   -280604.95076986
  -exchange      EXHF   =         0.00000000
  -V(xc)+E(xc)   XCENC  =      3603.13641782
  PAW double counting   =    118548.37212664  -123367.14476685
  entropy T*S    EENTRO =        -1.00481918
  eigenvalues    EBANDS =    -15939.82373173
  atomic energy  EATOM  =    136002.60505376
  Solvation  Ediel_sol  =         0.00000000
  ---------------------------------------------------
  free energy    TOTEN  =      -376.41693073 eV

  energy without entropy =     -375.41211155  energy(sigma->0) =     -375.91452114


--------------------------------------------------------------------------------------------------------




--------------------------------------- Iteration      1(   8)  ---------------------------------------


    POTLOK:  cpu time    0.0432: real time    0.0456
    SETDIJ:  cpu time    0.0048: real time    0.0066
     EDDAV:  cpu time    1.9919: real time    1.9977
       DOS:  cpu time    0.0007: real time    0.0007
    CHARGE:  cpu time    0.0385: real time    0.0386
    MIXING:  cpu time    0.0018: real time    0.0018
    --------------------------------------------
      LOOP:  cpu time    2.0809: real time    2.0909

 eigenvalue-minimisations  :  1152
 total energy-change (2. order) :-0.1620351E+03  (-0.1602931E+02)
 number of electron     792.0000108 magnetization 
 augmentation part      306.5692119 magnetization 

 Broyden mixing:
  rms(total) = 0.17962E+02    rms(broyden)= 0.17959E+02
  rms(prec ) = 0.23088E+02
  weight for this iteration     100.00

 eigenvalues of (default mixing * dielectric matrix)
  average eigenvalue GAMMA=   0.3972
  0.6429  0.4637  0.0849

 Free energy of the ion-electron system (eV)
  ---------------------------------------------------
  alpha Z        PSCENC =      1893.09323658
  Ewald energy   TEWEN  =    159489.30032209
  -Hartree energ DENC   =   -280960.78599286
  -exchange      EXHF   =         0.00000000
  -V(xc)+E(xc)   XCENC  =      3616.46943404
  PAW double counting   =    122235.45107032  -127127.90217585
  entropy T*S    EENTRO =        -0.96013305
  eigenvalues    EBANDS =    -15685.72282682
  atomic energy  EATOM  =    136002.60505376
  Solvation  Ediel_sol  =         0.00000000
  ---------------------------------------------------
  free energy    TOTEN  =      -538.45201179 eV

  energy without entropy =     -537.49187874  energy(sigma->0) =     -537.97194526


--------------------------------------------------------------------------------------------------------




--------------------------------------- Iteration      1(   9)  ---------------------------------------


    POTLOK:  cpu time    0.0432: real time    0.0443
    SETDIJ:  cpu time    0.0048: real time    0.0056
     EDDAV:  cpu time    2.2387: real time    2.2440
       DOS:  cpu time    0.0005: real time    0.0005
    CHARGE:  cpu time    0.0377: real time    0.0378
    MIXING:  cpu time    0.0018: real time    0.0018
    --------------------------------------------
      LOOP:  cpu time    2.3267: real time    2.3341

 eigenvalue-minimisations  :  1352
 total energy-change (2. order) : 0.1119980E+03  (-0.1661852E+02)
 number of electron     792.0000086 magnetization 
 augmentation part      311.0181446 magnetization 

 Broyden mixing:
  rms(total) = 0.10368E+02    rms(broyden)= 0.10364E+02
  rms(prec ) = 0.12617E+02
  weight for this iteration     100.00

 eigenvalues of (default mixing * dielectric matrix)
  average eigenvalue GAMMA=   0.3632
  0.8218  0.4048  0.1132  0.1132

 Free energy of the ion-electron system (eV)
  ---------------------------------------------------
  alpha Z        PSCENC =      1893.09323658
  Ewald energy   TEWEN  =    159489.30032209
  -Hartree energ DENC   =   -281200.96037203
  -exchange      EXHF   =         0.00000000
  -V(xc)+E(xc)   XCENC  =      3617.58352113
  PAW double counting   =    124898.65860716  -129823.88279072
  entropy T*S    EENTRO =        -1.29035932
  eigenvalues    EBANDS =    -15301.56119639
  atomic energy  EATOM  =    136002.60505376
  Solvation  Ediel_sol  =         0.00000000
  ---------------------------------------------------
  free energy    TOTEN  =      -426.45397774 eV

  energy without entropy =     -425.16361842  energy(sigma->0) =     -425.80879808


--------------------------------------------------------------------------------------------------------




--------------------------------------- Iteration      1(  10)  ---------------------------------------


    POTLOK:  cpu time    0.0428: real time    0.0429
    SETDIJ:  cpu time    0.0048: real time    0.0048
     EDDAV:  cpu time    2.2626: real time    2.2679
       DOS:  cpu time    0.0006: real time    0.0006
    CHARGE:  cpu time    0.0382: real time    0.0383
    MIXING:  cpu time    0.0019: real time    0.0019
    --------------------------------------------
      LOOP:  cpu time    2.3509: real time    2.3564

 eigenvalue-minimisations  :  1368
 total energy-change (2. order) : 0.4582335E+02  (-0.7421686E+01)
 number of electron     792.0000138 magnetization 
 augmentation part      313.2721864 magnetization 

 Broyden mixing:
  rms(total) = 0.66922E+01    rms(broyden)= 0.66848E+01
  rms(prec ) = 0.73595E+01
  weight for this iteration     100.00

 eigenvalues of (default mixing * dielectric matrix)
  average eigenvalue GAMMA=   0.3750
  1.0404  0.3393  0.2748  0.1102  0.1102

 Free energy of the ion-electron system (eV)
  ---------------------------------------------------
  alpha Z        PSCENC =      1893.09323658
  Ewald energy   TEWEN  =    159489.30032209
  -Hartree energ DENC   =   -281123.86400002
  -exchange      EXHF   =         0.00000000
  -V(xc)+E(xc)   XCENC  =      3619.36085122
  PAW double counting   =    126525.74384145  -131472.63667909
  entropy T*S    EENTRO =        -0.93449801
  eigenvalues    EBANDS =    -15313.29875789
  atomic energy  EATOM  =    136002.60505376
  Solvation  Ediel_sol  =         0.00000000
  ---------------------------------------------------
  free energy    TOTEN  =      -380.63062990 eV

  energy without entropy =     -379.69613189  energy(sigma->0) =     -380.16338090


--------------------------------------------------------------------------------------------------------




--------------------------------------- Iteration      1(  11)  ---------------------------------------


    POTLOK:  cpu time    0.0426: real time    0.0427
    SETDIJ:  cpu time    0.0048: real time    0.0049
     EDDAV:  cpu time    2.2004: real time    2.2056
       DOS:  cpu time    0.0006: real time    0.0006
    CHARGE:  cpu time    0.0434: real time    0.0435
    MIXING:  cpu time    0.0020: real time    0.0020
    --------------------------------------------
      LOOP:  cpu time    2.2938: real time    2.2992

 eigenvalue-minimisations  :  1328
 total energy-change (2. order) : 0.1859780E+02  (-0.6920547E+01)
 number of electron     792.0000107 magnetization 
 augmentation part      311.4221780 magnetization 

 Broyden mixing:
  rms(total) = 0.53798E+01    rms(broyden)= 0.53721E+01
  rms(prec ) = 0.60274E+01
  weight for this iteration     100.00

 eigenvalues of (default mixing * dielectric matrix)
  average eigenvalue GAMMA=   0.4511
  1.5362  0.3993  0.3993  0.1330  0.1330  0.1054

 Free energy of the ion-electron system (eV)
  ---------------------------------------------------
  alpha Z        PSCENC =      1893.09323658
  Ewald energy   TEWEN  =    159489.30032209
  -Hartree energ DENC   =   -281154.34366832
  -exchange      EXHF   =         0.00000000
  -V(xc)+E(xc)   XCENC  =      3620.71855151
  PAW double counting   =    128207.50104148  -133174.58871055
  entropy T*S    EENTRO =        -1.30032858
  eigenvalues    EBANDS =    -15245.01833079
  atomic energy  EATOM  =    136002.60505376
  Solvation  Ediel_sol  =         0.00000000
  ---------------------------------------------------
  free energy    TOTEN  =      -362.03283283 eV

  energy without entropy =     -360.73250424  energy(sigma->0) =     -361.38266854


--------------------------------------------------------------------------------------------------------




--------------------------------------- Iteration      1(  12)  ---------------------------------------


    POTLOK:  cpu time    0.0427: real time    0.0428
    SETDIJ:  cpu time    0.0048: real time    0.0048
     EDDAV:  cpu time    2.1790: real time    2.1842
       DOS:  cpu time    0.0008: real time    0.0008
    CHARGE:  cpu time    0.0430: real time    0.0431
    MIXING:  cpu time    0.0024: real time    0.0024
    --------------------------------------------
      LOOP:  cpu time    2.2727: real time    2.2781

 eigenvalue-minimisations  :  1312
 total energy-change (2. order) :-0.1648184E+02  (-0.6779959E+01)
 number of electron     792.0000085 magnetization 
 augmentation part      310.1657926 magnetization 

 Broyden mixing:
  rms(total) = 0.81169E+01    rms(broyden)= 0.81145E+01
  rms(prec ) = 0.92322E+01
  weight for this iteration     100.00

 eigenvalues of (default mixing * dielectric matrix)
  average eigenvalue GAMMA=   0.4495
  1.8062  0.4238  0.4238  0.1491  0.1491  0.0972  0.0972

 Free energy of the ion-electron system (eV)
  ---------------------------------------------------
  alpha Z        PSCENC =      1893.09323658
  Ewald energy   TEWEN  =    159489.30032209
  -Hartree energ DENC   =   -281242.80616947
  -exchange      EXHF   =         0.00000000
  -V(xc)+E(xc)   XCENC  =      3618.98663688
  PAW double counting   =    130363.69347528  -135345.01151765
  entropy T*S    EENTRO =        -1.04503223
  eigenvalues    EBANDS =    -15157.33067876
  atomic energy  EATOM  =    136002.60505376
  Solvation  Ediel_sol  =         0.00000000
  ---------------------------------------------------
  free energy    TOTEN  =      -378.51467351 eV

  energy without entropy =     -377.46964128  energy(sigma->0) =     -377.99215739


--------------------------------------------------------------------------------------------------------




--------------------------------------- Iteration      1(  13)  ---------------------------------------


    POTLOK:  cpu time    0.0425: real time    0.0426
    SETDIJ:  cpu time    0.0048: real time    0.0048
     EDDAV:  cpu time    2.1733: real time    2.1795
       DOS:  cpu time    0.0008: real time    0.0008
    CHARGE:  cpu time    0.0436: real time    0.0437
    MIXING:  cpu time    0.0023: real time    0.0023
    --------------------------------------------
      LOOP:  cpu time    2.2674: real time    2.2738

 eigenvalue-minimisations  :  1304
 total energy-change (2. order) : 0.7066920E+01  (-0.1992108E+01)
 number of electron     792.0000111 magnetization 
 augmentation part      312.4130881 magnetization 

 Broyden mixing:
  rms(total) = 0.42811E+01    rms(broyden)= 0.42804E+01
  rms(prec ) = 0.48627E+01
  weight for this iteration     100.00

 eigenvalues of (default mixing * dielectric matrix)
  average eigenvalue GAMMA=   0.4320
  1.8155  0.4315  0.4315  0.3180  0.1266  0.1266  0.1029  0.1029

 Free energy of the ion-electron system (eV)
  ---------------------------------------------------
  alpha Z        PSCENC =      1893.09323658
  Ewald energy   TEWEN  =    159489.30032209
  -Hartree energ DENC   =   -281263.23094808
  -exchange      EXHF   =         0.00000000
  -V(xc)+E(xc)   XCENC  =      3617.99867605
  PAW double counting   =    131459.94584570  -136449.53162835
  entropy T*S    EENTRO =        -1.04014069
  eigenvalues    EBANDS =    -15120.58817091
  atomic energy  EATOM  =    136002.60505376
  Solvation  Ediel_sol  =         0.00000000
  ---------------------------------------------------
  free energy    TOTEN  =      -371.44775385 eV

  energy without entropy =     -370.40761316  energy(sigma->0) =     -370.92768350


--------------------------------------------------------------------------------------------------------




--------------------------------------- Iteration      1(  14)  ---------------------------------------


    POTLOK:  cpu time    0.0427: real time    0.0439
    SETDIJ:  cpu time    0.0048: real time    0.0049
     EDDAV:  cpu time    2.1614: real time    2.1683
       DOS:  cpu time    0.0008: real time    0.0008
    CHARGE:  cpu time    0.0435: real time    0.0436
    MIXING:  cpu time    0.0026: real time    0.0026
    --------------------------------------------
      LOOP:  cpu time    2.2558: real time    2.2640

 eigenvalue-minimisations  :  1280
 total energy-change (2. order) : 0.7988259E+01  (-0.1605665E+01)
 number of electron     792.0000102 magnetization 
 augmentation part      314.0411563 magnetization 

 Broyden mixing:
  rms(total) = 0.34336E+01    rms(broyden)= 0.34321E+01
  rms(prec ) = 0.40719E+01
  weight for this iteration     100.00

 eigenvalues of (default mixing * dielectric matrix)
  average eigenvalue GAMMA=   0.4108
  1.6516  0.4755  0.4755  0.4171  0.1548  0.1548  0.1560  0.1062  0.1062

 Free energy of the ion-electron system (eV)
  ---------------------------------------------------
  alpha Z        PSCENC =      1893.09323658
  Ewald energy   TEWEN  =    159489.30032209
  -Hartree energ DENC   =   -281229.31738640
  -exchange      EXHF   =         0.00000000
  -V(xc)+E(xc)   XCENC  =      3618.60458581
  PAW double counting   =    131754.05787249  -136748.51950274
  entropy T*S    EENTRO =        -1.01012024
  eigenvalues    EBANDS =    -15142.27355602
  atomic energy  EATOM  =    136002.60505376
  Solvation  Ediel_sol  =         0.00000000
  ---------------------------------------------------
  free energy    TOTEN  =      -363.45949467 eV

  energy without entropy =     -362.44937443  energy(sigma->0) =     -362.95443455


--------------------------------------------------------------------------------------------------------




--------------------------------------- Iteration      1(  15)  ---------------------------------------


    POTLOK:  cpu time    0.0432: real time    0.0442
    SETDIJ:  cpu time    0.0042: real time    0.0061
     EDDAV:  cpu time    2.2343: real time    2.2397
       DOS:  cpu time    0.0007: real time    0.0007
    CHARGE:  cpu time    0.0434: real time    0.0435
    MIXING:  cpu time    0.0023: real time    0.0023
    --------------------------------------------
      LOOP:  cpu time    2.3282: real time    2.3365

 eigenvalue-minimisations  :  1352
 total energy-change (2. order) : 0.4027256E+01  (-0.9299050E+00)
 number of electron     792.0000100 magnetization 
 augmentation part      312.8695744 magnetization 

 Broyden mixing:
  rms(total) = 0.28502E+01    rms(broyden)= 0.28489E+01
  rms(prec ) = 0.33601E+01
  weight for this iteration     100.00

 eigenvalues of (default mixing * dielectric matrix)
  average eigenvalue GAMMA=   0.3942
  1.6350  0.4925  0.4925  0.3570  0.2728  0.2138  0.1345  0.1345  0.1047  0.1047

 Free energy of the ion-electron system (eV)
  ---------------------------------------------------
  alpha Z        PSCENC =      1893.09323658
  Ewald energy   TEWEN  =    159489.30032209
  -Hartree energ DENC   =   -281262.52646392
  -exchange      EXHF   =         0.00000000
  -V(xc)+E(xc)   XCENC  =      3620.39579973
  PAW double counting   =    131339.57027820  -136332.85762274
  entropy T*S    EENTRO =        -1.13541136
  eigenvalues    EBANDS =    -15107.87743085
  atomic energy  EATOM  =    136002.60505376
  Solvation  Ediel_sol  =         0.00000000
  ---------------------------------------------------
  free energy    TOTEN  =      -359.43223852 eV

  energy without entropy =     -358.29682716  energy(sigma->0) =     -358.86453284


--------------------------------------------------------------------------------------------------------




--------------------------------------- Iteration      1(  16)  ---------------------------------------


    POTLOK:  cpu time    0.0426: real time    0.0427
    SETDIJ:  cpu time    0.0047: real time    0.0048
     EDDAV:  cpu time    2.2110: real time    2.2162
       DOS:  cpu time    0.0008: real time    0.0008
    CHARGE:  cpu time    0.0420: real time    0.0421
    MIXING:  cpu time    0.0024: real time    0.0024
    --------------------------------------------
      LOOP:  cpu time    2.3037: real time    2.3091

 eigenvalue-minimisations  :  1328
 total energy-change (2. order) : 0.2601081E+01  (-0.4534378E+00)
 number of electron     792.0000104 magnetization 
 augmentation part      312.1800929 magnetization 

 Broyden mixing:
  rms(total) = 0.23042E+01    rms(broyden)= 0.23029E+01
  rms(prec ) = 0.26721E+01
  weight for this iteration     100.00

 eigenvalues of (default mixing * dielectric matrix)
  average eigenvalue GAMMA=   0.4021
  1.6890  0.5770  0.5770  0.3820  0.3820  0.1927  0.1366  0.1366  0.1047  0.1047
  0.1405

 Free energy of the ion-electron system (eV)
  ---------------------------------------------------
  alpha Z        PSCENC =      1893.09323658
  Ewald energy   TEWEN  =    159489.30032209
  -Hartree energ DENC   =   -281293.74883460
  -exchange      EXHF   =         0.00000000
  -V(xc)+E(xc)   XCENC  =      3621.12786384
  PAW double counting   =    131177.36599812  -136169.02033623
  entropy T*S    EENTRO =        -1.02786555
  eigenvalues    EBANDS =    -15076.52659505
  atomic energy  EATOM  =    136002.60505376
  Solvation  Ediel_sol  =         0.00000000
  ---------------------------------------------------
  free energy    TOTEN  =      -356.83115704 eV

  energy without entropy =     -355.80329149  energy(sigma->0) =     -356.31722427


--------------------------------------------------------------------------------------------------------




--------------------------------------- Iteration      1(  17)  ---------------------------------------


    POTLOK:  cpu time    0.0430: real time    0.0431
    SETDIJ:  cpu time    0.0048: real time    0.0048
     EDDAV:  cpu time    2.2032: real time    2.2085
       DOS:  cpu time    0.0007: real time    0.0007
    CHARGE:  cpu time    0.0421: real time    0.0422
    MIXING:  cpu time    0.0025: real time    0.0025
    --------------------------------------------
      LOOP:  cpu time    2.2962: real time    2.3017

 eigenvalue-minimisations  :  1320
 total energy-change (2. order) : 0.1616032E+01  (-0.3498936E+00)
 number of electron     792.0000107 magnetization 
 augmentation part      311.9293284 magnetization 

 Broyden mixing:
  rms(total) = 0.17178E+01    rms(broyden)= 0.17166E+01
  rms(prec ) = 0.19795E+01
  weight for this iteration     100.00

 eigenvalues of (default mixing * dielectric matrix)
  average eigenvalue GAMMA=   0.4578
  1.8895  0.8235  0.8235  0.4390  0.4390  0.3024  0.1396  0.1396  0.1049  0.1049
  0.1436  0.1436

 Free energy of the ion-electron system (eV)
  ---------------------------------------------------
  alpha Z        PSCENC =      1893.09323658
  Ewald energy   TEWEN  =    159489.30032209
  -Hartree energ DENC   =   -281311.25803950
  -exchange      EXHF   =         0.00000000
  -V(xc)+E(xc)   XCENC  =      3621.34084051
  PAW double counting   =    131109.94125210  -136099.49159577
  entropy T*S    EENTRO =        -1.05771028
  eigenvalues    EBANDS =    -15059.68848475
  atomic energy  EATOM  =    136002.60505376
  Solvation  Ediel_sol  =         0.00000000
  ---------------------------------------------------
  free energy    TOTEN  =      -355.21512527 eV

  energy without entropy =     -354.15741499  energy(sigma->0) =     -354.68627013


--------------------------------------------------------------------------------------------------------




--------------------------------------- Iteration      1(  18)  ---------------------------------------


    POTLOK:  cpu time    0.0428: real time    0.0429
    SETDIJ:  cpu time    0.0048: real time    0.0048
     EDDAV:  cpu time    2.2343: real time    2.2395
       DOS:  cpu time    0.0007: real time    0.0007
    CHARGE:  cpu time    0.0427: real time    0.0428
    MIXING:  cpu time    0.0026: real time    0.0026
    --------------------------------------------
      LOOP:  cpu time    2.3278: real time    2.3333

 eigenvalue-minimisations  :  1344
 total energy-change (2. order) : 0.6554472E+00  (-0.1803940E+00)
 number of electron     792.0000103 magnetization 
 augmentation part      312.7267123 magnetization 

 Broyden mixing:
  rms(total) = 0.15400E+01    rms(broyden)= 0.15389E+01
  rms(prec ) = 0.17149E+01
  weight for this iteration     100.00

 eigenvalues of (default mixing * dielectric matrix)
  average eigenvalue GAMMA=   0.4536
  1.9072  0.9074  0.9074  0.4551  0.4551  0.3328  0.1397  0.1397  0.1582  0.1582
  0.1049  0.1049  0.1264

 Free energy of the ion-electron system (eV)
  ---------------------------------------------------
  alpha Z        PSCENC =      1893.09323658
  Ewald energy   TEWEN  =    159489.30032209
  -Hartree energ DENC   =   -281266.81998781
  -exchange      EXHF   =         0.00000000
  -V(xc)+E(xc)   XCENC  =      3620.72601160
  PAW double counting   =    131287.23660822  -136274.00199863
  entropy T*S    EENTRO =        -1.04294536
  eigenvalues    EBANDS =    -15105.65597851
  atomic energy  EATOM  =    136002.60505376
  Solvation  Ediel_sol  =         0.00000000
  ---------------------------------------------------
  free energy    TOTEN  =      -354.55967807 eV

  energy without entropy =     -353.51673271  energy(sigma->0) =     -354.03820539


--------------------------------------------------------------------------------------------------------




--------------------------------------- Iteration      1(  19)  ---------------------------------------


    POTLOK:  cpu time    0.0431: real time    0.0433
    SETDIJ:  cpu time    0.0049: real time    0.0049
     EDDAV:  cpu time    2.1487: real time    2.1538
       DOS:  cpu time    0.0009: real time    0.0009
    CHARGE:  cpu time    0.0425: real time    0.0426
    MIXING:  cpu time    0.0028: real time    0.0028
    --------------------------------------------
      LOOP:  cpu time    2.2428: real time    2.2481

 eigenvalue-minimisations  :  1280
 total energy-change (2. order) : 0.5000214E+00  (-0.1065552E+00)
 number of electron     792.0000107 magnetization 
 augmentation part      313.0421983 magnetization 

 Broyden mixing:
  rms(total) = 0.10638E+01    rms(broyden)= 0.10630E+01
  rms(prec ) = 0.12337E+01
  weight for this iteration     100.00

 eigenvalues of (default mixing * dielectric matrix)
  average eigenvalue GAMMA=   0.4623
  1.8666  1.0324  1.0324  0.4744  0.4744  0.3923  0.2577  0.1840  0.1392  0.1392
  0.1049  0.1049  0.1346  0.1346

 Free energy of the ion-electron system (eV)
  ---------------------------------------------------
  alpha Z        PSCENC =      1893.09323658
  Ewald energy   TEWEN  =    159489.30032209
  -Hartree energ DENC   =   -281260.59359819
  -exchange      EXHF   =         0.00000000
  -V(xc)+E(xc)   XCENC  =      3620.63286405
  PAW double counting   =    131237.70438069  -136222.61982869
  entropy T*S    EENTRO =        -1.06392901
  eigenvalues    EBANDS =    -15113.11815793
  atomic energy  EATOM  =    136002.60505376
  Solvation  Ediel_sol  =         0.00000000
  ---------------------------------------------------
  free energy    TOTEN  =      -354.05965665 eV

  energy without entropy =     -352.99572764  energy(sigma->0) =     -353.52769215


--------------------------------------------------------------------------------------------------------




--------------------------------------- Iteration      1(  20)  ---------------------------------------


    POTLOK:  cpu time    0.0432: real time    0.0433
    SETDIJ:  cpu time    0.0048: real time    0.0048
     EDDAV:  cpu time    2.1593: real time    2.1645
       DOS:  cpu time    0.0007: real time    0.0007
    CHARGE:  cpu time    0.0426: real time    0.0427
    MIXING:  cpu time    0.0028: real time    0.0028
    --------------------------------------------
      LOOP:  cpu time    2.2534: real time    2.2588

 eigenvalue-minimisations  :  1288
 total energy-change (2. order) : 0.2000955E+00  (-0.5359540E-01)
 number of electron     792.0000104 magnetization 
 augmentation part      312.6029188 magnetization 

 Broyden mixing:
  rms(total) = 0.89596E+00    rms(broyden)= 0.89556E+00
  rms(prec ) = 0.98777E+00
  weight for this iteration     100.00

 eigenvalues of (default mixing * dielectric matrix)
  average eigenvalue GAMMA=   0.4826
  1.8442  1.1971  1.1971  0.5304  0.5304  0.4322  0.3649  0.2156  0.1392  0.1392
  0.1731  0.1049  0.1049  0.1326  0.1326

 Free energy of the ion-electron system (eV)
  ---------------------------------------------------
  alpha Z        PSCENC =      1893.09323658
  Ewald energy   TEWEN  =    159489.30032209
  -Hartree energ DENC   =   -281278.85043519
  -exchange      EXHF   =         0.00000000
  -V(xc)+E(xc)   XCENC  =      3620.92760939
  PAW double counting   =    130983.60115533  -135965.06048098
  entropy T*S    EENTRO =        -1.08304141
  eigenvalues    EBANDS =    -15098.39298072
  atomic energy  EATOM  =    136002.60505376
  Solvation  Ediel_sol  =         0.00000000
  ---------------------------------------------------
  free energy    TOTEN  =      -353.85956115 eV

  energy without entropy =     -352.77651974  energy(sigma->0) =     -353.31804044


--------------------------------------------------------------------------------------------------------




--------------------------------------- Iteration      1(  21)  ---------------------------------------


    POTLOK:  cpu time    0.0433: real time    0.0434
    SETDIJ:  cpu time    0.0048: real time    0.0048
     EDDAV:  cpu time    2.1623: real time    2.1686
       DOS:  cpu time    0.0009: real time    0.0009
    CHARGE:  cpu time    0.0385: real time    0.0386
    MIXING:  cpu time    0.0031: real time    0.0031
    --------------------------------------------
      LOOP:  cpu time    2.2528: real time    2.2593

 eigenvalue-minimisations  :  1288
 total energy-change (2. order) :-0.5767147E-01  (-0.8090998E-01)
 number of electron     792.0000108 magnetization 
 augmentation part      312.1713702 magnetization 

 Broyden mixing:
  rms(total) = 0.10447E+01    rms(broyden)= 0.10436E+01
  rms(prec ) = 0.11698E+01
  weight for this iteration     100.00

 eigenvalues of (default mixing * dielectric matrix)
  average eigenvalue GAMMA=   0.4988
  1.9072  1.2400  1.2400  0.6952  0.6952  0.4313  0.4313  0.2952  0.1394  0.1394
  0.1616  0.1049  0.1049  0.1333  0.1333  0.1280

 Free energy of the ion-electron system (eV)
  ---------------------------------------------------
  alpha Z        PSCENC =      1893.09323658
  Ewald energy   TEWEN  =    159489.30032209
  -Hartree energ DENC   =   -281306.38854187
  -exchange      EXHF   =         0.00000000
  -V(xc)+E(xc)   XCENC  =      3621.13052381
  PAW double counting   =    130716.24925073  -135692.98401447
  entropy T*S    EENTRO =        -1.10080927
  eigenvalues    EBANDS =    -15075.82225397
  atomic energy  EATOM  =    136002.60505376
  Solvation  Ediel_sol  =         0.00000000
  ---------------------------------------------------
  free energy    TOTEN  =      -353.91723262 eV

  energy without entropy =     -352.81642335  energy(sigma->0) =     -353.36682798


--------------------------------------------------------------------------------------------------------




--------------------------------------- Iteration      1(  22)  ---------------------------------------


    POTLOK:  cpu time    0.0442: real time    0.0478
    SETDIJ:  cpu time    0.0061: real time    0.0061
     EDDAV:  cpu time    2.1742: real time    2.1794
[...]
    FORCOR:  cpu time    0.0551: real time    0.0553
    FORHAR:  cpu time    0.0242: real time    0.0243
    MIXING:  cpu time    0.0046: real time    0.0046
    OFIELD:  cpu time    0.0001: real time    0.0001

  FORCE on cell =-STRESS in cart. coord.  units (eV):
  Direction    XX          YY          ZZ          XY          YZ          ZX
  --------------------------------------------------------------------------------------
  Alpha Z  1893.09324  1893.09324  1893.09324
  Ewald  207355.63332208698.61745************  -183.38084  -103.93912  1371.02680
  Hartree244743.88215245874.52521************   -25.79217   -84.05038  1011.94875
  E(xc)   -5025.81008 -5025.57570 -5029.72778    -0.58107    -0.22719     1.12133
  Local  ************************452761.70995   188.75566   176.74888 -2347.14769
  n-local  -692.92396  -692.08197  -698.71995    -3.62150    -1.32229     2.92766
  augment  5790.13250  5786.14450  5802.16360    10.57080     5.10342   -12.87427
  Kinetic 10967.23944 10957.86564 11000.62065    18.27901    13.55399   -38.25258
  Fock        0.00000     0.00000     0.00000     0.00000     0.00000     0.00000
  -------------------------------------------------------------------------------------
  Total     -37.45284   -37.05427   -29.64978     4.22990     5.86731   -11.25000
  in kB     -30.53769   -30.21271   -24.17535     3.44891     4.78399    -9.17284
  external pressure =      -28.31 kB  Pullay stress =        0.00 kB


 VOLUME and BASIS-vectors are now :
 -----------------------------------------------------------------------------
  energy-cutoff  :      450.00
  volume of cell :     1964.98
      direct lattice vectors                 reciprocal lattice vectors
     9.425102554  3.573298043  0.000000000     0.106099641  0.000000000  0.000000000
     0.000000000 10.079732985  0.000000000    -0.037612667  0.099208977  0.000000000
     0.000000000  0.000000000 20.683503555     0.000000000  0.000000000  0.048347708

  length of vectors
    10.079732985 10.079732985 20.683503555     0.106099641  0.106099641  0.048347708


 FORCES acting on ions
    electron-ion (+dipol)            ewald-force                    non-local-force                 convergence-correction
 -----------------------------------------------------------------------------------------------
   0.315E+02 0.111E+03 0.474E+04   -.311E+02 -.108E+03 -.472E+04   -.345E+00 -.335E+01 -.884E+01   -.268E-01 0.201E-01 -.392E+00
   0.161E+03 -.295E+03 0.249E+04   -.162E+03 0.296E+03 -.249E+04   0.109E+01 -.118E+01 0.182E+01   0.133E+00 -.286E-01 -.297E+00
   0.143E+03 -.372E+03 -.395E+03   -.145E+03 0.373E+03 0.394E+03   0.121E+01 -.116E+01 0.749E+00   0.113E+00 0.515E-01 0.207E+00
   -.548E+02 -.332E+03 -.313E+04   0.561E+02 0.333E+03 0.313E+04   -.106E+01 -.551E+00 -.913E+00   0.258E+00 -.100E+00 0.356E+00
   -.489E+03 -.311E+03 -.460E+04   0.486E+03 0.306E+03 0.459E+04   0.230E+01 0.442E+01 0.157E+02   -.797E-01 -.513E-01 0.177E+00
   0.123E+03 -.440E+03 0.149E+04   -.123E+03 0.442E+03 -.149E+04   0.270E+00 -.162E+01 0.103E+01   -.160E+00 -.818E-02 -.125E+00
   0.304E+03 -.475E+03 -.159E+04   -.305E+03 0.476E+03 0.159E+04   0.121E+01 -.139E+01 -.844E+00   -.647E-01 -.115E+00 0.118E+00
   0.446E+03 -.611E+03 -.410E+04   -.448E+03 0.614E+03 0.410E+04   0.178E+01 -.250E+01 -.272E+01   0.256E+00 -.317E+00 0.109E+00
   -.438E+02 -.316E+03 0.442E+04   0.439E+02 0.314E+03 -.442E+04   0.322E+00 0.108E+01 -.360E+01   -.141E+00 -.729E-01 -.378E+00
   0.175E+03 0.211E+03 -.450E+04   -.176E+03 -.206E+03 0.450E+04   0.106E+01 -.474E+01 0.615E-01   -.184E+00 0.749E-01 0.167E+00
   0.247E+03 -.575E+03 0.356E+04   -.250E+03 0.574E+03 -.356E+04   0.243E+01 0.233E+00 0.270E+01   0.612E-01 0.793E-02 -.332E+00
   0.121E+03 -.438E+03 0.493E+03   -.123E+03 0.438E+03 -.493E+03   0.123E+01 -.601E+00 0.609E+00   -.385E-01 0.108E+00 0.167E+00
   0.549E+02 -.438E+03 -.236E+04   -.564E+02 0.439E+03 0.236E+04   0.135E+01 -.160E+01 -.664E+00   -.153E+00 0.930E-01 0.252E+00
   0.270E+03 0.466E+03 0.376E+04   -.272E+03 -.466E+03 -.376E+04   0.179E+01 0.231E+00 0.119E+01   0.138E+00 0.568E-01 -.367E+00
   0.309E+03 0.447E+03 0.602E+03   -.310E+03 -.447E+03 -.602E+03   0.132E+01 0.318E+00 -.131E-01   0.130E+00 -.294E-02 0.867E-01
   0.233E+03 0.408E+03 -.227E+04   -.233E+03 -.410E+03 0.226E+04   0.100E+00 0.112E+01 -.904E-01   0.336E+00 0.113E+00 0.319E+00
   -.148E+03 0.176E+03 -.435E+04   0.151E+03 -.178E+03 0.434E+04   -.232E+01 0.862E+00 0.197E+01   0.338E-02 0.275E+00 0.226E+00
   0.275E+03 0.360E+03 0.242E+04   -.276E+03 -.361E+03 -.242E+04   0.801E+00 0.596E+00 0.143E+01   -.110E+00 0.135E-01 -.197E+00
   0.355E+03 0.373E+03 -.497E+03   -.356E+03 -.373E+03 0.498E+03   0.104E+01 0.236E+00 -.489E+00   -.671E-01 -.702E-02 0.202E+00
   0.488E+03 0.305E+03 -.305E+04   -.490E+03 -.304E+03 0.305E+04   0.181E+01 -.499E+00 -.141E+01   0.127E+00 -.982E-02 0.202E+00
   0.994E+02 0.247E+03 -.471E+04   -.104E+03 -.243E+03 0.470E+04   0.346E+01 -.354E+01 0.684E+01   0.400E+00 0.689E-01 0.145E+00
   0.295E+03 0.116E+03 0.476E+04   -.287E+03 -.111E+03 -.475E+04   -.679E+01 -.537E+01 -.868E+01   -.708E-01 0.126E+00 -.365E+00
   0.283E+03 0.340E+03 0.430E+04   -.286E+03 -.338E+03 -.430E+04   0.265E+01 -.138E+01 0.159E+01   0.798E-01 -.362E-01 -.354E+00
   0.237E+03 0.467E+03 0.152E+04   -.239E+03 -.467E+03 -.152E+04   0.152E+01 0.539E-01 0.108E+00   -.665E-01 -.632E-01 -.649E-01
   0.851E+02 0.574E+03 -.152E+04   -.849E+02 -.575E+03 0.153E+04   0.307E+00 0.104E+01 -.669E+00   -.162E+00 -.293E-01 0.290E+00
   -.390E+03 0.189E+03 0.453E+04   0.383E+03 -.186E+03 -.453E+04   0.628E+01 -.297E+01 -.359E+01   0.146E+00 -.268E-02 -.396E+00
   -.482E+03 0.238E+02 0.160E+04   0.482E+03 -.231E+02 -.160E+04   -.552E+00 -.616E+00 0.115E+01   0.125E+00 0.234E-01 -.445E-01
   -.696E+03 0.844E+01 -.151E+04   0.698E+03 -.870E+01 0.152E+04   -.143E+01 0.351E-01 -.740E+00   -.110E+00 -.186E-01 0.380E+00
   -.440E+03 -.165E+03 0.354E+04   0.443E+03 0.166E+03 -.355E+04   -.274E+01 -.753E+00 0.356E+01   0.186E-01 -.431E-01 -.305E+00
   -.421E+03 -.294E+02 0.597E+03   0.421E+03 0.300E+02 -.598E+03   -.431E+00 -.462E+00 0.125E+01   0.630E-01 -.355E-01 0.113E+00
   -.449E+03 -.359E+02 -.213E+04   0.450E+03 0.368E+02 0.213E+04   -.106E+01 -.695E+00 0.322E+00   0.137E+00 -.608E-01 0.339E+00
   -.581E+03 0.238E+02 -.447E+04   0.576E+03 -.209E+02 0.446E+04   0.493E+01 -.211E+01 0.623E+01   -.261E-01 -.108E+00 0.255E+00
   -.532E+03 0.675E+02 0.253E+04   0.534E+03 -.671E+02 -.253E+04   -.176E+01 -.226E+00 0.167E+01   -.297E-01 0.110E-01 -.178E+00
   -.447E+03 0.106E+03 -.422E+03   0.448E+03 -.107E+03 0.421E+03   -.113E+01 0.820E+00 0.514E+00   -.890E-01 0.850E-01 0.184E+00
   -.610E+02 0.450E+03 -.328E+04   0.611E+02 -.453E+03 0.328E+04   -.780E+00 0.275E+01 -.141E+01   0.132E+00 0.230E+00 0.576E-01
   -.356E+03 -.478E+02 0.493E+04   0.350E+03 0.462E+02 -.492E+04   0.659E+01 0.127E+01 -.106E+02   0.667E-02 0.326E-02 -.382E+00
   -.925E+02 -.146E+03 -.169E+04   0.941E+02 0.149E+03 0.170E+04   -.229E+01 -.225E+01 -.160E+01   -.136E+00 0.744E-01 0.785E-01
   -.560E+01 0.128E+03 0.128E+04   0.574E+01 -.130E+03 -.128E+04   -.185E+00 0.185E+01 -.185E+00   0.398E-01 0.584E-01 -.144E+00
   -.465E+02 0.114E+03 0.127E+03   0.467E+02 -.116E+03 -.129E+03   -.227E+00 0.227E+01 0.176E+01   0.728E-01 0.228E-01 0.130E+00
   -.199E+03 -.836E+01 -.101E+04   0.202E+03 0.847E+01 0.101E+04   -.288E+01 0.123E+00 -.197E+00   -.545E-01 0.683E-01 0.133E+00
   -.440E+02 -.347E+02 0.180E+04   0.448E+02 0.353E+02 -.180E+04   -.147E+01 -.148E+01 0.144E+01   -.465E-01 -.224E-01 -.183E+00
   -.281E+02 0.119E+03 0.838E+03   0.287E+02 -.120E+03 -.839E+03   -.461E+00 0.161E+01 0.127E+01   0.481E-02 -.133E-01 -.359E-01
   -.114E+02 0.117E+03 -.209E+03   0.123E+02 -.119E+03 0.208E+03   -.796E+00 0.206E+01 0.102E+01   0.182E-01 0.351E-02 0.936E-01
   -.676E+02 0.127E+03 -.117E+04   0.677E+02 -.129E+03 0.116E+04   0.118E+00 0.169E+01 0.242E+01   0.114E+00 0.116E-01 0.166E+00
   -.526E+02 0.142E+03 0.483E+03   0.532E+02 -.144E+03 -.485E+03   -.613E+00 0.151E+01 0.173E+01   -.286E-01 -.273E-01 0.604E-02
   0.426E+02 0.176E+03 -.805E+03   -.436E+02 -.178E+03 0.807E+03   0.123E+01 0.226E+01 -.177E+01   -.600E-01 -.126E-01 0.380E-01
   0.166E+03 0.584E+01 -.168E+04   -.169E+03 -.577E+01 0.169E+04   0.283E+01 0.430E+00 -.433E+01   0.160E-01 -.154E-01 0.872E-01
   -.630E+02 0.165E+03 0.155E+04   0.633E+02 -.167E+03 -.155E+04   -.602E+00 0.211E+01 -.418E+00   0.874E-04 -.743E-01 -.194E+00
   -.445E+02 -.445E+02 0.179E+04   0.452E+02 0.444E+02 -.179E+04   -.543E+00 -.378E+00 0.795E+00   0.182E-01 -.591E-01 -.142E+00
   -.791E+02 -.127E+03 0.785E+03   0.801E+02 0.130E+03 -.785E+03   -.111E+01 -.274E+01 0.213E+00   0.124E-01 -.368E-01 -.106E+00
   -.131E+03 -.135E+03 -.321E+03   0.132E+03 0.137E+03 0.321E+03   -.124E+01 -.220E+01 -.121E+00   0.249E-01 -.705E-01 0.144E+00
   -.384E+03 -.123E+03 -.136E+04   0.388E+03 0.126E+03 0.136E+04   -.474E+01 -.290E+01 -.391E-01   -.167E+00 -.879E-01 0.150E+00
   -.745E+02 -.138E+03 0.161E+04   0.752E+02 0.139E+03 -.161E+04   -.568E+00 -.244E+00 0.217E+01   -.794E-01 0.168E-01 -.165E+00
   -.591E+02 -.163E+03 0.412E+03   0.602E+02 0.166E+03 -.412E+03   -.112E+01 -.250E+01 0.267E+00   0.770E-02 -.249E-01 0.153E-01
   -.295E+02 -.175E+03 -.662E+03   0.309E+02 0.177E+03 0.663E+03   -.160E+01 -.226E+01 -.371E+00   0.761E-01 -.119E-01 0.736E-01
   -.149E+00 -.141E+03 -.163E+04   -.931E-01 0.141E+03 0.163E+04   0.473E+00 -.125E+01 -.170E+01   0.132E+00 -.528E-01 0.111E+00
   -.780E+02 -.156E+03 0.285E+02   0.797E+02 0.159E+03 -.289E+02   -.148E+01 -.225E+01 0.596E+00   -.272E-01 0.347E-01 0.963E-01
   -.230E+02 -.115E+03 -.985E+03   0.242E+02 0.118E+03 0.984E+03   -.118E+01 -.299E+01 0.549E+00   -.904E-02 0.506E-01 0.505E-01
   0.104E+02 0.195E+03 -.176E+04   -.987E+01 -.196E+03 0.177E+04   -.137E+01 0.107E+01 -.268E+01   0.991E-01 0.643E-01 0.107E+00
   -.616E+02 -.159E+03 0.111E+04   0.628E+02 0.161E+03 -.111E+04   -.176E+01 -.170E+01 -.155E+01   -.274E-01 0.264E-01 -.111E+00
   0.124E+03 0.849E+02 0.152E+04   -.125E+03 -.862E+02 -.152E+04   0.165E+01 0.152E+01 0.892E+00   0.146E-01 0.243E-01 -.174E+00
   0.174E+03 0.666E+01 0.347E+03   -.176E+03 -.653E+01 -.347E+03   0.254E+01 0.851E-01 0.149E+00   0.622E-02 0.261E-01 -.902E-02
   0.194E+03 0.214E+02 -.737E+03   -.197E+03 -.211E+02 0.738E+03   0.240E+01 -.294E+00 -.146E+01   0.107E+00 0.172E-01 0.125E+00
   0.282E+03 0.248E+02 -.166E+04   -.287E+03 -.245E+02 0.167E+04   0.611E+01 -.269E+00 -.219E+01   0.249E+00 0.376E-01 0.114E+00
   0.163E+03 -.286E+02 -.928E+02   -.165E+03 0.290E+02 0.932E+02   0.266E+01 -.275E+00 -.625E+00   -.851E-01 -.230E-01 0.112E+00
   0.375E+03 -.769E+02 -.123E+04   -.381E+03 0.772E+02 0.123E+04   0.612E+01 -.311E-01 -.360E+01   -.546E-01 -.393E-01 0.518E-01
   0.279E+03 -.167E+03 -.184E+04   -.283E+03 0.168E+03 0.184E+04   0.349E+01 -.136E+01 -.392E+01   0.638E-01 -.322E-01 0.870E-01
   0.160E+03 -.347E+02 0.106E+04   -.162E+03 0.347E+02 -.106E+04   0.132E+01 0.109E+00 -.248E+01   -.397E-01 0.441E-01 -.169E+00
   0.143E+03 -.159E+03 0.183E+04   -.144E+03 0.160E+03 -.183E+04   0.222E+01 -.130E+01 0.420E+01   0.260E-01 -.441E-02 -.145E+00
   0.171E+03 -.284E+02 0.690E+03   -.173E+03 0.285E+02 -.689E+03   0.260E+01 -.257E+00 -.347E+00   -.190E-02 0.933E-02 -.432E-01
   0.138E+03 -.896E+01 -.382E+03   -.140E+03 0.918E+01 0.383E+03   0.253E+01 -.301E+00 -.871E+00   0.249E-02 0.134E-01 0.135E+00
   -.318E+02 0.184E+03 -.138E+04   0.312E+02 -.185E+03 0.138E+04   0.106E+01 0.164E+01 -.849E+00   -.168E+00 -.920E-02 0.129E+00
 -----------------------------------------------------------------------------------------------
   -.407E+02 0.311E+02 0.577E+01   0.355E-14 0.227E-12 -.455E-12   0.395E+02 -.311E+02 -.665E+01   0.120E+01 0.237E+00 0.787E+00
 
 
 POSITION                                       TOTAL-FORCE (eV/Angst)
 -----------------------------------------------------------------------------------
      2.32602     10.40942      0.00000         0.089585      0.270944      1.894515
      3.74232      9.43171      2.62550        -0.255998     -0.029664     -0.141607
      5.15862      8.45400      5.25100        -0.016555     -0.121686     -0.110274
      6.57491      7.47629      7.87651         0.435174     -0.105091      0.361421
      7.99121      6.49857     10.50201        -0.434413     -0.208158     -2.323023
      1.07272      4.55480      3.50067         0.047128      0.166758     -0.189200
      2.48901      3.57708      6.12617         0.029406     -0.276068      0.000815
      3.90531      2.59937      8.75167        -0.242335      0.330358      0.592902
      9.08153      9.10581      0.87517         0.278598     -0.203593      1.298563
      1.23571      7.80219      9.62684         0.239617      0.711276     -0.474783
      6.41192      4.22889      1.75033        -0.466825     -0.166365      0.133352
      7.82822      3.25118      4.37584        -0.099575     -0.006485     -0.033955
      9.24452     12.35320      7.00134        -0.281105     -0.227169      0.093609
      3.36813      7.02690      1.93183        -0.589596     -0.218409      0.409757
      4.78442      6.04919      4.55733        -0.092350      0.161424     -0.018065
      6.20072      5.07148      7.18283         0.422660     -0.112973      0.113750
      7.61702      4.09377      9.80834         0.624325     -0.526097     -0.946618
      0.69852      2.14999      2.80700        -0.029157     -0.103692     -0.159043
      2.11482      1.17228      5.43250         0.170672      0.173579      0.201244
      3.53112     10.27430      8.05800         0.014391      0.050306      0.446610
      4.94741      9.29658     10.68350        -1.281046      0.410190     -1.683670
      8.70733      6.70100      0.18149         1.151747      0.082423      1.834525
      6.03773     11.90382      1.05666        -0.634540      0.252951      0.357146
      7.45403     10.92611      3.68216         0.005743      0.013234      0.031580
      8.87032      9.94839      6.30767         0.285580      0.049842      0.271516
      5.48410      8.22931      1.23816        -0.120127      0.123629      1.004620
      6.90040      7.25159      3.86366        -0.194467      0.118028     -0.149686
      8.31669      6.27388      6.48916         0.016700     -0.246448      0.466043
      2.81450      3.35239      2.11332         0.102493      0.231399     -0.306436
      4.23080      2.37468      4.73883        -0.061182      0.053832     -0.116521
      5.64709     11.47670      7.36433         0.137693      0.089212      0.179065
      7.06339     10.49899      9.98983        -0.572869      0.638551     -1.735047
      0.14490      8.55521      2.98849        -0.078315      0.182472     -0.261439
      1.56119      7.57750      5.61399         0.001770     -0.179944     -0.026304
      2.97749      6.59979      8.23950        -0.459129     -0.416062      0.591698
      8.15370     13.10622      0.36299         0.302635     -0.350243      1.867887
      0.34500      9.75890     10.30158        -0.813308     -0.026315      0.383622
      5.52122      6.18560      2.42507         0.000201      0.228847     -1.586162
      6.93751      5.20789      5.05057         0.080697      0.121498      0.063560
      8.35381      4.23018      7.67607        -0.198678      0.291908      0.153449
      1.43532      2.28640      0.67473        -0.713899     -0.906703     -1.215917
      2.85162      1.30869      3.30024         0.142732      0.142008     -0.030618
      4.26791     10.41071      5.92574         0.036855     -0.030103      0.181735
      5.68421      9.43299      8.55124         0.367581      0.145014      1.022520
      0.18201      6.51150      4.17540        -0.083172      0.042612      0.028489
      1.59831      5.53379      6.80091         0.191099      0.553141      0.201462
      3.01461      4.55608      9.42641         0.490308      0.483721      0.086472
      8.19082     11.06252      1.54990        -0.352625     -0.268085     -1.811593
      4.58141     10.22551      0.68287         0.123698     -0.487523     -0.600249
      5.99770      9.24779      3.30837        -0.080240     -0.136160      0.008389
      7.41400      8.27008      5.93387         0.053066      0.103466      0.105548
      8.83030      7.29237      8.55937        -0.886989     -0.229277      1.017912
      1.91180      5.34859      1.55803         0.054595      0.427041     -0.279227
      3.32810      4.37088      4.18354         0.021058     -0.202181      0.114155
      4.74440      3.39317      6.80904        -0.079879     -0.063039      0.099029
      6.16069      2.41545      9.43454         0.362216     -0.527173      0.695424
      0.65850      9.57370      5.05870         0.167106      0.022458      0.265595
      2.07479      8.59599      7.68420         0.010734     -0.489265      0.132158
      3.49109      7.61827     10.30971        -0.725879     -0.202654     -0.080597
      8.66731      4.04498      2.43320        -0.586232      0.204405     -0.917470
      1.88700      8.69441      1.56616         0.580568      0.256088     -0.824722
      3.30330      7.71670      4.19167         0.250882      0.237666      0.064281
      4.71960      6.73898      6.81717         0.122207     -0.025771      0.083122
      6.13589      5.76127      9.44267         0.782374      0.075055      0.672452
      0.63370      2.83978      5.06683         0.033977      0.045839     -0.110917
      2.04999      1.86207      7.69234         0.120472      0.222177     -0.458924
      3.46629     10.96409     10.31784         0.316362     -0.394715     -0.653610
      8.64250      7.39079      2.44133        -0.204780      0.183233     -1.315482
      4.55661      3.49159      0.69100         1.136419     -0.393494      0.281789
      5.97290      2.51388      3.31650         0.322185     -0.106574      0.180041
      7.38920     11.61590      5.94200         0.163143     -0.069700     -0.095631
      8.80549     10.63819      8.56750         0.348813      0.160297      0.664975
 -----------------------------------------------------------------------------------
    total drift:                                0.077784      0.170375     -0.087687


--------------------------------------------------------------------------------------------------------



  FREE ENERGIE OF THE ION-ELECTRON SYSTEM (eV)
  ---------------------------------------------------
  free  energy   TOTEN  =      -353.48175604 eV

  energy  without entropy=     -352.37088569  energy(sigma->0) =     -352.92632086
 


--------------------------------------------------------------------------------------------------------


    POTLOK:  cpu time    0.0472: real time    0.0483


--------------------------------------------------------------------------------------------------------


     LOOP+:  cpu time   80.6307: real time   80.9225
    4ORBIT:  cpu time    0.0000: real time    0.0000

 total amount of memory used by VASP MPI-rank0    45295. kBytes
=======================================================================

   base      :      30000. kBytes
   nonlr-proj:       2281. kBytes
   fftplans  :       3383. kBytes
   grid      :       6052. kBytes
   one-center:         93. kBytes
   wavefun   :       3486. kBytes
 
  
  
 General timing and accounting informations for this job:
 ========================================================
  
                  Total CPU time used (sec):       82.702
                            User time (sec):       81.972
                          System time (sec):        0.730
                         Elapsed time (sec):       83.402
  
                   Maximum memory used (kb):      226536.
                   Average memory used (kb):           0.
  
                          Minor page faults:        85667
                          Major page faults:            0
                 Voluntary context switches:         1071
