"Millerite NiS"                         
           1
    10.079733    0.000000    0.000000
     3.573298    9.425103    0.000000
     0.000000    0.000000   20.683504
   Ty   Ty
  36  36
Direct configuration=     1
   0.39705889  0.79495179  0.12693702
   0.54732740  0.64468328  0.25387405
   0.69759592  0.49441476  0.38081107
   0.82686853  0.34454361  0.48489815
   0.11381506  0.41152895  0.16924937
   0.26408357  0.26126044  0.29618639
   0.41435209  0.11099193  0.42312341
   0.09834131  0.78281727  0.45140819
   0.71724024  0.21487331  0.14353607
   0.83057123  0.02810611  0.21156171
   0.98083975  0.87783760  0.33849873
   0.36443660  0.55249315  0.11290138
   0.50762556  0.42017912  0.22033653
   0.65789407  0.26991061  0.34727355
   0.78907461  0.12252294  0.45838045
   0.07411322  0.18702479  0.13571184
   0.22438173  0.03675628  0.26264887
   0.37465025  0.88648777  0.38958589
   0.43421456  0.72318223  0.47368290
   0.89381003  0.26426312  0.06196675
   0.08376263  0.50920393  0.41849244
   0.58175931  0.88439283  0.09707134
   0.79086939  0.80360196  0.17802418
   0.94113790  0.65333344  0.30496121
   0.02468937  0.16542007  0.42569502
   0.59148654  0.59396229  0.08034605
   0.73212972  0.45988096  0.18679900
   0.88239823  0.30961245  0.31373603
   0.29861738  0.22672664  0.10217432
   0.44888589  0.07645812  0.22911134
   0.59915440  0.92618961  0.35604837
   0.73407541  0.81713827  0.45189166
   0.01537355  0.84330380  0.14448666
   0.16564206  0.69303529  0.27142369
   0.31591057  0.54276677  0.39836071
   0.77794721  0.98309364  0.08520990
   0.00116728  0.99801889  0.48068054
   0.58579929  0.40599939  0.11724657
   0.73606781  0.25573088  0.24418359
   0.88633632  0.10546236  0.37112062
   0.11290254  0.23385945  0.04565518
   0.30255546  0.02257655  0.15955891
   0.45282398  0.87230804  0.28649593
   0.60309249  0.72203952  0.41343296
   0.01931164  0.63915371  0.20187125
   0.16958015  0.48888520  0.32880827
   0.29167763  0.35123134  0.43009006
   0.88363553  0.77207355  0.08732849
   0.48569397  0.78232708  0.03682763
   0.63635413  0.69187455  0.15995199
   0.78662264  0.54160604  0.28688901
   0.93689115  0.39133753  0.41382604
   0.22847603  0.44392434  0.09220834
   0.35311030  0.30845171  0.20226433
   0.50337881  0.15818320  0.32920136
   0.63259879  0.03110431  0.44203847
   0.06986647  0.92502888  0.24457667
   0.22013498  0.77476036  0.37151370
   0.28354833  0.63626290  0.48822539
   0.91959796  0.07529739  0.11763965
   0.21364712  0.75864010  0.09728839
   0.35047896  0.64131972  0.20265741
   0.50074748  0.49105120  0.32959444
   0.65153792  0.34007382  0.44119130
   0.06723514  0.25789688  0.24496976
   0.21750365  0.10762837  0.37190678
   0.40181218  0.94084793  0.48125641
   0.92114262  0.39830395  0.13207577
   0.46064615  0.07596884  0.05539716
   0.63372279  0.02474255  0.16034507
   0.78399131  0.87447404  0.28728210
   0.93425982  0.72420553  0.41421912
