 vasp.6.1.0 28Jan20 (build Mar 31 2020 17:42:31) gamma-only                     
  
 executed on             LinuxIFC date 2020.04.12  15:37:02
 running on   48 total cores
 distrk:  each k-point on   48 cores,    1 groups
 distr:  one band on NCORE=   6 cores,    8 groups


--------------------------------------------------------------------------------------------------------


 INCAR:
 POTCAR:    PAW_PBE Ni_pv 06Sep2000               
 POTCAR:    PAW_PBE S 06Sep2000                   
 POTCAR:    PAW_PBE Ni_pv 06Sep2000               
   VRHFIN =Ni:                                                                                      
   LEXCH  = PE                                                                                      
   EATOM  =  3501.1230 eV,  257.3253 Ry                                                             
                                                                                                    
   TITEL  = PAW_PBE Ni_pv 06Sep2000                                                                 
   LULTRA =        F    use ultrasoft PP ?                                                          
   IUNSCR =        1    unscreen: 0-lin 1-nonlin 2-no                                               
   RPACOR =    1.500    partial core radius                                                         
   POMASS =   58.690; ZVAL   =   16.000    mass and valenz                                          
   RCORE  =    2.000    outmost cutoff radius                                                       
   RWIGS  =    2.000; RWIGS  =    1.058    wigner-seitz radius (au A)                               
   ENMAX  =  367.986; ENMIN  =  275.989 eV                                                          
   RCLOC  =    1.301    cutoff for local pot                                                        
   LCOR   =        T    correct aug charges                                                         
   LPAW   =        T    paw PP                                                                      
   EAUG   =  703.443                                                                                
   DEXC   =    0.000                                                                                
   RMAX   =    2.041    core radius for proj-oper                                                   
   RAUG   =    1.300    factor for augmentation sphere                                              
   RDEP   =    2.103    radius for radial grids                                                     
   RDEPT  =    1.618    core radius for aug-charge                                                  
                                                                                                    
   Atomic configuration                                                                             
    8 entries                                                                                       
     n  l   j            E        occ.                                                              
     1  0  0.50     -8206.4253   2.0000                                                             
     2  0  0.50      -976.1748   2.0000                                                             
     2  1  1.50      -839.0571   6.0000                                                             
     3  0  0.50      -105.9991   2.0000                                                             
     3  1  1.50       -66.4603   6.0000                                                             
     3  2  2.50        -4.6458   9.0000                                                             
     4  0  0.50        -4.4926   1.0000                                                             
     4  3  2.50        -1.3606   0.0000                                                             
   Description                                                                                      
     l       E           TYP  RCUT    TYP  RCUT                                                     
     1    -66.4602962     23  1.700                                                                 
     1     -1.3605826     23  1.700                                                                 
     2     -4.6457867     23  2.000                                                                 
     2     -6.0063693     23  2.000                                                                 
     0     -4.4925576     23  1.900                                                                 
     0     16.3626226     23  1.900                                                                 
  local pseudopotential read in
  partial core-charges read in
  partial kinetic energy density read in
  atomic valenz-charges read in
  non local Contribution for L=           1  read in
    real space projection operators read in
  non local Contribution for L=           1  read in
    real space projection operators read in
  non local Contribution for L=           2  read in
    real space projection operators read in
  non local Contribution for L=           2  read in
    real space projection operators read in
  non local Contribution for L=           0  read in
    real space projection operators read in
  non local Contribution for L=           0  read in
    real space projection operators read in
    PAW grid and wavefunctions read in
 
   number of l-projection  operators is LMAX  =           6
   number of lm-projection operators is LMMAX =          18
 
 POTCAR:    PAW_PBE S 06Sep2000                   
   VRHFIN =S : s2p4                                                                                 
   LEXCH  = PE                                                                                      
   EATOM  =   276.8230 eV,   20.3459 Ry                                                             
                                                                                                    
   TITEL  = PAW_PBE S 06Sep2000                                                                     
   LULTRA =        F    use ultrasoft PP ?                                                          
   IUNSCR =        1    unscreen: 0-lin 1-nonlin 2-no                                               
   RPACOR =    1.500    partial core radius                                                         
   POMASS =   32.066; ZVAL   =    6.000    mass and valenz                                          
   RCORE  =    1.900    outmost cutoff radius                                                       
   RWIGS  =    2.200; RWIGS  =    1.164    wigner-seitz radius (au A)                               
   ENMAX  =  258.689; ENMIN  =  194.016 eV                                                          
   ICORE  =        2    local potential                                                             
   LCOR   =        T    correct aug charges                                                         
   LPAW   =        T    paw PP                                                                      
   EAUG   =  335.092                                                                                
   DEXC   =    0.000                                                                                
   RMAX   =    1.942    core radius for proj-oper                                                   
   RAUG   =    1.300    factor for augmentation sphere                                              
   RDEP   =    1.954    radius for radial grids                                                     
   RDEPT  =    1.744    core radius for aug-charge                                                  
                                                                                                    
   Atomic configuration                                                                             
    6 entries                                                                                       
     n  l   j            E        occ.                                                              
     1  0  0.50     -2405.8406   2.0000                                                             
     2  0  0.50      -211.7007   2.0000                                                             
     2  1  1.50      -156.4958   6.0000                                                             
     3  0  0.50       -17.2562   2.0000                                                             
     3  1  0.50        -7.0085   4.0000                                                             
     3  2  1.50        -6.8029   0.0000                                                             
   Description                                                                                      
     l       E           TYP  RCUT    TYP  RCUT                                                     
     0    -17.2561641     23  1.900                                                                 
     0    -15.8743224     23  1.900                                                                 
     1     -7.0085400     23  1.900                                                                 
     1     -2.7779785     23  1.900                                                                 
     2     -6.8029130     23  1.900                                                                 
  local pseudopotential read in
  partial core-charges read in
  partial kinetic energy density read in
  atomic valenz-charges read in
  non local Contribution for L=           0  read in
    real space projection operators read in
  non local Contribution for L=           0  read in
    real space projection operators read in
  non local Contribution for L=           1  read in
    real space projection operators read in
  non local Contribution for L=           1  read in
    real space projection operators read in
    PAW grid and wavefunctions read in
 
   number of l-projection  operators is LMAX  =           4
   number of lm-projection operators is LMMAX =           8
 
 Optimization of the real space projectors (new method)

 maximal supplied QI-value         = 18.90
 optimisation between [QCUT,QGAM] = [ 10.77, 21.73] = [ 32.49,132.25] Ry 
 Optimized for a Real-space Cutoff    1.38 Angstroem

   l    n(q)    QCUT    max X(q) W(low)/X(q) W(high)/X(q)  e(spline) 
   1      8    10.771     2.836    0.40E-04    0.29E-04    0.12E-06
   1      8    10.771     4.023    0.10E-03    0.48E-04    0.29E-06
   2      8    10.771    73.368    0.42E-03    0.97E-04    0.44E-06
   2      8    10.771    69.010    0.42E-03    0.99E-04    0.45E-06
   0      9    10.771    54.797    0.10E-03    0.56E-04    0.74E-07
   0      9    10.771    24.266    0.89E-04    0.49E-04    0.67E-07
 Optimization of the real space projectors (new method)

 maximal supplied QI-value         = 19.84
 optimisation between [QCUT,QGAM] = [ 10.71, 21.63] = [ 32.15,130.99] Ry 
 Optimized for a Real-space Cutoff    1.19 Angstroem

   l    n(q)    QCUT    max X(q) W(low)/X(q) W(high)/X(q)  e(spline) 
   0      8    10.715   187.594    0.41E-03    0.53E-04    0.66E-07
   0      8    10.715   164.243    0.41E-03    0.53E-04    0.65E-07
   1      7    10.715    67.533    0.19E-03    0.59E-03    0.68E-07
   1      7    10.715    50.729    0.19E-03    0.58E-03    0.67E-07
  PAW_PBE Ni_pv 06Sep2000               :
 energy of atom  1       EATOM=-3501.1230
 kinetic energy error for atom=    0.0925 (will be added to EATOM!!)
  PAW_PBE S 06Sep2000                   :
 energy of atom  2       EATOM= -276.8230
 kinetic energy error for atom=    0.0033 (will be added to EATOM!!)
 
 
 POSCAR: Structure 9 made from -121-6.xsd file
  positions in direct lattice
  No initial velocities read in
 exchange correlation table for  LEXCH =        8
   RHO(1)=    0.500       N(1)  =     2000
   RHO(2)=  100.500       N(2)  =     4000
 


--------------------------------------------------------------------------------------------------------


 ion  position               nearest neighbor table
   1  0.374  0.751  0.095-  41 2.25  50 2.26  60 2.26  61 2.36  51 2.36  26 2.53  14 2.53
   2  0.525  0.601  0.223-  42 2.25  51 2.26  61 2.26  62 2.36  52 2.36  15 2.53  27 2.53
   3  0.675  0.451  0.351-  43 2.25  62 2.26  52 2.26  63 2.36  53 2.36  28 2.53  16 2.53
   4  0.825  0.301  0.479-  44 2.25  63 2.26  53 2.26  64 2.36  13 2.53  25 2.53
   5  0.607  0.185  0.010-  46 2.25  67 2.36
   6  0.758  0.035  0.138-  47 2.25  67 2.26  54 2.36  68 2.36  29 2.53  20 2.53
   7  0.058  0.734  0.394-  49 2.25  65 2.26  55 2.26  66 2.36  18 2.53  31 2.53
   8  0.908  0.884  0.266-  48 2.25  54 2.26  68 2.26  55 2.36  65 2.36  30 2.53  17 2.53
   9  0.141  0.318  0.180-  40 2.25  56 2.26  69 2.26  70 2.36  57 2.36  34 2.53  21 2.53
  10  0.291  0.168  0.308-  37 2.25  57 2.26  70 2.26  58 2.36  71 2.36  35 2.53  22 2.53
  11  0.442  0.017  0.436-  38 2.25  71 2.26  58 2.26  72 2.36  23 2.53  36 2.53
  12  0.991  0.468  0.052-  39 2.25  59 2.26  56 2.36  69 2.36  33 2.53
  13  0.010  0.116  0.412-  55 2.25  63 2.26  37 2.26  64 2.36  38 2.36  25 2.53   4 2.53
  14  0.559  0.567  0.027-  60 2.26  61 2.36  39 2.36  26 2.53   1 2.53
  15  0.709  0.416  0.155-  39 2.26  61 2.26  40 2.36  62 2.36  27 2.53   2 2.53
  16  0.860  0.266  0.283-  54 2.25  62 2.26  40 2.26  37 2.36  63 2.36   3 2.53  28 2.53
  17  0.093  0.700  0.198-  56 2.25  41 2.26  68 2.26  42 2.36  65 2.36  30 2.53   8 2.53
  18  0.243  0.549  0.326-  57 2.25  65 2.26  42 2.26  66 2.36  43 2.36   7 2.53  31 2.53
  19  0.393  0.399  0.454-  58 2.25  66 2.26  43 2.26  44 2.36  32 2.53
  20  0.943  0.850  0.070-  59 2.25  67 2.26  45 2.26  68 2.36  41 2.36   6 2.53  29 2.53
  21  0.326  0.133  0.113-  50 2.25  46 2.26  69 2.26  70 2.36  47 2.36  34 2.53   9 2.53
  22  0.476  0.983  0.241-  51 2.25  70 2.26  47 2.26  48 2.36  71 2.36  35 2.53  10 2.53
  23  0.627  0.833  0.369-  52 2.25  71 2.26  48 2.26  49 2.36  72 2.36  36 2.53  11 2.53
  24  0.777  0.682  0.497-  53 2.25  72 2.26  49 2.26
  25  0.050  0.340  0.445-  66 2.25  53 2.26  37 2.26  38 2.36  13 2.53   4 2.53
  26  0.599  0.791  0.061-  67 2.25  50 2.26  39 2.36  51 2.36  14 2.53   1 2.53
  27  0.749  0.641  0.189-  68 2.25  51 2.26  39 2.26  40 2.36  52 2.36  15 2.53   2 2.53
  28  0.899  0.491  0.317-  65 2.25  52 2.26  40 2.26  53 2.36  37 2.36   3 2.53  16 2.53
  29  0.982  0.074  0.104-  69 2.25  45 2.26  41 2.36  54 2.36   6 2.53  20 2.53
  30  0.133  0.924  0.232-  70 2.25  54 2.26  41 2.26  55 2.36  42 2.36   8 2.53  17 2.53
  31  0.283  0.774  0.360-  71 2.25  55 2.26  42 2.26  43 2.36   7 2.53  18 2.53
  32  0.433  0.624  0.488-  72 2.25  43 2.26  44 2.36  19 2.53
  33  0.215  0.508  0.019-  60 2.25  59 2.26  46 2.36  56 2.36  12 2.53
  34  0.366  0.358  0.147-  61 2.25  46 2.26  56 2.26  47 2.36  57 2.36  21 2.53   9 2.53
  35  0.516  0.207  0.275-  62 2.25  57 2.26  47 2.26  48 2.36  58 2.36  10 2.53  22 2.53
  36  0.666  0.057  0.403-  63 2.25  58 2.26  48 2.26  49 2.36  23 2.53  11 2.53
  37  0.064  0.262  0.341-  10 2.25  13 2.26  25 2.26  16 2.36  28 2.36
  38  0.214  0.112  0.469-  11 2.25  25 2.36  13 2.36
  39  0.763  0.563  0.085-  12 2.25  15 2.26  27 2.26  14 2.36  26 2.36
  40  0.914  0.412  0.213-   9 2.25  16 2.26  28 2.26  27 2.36  15 2.36
  41  0.147  0.846  0.128-   1 2.25  17 2.26  30 2.26  20 2.36  29 2.36
  42  0.297  0.696  0.256-   2 2.25  31 2.26  18 2.26  30 2.36  17 2.36
  43  0.447  0.545  0.384-   3 2.25  32 2.26  19 2.26  31 2.36  18 2.36
  44  0.598  0.395  0.512-   4 2.25  19 2.36  32 2.36
  45  0.996  0.996  0.000-  29 2.26  20 2.26
  46  0.380  0.279  0.043-   5 2.25  34 2.26  21 2.26  33 2.36
  47  0.530  0.129  0.171-   6 2.25  22 2.26  35 2.26  34 2.36  21 2.36
  48  0.680  0.979  0.299-   8 2.25  23 2.26  36 2.26  35 2.36  22 2.36
  49  0.831  0.829  0.427-   7 2.25  24 2.26  23 2.36  36 2.36
  50  0.378  0.948  0.043-  21 2.25  26 2.26   1 2.26
  51  0.528  0.798  0.171-  22 2.25  27 2.26   2 2.26   1 2.36  26 2.36
  52  0.678  0.648  0.299-  23 2.25  28 2.26   3 2.26  27 2.36   2 2.36
  53  0.829  0.497  0.427-  24 2.25   4 2.26  25 2.26  28 2.36   3 2.36
  54  0.911  0.081  0.214-  16 2.25   8 2.26  30 2.26   6 2.36  29 2.36
  55  0.062  0.931  0.342-  13 2.25  31 2.26   7 2.26  30 2.36   8 2.36
  56  0.145  0.515  0.129-  17 2.25  34 2.26   9 2.26  12 2.36  33 2.36
  57  0.295  0.364  0.257-  18 2.25  10 2.26  35 2.26   9 2.36  34 2.36
  58  0.445  0.214  0.385-  19 2.25  36 2.26  11 2.26  35 2.36  10 2.36
  59  0.994  0.665  0.001-  20 2.25  33 2.26  12 2.26
  60  0.327  0.662  0.000-  33 2.25  14 2.26   1 2.26
  61  0.477  0.512  0.128-  34 2.25  15 2.26   2 2.26   1 2.36  14 2.36
  62  0.628  0.362  0.256-  35 2.25   3 2.26  16 2.26   2 2.36  15 2.36
  63  0.778  0.212  0.384-  36 2.25   4 2.26  13 2.26  16 2.36   3 2.36
  64  0.928  0.061  0.512-  13 2.36   4 2.36
  65  0.011  0.645  0.299-  28 2.25   7 2.26  18 2.26   8 2.36  17 2.36
  66  0.161  0.495  0.427-  25 2.25  19 2.26  18 2.36   7 2.36
  67  0.711  0.946  0.043-  26 2.25  20 2.26   6 2.26   5 2.36
  68  0.861  0.795  0.171-  27 2.25  17 2.26   8 2.26   6 2.36  20 2.36
  69  0.094  0.229  0.086-  29 2.25  21 2.26   9 2.26  12 2.36
  70  0.244  0.079  0.214-  30 2.25  22 2.26  10 2.26   9 2.36  21 2.36
  71  0.395  0.928  0.342-  31 2.25  11 2.26  23 2.26  10 2.36  22 2.36
  72  0.545  0.778  0.470-  32 2.25  24 2.26  11 2.36  23 2.36
 
  LATTYP: Found a base centered orthorhombic cell.
 ALAT       =    11.4527836704
 B/A-ratio  =     1.4485816945
 C/A-ratio  =     1.7908432109
  
  Lattice vectors:
  
 A1 = (   9.4251025535,   3.5732980427,   0.0000000000)
 A2 = (   0.0000000000, -10.0797329849,   0.0000000000)
 A3 = (   0.0000000000,   0.0000000000, -20.5101398818)


Analysis of symmetry for initial positions (statically):
=====================================================================
 Subroutine PRICEL returns:
 Original cell was already a primitive cell.
 

 Routine SETGRP: Setting up the symmetry group for a 
 base centered orthorhombic supercell.


 Subroutine GETGRP returns: Found  1 space group operations
 (whereof  1 operations were pure point group operations)
 out of a pool of  8 trial point group operations.


The static configuration has the point symmetry C_1 .


Analysis of symmetry for dynamics (positions and initial velocities):
=====================================================================
 Subroutine PRICEL returns:
 Original cell was already a primitive cell.
 

 Routine SETGRP: Setting up the symmetry group for a 
 base centered orthorhombic supercell.


 Subroutine GETGRP returns: Found  1 space group operations
 (whereof  1 operations were pure point group operations)
 out of a pool of  8 trial point group operations.


The dynamic configuration has the point symmetry C_1 .


 Subroutine INISYM returns: Found  1 space group operations
 (whereof  1 operations are pure point group operations),
 and found     1 'primitive' translations


----------------------------------------------------------------------------------------

                                     Primitive cell                                     

  volume of cell :    1948.5149

  direct lattice vectors                    reciprocal lattice vectors
     9.425102554  3.573298043  0.000000000     0.106099641  0.000000000  0.000000000
     0.000000000 10.079732985  0.000000000    -0.037612667  0.099208977  0.000000000
     0.000000000  0.000000000 20.510139882     0.000000000  0.000000000  0.048756372

  length of vectors
    10.079732985 10.079732985 20.510139882     0.106099641  0.106099641  0.048756372

  position of ions in fractional coordinates (direct lattice)
     0.374332151  0.751362196  0.095112347
     0.524600663  0.601093683  0.223122317
     0.674869176  0.450825171  0.351132287
     0.825137688  0.300556659  0.479142257
     0.607486476  0.184874537  0.009772366
     0.757754989  0.034606025  0.137782337
     0.058292013  0.734069000  0.393802277
     0.908023501  0.884337513  0.265792307
     0.141177826  0.317849854  0.180452327
     0.291446338  0.167581342  0.308462297
     0.441714851  0.017312829  0.436472267
     0.990909314  0.468118367  0.052442357
     0.009940003  0.115754344  0.411500253
     0.559134466  0.566559881  0.027470342
     0.709402978  0.416291369  0.155480312
     0.859671491  0.266022856  0.283490283
     0.092825816  0.699535198  0.198150302
     0.243094328  0.549266685  0.326160273
     0.393362841  0.398998173  0.454170243
     0.942557303  0.849803710  0.070140332
     0.325980141  0.133047539  0.112810322
     0.476248653  0.982779027  0.240820292
     0.626517166  0.832510515  0.368830263
     0.776785678  0.682242002  0.496840233
     0.049641846  0.340258501  0.445321255
     0.598836308  0.791064038  0.061291344
     0.749104821  0.640795526  0.189301315
     0.899373333  0.490527014  0.317311285
     0.982259146  0.074307868  0.103961334
     0.132527658  0.924039355  0.231971305
     0.282796171  0.773770843  0.359981275
     0.433064683  0.623502330  0.487991245
     0.215413471  0.507820209  0.018621354
     0.365681983  0.357551697  0.146631324
     0.515950496  0.207283184  0.274641295
     0.666219008  0.057014672  0.402651265
     0.063821577  0.262084769  0.341359920
     0.214090090  0.111816257  0.469369891
     0.763284553  0.562621794  0.085339980
     0.913553065  0.412353282  0.213349950
     0.146707390  0.845865623  0.128009970
     0.296975903  0.695597111  0.256019940
     0.447244415  0.545328599  0.384029910
     0.597512927  0.395060086  0.512039881
     0.996438878  0.996134136  0.000000000
     0.379861715  0.279377965  0.042669990
     0.530130228  0.129109453  0.170679960
     0.680398740  0.978840940  0.298689930
     0.830667252  0.828572428  0.426699900
     0.377695711  0.948210635  0.043462798
     0.527964224  0.797942123  0.171472769
     0.678232736  0.647673611  0.299482739
     0.828501249  0.497405098  0.427492709
     0.911387061  0.081185952  0.214142759
     0.061655574  0.930917440  0.342152729
     0.144541386  0.514698294  0.128802779
     0.294809899  0.364429781  0.256812749
     0.445078411  0.214161269  0.384822719
     0.994272874  0.664966806  0.000792808
     0.327140876  0.662335471  0.000396404
     0.477409388  0.512066959  0.128406374
     0.627677901  0.361798446  0.256416345
     0.777946413  0.211529934  0.384426315
     0.928214925  0.061261421  0.512436285
     0.011100738  0.645042275  0.299086335
     0.161369251  0.494773763  0.427096305
     0.710563713  0.945579300  0.043066394
     0.860832226  0.795310788  0.171076364
     0.093986551  0.228823129  0.085736384
     0.244255063  0.078554617  0.213746354
     0.394523576  0.928286105  0.341756325
     0.544792088  0.778017592  0.469766295

  ion indices of the primitive-cell ions
   primitive index   ion index
                 1           1
                 2           2
                 3           3
                 4           4
                 5           5
                 6           6
                 7           7
                 8           8
                 9           9
                10          10
                11          11
                12          12
                13          13
                14          14
                15          15
                16          16
                17          17
                18          18
                19          19
                20          20
                21          21
                22          22
                23          23
                24          24
                25          25
                26          26
                27          27
                28          28
                29          29
                30          30
                31          31
                32          32
                33          33
                34          34
                35          35
                36          36
                37          37
                38          38
                39          39
                40          40
                41          41
                42          42
                43          43
                44          44
                45          45
                46          46
                47          47
                48          48
                49          49
                50          50
                51          51
                52          52
                53          53
                54          54
                55          55
                56          56
                57          57
                58          58
                59          59
                60          60
                61          61
                62          62
                63          63
                64          64
                65          65
                66          66
                67          67
                68          68
                69          69
                70          70
                71          71
                72          72

----------------------------------------------------------------------------------------

 
 
 KPOINTS: gamma-point-only calculation. no periodi

Automatic generation of k-mesh.
Space group operators:
 irot       det(A)        alpha          n_x          n_y          n_z        tau_x        tau_y        tau_z
    1     1.000000     0.000000     1.000000     0.000000     0.000000     0.000000     0.000000     0.000000
 
 Subroutine IBZKPT returns following result:
 ===========================================
 
 Found      1 irreducible k-points:
 
 Following reciprocal coordinates:
            Coordinates               Weight
  0.000000  0.000000  0.000000      1.000000
 
 Following cartesian coordinates:
            Coordinates               Weight
  0.000000  0.000000  0.000000      1.000000
 


--------------------------------------------------------------------------------------------------------




 Dimension of arrays:
   k-points           NKPTS =      1   k-points in BZ     NKDIM =      1   number of bands    NBANDS=    480
   number of dos      NEDOS =    301   number of ions     NIONS =     72
   non local maximal  LDIM  =      6   non local SUM 2l+1 LMDIM =     18
   total plane-waves  NPLWV = 314928
   max r-space proj   IRMAX =   1832   max aug-charges    IRDMAX=   5291
   dimension x,y,z NGX =    54 NGY =   54 NGZ =  108
   dimension x,y,z NGXF=   108 NGYF=  108 NGZF=  216
   support grid    NGXF=   108 NGYF=  108 NGZF=  216
   ions per type =              36  36
   NGX,Y,Z   is equivalent  to a cutoff of   8.91,  8.91,  8.75 a.u.
   NGXF,Y,Z  is equivalent  to a cutoff of  17.81, 17.81, 17.51 a.u.

 SYSTEM =  "Millerite NiS"                         
 POSCAR =  Structure 9 made from -121-6.xsd file   

 Startparameter for this run:
   NWRITE =      2    write-flag & timer
   PREC   = normal    normal or accurate (medium, high low for compatibility)
   ISTART =      0    job   : 0-new  1-cont  2-samecut
   ICHARG =      2    charge: 1-file 2-atom 10-const
   ISPIN  =      1    spin polarized calculation?
   LNONCOLLINEAR =      F non collinear calculations
   LSORBIT =      F    spin-orbit coupling
   INIWAV =      1    electr: 0-lowe 1-rand  2-diag
   LASPH  =      F    aspherical Exc in radial PAW
   METAGGA=      F    non-selfconsistent MetaGGA calc.

 Electronic Relaxation 1
   ENCUT  =  450.0 eV  33.07 Ry    5.75 a.u.  17.43 17.43 35.48*2*pi/ulx,y,z
   ENINI  =  450.0     initial cutoff
   ENAUG  =  703.4 eV  augmentation charge cutoff
   NELM   =    100;   NELMIN=  2; NELMDL= -5     # of ELM steps 
   EDIFF  = 0.1E-03   stopping-criterion for ELM
   LREAL  =      T    real-space projection
   NLSPLINE    = F    spline interpolate recip. space projectors
   LCOMPAT=      F    compatible to vasp.4.4
   GGA_COMPAT  = T    GGA compatible to vasp.4.4-vasp.4.6
   LMAXPAW     = -100 max onsite density
   LMAXMIX     =    2 max onsite mixed and CHGCAR
   VOSKOWN=      0    Vosko Wilk Nusair interpolation
   ROPT   =   -0.00050  -0.00050
 Ionic relaxation
   EDIFFG = 0.1E-02   stopping-criterion for IOM
   NSW    =      0    number of steps for IOM
   NBLOCK =      1;   KBLOCK =      1    inner block; outer block 
   IBRION =     -1    ionic relax: 0-MD 1-quasi-New 2-CG
   NFREE  =      0    steps in history (QN), initial steepest desc. (CG)
   ISIF   =      2    stress and relaxation
   IWAVPR =     10    prediction:  0-non 1-charg 2-wave 3-comb
   ISYM   =      2    0-nonsym 1-usesym 2-fastsym
   LCORR  =      T    Harris-Foulkes like correction to forces

   POTIM  = 0.5000    time-step for ionic-motion
   TEIN   =    0.0    initial temperature
   TEBEG  =    0.0;   TEEND  =   0.0 temperature during run
   SMASS  =  -3.00    Nose mass-parameter (am)
   estimated Nose-frequenzy (Omega)   =  0.10E-29 period in steps = 0.13E+47 mass=  -0.232E-26a.u.
   SCALEE = 1.0000    scale energy and forces
   NPACO  =    256;   APACO  = 16.0  distance and # of slots for P.C.
   PSTRESS=    0.0 pullay stress

  Mass of Ions in am
   POMASS =  58.69 32.07
  Ionic Valenz
   ZVAL   =  16.00  6.00
  Atomic Wigner-Seitz radii
   RWIGS  =  -1.00 -1.00
  virtual crystal weights 
   VCA    =   1.00  1.00
   NELECT =     792.0000    total number of electrons
   NUPDOWN=      -1.0000    fix difference up-down

 DOS related values:
   EMIN   =  10.00;   EMAX   =-10.00  energy-range for DOS
   EFERMI =   0.00
   ISMEAR =     0;   SIGMA  =   0.20  broadening in eV -4-tet -1-fermi 0-gaus

 Electronic relaxation 2 (details)
   IALGO  =     38    algorithm
   LDIAG  =      T    sub-space diagonalisation (order eigenvalues)
   LSUBROT=      F    optimize rotation matrix (better conditioning)
   TURBO    =      0    0=normal 1=particle mesh
   IRESTART =      0    0=no restart 2=restart with 2 vectors
   NREBOOT  =      0    no. of reboots
   NMIN     =      0    reboot dimension
   EREF     =   0.00    reference energy to select bands
   IMIX   =      4    mixing-type and parameters
     AMIX     =   0.40;   BMIX     =  1.00
     AMIX_MAG =   1.60;   BMIX_MAG =  1.00
     AMIN     =   0.10
     WC   =   100.;   INIMIX=   1;  MIXPRE=   1;  MAXMIX= -45

 Intra band minimization:
   WEIMIN = 0.0000     energy-eigenvalue tresh-hold
   EBREAK =  0.52E-07  absolut break condition
   DEPER  =   0.30     relativ break condition  

   TIME   =   0.40     timestep for ELM

  volume/ion in A,a.u.               =      27.06       182.63
  Fermi-wavevector in a.u.,A,eV,Ry     =   1.212687  2.291646 20.008854  1.470609
  Thomas-Fermi vector in A             =   2.348163
 
 Write flags
   LWAVE        =      F    write WAVECAR
   LDOWNSAMPLE  =      F    k-point downsampling of WAVECAR
   LCHARG       =      F    write CHGCAR
   LVTOT        =      F    write LOCPOT, total local potential
   LVHAR        =      F    write LOCPOT, Hartree potential only
   LELF         =      F    write electronic localiz. function (ELF)
   LORBIT       =      0    0 simple, 1 ext, 2 COOP (PROOUT), +10 PAW based schemes


 Dipole corrections
   LMONO  =      F    monopole corrections only (constant potential shift)
   LDIPOL =      F    correct potential (dipole corrections)
   IDIPOL =      0    1-x, 2-y, 3-z, 4-all directions 
   EPSILON=  1.0000000 bulk dielectric constant

 Exchange correlation treatment:
   GGA     =    --    GGA type
   LEXCH   =     8    internal setting for exchange type
   VOSKOWN=      0    Vosko Wilk Nusair interpolation
   LHFCALC =     F    Hartree Fock is set to
   LHFONE  =     F    Hartree Fock one center treatment
   AEXX    =    0.0000 exact exchange contribution

 Linear response parameters
   LEPSILON=     F    determine dielectric tensor
   LRPA    =     F    only Hartree local field effects (RPA)
   LNABLA  =     F    use nabla operator in PAW spheres
   LVEL    =     F    velocity operator in full k-point grid
   LINTERFAST=   F  fast interpolation
   KINTER  =     0    interpolate to denser k-point grid
   CSHIFT  =0.1000    complex shift for real part using Kramers Kronig
   OMEGAMAX=  -1.0    maximum frequency
   DEG_THRESHOLD= 0.2000000E-02 threshold for treating states as degnerate
   RTIME   =   -0.100 relaxation time in fs
  (WPLASMAI=    0.000 imaginary part of plasma frequency in eV, 0.658/RTIME)
   DFIELD  = 0.0000000 0.0000000 0.0000000 field for delta impulse in time
 
 Orbital magnetization related:
   ORBITALMAG=     F  switch on orbital magnetization
   LCHIMAG   =     F  perturbation theory with respect to B field
   DQ        =  0.001000  dq finite difference perturbation B field
   LLRAUG    =     F  two centre corrections for induced B field



--------------------------------------------------------------------------------------------------------


 Static calculation
 charge density and potential will be updated during run
 non-spin polarized calculation
 Variant of blocked Davidson
 Davidson routine will perform the subspace rotation
 perform sub-space diagonalisation
    after iterative eigenvector-optimisation
 modified Broyden-mixing scheme, WC =      100.0
 initial mixing is a Kerker type mixing with AMIX =  0.4000 and BMIX =      1.0000
 Hartree-type preconditioning will be used
 using additional bands           84
 real space projection scheme for non local part
 use partial core corrections
 calculate Harris-corrections to forces 
   (improved forces if not selfconsistent)
 use gradient corrections 
 use of overlap-Matrix (Vanderbilt PP)
 Gauss-broadening in eV      SIGMA  =   0.20


--------------------------------------------------------------------------------------------------------


  energy-cutoff  :      450.00
  volume of cell :     1948.51
      direct lattice vectors                 reciprocal lattice vectors
     9.425102554  3.573298043  0.000000000     0.106099641  0.000000000  0.000000000
     0.000000000 10.079732985  0.000000000    -0.037612667  0.099208977  0.000000000
     0.000000000  0.000000000 20.510139882     0.000000000  0.000000000  0.048756372

  length of vectors
    10.079732985 10.079732985 20.510139882     0.106099641  0.106099641  0.048756372


 
 k-points in units of 2pi/SCALE and weight: gamma-point-only calculation. no periodi
   0.00000000  0.00000000  0.00000000       1.000
 
 k-points in reciprocal lattice and weights: gamma-point-only calculation. no periodi
   0.00000000  0.00000000  0.00000000       1.000
 
 position of ions in fractional coordinates (direct lattice) 
   0.37433215  0.75136220  0.09511235
   0.52460066  0.60109368  0.22312232
   0.67486918  0.45082517  0.35113229
   0.82513769  0.30055666  0.47914226
   0.60748648  0.18487454  0.00977237
   0.75775499  0.03460603  0.13778234
   0.05829201  0.73406900  0.39380228
   0.90802350  0.88433751  0.26579231
   0.14117783  0.31784985  0.18045233
   0.29144634  0.16758134  0.30846230
   0.44171485  0.01731283  0.43647227
   0.99090931  0.46811837  0.05244236
   0.00994000  0.11575434  0.41150025
   0.55913447  0.56655988  0.02747034
   0.70940298  0.41629137  0.15548031
   0.85967149  0.26602286  0.28349028
   0.09282582  0.69953520  0.19815030
   0.24309433  0.54926668  0.32616027
   0.39336284  0.39899817  0.45417024
   0.94255730  0.84980371  0.07014033
   0.32598014  0.13304754  0.11281032
   0.47624865  0.98277903  0.24082029
   0.62651717  0.83251052  0.36883026
   0.77678568  0.68224200  0.49684023
   0.04964185  0.34025850  0.44532126
   0.59883631  0.79106404  0.06129134
   0.74910482  0.64079553  0.18930132
   0.89937333  0.49052701  0.31731129
   0.98225915  0.07430787  0.10396133
   0.13252766  0.92403935  0.23197131
   0.28279617  0.77377084  0.35998128
   0.43306468  0.62350233  0.48799125
   0.21541347  0.50782021  0.01862135
   0.36568198  0.35755170  0.14663132
   0.51595050  0.20728318  0.27464130
   0.66621901  0.05701467  0.40265127
   0.06382158  0.26208477  0.34135992
   0.21409009  0.11181626  0.46936989
   0.76328455  0.56262179  0.08533998
   0.91355307  0.41235328  0.21334995
   0.14670739  0.84586562  0.12800997
   0.29697590  0.69559711  0.25601994
   0.44724442  0.54532860  0.38402991
   0.59751293  0.39506009  0.51203988
   0.99643888  0.99613414  0.00000000
   0.37986171  0.27937797  0.04266999
   0.53013023  0.12910945  0.17067996
   0.68039874  0.97884094  0.29868993
   0.83066725  0.82857243  0.42669990
   0.37769571  0.94821064  0.04346280
   0.52796422  0.79794212  0.17147277
   0.67823274  0.64767361  0.29948274
   0.82850125  0.49740510  0.42749271
   0.91138706  0.08118595  0.21414276
   0.06165557  0.93091744  0.34215273
   0.14454139  0.51469829  0.12880278
   0.29480990  0.36442978  0.25681275
   0.44507841  0.21416127  0.38482272
   0.99427287  0.66496681  0.00079281
   0.32714088  0.66233547  0.00039640
   0.47740939  0.51206696  0.12840637
   0.62767790  0.36179845  0.25641634
   0.77794641  0.21152993  0.38442631
   0.92821492  0.06126142  0.51243628
   0.01110074  0.64504228  0.29908633
   0.16136925  0.49477376  0.42709630
   0.71056371  0.94557930  0.04306639
   0.86083223  0.79531079  0.17107636
   0.09398655  0.22882313  0.08573638
   0.24425506  0.07855462  0.21374635
   0.39452358  0.92828610  0.34175632
   0.54479209  0.77801759  0.46976629
 
 position of ions in cartesian coordinates  (Angst):
   3.52811891  8.91113065  1.95076754
   4.94441505  7.93341835  4.57626993
   6.36071119  6.95570605  7.20177232
   7.77700733  5.97799376  9.82727471
   5.72562234  4.03421620  0.20043259
   7.14191848  3.05650391  2.82593501
   0.54940820  7.60751425  8.07693979
   8.55821462 12.15852460  5.45143740
   1.33061549  3.70831211  3.70110247
   2.74691162  2.73059981  6.32660486
   4.16320777  1.75288751  8.95210725
   9.33942191  8.25932246  1.07560008
   0.09368555  1.20229147  8.43992775
   5.26989968  7.70872641  0.56342056
   6.68619582  6.73101412  3.18892295
   8.10249196  5.75330181  5.81442536
   0.87489284  7.38282232  4.06409041
   2.29118897  6.40511001  6.68959282
   3.70748512  5.42739772  9.31509521
   8.88369924 11.93383265  1.43858802
   3.07239626  2.50590787  2.31375548
   4.48869240 11.60792855  4.93925788
   5.90498854 10.63021626  7.56476029
   7.32128468  9.65250395 10.19026268
   0.46787949  3.60709995  9.13360123
   5.64409362 10.11353488  1.25709404
   7.06038976  9.13582259  3.88259645
   8.47668590  8.15811029  6.50809884
   9.25789319  4.25890815  2.13226150
   1.24908677  9.78763079  4.75776391
   2.66538291  8.80991849  7.38326631
   4.08167905  7.83220619 10.00876870
   2.03029406  5.88842865  0.38192658
   3.44659019  4.91071635  3.00742897
   4.86288634  3.93300404  5.63293138
   6.27918247  2.95529175  8.25843377
   0.60152491  2.86979801  7.00133971
   2.01782105  1.89208571  9.62684212
   7.19403519  8.39852065  1.75033493
   8.61033133  7.42080836  4.37583732
   1.38273220  9.05032885  2.62550239
   2.79902834  8.07261656  5.25100478
   4.21532448  7.09490426  7.87650717
   5.63162061  6.11719195 10.50200958
   9.39153861 13.60133920  0.00000000
   3.58023562  4.17341441  0.87516746
   4.99653177  3.19570212  3.50066985
   6.41282790 12.29772280  6.12617225
   7.82912404 11.32001050  8.75167464
   3.55982081 10.90732936  0.89142807
   4.97611696  9.92961707  3.51693048
   6.39241309  8.95190477  6.14243287
   7.80870924  7.97419246  8.76793526
   8.58991652  4.07499032  4.39209794
   0.58111011  9.60371297  7.01760033
   1.36231739  5.70451082  2.64176301
   2.77861353  4.72679852  5.26726541
   4.19490967  3.74908622  7.89276780
   9.37112380 10.25552116  0.01626060
   3.08333631  7.84513655  0.00813030
   4.49963244  6.86742425  2.63363269
   5.91592859  5.88971195  5.25913510
   7.33222472  4.91199965  7.88463749
   8.74852086  3.93428734 10.51013989
   0.10462559  6.54152014  6.13430257
   1.52092174  5.56380785  8.75980496
   6.69713587 12.07024278  0.88329777
   8.11343201 11.09253049  3.50880016
   0.88583288  2.64231800  1.75846523
   2.30212902  1.66460570  4.38396762
   3.71842516 10.76662639  7.00947003
   5.13472130  9.78891409  9.63497242
 


--------------------------------------------------------------------------------------------------------


 use parallel FFT for orbitals z direction half grid
 k-point   1 :   0.0000 0.0000 0.0000  plane waves:   21165

 maximum and minimum number of plane-waves per node :      3530     3525

 maximum number of plane-waves:     21165
 maximum index in each direction: 
   IXMAX=   17   IYMAX=   17   IZMAX=   35
   IXMIN=  -17   IYMIN=  -17   IZMIN=    0


 real space projection operators:
  total allocation   :      11245.41 KBytes
  max/ min on nodes  :       1878.06       1869.30


 parallel 3D FFT for wavefunctions:
    minimum data exchange during FFTs selected (reduces bandwidth)
 parallel 3D FFT for charge:
    minimum data exchange during FFTs selected (reduces bandwidth)


 total amount of memory used by VASP MPI-rank0    45306. kBytes
=======================================================================

   base      :      30000. kBytes
   nonlr-proj:       2307. kBytes
   fftplans  :       3383. kBytes
   grid      :       6052. kBytes
   one-center:         93. kBytes
   wavefun   :       3471. kBytes
 
     INWAV:  cpu time    0.0000: real time    0.0000
 Broyden mixing: mesh for mixing (old mesh)
   NGX = 35   NGY = 35   NGZ = 71
  (NGX  =108   NGY  =108   NGZ  =216)
  gives a total of  86975 points

 initial charge density was supplied:
 charge density of overlapping atoms calculated
 number of electron     792.0000000 magnetization 
 keeping initial charge density in first step


--------------------------------------------------------------------------------------------------------


 Maximum index for non-local projection operator          304
 Maximum index for augmentation-charges          454 (set IRDMAX)


--------------------------------------------------------------------------------------------------------


 First call to EWALD:  gamma=   0.142
 Maximum number of real-space cells 3x 3x 2
 Maximum number of reciprocal cells 2x 2x 4

    FEWALD:  cpu time    0.0042: real time    0.0042


--------------------------------------- Iteration      1(   1)  ---------------------------------------


    POTLOK:  cpu time    0.0462: real time    0.0495
    SETDIJ:  cpu time    0.0060: real time    0.0084
     EDDAV:  cpu time    2.0082: real time    2.0145
       DOS:  cpu time    0.0010: real time    0.0011
    --------------------------------------------
      LOOP:  cpu time    2.0615: real time    2.0734

 eigenvalue-minimisations  :  1160
 total energy-change (2. order) : 0.9823524E+04  (-0.5077952E+05)
 number of electron     792.0000000 magnetization 
 augmentation part      792.0000000 magnetization 

 Free energy of the ion-electron system (eV)
  ---------------------------------------------------
  alpha Z        PSCENC =      1909.09476555
  Ewald energy   TEWEN  =    162123.67030502
  -Hartree energ DENC   =   -284759.79403412
  -exchange      EXHF   =         0.00000000
  -V(xc)+E(xc)   XCENC  =      3651.81089635
  PAW double counting   =    112729.53333415  -117641.51188735
  entropy T*S    EENTRO =        -0.31216648
  eigenvalues    EBANDS =     -4191.57233324
  atomic energy  EATOM  =    136002.60505376
  Solvation  Ediel_sol  =         0.00000000
  ---------------------------------------------------
  free energy    TOTEN  =      9823.52393364 eV

  energy without entropy =     9823.83610012  energy(sigma->0) =     9823.68001688


--------------------------------------------------------------------------------------------------------




--------------------------------------- Iteration      1(   2)  ---------------------------------------


     EDDAV:  cpu time    1.7841: real time    1.7890
       DOS:  cpu time    0.0007: real time    0.0007
    --------------------------------------------
      LOOP:  cpu time    1.7848: real time    1.7897

 eigenvalue-minimisations  :  1016
 total energy-change (2. order) :-0.9196742E+04  (-0.8867342E+04)
 number of electron     792.0000000 magnetization 
 augmentation part      792.0000000 magnetization 

 Free energy of the ion-electron system (eV)
  ---------------------------------------------------
  alpha Z        PSCENC =      1909.09476555
  Ewald energy   TEWEN  =    162123.67030502
  -Hartree energ DENC   =   -284759.79403412
  -exchange      EXHF   =         0.00000000
  -V(xc)+E(xc)   XCENC  =      3651.81089635
  PAW double counting   =    112729.53333415  -117641.51188735
  entropy T*S    EENTRO =        -0.88646961
  eigenvalues    EBANDS =    -13387.74024849
  atomic energy  EATOM  =    136002.60505376
  Solvation  Ediel_sol  =         0.00000000
  ---------------------------------------------------
  free energy    TOTEN  =       626.78171527 eV

  energy without entropy =      627.66818488  energy(sigma->0) =      627.22495007


--------------------------------------------------------------------------------------------------------




--------------------------------------- Iteration      1(   3)  ---------------------------------------


     EDDAV:  cpu time    1.8937: real time    1.9005
       DOS:  cpu time    0.0006: real time    0.0006
    --------------------------------------------
      LOOP:  cpu time    1.8943: real time    1.9011

 eigenvalue-minimisations  :  1104
 total energy-change (2. order) :-0.9680564E+03  (-0.9128451E+03)
 number of electron     792.0000000 magnetization 
 augmentation part      792.0000000 magnetization 

 Free energy of the ion-electron system (eV)
  ---------------------------------------------------
  alpha Z        PSCENC =      1909.09476555
  Ewald energy   TEWEN  =    162123.67030502
  -Hartree energ DENC   =   -284759.79403412
  -exchange      EXHF   =         0.00000000
  -V(xc)+E(xc)   XCENC  =      3651.81089635
  PAW double counting   =    112729.53333415  -117641.51188735
  entropy T*S    EENTRO =        -1.22318382
  eigenvalues    EBANDS =    -14355.45992711
  atomic energy  EATOM  =    136002.60505376
  Solvation  Ediel_sol  =         0.00000000
  ---------------------------------------------------
  free energy    TOTEN  =      -341.27467757 eV

  energy without entropy =     -340.05149375  energy(sigma->0) =     -340.66308566


--------------------------------------------------------------------------------------------------------




--------------------------------------- Iteration      1(   4)  ---------------------------------------


     EDDAV:  cpu time    1.9663: real time    1.9750
       DOS:  cpu time    0.0007: real time    0.0007
    --------------------------------------------
      LOOP:  cpu time    1.9670: real time    1.9757

 eigenvalue-minimisations  :  1144
 total energy-change (2. order) :-0.6423620E+02  (-0.6336303E+02)
 number of electron     792.0000000 magnetization 
 augmentation part      792.0000000 magnetization 

 Free energy of the ion-electron system (eV)
  ---------------------------------------------------
  alpha Z        PSCENC =      1909.09476555
  Ewald energy   TEWEN  =    162123.67030502
  -Hartree energ DENC   =   -284759.79403412
  -exchange      EXHF   =         0.00000000
  -V(xc)+E(xc)   XCENC  =      3651.81089635
  PAW double counting   =    112729.53333415  -117641.51188735
  entropy T*S    EENTRO =        -1.32824172
  eigenvalues    EBANDS =    -14419.59106623
  atomic energy  EATOM  =    136002.60505376
  Solvation  Ediel_sol  =         0.00000000
  ---------------------------------------------------
  free energy    TOTEN  =      -405.51087458 eV

  energy without entropy =     -404.18263286  energy(sigma->0) =     -404.84675372


--------------------------------------------------------------------------------------------------------




--------------------------------------- Iteration      1(   5)  ---------------------------------------


     EDDAV:  cpu time    1.9662: real time    1.9730
       DOS:  cpu time    0.0011: real time    0.0010
    CHARGE:  cpu time    0.0393: real time    0.0395
    MIXING:  cpu time    0.0026: real time    0.0028
    --------------------------------------------
      LOOP:  cpu time    2.0091: real time    2.0163

 eigenvalue-minimisations  :  1160
 total energy-change (2. order) :-0.2345265E+01  (-0.2340898E+01)
 number of electron     791.9999524 magnetization 
 augmentation part      286.1251532 magnetization 

 Broyden mixing:
  rms(total) = 0.81931E+01    rms(broyden)= 0.81788E+01
  rms(prec ) = 0.86186E+01
  weight for this iteration     100.00

 Free energy of the ion-electron system (eV)
  ---------------------------------------------------
  alpha Z        PSCENC =      1909.09476555
  Ewald energy   TEWEN  =    162123.67030502
  -Hartree energ DENC   =   -284759.79403412
  -exchange      EXHF   =         0.00000000
  -V(xc)+E(xc)   XCENC  =      3651.81089635
  PAW double counting   =    112729.53333415  -117641.51188735
  entropy T*S    EENTRO =        -1.32952692
  eigenvalues    EBANDS =    -14421.93504584
  atomic energy  EATOM  =    136002.60505376
  Solvation  Ediel_sol  =         0.00000000
  ---------------------------------------------------
  free energy    TOTEN  =      -407.85613939 eV

  energy without entropy =     -406.52661248  energy(sigma->0) =     -407.19137593


--------------------------------------------------------------------------------------------------------




--------------------------------------- Iteration      1(   6)  ---------------------------------------


    POTLOK:  cpu time    0.0425: real time    0.0426
    SETDIJ:  cpu time    0.0045: real time    0.0064
     EDDAV:  cpu time    1.9700: real time    1.9747
       DOS:  cpu time    0.0009: real time    0.0009
    CHARGE:  cpu time    0.0378: real time    0.0379
    MIXING:  cpu time    0.0020: real time    0.0020
    --------------------------------------------
      LOOP:  cpu time    2.0577: real time    2.0645

 eigenvalue-minimisations  :  1176
 total energy-change (2. order) :-0.8454001E+02  (-0.9671922E+02)
 number of electron     791.9999543 magnetization 
 augmentation part      352.9473088 magnetization 

 Broyden mixing:
  rms(total) = 0.15648E+02    rms(broyden)= 0.15644E+02
  rms(prec ) = 0.16352E+02
  weight for this iteration     100.00

 eigenvalues of (default mixing * dielectric matrix)
  average eigenvalue GAMMA=   0.2304
  0.2304

 Free energy of the ion-electron system (eV)
  ---------------------------------------------------
  alpha Z        PSCENC =      1909.09476555
  Ewald energy   TEWEN  =    162123.67030502
  -Hartree energ DENC   =   -281938.27081491
  -exchange      EXHF   =         0.00000000
  -V(xc)+E(xc)   XCENC  =      3574.46199750
  PAW double counting   =    114473.82848091  -119144.75471504
  entropy T*S    EENTRO =        -0.85559702
  eigenvalues    EBANDS =    -17492.17562800
  atomic energy  EATOM  =    136002.60505376
  Solvation  Ediel_sol  =         0.00000000
  ---------------------------------------------------
  free energy    TOTEN  =      -492.39615223 eV

  energy without entropy =     -491.54055521  energy(sigma->0) =     -491.96835372


--------------------------------------------------------------------------------------------------------




--------------------------------------- Iteration      1(   7)  ---------------------------------------


    POTLOK:  cpu time    0.0416: real time    0.0417
    SETDIJ:  cpu time    0.0051: real time    0.0051
     EDDAV:  cpu time    1.9391: real time    1.9438
       DOS:  cpu time    0.0006: real time    0.0006
    CHARGE:  cpu time    0.0388: real time    0.0388
    MIXING:  cpu time    0.0017: real time    0.0017
    --------------------------------------------
      LOOP:  cpu time    2.0269: real time    2.0318

 eigenvalue-minimisations  :  1136
 total energy-change (2. order) : 0.1157209E+03  (-0.1755827E+02)
 number of electron     791.9999523 magnetization 
 augmentation part      331.6715949 magnetization 

 Broyden mixing:
  rms(total) = 0.62528E+01    rms(broyden)= 0.62513E+01
  rms(prec ) = 0.65988E+01
  weight for this iteration     100.00

 eigenvalues of (default mixing * dielectric matrix)
  average eigenvalue GAMMA=   0.4974
  0.4974  0.4974

 Free energy of the ion-electron system (eV)
  ---------------------------------------------------
  alpha Z        PSCENC =      1909.09476555
  Ewald energy   TEWEN  =    162123.67030502
  -Hartree energ DENC   =   -283225.00544228
  -exchange      EXHF   =         0.00000000
  -V(xc)+E(xc)   XCENC  =      3603.97177647
  PAW double counting   =    118610.77928408  -123429.09076389
  entropy T*S    EENTRO =        -0.93659154
  eigenvalues    EBANDS =    -15971.76365631
  atomic energy  EATOM  =    136002.60505376
  Solvation  Ediel_sol  =         0.00000000
  ---------------------------------------------------
  free energy    TOTEN  =      -376.67526914 eV

  energy without entropy =     -375.73867760  energy(sigma->0) =     -376.20697337


--------------------------------------------------------------------------------------------------------




--------------------------------------- Iteration      1(   8)  ---------------------------------------


    POTLOK:  cpu time    0.0434: real time    0.0438
    SETDIJ:  cpu time    0.0050: real time    0.0050
     EDDAV:  cpu time    2.0894: real time    2.0961
       DOS:  cpu time    0.0006: real time    0.0006
    CHARGE:  cpu time    0.0372: real time    0.0373
    MIXING:  cpu time    0.0021: real time    0.0021
    --------------------------------------------
      LOOP:  cpu time    2.1776: real time    2.1850

 eigenvalue-minimisations  :  1240
 total energy-change (2. order) :-0.1143241E+03  (-0.1334163E+02)
 number of electron     791.9999602 magnetization 
 augmentation part      306.2966352 magnetization 

 Broyden mixing:
  rms(total) = 0.16515E+02    rms(broyden)= 0.16512E+02
  rms(prec ) = 0.20722E+02
  weight for this iteration     100.00

 eigenvalues of (default mixing * dielectric matrix)
  average eigenvalue GAMMA=   0.4136
  0.6841  0.4567  0.1000

 Free energy of the ion-electron system (eV)
  ---------------------------------------------------
  alpha Z        PSCENC =      1909.09476555
  Ewald energy   TEWEN  =    162123.67030502
  -Hartree energ DENC   =   -283624.83738335
  -exchange      EXHF   =         0.00000000
  -V(xc)+E(xc)   XCENC  =      3624.59311493
  PAW double counting   =    123653.03012223  -128575.04630849
  entropy T*S    EENTRO =        -0.86922743
  eigenvalues    EBANDS =    -15603.23979148
  atomic energy  EATOM  =    136002.60505376
  Solvation  Ediel_sol  =         0.00000000
  ---------------------------------------------------
  free energy    TOTEN  =      -490.99934925 eV

  energy without entropy =     -490.13012183  energy(sigma->0) =     -490.56473554


--------------------------------------------------------------------------------------------------------




--------------------------------------- Iteration      1(   9)  ---------------------------------------


    POTLOK:  cpu time    0.0425: real time    0.0445
    SETDIJ:  cpu time    0.0046: real time    0.0064
     EDDAV:  cpu time    2.0400: real time    2.0448
       DOS:  cpu time    0.0006: real time    0.0006
    CHARGE:  cpu time    0.0382: real time    0.0383
    MIXING:  cpu time    0.0019: real time    0.0019
    --------------------------------------------
      LOOP:  cpu time    2.1277: real time    2.1364

 eigenvalue-minimisations  :  1216
 total energy-change (2. order) : 0.1083717E+03  (-0.1324533E+02)
 number of electron     791.9999644 magnetization 
 augmentation part      307.7222825 magnetization 

 Broyden mixing:
  rms(total) = 0.87019E+01    rms(broyden)= 0.86966E+01
  rms(prec ) = 0.99883E+01
  weight for this iteration     100.00

 eigenvalues of (default mixing * dielectric matrix)
  average eigenvalue GAMMA=   0.3797
  0.8574  0.4059  0.1689  0.0864

 Free energy of the ion-electron system (eV)
  ---------------------------------------------------
  alpha Z        PSCENC =      1909.09476555
  Ewald energy   TEWEN  =    162123.67030502
  -Hartree energ DENC   =   -283744.24698269
  -exchange      EXHF   =         0.00000000
  -V(xc)+E(xc)   XCENC  =      3625.36132138
  PAW double counting   =    125469.60323082  -130409.87636259
  entropy T*S    EENTRO =        -1.45480827
  eigenvalues    EBANDS =    -15357.38421614
  atomic energy  EATOM  =    136002.60505376
  Solvation  Ediel_sol  =         0.00000000
  ---------------------------------------------------
  free energy    TOTEN  =      -382.62769316 eV

  energy without entropy =     -381.17288489  energy(sigma->0) =     -381.90028902


--------------------------------------------------------------------------------------------------------




--------------------------------------- Iteration      1(  10)  ---------------------------------------


    POTLOK:  cpu time    0.0416: real time    0.0417
    SETDIJ:  cpu time    0.0050: real time    0.0050
     EDDAV:  cpu time    2.1786: real time    2.1837
       DOS:  cpu time    0.0007: real time    0.0007
    CHARGE:  cpu time    0.0500: real time    0.0501
    MIXING:  cpu time    0.0019: real time    0.0019
    --------------------------------------------
      LOOP:  cpu time    2.2778: real time    2.2832

 eigenvalue-minimisations  :  1320
 total energy-change (2. order) : 0.6137496E+01  (-0.7338551E+01)
 number of electron     791.9999522 magnetization 
 augmentation part      308.4879144 magnetization 

 Broyden mixing:
  rms(total) = 0.50437E+01    rms(broyden)= 0.50388E+01
  rms(prec ) = 0.56084E+01
  weight for this iteration     100.00

 eigenvalues of (default mixing * dielectric matrix)
  average eigenvalue GAMMA=   0.4857
  1.4478  0.3918  0.3918  0.0986  0.0986

 Free energy of the ion-electron system (eV)
  ---------------------------------------------------
  alpha Z        PSCENC =      1909.09476555
  Ewald energy   TEWEN  =    162123.67030502
  -Hartree energ DENC   =   -283858.33542145
  -exchange      EXHF   =         0.00000000
  -V(xc)+E(xc)   XCENC  =      3624.82279486
  PAW double counting   =    126737.63748069  -131689.46581958
  entropy T*S    EENTRO =        -1.08858690
  eigenvalues    EBANDS =    -15225.43076923
  atomic energy  EATOM  =    136002.60505376
  Solvation  Ediel_sol  =         0.00000000
  ---------------------------------------------------
  free energy    TOTEN  =      -376.49019729 eV

  energy without entropy =     -375.40161039  energy(sigma->0) =     -375.94590384


--------------------------------------------------------------------------------------------------------




--------------------------------------- Iteration      1(  11)  ---------------------------------------


    POTLOK:  cpu time    0.0421: real time    0.0422
    SETDIJ:  cpu time    0.0049: real time    0.0050
     EDDAV:  cpu time    2.1294: real time    2.1344
       DOS:  cpu time    0.0008: real time    0.0008
    CHARGE:  cpu time    0.0382: real time    0.0383
    MIXING:  cpu time    0.0019: real time    0.0019
    --------------------------------------------
      LOOP:  cpu time    2.2174: real time    2.2226

 eigenvalue-minimisations  :  1288
 total energy-change (2. order) :-0.9608552E+01  (-0.4950554E+01)
 number of electron     791.9999476 magnetization 
 augmentation part      307.0137535 magnetization 

 Broyden mixing:
  rms(total) = 0.89456E+01    rms(broyden)= 0.89418E+01
  rms(prec ) = 0.11038E+02
  weight for this iteration     100.00

 eigenvalues of (default mixing * dielectric matrix)
  average eigenvalue GAMMA=   0.4892
  1.8099  0.4073  0.4073  0.1164  0.1164  0.0777

 Free energy of the ion-electron system (eV)
  ---------------------------------------------------
  alpha Z        PSCENC =      1909.09476555
  Ewald energy   TEWEN  =    162123.67030502
  -Hartree energ DENC   =   -283789.75432807
  -exchange      EXHF   =         0.00000000
  -V(xc)+E(xc)   XCENC  =      3623.44444845
  PAW double counting   =    129521.58993990  -134494.94589849
  entropy T*S    EENTRO =        -1.31835387
  eigenvalues    EBANDS =    -15280.48468118
  atomic energy  EATOM  =    136002.60505376
  Solvation  Ediel_sol  =         0.00000000
  ---------------------------------------------------
  free energy    TOTEN  =      -386.09874893 eV

  energy without entropy =     -384.78039506  energy(sigma->0) =     -385.43957200


--------------------------------------------------------------------------------------------------------




--------------------------------------- Iteration      1(  12)  ---------------------------------------


    POTLOK:  cpu time    0.0419: real time    0.0420
    SETDIJ:  cpu time    0.0049: real time    0.0049
     EDDAV:  cpu time    2.1756: real time    2.1808
       DOS:  cpu time    0.0012: real time    0.0012
    CHARGE:  cpu time    0.0384: real time    0.0385
    MIXING:  cpu time    0.0022: real time    0.0022
    --------------------------------------------
      LOOP:  cpu time    2.2642: real time    2.2695

 eigenvalue-minimisations  :  1312
 total energy-change (2. order) : 0.1652083E+02  (-0.4985414E+01)
 number of electron     791.9999548 magnetization 
 augmentation part      312.0601687 magnetization 

 Broyden mixing:
  rms(total) = 0.38290E+01    rms(broyden)= 0.38245E+01
  rms(prec ) = 0.43267E+01
  weight for this iteration     100.00

 eigenvalues of (default mixing * dielectric matrix)
  average eigenvalue GAMMA=   0.4870
  2.0226  0.4173  0.4173  0.2431  0.1150  0.1150  0.0782

 Free energy of the ion-electron system (eV)
  ---------------------------------------------------
  alpha Z        PSCENC =      1909.09476555
  Ewald energy   TEWEN  =    162123.67030502
  -Hartree energ DENC   =   -283809.98978399
  -exchange      EXHF   =         0.00000000
  -V(xc)+E(xc)   XCENC  =      3621.27045134
  PAW double counting   =    131231.21560870  -136213.14685713
  entropy T*S    EENTRO =        -0.98469971
  eigenvalues    EBANDS =    -15233.31276366
  atomic energy  EATOM  =    136002.60505376
  Solvation  Ediel_sol  =         0.00000000
  ---------------------------------------------------
  free energy    TOTEN  =      -369.57792012 eV

  energy without entropy =     -368.59322041  energy(sigma->0) =     -369.08557026


--------------------------------------------------------------------------------------------------------




--------------------------------------- Iteration      1(  13)  ---------------------------------------


    POTLOK:  cpu time    0.0425: real time    0.0460
    SETDIJ:  cpu time    0.0058: real time    0.0065
     EDDAV:  cpu time    2.1057: real time    2.1107
       DOS:  cpu time    0.0012: real time    0.0012
    CHARGE:  cpu time    0.0380: real time    0.0381
    MIXING:  cpu time    0.0021: real time    0.0021
    --------------------------------------------
      LOOP:  cpu time    2.1953: real time    2.2046

 eigenvalue-minimisations  :  1272
 total energy-change (2. order) : 0.3655151E+01  (-0.1932639E+01)
 number of electron     791.9999549 magnetization 
 augmentation part      312.3615908 magnetization 

 Broyden mixing:
  rms(total) = 0.38964E+01    rms(broyden)= 0.38929E+01
  rms(prec ) = 0.44147E+01
  weight for this iteration     100.00

 eigenvalues of (default mixing * dielectric matrix)
  average eigenvalue GAMMA=   0.4784
  2.1259  0.4312  0.4312  0.3812  0.1538  0.1119  0.1119  0.0797

 Free energy of the ion-electron system (eV)
  ---------------------------------------------------
  alpha Z        PSCENC =      1909.09476555
  Ewald energy   TEWEN  =    162123.67030502
  -Hartree energ DENC   =   -283812.81022996
  -exchange      EXHF   =         0.00000000
  -V(xc)+E(xc)   XCENC  =      3620.96958677
  PAW double counting   =    132186.00250391  -137176.85976861
  entropy T*S    EENTRO =        -1.08645199
  eigenvalues    EBANDS =    -15217.50853381
  atomic energy  EATOM  =    136002.60505376
  Solvation  Ediel_sol  =         0.00000000
  ---------------------------------------------------
  free energy    TOTEN  =      -365.92276936 eV

  energy without entropy =     -364.83631737  energy(sigma->0) =     -365.37954336


--------------------------------------------------------------------------------------------------------




--------------------------------------- Iteration      1(  14)  ---------------------------------------


    POTLOK:  cpu time    0.0419: real time    0.0420
    SETDIJ:  cpu time    0.0049: real time    0.0049
     EDDAV:  cpu time    2.1634: real time    2.1702
       DOS:  cpu time    0.0019: real time    0.0018
    CHARGE:  cpu time    0.0381: real time    0.0382
    MIXING:  cpu time    0.0027: real time    0.0027
    --------------------------------------------
      LOOP:  cpu time    2.2530: real time    2.2600

 eigenvalue-minimisations  :  1296
 total energy-change (2. order) : 0.3179107E+01  (-0.1437851E+01)
 number of electron     791.9999540 magnetization 
 augmentation part      313.6381708 magnetization 

 Broyden mixing:
  rms(total) = 0.27527E+01    rms(broyden)= 0.27501E+01
  rms(prec ) = 0.31503E+01
  weight for this iteration     100.00

 eigenvalues of (default mixing * dielectric matrix)
  average eigenvalue GAMMA=   0.4581
  2.0752  0.4654  0.4654  0.3451  0.3451  0.1177  0.1177  0.1115  0.0796

 Free energy of the ion-electron system (eV)
  ---------------------------------------------------
  alpha Z        PSCENC =      1909.09476555
  Ewald energy   TEWEN  =    162123.67030502
  -Hartree energ DENC   =   -283797.40506365
  -exchange      EXHF   =         0.00000000
  -V(xc)+E(xc)   XCENC  =      3620.75569694
  PAW double counting   =    132594.95806561  -137589.23624377
  entropy T*S    EENTRO =        -1.01587469
  eigenvalues    EBANDS =    -15226.17036752
  atomic energy  EATOM  =    136002.60505376
  Solvation  Ediel_sol  =         0.00000000
  ---------------------------------------------------
  free energy    TOTEN  =      -362.74366275 eV

  energy without entropy =     -361.72778806  energy(sigma->0) =     -362.23572540


--------------------------------------------------------------------------------------------------------




--------------------------------------- Iteration      1(  15)  ---------------------------------------


    POTLOK:  cpu time    0.0422: real time    0.0445
    SETDIJ:  cpu time    0.0051: real time    0.0078
     EDDAV:  cpu time    2.0528: real time    2.0577
       DOS:  cpu time    0.0012: real time    0.0011
    CHARGE:  cpu time    0.0380: real time    0.0381
    MIXING:  cpu time    0.0024: real time    0.0024
    --------------------------------------------
      LOOP:  cpu time    2.1416: real time    2.1516

 eigenvalue-minimisations  :  1232
 total energy-change (2. order) : 0.2434866E+01  (-0.4773846E+00)
 number of electron     791.9999541 magnetization 
 augmentation part      313.5318861 magnetization 

 Broyden mixing:
  rms(total) = 0.20451E+01    rms(broyden)= 0.20438E+01
  rms(prec ) = 0.23170E+01
  weight for this iteration     100.00

 eigenvalues of (default mixing * dielectric matrix)
  average eigenvalue GAMMA=   0.4489
  2.0010  0.5515  0.5515  0.3896  0.3896  0.1675  0.1152  0.1152  0.1290  0.0796

 Free energy of the ion-electron system (eV)
  ---------------------------------------------------
  alpha Z        PSCENC =      1909.09476555
  Ewald energy   TEWEN  =    162123.67030502
  -Hartree energ DENC   =   -283800.89169411
  -exchange      EXHF   =         0.00000000
  -V(xc)+E(xc)   XCENC  =      3621.39070983
  PAW double counting   =    132433.68879346  -137428.42916573
  entropy T*S    EENTRO =        -0.97692665
  eigenvalues    EBANDS =    -15220.46063743
  atomic energy  EATOM  =    136002.60505376
  Solvation  Ediel_sol  =         0.00000000
  ---------------------------------------------------
  free energy    TOTEN  =      -360.30879631 eV

  energy without entropy =     -359.33186965  energy(sigma->0) =     -359.82033298


--------------------------------------------------------------------------------------------------------




--------------------------------------- Iteration      1(  16)  ---------------------------------------


    POTLOK:  cpu time    0.0422: real time    0.0423
    SETDIJ:  cpu time    0.0049: real time    0.0049
     EDDAV:  cpu time    2.0736: real time    2.0787
       DOS:  cpu time    0.0009: real time    0.0009
    CHARGE:  cpu time    0.0426: real time    0.0427
    MIXING:  cpu time    0.0024: real time    0.0024
    --------------------------------------------
      LOOP:  cpu time    2.1665: real time    2.1718

 eigenvalue-minimisations  :  1248
 total energy-change (2. order) : 0.1096919E+01  (-0.2446866E+00)
 number of electron     791.9999538 magnetization 
 augmentation part      313.0373537 magnetization 

 Broyden mixing:
  rms(total) = 0.16754E+01    rms(broyden)= 0.16746E+01
  rms(prec ) = 0.18925E+01
  weight for this iteration     100.00

 eigenvalues of (default mixing * dielectric matrix)
  average eigenvalue GAMMA=   0.4421
  1.9782  0.6276  0.6276  0.3961  0.3961  0.2522  0.1580  0.0796  0.1161  0.1161
  0.1154

 Free energy of the ion-electron system (eV)
  ---------------------------------------------------
  alpha Z        PSCENC =      1909.09476555
  Ewald energy   TEWEN  =    162123.67030502
  -Hartree energ DENC   =   -283809.99438410
  -exchange      EXHF   =         0.00000000
  -V(xc)+E(xc)   XCENC  =      3621.96999482
  PAW double counting   =    132167.70015892  -137161.03400663
  entropy T*S    EENTRO =        -1.00683548
  eigenvalues    EBANDS =    -15212.21692947
  atomic energy  EATOM  =    136002.60505376
  Solvation  Ediel_sol  =         0.00000000
  ---------------------------------------------------
  free energy    TOTEN  =      -359.21187761 eV

  energy without entropy =     -358.20504213  energy(sigma->0) =     -358.70845987


--------------------------------------------------------------------------------------------------------




--------------------------------------- Iteration      1(  17)  ---------------------------------------


    POTLOK:  cpu time    0.0423: real time    0.0424
    SETDIJ:  cpu time    0.0049: real time    0.0049
     EDDAV:  cpu time    2.0629: real time    2.0678
       DOS:  cpu time    0.0009: real time    0.0009
    CHARGE:  cpu time    0.0424: real time    0.0425
    MIXING:  cpu time    0.0025: real time    0.0025
    --------------------------------------------
      LOOP:  cpu time    2.1558: real time    2.1610

 eigenvalue-minimisations  :  1240
 total energy-change (2. order) : 0.4555387E+00  (-0.1208953E+00)
 number of electron     791.9999536 magnetization 
 augmentation part      312.6738070 magnetization 

 Broyden mixing:
  rms(total) = 0.14040E+01    rms(broyden)= 0.14034E+01
  rms(prec ) = 0.15947E+01
  weight for this iteration     100.00

 eigenvalues of (default mixing * dielectric matrix)
  average eigenvalue GAMMA=   0.4439
  1.9587  0.7436  0.7436  0.4120  0.4120  0.3288  0.1767  0.0796  0.1173  0.1173
  0.1185  0.1185

 Free energy of the ion-electron system (eV)
  ---------------------------------------------------
  alpha Z        PSCENC =      1909.09476555
  Ewald energy   TEWEN  =    162123.67030502
  -Hartree energ DENC   =   -283829.13277359
  -exchange      EXHF   =         0.00000000
  -V(xc)+E(xc)   XCENC  =      3622.14576487
  PAW double counting   =    132007.63030587  -136999.15322922
  entropy T*S    EENTRO =        -1.03388671
  eigenvalues    EBANDS =    -15194.58264451
  atomic energy  EATOM  =    136002.60505376
  Solvation  Ediel_sol  =         0.00000000
  ---------------------------------------------------
  free energy    TOTEN  =      -358.75633896 eV

  energy without entropy =     -357.72245224  energy(sigma->0) =     -358.23939560


--------------------------------------------------------------------------------------------------------




--------------------------------------- Iteration      1(  18)  ---------------------------------------


    POTLOK:  cpu time    0.0424: real time    0.0425
    SETDIJ:  cpu time    0.0049: real time    0.0049
     EDDAV:  cpu time    2.1581: real time    2.1632
       DOS:  cpu time    0.0012: real time    0.0012
    CHARGE:  cpu time    0.0425: real time    0.0426
    MIXING:  cpu time    0.0026: real time    0.0026
    --------------------------------------------
      LOOP:  cpu time    2.2516: real time    2.2570

 eigenvalue-minimisations  :  1312
 total energy-change (2. order) : 0.3864734E+00  (-0.4030452E-01)
 number of electron     791.9999536 magnetization 
 augmentation part      312.3359786 magnetization 

 Broyden mixing:
  rms(total) = 0.12080E+01    rms(broyden)= 0.12078E+01
  rms(prec ) = 0.13713E+01
  weight for this iteration     100.00

 eigenvalues of (default mixing * dielectric matrix)
  average eigenvalue GAMMA=   0.4845
  1.9642  1.0474  1.0474  0.4509  0.4509  0.3802  0.2308  0.0796  0.1160  0.1160
  0.1569  0.1396  0.1184

 Free energy of the ion-electron system (eV)
  ---------------------------------------------------
  alpha Z        PSCENC =      1909.09476555
  Ewald energy   TEWEN  =    162123.67030502
  -Hartree energ DENC   =   -283841.83357650
  -exchange      EXHF   =         0.00000000
  -V(xc)+E(xc)   XCENC  =      3622.31358557
  PAW double counting   =    131849.37963911  -136839.06454778
  entropy T*S    EENTRO =        -1.05054747
  eigenvalues    EBANDS =    -15183.48454276
  atomic energy  EATOM  =    136002.60505376
  Solvation  Ediel_sol  =         0.00000000
  ---------------------------------------------------
  free energy    TOTEN  =      -358.36986551 eV

  energy without entropy =     -357.31931804  energy(sigma->0) =     -357.84459178


--------------------------------------------------------------------------------------------------------




--------------------------------------- Iteration      1(  19)  ---------------------------------------


    POTLOK:  cpu time    0.0422: real time    0.0423
    SETDIJ:  cpu time    0.0048: real time    0.0048
     EDDAV:  cpu time    2.0959: real time    2.1009
       DOS:  cpu time    0.0007: real time    0.0007
    CHARGE:  cpu time    0.0426: real time    0.0427
    MIXING:  cpu time    0.0026: real time    0.0026
    --------------------------------------------
      LOOP:  cpu time    2.1888: real time    2.1941

 eigenvalue-minimisations  :  1264
 total energy-change (2. order) : 0.2100132E+00  (-0.6308978E-01)
 number of electron     791.9999529 magnetization 
 augmentation part      312.2486597 magnetization 

 Broyden mixing:
  rms(total) = 0.10892E+01    rms(broyden)= 0.10886E+01
  rms(prec ) = 0.12314E+01
  weight for this iteration     100.00

 eigenvalues of (default mixing * dielectric matrix)
  average eigenvalue GAMMA=   0.5087
  1.9487  1.2677  1.2677  0.4955  0.4955  0.3801  0.3801  0.1815  0.0796  0.1162
  0.1162  0.1525  0.1202  0.1202

 Free energy of the ion-electron system (eV)
  ---------------------------------------------------
  alpha Z        PSCENC =      1909.09476555
  Ewald energy   TEWEN  =    162123.67030502
  -Hartree energ DENC   =   -283851.90294840
  -exchange      EXHF   =         0.00000000
  -V(xc)+E(xc)   XCENC  =      3622.26573292
  PAW double counting   =    131574.07960006  -136558.92795186
  entropy T*S    EENTRO =        -1.04843529
  eigenvalues    EBANDS =    -15177.99597406
  atomic energy  EATOM  =    136002.60505376
  Solvation  Ediel_sol  =         0.00000000
  ---------------------------------------------------
  free energy    TOTEN  =      -358.15985231 eV

  energy without entropy =     -357.11141702  energy(sigma->0) =     -357.63563466


--------------------------------------------------------------------------------------------------------




--------------------------------------- Iteration      1(  20)  ---------------------------------------


    POTLOK:  cpu time    0.0423: real time    0.0424
    SETDIJ:  cpu time    0.0048: real time    0.0048
     EDDAV:  cpu time    2.1620: real time    2.1671
       DOS:  cpu time    0.0008: real time    0.0008
    CHARGE:  cpu time    0.0428: real time    0.0429
    MIXING:  cpu time    0.0029: real time    0.0029
    --------------------------------------------
      LOOP:  cpu time    2.2557: real time    2.2610

 eigenvalue-minimisations  :  1312
 total energy-change (2. order) : 0.2953490E+00  (-0.4877255E-01)
 number of electron     791.9999523 magnetization 
 augmentation part      312.3145038 magnetization 

 Broyden mixing:
  rms(total) = 0.85681E+00    rms(broyden)= 0.85615E+00
  rms(prec ) = 0.95526E+00
  weight for this iteration     100.00

 eigenvalues of (default mixing * dielectric matrix)
  average eigenvalue GAMMA=   0.5268
  1.9612  1.4744  1.4744  0.5483  0.5483  0.4148  0.4148  0.2029  0.0796  0.1162
  0.1162  0.1632  0.1427  0.1185  0.1262

 Free energy of the ion-electron system (eV)
  ---------------------------------------------------
  alpha Z        PSCENC =      1909.09476555
  Ewald energy   TEWEN  =    162123.67030502
  -Hartree energ DENC   =   -283849.43706377
  -exchange      EXHF   =         0.00000000
  -V(xc)+E(xc)   XCENC  =      3622.19508341
  PAW double counting   =    131298.84308146  -136279.17393545
  entropy T*S    EENTRO =        -1.08092114
  eigenvalues    EBANDS =    -15184.58087213
  atomic energy  EATOM  =    136002.60505376
  Solvation  Ediel_sol  =         0.00000000
  ---------------------------------------------------
  free energy    TOTEN  =      -357.86450329 eV

  energy without entropy =     -356.78358215  energy(sigma->0) =     -357.32404272


--------------------------------------------------------------------------------------------------------




--------------------------------------- Iteration      1(  21)  ---------------------------------------


    POTLOK:  cpu time    0.0433: real time    0.0446
    SETDIJ:  cpu time    0.0061: real time    0.0061
     EDDAV:  cpu time    2.2317: real time    2.2370
       DOS:  cpu time    0.0006: real time    0.0006
    CHARGE:  cpu time    0.0381: real time    0.0382
    MIXING:  cpu time    0.0028: real time    0.0028
    --------------------------------------------
      LOOP:  cpu time    2.3226: real time    2.3293

 eigenvalue-minimisations  :  1368
 total energy-change (2. order) : 0.2070804E+00  (-0.3266570E-01)
 number of electron     791.9999527 magnetization 
 augmentation part      312.3619637 magnetization 

 Broyden mixing:
  rms(total) = 0.57085E+00    rms(broyden)= 0.57024E+00
  rms(prec ) = 0.65665E+00
  weight for this iteration     100.00

 eigenvalues of (default mixing * dielectric matrix)
  average eigenvalue GAMMA=   0.5437
  1.9186  1.6392  1.6392  0.6353  0.6353  0.4272  0.4272  0.3448  0.1879  0.0796
  0.1161  0.1161  0.1513  0.1437  0.1189  0.1189

 Free energy of the ion-electron system (eV)
  ---------------------------------------------------
  alpha Z        PSCENC =      1909.09476555
  Ewald energy   TEWEN  =    162123.67030502
  -Hartree energ DENC   =   -283856.57097416
  -exchange      EXHF   =         0.00000000
  -V(xc)+E(xc)   XCENC  =      3622.16694807
  PAW double counting   =    131085.74493457  -136062.63934622
  entropy T*S    EENTRO =        -1.11002138
  eigenvalues    EBANDS =    -15180.61908810
  atomic energy  EATOM  =    136002.60505376
  Solvation  Ediel_sol  =         0.00000000
  ---------------------------------------------------
  free energy    TOTEN  =      -357.65742289 eV

  energy without entropy =     -356.54740151  energy(sigma->0) =     -357.10241220


--------------------------------------------------------------------------------------------------------




--------------------------------------- Iteration      1(  22)  ---------------------------------------


    POTLOK:  cpu time    0.0427: real time    0.0428
    SETDIJ:  cpu time    0.0049: real time    0.0049
[...]
    FORCOR:  cpu time    0.0550: real time    0.0552
    FORHAR:  cpu time    0.0239: real time    0.0240
    MIXING:  cpu time    0.0057: real time    0.0057
    OFIELD:  cpu time    0.0001: real time    0.0001

  FORCE on cell =-STRESS in cart. coord.  units (eV):
  Direction    XX          YY          ZZ          XY          YZ          ZX
  --------------------------------------------------------------------------------------
  Alpha Z  1909.09477  1909.09477  1909.09477
  Ewald  212581.88496211801.74610************    98.27835  -860.19105    90.05727
  Hartree249380.47943248809.10104************   141.51059  -528.68554    43.25644
  E(xc)   -5025.54472 -5026.34702 -5030.69716    -0.28055    -1.40469     0.48310
  Local  ************************463500.70853  -252.10118  1352.36646  -112.07217
  n-local  -681.14300  -686.74750  -693.32141    -1.88605    -5.19581     2.98576
  augment  5786.22962  5797.08847  5808.24725     7.95203    16.28090   -10.64822
  Kinetic 10946.82817 10963.04913 11013.39631    13.50739    35.81215   -22.32141
  Fock        0.00000     0.00000     0.00000     0.00000     0.00000     0.00000
  -------------------------------------------------------------------------------------
  Total     -38.16166   -34.50776   -21.56950     6.98059     8.98243    -8.25923
  in kB     -31.37864   -28.37420   -17.73564     5.73983     7.38585    -6.79120
  external pressure =      -25.83 kB  Pullay stress =        0.00 kB


 VOLUME and BASIS-vectors are now :
 -----------------------------------------------------------------------------
  energy-cutoff  :      450.00
  volume of cell :     1948.51
      direct lattice vectors                 reciprocal lattice vectors
     9.425102554  3.573298043  0.000000000     0.106099641  0.000000000  0.000000000
     0.000000000 10.079732985  0.000000000    -0.037612667  0.099208977  0.000000000
     0.000000000  0.000000000 20.510139882     0.000000000  0.000000000  0.048756372

  length of vectors
    10.079732985 10.079732985 20.510139882     0.106099641  0.106099641  0.048756372


 FORCES acting on ions
    electron-ion (+dipol)            ewald-force                    non-local-force                 convergence-correction
 -----------------------------------------------------------------------------------------------
   0.497E+03 -.144E+03 0.323E+04   -.500E+03 0.146E+03 -.323E+04   0.207E+01 -.107E+01 0.372E+01   0.161E-01 -.313E-02 0.392E-02
   0.425E+03 0.289E+02 0.373E+03   -.427E+03 -.281E+02 -.374E+03   0.154E+01 -.563E+00 0.882E+00   0.124E-01 0.312E-02 -.213E-01
   0.457E+03 0.263E+02 -.238E+04   -.458E+03 -.260E+02 0.238E+04   0.119E+01 -.183E+00 0.776E+00   -.769E-02 0.366E-02 -.361E-01
   0.210E+03 0.151E+03 -.479E+04   -.211E+03 -.155E+03 0.479E+04   0.572E+00 0.361E+01 -.108E+01   -.997E-02 -.549E-02 0.530E-03
   -.182E+03 -.169E+03 0.456E+04   0.173E+03 0.162E+03 -.456E+04   0.833E+01 0.563E+01 -.764E+01   -.122E-01 0.224E-02 0.715E-02
   0.401E+03 -.277E+03 0.242E+04   -.402E+03 0.277E+03 -.242E+04   0.956E+00 -.822E-01 0.163E+01   -.256E-01 -.250E-02 -.851E-02
   0.275E+03 -.955E+02 -.375E+04   -.276E+03 0.946E+02 0.375E+04   0.400E+00 0.737E+00 0.961E+00   0.157E-01 -.126E-02 -.322E-01
   0.423E+03 -.172E+02 -.620E+03   -.424E+03 0.172E+02 0.619E+03   0.135E+01 -.211E-01 0.661E+00   -.191E-02 -.101E-01 -.263E-01
   0.466E+03 0.780E+02 0.141E+04   -.467E+03 -.781E+02 -.141E+04   0.164E+01 0.626E-01 0.177E+01   0.834E-02 0.756E-02 -.335E-02
   0.439E+03 0.320E+02 -.156E+04   -.440E+03 -.320E+02 0.156E+04   0.136E+01 0.401E-01 0.442E+00   0.802E-02 0.211E-02 -.272E-01
   0.359E+03 -.708E+01 -.445E+04   -.362E+03 0.648E+01 0.444E+04   0.218E+01 0.326E+00 0.795E+00   -.229E-02 -.834E-03 -.202E-01
   0.339E+03 0.443E+03 0.423E+04   -.340E+03 -.439E+03 -.423E+04   0.686E+00 -.284E+01 -.429E+00   0.181E-02 0.797E-02 0.101E-01
   -.358E+03 0.624E+03 -.341E+04   0.360E+03 -.626E+03 0.341E+04   -.119E+01 0.214E+01 -.348E+01   -.844E-03 -.340E-02 -.179E-01
   -.379E+03 0.443E+03 0.480E+04   0.373E+03 -.440E+03 -.479E+04   0.629E+01 -.361E+01 -.299E+01   -.483E-02 -.330E-02 0.156E-01
   -.306E+03 0.676E+03 0.256E+04   0.304E+03 -.671E+03 -.256E+04   0.224E+01 -.415E+01 -.754E+00   -.120E-01 0.146E-01 0.840E-03
   -.197E+03 0.476E+03 -.410E+03   0.198E+03 -.476E+03 0.409E+03   -.880E-01 0.998E+00 0.126E+01   -.126E-01 0.133E-01 -.285E-01
   -.169E+03 0.413E+03 0.137E+04   0.168E+03 -.414E+03 -.137E+04   0.290E+00 0.234E+00 0.121E+01   0.767E-02 -.916E-02 -.780E-02
   -.143E+03 0.385E+03 -.157E+04   0.143E+03 -.386E+03 0.157E+04   0.311E+00 0.936E+00 0.212E+00   0.139E-01 0.221E-02 -.336E-01
   0.163E+03 0.392E+03 -.431E+04   -.162E+03 -.390E+03 0.431E+04   -.426E+00 -.190E+01 0.178E+01   0.282E-02 0.259E-02 -.164E-01
   -.947E+02 0.209E+03 0.411E+04   0.952E+02 -.209E+03 -.412E+04   -.585E+00 0.213E+00 0.482E+01   -.868E-02 -.163E-01 0.401E-02
   -.469E+02 0.445E+03 0.344E+04   0.472E+02 -.447E+03 -.344E+04   -.402E+00 0.248E+01 0.372E+01   0.170E-01 0.644E-02 -.220E-02
   -.168E+03 0.420E+03 0.461E+03   0.168E+03 -.422E+03 -.462E+03   0.632E-01 0.108E+01 0.104E+01   0.271E-03 -.460E-02 -.193E-01
   -.190E+03 0.338E+03 -.246E+04   0.190E+03 -.339E+03 0.246E+04   -.744E+00 0.115E+01 -.238E+00   -.135E-01 -.492E-02 -.391E-01
   -.254E+03 -.217E+03 -.475E+04   0.249E+03 0.221E+03 0.474E+04   0.482E+01 -.302E+01 0.105E+02   -.683E-02 -.236E-02 -.484E-02
   -.506E+03 -.387E+03 -.428E+04   0.509E+03 0.386E+03 0.428E+04   -.217E+01 0.861E+00 0.102E+01   0.475E-02 0.467E-02 -.147E-01
   -.224E+03 -.425E+03 0.419E+04   0.222E+03 0.428E+03 -.419E+04   0.208E+01 -.198E+01 0.127E+01   -.413E-02 -.124E-02 0.128E-01
   -.325E+03 -.377E+03 0.138E+04   0.325E+03 0.378E+03 -.138E+04   -.258E+00 -.107E+01 0.234E+00   -.111E-01 -.857E-02 -.864E-02
   -.350E+03 -.434E+03 -.146E+04   0.351E+03 0.435E+03 0.145E+04   -.249E+00 -.966E+00 0.993E+00   -.977E-02 0.122E-02 -.402E-01
   -.637E+02 -.628E+03 0.345E+04   0.640E+02 0.629E+03 -.345E+04   0.193E+00 -.133E+01 0.405E+01   -.455E-02 0.405E-02 0.523E-02
   -.286E+03 -.439E+03 0.410E+03   0.287E+03 0.440E+03 -.411E+03   -.204E+00 -.802E+00 0.866E+00   0.149E-01 -.768E-02 -.111E-01
   -.167E+03 -.394E+03 -.270E+04   0.167E+03 0.394E+03 0.270E+04   0.100E+01 -.683E-01 0.439E+00   0.172E-01 -.229E-02 -.301E-01
   0.368E+03 -.332E+03 -.468E+04   -.358E+03 0.330E+03 0.468E+04   -.839E+01 0.157E+01 0.600E+01   -.409E-02 -.216E-02 -.120E-01
   -.150E+03 0.402E+02 0.464E+04   0.150E+03 -.351E+02 -.464E+04   0.689E-01 -.457E+01 -.576E+00   0.196E-01 0.226E-02 0.476E-02
   -.334E+03 -.340E+03 0.231E+04   0.334E+03 0.341E+03 -.231E+04   0.257E+00 -.973E+00 0.182E+01   0.867E-02 0.191E-02 -.985E-02
   -.324E+03 -.400E+03 -.523E+03   0.324E+03 0.401E+03 0.522E+03   -.377E+00 -.115E+01 0.926E+00   -.665E-02 0.386E-02 -.252E-01
   -.345E+03 -.276E+03 -.361E+04   0.345E+03 0.275E+03 0.361E+04   0.232E+00 0.742E+00 0.123E+01   -.915E-02 0.384E-02 -.219E-01
   -.147E+03 0.517E+00 -.634E+03   0.149E+03 -.477E+00 0.632E+03   -.235E+01 -.245E+00 0.162E+01   0.231E-02 0.415E-02 -.151E-01
   -.889E+02 0.965E+02 -.179E+04   0.891E+02 -.976E+02 0.180E+04   -.980E+00 0.143E+01 -.387E+01   0.528E-02 -.670E-03 -.546E-03
   -.158E+03 0.543E+02 0.149E+04   0.160E+03 -.540E+02 -.149E+04   -.234E+01 -.900E+00 -.980E-01   -.932E-02 0.150E-02 0.112E-01
   -.129E+03 0.146E+02 0.470E+03   0.131E+03 -.145E+02 -.472E+03   -.192E+01 -.169E+00 0.140E+01   -.814E-02 0.555E-02 -.512E-02
   -.120E+03 -.657E+02 0.116E+04   0.122E+03 0.657E+02 -.116E+04   -.199E+01 -.609E-01 0.712E+00   0.781E-02 -.596E-02 0.212E-02
   -.118E+03 -.184E+02 0.580E+02   0.120E+03 0.184E+02 -.593E+02   -.184E+01 -.229E+00 0.120E+01   0.363E-02 -.177E-02 -.572E-02
   -.489E+02 -.192E+02 -.994E+03   0.505E+02 0.199E+02 0.992E+03   -.259E+01 -.373E+00 0.314E+01   -.134E-02 0.175E-02 -.121E-01
   0.738E+01 0.112E+03 -.184E+04   -.753E+01 -.114E+03 0.184E+04   -.145E+01 0.208E+01 -.395E+01   -.142E-02 -.170E-02 0.690E-03
   -.740E+02 -.169E+03 0.193E+04   0.749E+02 0.171E+03 -.194E+04   -.140E+01 -.111E+01 0.508E+01   -.126E-02 -.155E-02 -.411E-02
   -.247E+02 0.766E+02 0.177E+04   0.237E+02 -.772E+02 -.177E+04   0.192E+01 0.143E+01 0.221E+01   0.965E-02 0.180E-02 0.521E-03
   -.149E+03 -.300E+02 0.812E+03   0.151E+03 0.300E+02 -.814E+03   -.126E+01 0.142E+00 0.116E+01   -.265E-02 0.132E-02 -.635E-02
   -.135E+03 -.167E+02 -.292E+03   0.137E+03 0.170E+02 0.290E+03   -.211E+01 -.476E+00 0.140E+01   -.422E-02 -.216E-02 -.111E-01
   -.144E+03 -.996E+02 -.149E+04   0.145E+03 0.100E+03 0.149E+04   -.143E+01 -.654E+00 -.476E-01   -.318E-02 0.535E-02 -.104E-01
   0.168E+03 -.128E+03 0.179E+04   -.170E+03 0.129E+03 -.180E+04   0.238E+01 -.116E+01 0.518E+01   0.595E-02 0.685E-03 0.295E-02
   0.772E+02 -.158E+03 0.629E+03   -.780E+02 0.160E+03 -.629E+03   0.637E+00 -.209E+01 -.360E+00   0.597E-02 -.468E-02 -.318E-02
   0.713E+02 -.160E+03 -.435E+03   -.721E+02 0.162E+03 0.436E+03   0.902E+00 -.209E+01 -.995E+00   -.117E-02 -.242E-02 -.170E-01
   0.268E+02 -.188E+03 -.142E+04   -.281E+02 0.190E+03 0.142E+04   0.185E+01 -.205E+01 -.525E-01   -.252E-02 -.600E-02 -.144E-01
   0.830E+02 -.168E+03 0.319E+03   -.839E+02 0.170E+03 -.318E+03   0.413E+00 -.178E+01 -.163E+01   -.317E-02 0.226E-02 -.180E-02
   0.524E+02 -.129E+03 -.860E+03   -.530E+02 0.131E+03 0.861E+03   0.999E+00 -.227E+01 -.103E+00   0.643E-02 -.913E-03 -.127E-01
   0.796E+02 -.104E+03 0.975E+03   -.800E+02 0.105E+03 -.974E+03   0.677E+00 -.184E+01 -.104E+01   0.526E-02 0.232E-02 0.183E-02
   0.717E+02 -.145E+03 -.881E+02   -.723E+02 0.147E+03 0.890E+02   0.652E+00 -.243E+01 -.103E+01   0.162E-02 0.158E-02 -.750E-02
   0.721E+02 -.132E+03 -.118E+04   -.728E+02 0.134E+03 0.118E+04   0.103E+01 -.207E+01 -.789E-01   -.144E-02 0.742E-03 -.104E-01
   0.141E+03 -.599E+02 0.188E+04   -.142E+03 0.598E+02 -.188E+04   0.202E+01 -.986E+00 0.434E+01   0.264E-02 0.103E-02 -.555E-03
   0.123E+03 -.105E+03 0.188E+04   -.124E+03 0.108E+03 -.189E+04   0.252E+01 -.324E+01 0.385E+01   0.223E-02 -.331E-02 0.327E-02
   0.681E+02 0.148E+03 0.104E+04   -.699E+02 -.150E+03 -.104E+04   0.232E+01 0.187E+01 -.499E+00   0.332E-02 -.338E-04 0.164E-03
   0.102E+03 0.137E+03 0.272E+02   -.104E+03 -.139E+03 -.272E+02   0.161E+01 0.192E+01 -.567E-01   -.170E-02 0.502E-02 -.103E-01
   0.997E+02 0.177E+03 -.104E+04   -.102E+03 -.180E+03 0.104E+04   0.219E+01 0.218E+01 0.591E+00   -.615E-02 0.274E-02 -.983E-02
   -.680E+02 0.271E+03 -.184E+04   0.681E+02 -.274E+03 0.184E+04   -.219E+00 0.432E+01 -.359E+01   -.168E-02 -.101E-03 0.693E-02
   0.102E+03 0.107E+03 -.386E+03   -.104E+03 -.110E+03 0.386E+03   0.168E+01 0.231E+01 0.333E+00   0.129E-02 -.439E-02 -.154E-01
   0.669E+02 -.500E+01 -.154E+04   -.676E+02 0.473E+01 0.154E+04   0.136E+01 0.632E+00 -.104E+01   0.641E-02 -.728E-03 -.893E-02
   0.828E+02 0.132E+02 0.174E+04   -.832E+02 -.138E+02 -.174E+04   -.187E-01 0.130E+01 0.253E+01   -.989E-02 0.358E-02 -.470E-03
   0.116E+03 0.105E+03 0.704E+03   -.118E+03 -.107E+03 -.704E+03   0.190E+01 0.182E+01 0.111E+00   -.469E-02 -.959E-02 -.105E-02
   0.126E+03 0.114E+03 0.156E+04   -.126E+03 -.114E+03 -.156E+04   -.627E+00 0.832E+00 0.209E+01   0.644E-02 0.339E-02 0.242E-02
   0.126E+03 0.123E+03 0.372E+03   -.128E+03 -.125E+03 -.372E+03   0.199E+01 0.211E+01 0.447E+00   0.508E-02 0.169E-02 -.388E-02
   0.132E+03 0.128E+03 -.744E+03   -.134E+03 -.130E+03 0.743E+03   0.161E+01 0.226E+01 0.128E+00   0.545E-03 -.270E-02 -.106E-01
   0.117E+03 -.302E+02 -.172E+04   -.118E+03 0.300E+02 0.172E+04   0.110E+01 0.503E+00 -.589E+00   -.999E-02 -.336E-03 -.727E-02
 -----------------------------------------------------------------------------------------------
   -.343E+02 0.672E+01 -.557E+02   0.739E-12 0.163E-12 0.118E-10   0.343E+02 -.661E+01 0.563E+02   0.872E-02 -.413E-02 -.627E+00
 
 
 POSITION                                       TOTAL-FORCE (eV/Angst)
 -----------------------------------------------------------------------------------
      3.52812      8.91113      1.95077        -0.185739      0.412582     -0.250404
      4.94442      7.93342      4.57627         0.014677      0.174392      0.130398
      6.36071      6.95571      7.20177         0.179048      0.048983      0.019708
      7.77701      5.97799      9.82727        -0.537061     -0.663235     -0.218223
      5.72562      4.03422      0.20043        -0.632765     -1.154738      1.239142
      7.14192      3.05650      2.82594        -0.365758     -0.255032     -0.062411
      0.54941      7.60751      8.07694        -0.540425     -0.167675     -0.420549
      8.55821     12.15852      5.45144         0.049875     -0.026887      0.069199
      1.33062      3.70831      3.70110        -0.073855      0.028149     -0.061629
      2.74691      2.73060      6.32660         0.180169      0.045393      0.008772
      4.16321      1.75289      8.95211        -0.765906     -0.278775     -0.405266
      9.33942      8.25932      1.07560         0.205317      0.705574      0.540522
      0.09369      1.20229      8.43993         0.132868     -0.029096      0.782194
      5.26990      7.70873      0.56342        -0.523020     -0.099875      1.157289
      6.68620      6.73101      3.18892        -0.284504      0.483954      0.263886
      8.10249      5.75330      5.81443         0.014668      0.157959      0.016395
      0.87489      7.38282      4.06409         0.046565     -0.244381     -0.170024
      2.29119      6.40511      6.68959        -0.132008      0.055806      0.223924
      3.70749      5.42740      9.31510         0.553346      0.696913     -0.639690
      8.88370     11.93383      1.43859        -0.051326      0.280508     -0.666801
      3.07240      2.50591      2.31376        -0.115496     -0.130592     -0.357146
      4.48869     11.60793      4.93926        -0.006051     -0.087567     -0.043617
      5.90499     10.63022      7.56476         0.015055      0.210207      0.359798
      7.32128      9.65250     10.19026        -0.789320      0.219399     -1.933346
      0.46788      3.60710      9.13360         0.483796      0.023232     -0.737847
      5.64409     10.11353      1.25709        -0.385051      0.784172      0.371046
      7.06039      9.13582      3.88260        -0.126317      0.197274      0.019279
      8.47669      8.15811      6.50810         0.077051     -0.146089      0.027953
      9.25789      4.25891      2.13226         0.549144     -0.187335     -0.616793
      1.24909      9.78763      4.75776         0.045076      0.018731     -0.044381
      2.66538      8.80992      7.38327         0.405639     -0.103844     -0.405760
      4.08168      7.83221     10.00877         1.613626     -0.415011     -1.401892
      2.03029      5.88843      0.38193        -0.254820      0.623456      0.637253
      3.44659      4.91072      3.00743        -0.046274      0.022716     -0.155752
      4.86289      3.93300      5.63293         0.043628     -0.089411      0.005745
      6.27918      2.95529      8.25843         0.479359      0.019628     -0.544317
      0.60152      2.86980      7.00134        -0.228390     -0.202235      0.015607
      2.01782      1.89209      9.62684        -0.766453      0.320114      0.311379
      7.19404      8.39852      1.75033        -0.240007     -0.600378     -1.535907
      8.61033      7.42081      4.37584        -0.172943      0.030055     -0.174054
      1.38273      9.05033      2.62550         0.042149     -0.114015      0.034796
      2.79903      8.07262      5.25100        -0.064190     -0.203284     -0.116210
      4.21532      7.09490      7.87651        -0.996468      0.368046      0.897639
      5.63162      6.11719     10.50201        -1.601111      0.101900      0.241022
      9.39154     13.60134      0.00000        -0.432588      0.174166      1.304823
      3.58024      4.17341      0.87517         0.974320      0.756187     -1.041947
      4.99653      3.19570      3.50067         0.365958      0.095581     -0.356729
      6.41283     12.29772      6.12617        -0.189158     -0.170498     -0.001450
      7.82912     11.32001      8.75167        -0.396441     -0.216866      0.963018
      3.55982     10.90733      0.89143         0.732973     -0.432856      0.268117
      4.97612      9.92962      3.51693        -0.135997     -0.373285      0.098447
      6.39241      8.95190      6.14243         0.086615     -0.154626     -0.084372
      7.80871      7.97419      8.76794         0.589105     -0.120764      1.255023
      8.58992      4.07499      4.39210        -0.464345      0.217592     -0.993187
      0.58111      9.60371      7.01760         0.438119     -0.480700      0.723998
      1.36232      5.70451      2.64176         0.279941     -0.546935     -0.128179
      2.77861      4.72680      5.26727        -0.010604     -0.087560     -0.161830
      4.19491      3.74909      7.89277         0.335218     -0.413614      1.105432
      9.37112     10.25552      0.01626         0.925439     -1.048698      0.519438
      3.08334      7.84514      0.00813         1.025495     -0.650552     -0.004648
      4.49963      6.86742      2.63363         0.473271      0.035450     -0.146787
      5.91593      5.88971      5.25914         0.033984     -0.192081     -0.085075
      7.33222      4.91200      7.88464         0.237036     -0.102303      0.149459
      8.74852      3.93429     10.51014        -0.134295      1.495054     -1.200932
      0.10463      6.54152      6.13430         0.131140      0.087135      0.025803
      1.52092      5.56381      8.75980         0.680078      0.363644      0.735043
      6.69714     12.07024      0.88330        -0.453935      0.731577     -0.125062
      8.11343     11.09253      3.50880         0.358244      0.050983      0.104896
      0.88583      2.64232      1.75847        -1.027572      0.042160      0.049518
      2.30213      1.66461      4.38397         0.205620     -0.022381      0.075059
      3.71843     10.76663      7.00947         0.027533     -0.130517      0.032866
      5.13472      9.78891      9.63497         0.099047      0.265018      0.508329
 -----------------------------------------------------------------------------------
    total drift:                                0.041412      0.105382     -0.034151


--------------------------------------------------------------------------------------------------------



  FREE ENERGIE OF THE ION-ELECTRON SYSTEM (eV)
  ---------------------------------------------------
  free  energy   TOTEN  =      -357.50799785 eV

  energy  without entropy=     -356.37690523  energy(sigma->0) =     -356.94245154
 


--------------------------------------------------------------------------------------------------------


    POTLOK:  cpu time    0.0478: real time    0.0480


--------------------------------------------------------------------------------------------------------


     LOOP+:  cpu time   90.8256: real time   91.1519
    4ORBIT:  cpu time    0.0000: real time    0.0000

 total amount of memory used by VASP MPI-rank0    45306. kBytes
=======================================================================

   base      :      30000. kBytes
   nonlr-proj:       2307. kBytes
   fftplans  :       3383. kBytes
   grid      :       6052. kBytes
   one-center:         93. kBytes
   wavefun   :       3471. kBytes
 
  
  
 General timing and accounting informations for this job:
 ========================================================
  
                  Total CPU time used (sec):       92.882
                            User time (sec):       92.167
                          System time (sec):        0.715
                         Elapsed time (sec):       93.621
  
                   Maximum memory used (kb):      230536.
                   Average memory used (kb):           0.
  
                          Minor page faults:        87069
                          Major page faults:            0
                 Voluntary context switches:         1061
