  72  72   0   0
  0.3631948E+02  0.1688469E-08  0.9578410E-09  0.1616909E-08  0.5000000E-15
  1.000000000000000E-004
  CAR 
 "Millerite NiS"                         
      9.30745043    -68.64180133  301     -0.17988456      1.00000000
    -68.642  0.0000E+00  0.0000E+00
    -68.382  0.0000E+00  0.0000E+00
    -68.122  0.0000E+00  0.0000E+00
    -67.862  0.0000E+00  0.0000E+00
    -67.602  0.0000E+00  0.0000E+00
    -67.343  0.0000E+00  0.0000E+00
    -67.083  0.0000E+00  0.0000E+00
    -66.823  0.0000E+00  0.0000E+00
    -66.563  0.0000E+00  0.0000E+00
    -66.303  0.0000E+00  0.0000E+00
    -66.043  0.1072E-09  0.2785E-10
    -65.784  0.6591E-05  0.1713E-05
    -65.524  0.1749E-01  0.4546E-02
    -65.264  0.2506E+01  0.6557E+00
    -65.004  0.3459E+02  0.9644E+01
    -64.744  0.1217E+03  0.4127E+02
    -64.485  0.2017E+03  0.9366E+02
    -64.225  0.2038E+03  0.1466E+03
    -63.965  0.1413E+03  0.1833E+03
    -63.705  0.7257E+02  0.2022E+03
    -63.445  0.3584E+02  0.2115E+03
    -63.185  0.1402E+02  0.2151E+03
    -62.926  0.3164E+01  0.2160E+03
    -62.666  0.1218E+00  0.2160E+03
    -62.406  0.2554E-03  0.2160E+03
    -62.146  0.2179E-07  0.2160E+03
    -61.886  0.7008E-13  0.2160E+03
    -61.626  0.0000E+00  0.2160E+03
    -61.367  0.0000E+00  0.2160E+03
    -61.107  0.0000E+00  0.2160E+03
    -60.847  0.0000E+00  0.2160E+03
    -60.587  0.0000E+00  0.2160E+03
    -60.327  0.0000E+00  0.2160E+03
    -60.067  0.0000E+00  0.2160E+03
    -59.808  0.0000E+00  0.2160E+03
    -59.548  0.0000E+00  0.2160E+03
    -59.288  0.0000E+00  0.2160E+03
    -59.028  0.0000E+00  0.2160E+03
    -58.768  0.0000E+00  0.2160E+03
    -58.508  0.0000E+00  0.2160E+03
    -58.249  0.0000E+00  0.2160E+03
    -57.989  0.0000E+00  0.2160E+03
    -57.729  0.0000E+00  0.2160E+03
    -57.469  0.0000E+00  0.2160E+03
    -57.209  0.0000E+00  0.2160E+03
    -56.949  0.0000E+00  0.2160E+03
    -56.690  0.0000E+00  0.2160E+03
    -56.430  0.0000E+00  0.2160E+03
    -56.170  0.0000E+00  0.2160E+03
    -55.910  0.0000E+00  0.2160E+03
    -55.650  0.0000E+00  0.2160E+03
    -55.390  0.0000E+00  0.2160E+03
    -55.131  0.0000E+00  0.2160E+03
    -54.871  0.0000E+00  0.2160E+03
    -54.611  0.0000E+00  0.2160E+03
    -54.351  0.0000E+00  0.2160E+03
    -54.091  0.0000E+00  0.2160E+03
    -53.831  0.0000E+00  0.2160E+03
    -53.572  0.0000E+00  0.2160E+03
    -53.312  0.0000E+00  0.2160E+03
    -53.052  0.0000E+00  0.2160E+03
    -52.792  0.0000E+00  0.2160E+03
    -52.532  0.0000E+00  0.2160E+03
    -52.272  0.0000E+00  0.2160E+03
    -52.013  0.0000E+00  0.2160E+03
    -51.753  0.0000E+00  0.2160E+03
    -51.493  0.0000E+00  0.2160E+03
    -51.233  0.0000E+00  0.2160E+03
    -50.973  0.0000E+00  0.2160E+03
    -50.713  0.0000E+00  0.2160E+03
    -50.454  0.0000E+00  0.2160E+03
    -50.194  0.0000E+00  0.2160E+03
    -49.934  0.0000E+00  0.2160E+03
    -49.674  0.0000E+00  0.2160E+03
    -49.414  0.0000E+00  0.2160E+03
    -49.154  0.0000E+00  0.2160E+03
    -48.895  0.0000E+00  0.2160E+03
    -48.635  0.0000E+00  0.2160E+03
    -48.375  0.0000E+00  0.2160E+03
    -48.115  0.0000E+00  0.2160E+03
    -47.855  0.0000E+00  0.2160E+03
    -47.596  0.0000E+00  0.2160E+03
    -47.336  0.0000E+00  0.2160E+03
    -47.076  0.0000E+00  0.2160E+03
    -46.816  0.0000E+00  0.2160E+03
    -46.556  0.0000E+00  0.2160E+03
    -46.296  0.0000E+00  0.2160E+03
    -46.037  0.0000E+00  0.2160E+03
    -45.777  0.0000E+00  0.2160E+03
    -45.517  0.0000E+00  0.2160E+03
    -45.257  0.0000E+00  0.2160E+03
    -44.997  0.0000E+00  0.2160E+03
    -44.737  0.0000E+00  0.2160E+03
    -44.478  0.0000E+00  0.2160E+03
    -44.218  0.0000E+00  0.2160E+03
    -43.958  0.0000E+00  0.2160E+03
    -43.698  0.0000E+00  0.2160E+03
    -43.438  0.0000E+00  0.2160E+03
    -43.178  0.0000E+00  0.2160E+03
    -42.919  0.0000E+00  0.2160E+03
    -42.659  0.0000E+00  0.2160E+03
    -42.399  0.0000E+00  0.2160E+03
    -42.139  0.0000E+00  0.2160E+03
    -41.879  0.0000E+00  0.2160E+03
    -41.619  0.0000E+00  0.2160E+03
    -41.360  0.0000E+00  0.2160E+03
    -41.100  0.0000E+00  0.2160E+03
    -40.840  0.0000E+00  0.2160E+03
    -40.580  0.0000E+00  0.2160E+03
    -40.320  0.0000E+00  0.2160E+03
    -40.060  0.0000E+00  0.2160E+03
    -39.801  0.0000E+00  0.2160E+03
    -39.541  0.0000E+00  0.2160E+03
    -39.281  0.0000E+00  0.2160E+03
    -39.021  0.0000E+00  0.2160E+03
    -38.761  0.0000E+00  0.2160E+03
    -38.501  0.0000E+00  0.2160E+03
    -38.242  0.0000E+00  0.2160E+03
    -37.982  0.0000E+00  0.2160E+03
    -37.722  0.0000E+00  0.2160E+03
    -37.462  0.0000E+00  0.2160E+03
    -37.202  0.0000E+00  0.2160E+03
    -36.942  0.0000E+00  0.2160E+03
    -36.683  0.0000E+00  0.2160E+03
    -36.423  0.0000E+00  0.2160E+03
    -36.163  0.0000E+00  0.2160E+03
    -35.903  0.0000E+00  0.2160E+03
    -35.643  0.0000E+00  0.2160E+03
    -35.383  0.0000E+00  0.2160E+03
    -35.124  0.0000E+00  0.2160E+03
    -34.864  0.0000E+00  0.2160E+03
    -34.604  0.0000E+00  0.2160E+03
    -34.344  0.0000E+00  0.2160E+03
    -34.084  0.0000E+00  0.2160E+03
    -33.824  0.0000E+00  0.2160E+03
    -33.565  0.0000E+00  0.2160E+03
    -33.305  0.0000E+00  0.2160E+03
    -33.045  0.0000E+00  0.2160E+03
    -32.785  0.0000E+00  0.2160E+03
    -32.525  0.0000E+00  0.2160E+03
    -32.265  0.0000E+00  0.2160E+03
    -32.006  0.0000E+00  0.2160E+03
    -31.746  0.0000E+00  0.2160E+03
    -31.486  0.0000E+00  0.2160E+03
    -31.226  0.0000E+00  0.2160E+03
    -30.966  0.0000E+00  0.2160E+03
    -30.706  0.0000E+00  0.2160E+03
    -30.447  0.0000E+00  0.2160E+03
    -30.187  0.0000E+00  0.2160E+03
    -29.927  0.0000E+00  0.2160E+03
    -29.667  0.0000E+00  0.2160E+03
    -29.407  0.0000E+00  0.2160E+03
    -29.148  0.0000E+00  0.2160E+03
    -28.888  0.0000E+00  0.2160E+03
    -28.628  0.0000E+00  0.2160E+03
    -28.368  0.0000E+00  0.2160E+03
    -28.108  0.0000E+00  0.2160E+03
    -27.848  0.0000E+00  0.2160E+03
    -27.589  0.0000E+00  0.2160E+03
    -27.329  0.0000E+00  0.2160E+03
    -27.069  0.0000E+00  0.2160E+03
    -26.809  0.0000E+00  0.2160E+03
    -26.549  0.0000E+00  0.2160E+03
    -26.289  0.0000E+00  0.2160E+03
    -26.030  0.0000E+00  0.2160E+03
    -25.770  0.0000E+00  0.2160E+03
    -25.510  0.0000E+00  0.2160E+03
    -25.250  0.0000E+00  0.2160E+03
    -24.990  0.0000E+00  0.2160E+03
    -24.730  0.0000E+00  0.2160E+03
    -24.471  0.0000E+00  0.2160E+03
    -24.211  0.0000E+00  0.2160E+03
    -23.951  0.0000E+00  0.2160E+03
    -23.691  0.0000E+00  0.2160E+03
    -23.431  0.0000E+00  0.2160E+03
    -23.171  0.0000E+00  0.2160E+03
    -22.912  0.0000E+00  0.2160E+03
    -22.652  0.0000E+00  0.2160E+03
    -22.392  0.0000E+00  0.2160E+03
    -22.132  0.0000E+00  0.2160E+03
    -21.872  0.0000E+00  0.2160E+03
    -21.612  0.0000E+00  0.2160E+03
    -21.353  0.0000E+00  0.2160E+03
    -21.093  0.0000E+00  0.2160E+03
    -20.833  0.0000E+00  0.2160E+03
    -20.573  0.0000E+00  0.2160E+03
    -20.313  0.0000E+00  0.2160E+03
    -20.053  0.0000E+00  0.2160E+03
    -19.794  0.0000E+00  0.2160E+03
    -19.534  0.0000E+00  0.2160E+03
    -19.274  0.0000E+00  0.2160E+03
    -19.014  0.0000E+00  0.2160E+03
    -18.754  0.0000E+00  0.2160E+03
    -18.494  0.0000E+00  0.2160E+03
    -18.235  0.0000E+00  0.2160E+03
    -17.975  0.0000E+00  0.2160E+03
    -17.715  0.6167E-11  0.2160E+03
    -17.455  0.6593E-06  0.2160E+03
    -17.195  0.2682E-02  0.2160E+03
    -16.935  0.4604E+00  0.2161E+03
    -16.676  0.4265E+01  0.2172E+03
    -16.416  0.4298E+01  0.2183E+03
    -16.156  0.8730E+01  0.2206E+03
    -15.896  0.1048E+02  0.2233E+03
    -15.636  0.1249E+02  0.2266E+03
    -15.376  0.1485E+02  0.2304E+03
    -15.117  0.1700E+02  0.2349E+03
    -14.857  0.2476E+02  0.2413E+03
    -14.597  0.2892E+02  0.2488E+03
    -14.337  0.3257E+02  0.2573E+03
    -14.077  0.2143E+02  0.2628E+03
    -13.817  0.1871E+02  0.2677E+03
    -13.558  0.2065E+02  0.2731E+03
    -13.298  0.2401E+02  0.2793E+03
    -13.038  0.1757E+02  0.2839E+03
    -12.778  0.1290E+02  0.2872E+03
    -12.518  0.2937E+01  0.2880E+03
    -12.259  0.7332E-01  0.2880E+03
    -11.999  0.1031E-03  0.2880E+03
    -11.739  0.5998E-08  0.2880E+03
    -11.479  0.1367E-13  0.2880E+03
    -11.219  0.0000E+00  0.2880E+03
    -10.959  0.0000E+00  0.2880E+03
    -10.700  0.0000E+00  0.2880E+03
    -10.440  0.0000E+00  0.2880E+03
    -10.180  0.0000E+00  0.2880E+03
     -9.920  0.0000E+00  0.2880E+03
     -9.660  0.0000E+00  0.2880E+03
     -9.400  0.4931E-10  0.2880E+03
     -9.141  0.3130E-05  0.2880E+03
     -8.881  0.7814E-02  0.2880E+03
     -8.621  0.9220E+00  0.2882E+03
     -8.361  0.7990E+01  0.2903E+03
     -8.101  0.1315E+02  0.2937E+03
     -7.841  0.2459E+02  0.3001E+03
     -7.582  0.3266E+02  0.3086E+03
     -7.322  0.3499E+02  0.3177E+03
     -7.062  0.3686E+02  0.3273E+03
     -6.802  0.3343E+02  0.3360E+03
     -6.542  0.3824E+02  0.3459E+03
     -6.282  0.5047E+02  0.3590E+03
     -6.023  0.5460E+02  0.3732E+03
     -5.763  0.5448E+02  0.3874E+03
     -5.503  0.5072E+02  0.4005E+03
     -5.243  0.5454E+02  0.4147E+03
     -4.983  0.6066E+02  0.4305E+03
     -4.723  0.6310E+02  0.4469E+03
     -4.464  0.5705E+02  0.4617E+03
     -4.204  0.4807E+02  0.4742E+03
     -3.944  0.4211E+02  0.4851E+03
     -3.684  0.4806E+02  0.4976E+03
     -3.424  0.5821E+02  0.5127E+03
     -3.164  0.6701E+02  0.5301E+03
     -2.905  0.8296E+02  0.5517E+03
     -2.645  0.9560E+02  0.5765E+03
     -2.385  0.1112E+03  0.6054E+03
     -2.125  0.1183E+03  0.6362E+03
     -1.865  0.1179E+03  0.6668E+03
     -1.605  0.1050E+03  0.6941E+03
     -1.346  0.9588E+02  0.7190E+03
     -1.086  0.8138E+02  0.7401E+03
     -0.826  0.6289E+02  0.7565E+03
     -0.566  0.5818E+02  0.7716E+03
     -0.306  0.5334E+02  0.7855E+03
     -0.046  0.5398E+02  0.7995E+03
      0.213  0.5276E+02  0.8132E+03
      0.473  0.4183E+02  0.8241E+03
      0.733  0.4012E+02  0.8345E+03
      0.993  0.4127E+02  0.8452E+03
      1.253  0.3819E+02  0.8551E+03
      1.513  0.2627E+02  0.8620E+03
      1.772  0.7623E+01  0.8639E+03
      2.032  0.1923E+01  0.8644E+03
      2.292  0.8840E+01  0.8667E+03
      2.552  0.5387E+01  0.8681E+03
      2.812  0.6051E+01  0.8697E+03
      3.072  0.1092E+02  0.8725E+03
      3.331  0.1243E+02  0.8758E+03
      3.591  0.1132E+02  0.8787E+03
      3.851  0.1650E+02  0.8830E+03
      4.111  0.1962E+02  0.8881E+03
      4.371  0.2529E+02  0.8947E+03
      4.630  0.3523E+02  0.9038E+03
      4.890  0.3670E+02  0.9134E+03
      5.150  0.4104E+02  0.9240E+03
      5.410  0.4233E+02  0.9350E+03
      5.670  0.4286E+02  0.9462E+03
      5.930  0.2051E+02  0.9515E+03
      6.189  0.1972E+01  0.9520E+03
      6.449  0.1612E-01  0.9520E+03
      6.709  0.6661E-05  0.9520E+03
      6.969  0.1128E-09  0.9520E+03
      7.229  0.0000E+00  0.9520E+03
      7.489  0.0000E+00  0.9520E+03
      7.748  0.0000E+00  0.9520E+03
      8.008  0.0000E+00  0.9520E+03
      8.268  0.0000E+00  0.9520E+03
      8.528  0.0000E+00  0.9520E+03
      8.788  0.0000E+00  0.9520E+03
      9.048  0.0000E+00  0.9520E+03
      9.307  0.0000E+00  0.9520E+03
