       N       E                     dE             d eps       ncg     rms          rms(c)
DAV:   1     0.991367356296E+04    0.99137E+04   -0.51326E+05  1160   0.165E+03
DAV:   2     0.606097093246E+03   -0.93076E+04   -0.89757E+04  1012   0.531E+02
DAV:   3    -0.340452298858E+03   -0.94655E+03   -0.89900E+03  1088   0.184E+02
DAV:   4    -0.398225732618E+03   -0.57773E+02   -0.57127E+02  1120   0.410E+01
DAV:   5    -0.400287187444E+03   -0.20615E+01   -0.20583E+01  1224   0.822E+00    0.954E+01
DAV:   6    -0.464617467486E+03   -0.64330E+02   -0.91957E+02  1184   0.124E+02    0.154E+02
DAV:   7    -0.370024171459E+03    0.94593E+02   -0.20755E+02  1064   0.813E+01    0.689E+01
DAV:   8    -0.418881212391E+03   -0.48857E+02   -0.20737E+02  1272   0.955E+01    0.123E+02
DAV:   9    -0.381004196865E+03    0.37877E+02   -0.16804E+02  1244   0.696E+01    0.674E+01
DAV:  10    -0.393418548898E+03   -0.12414E+02   -0.91612E+01  1256   0.596E+01    0.712E+01
DAV:  11    -0.376174895123E+03    0.17244E+02   -0.50226E+01  1224   0.522E+01    0.547E+01
DAV:  12    -0.377241714632E+03   -0.10668E+01   -0.51955E+01  1320   0.474E+01    0.653E+01
DAV:  13    -0.364070071812E+03    0.13172E+02   -0.38930E+01  1288   0.298E+01    0.343E+01
DAV:  14    -0.358511741648E+03    0.55583E+01   -0.11029E+01  1320   0.223E+01    0.251E+01
DAV:  15    -0.355905631106E+03    0.26061E+01   -0.54267E+00  1320   0.144E+01    0.214E+01
DAV:  16    -0.355110027282E+03    0.79560E+00   -0.20591E+00  1272   0.790E+00    0.194E+01
DAV:  17    -0.354320319825E+03    0.78971E+00   -0.44728E-01  1304   0.389E+00    0.180E+01
DAV:  18    -0.353855588877E+03    0.46473E+00   -0.33344E-01  1304   0.369E+00    0.166E+01
DAV:  19    -0.352959782848E+03    0.89581E+00   -0.26380E-01  1416   0.399E+00    0.145E+01
DAV:  20    -0.351935342611E+03    0.10244E+01   -0.49587E-01  1320   0.520E+00    0.109E+01
DAV:  21    -0.351298115256E+03    0.63723E+00   -0.67624E-01  1312   0.569E+00    0.709E+00
DAV:  22    -0.351100765937E+03    0.19735E+00   -0.45065E-01  1304   0.361E+00    0.444E+00
DAV:  23    -0.351118766341E+03   -0.18000E-01   -0.22680E-01  1208   0.279E+00    0.445E+00
DAV:  24    -0.351059892290E+03    0.58874E-01   -0.23134E-01  1288   0.328E+00    0.279E+00
DAV:  25    -0.351091946563E+03   -0.32054E-01   -0.26248E-01  1192   0.295E+00    0.367E+00
DAV:  26    -0.351046287981E+03    0.45659E-01   -0.19283E-01  1336   0.298E+00    0.189E+00
DAV:  27    -0.351043923832E+03    0.23641E-02   -0.48708E-02  1320   0.135E+00    0.184E+00
DAV:  28    -0.351028354471E+03    0.15569E-01   -0.22705E-02  1176   0.110E+00    0.917E-01
DAV:  29    -0.351026859320E+03    0.14952E-02   -0.10086E-02  1296   0.583E-01    0.775E-01
DAV:  30    -0.351024917058E+03    0.19423E-02   -0.66166E-03  1280   0.562E-01    0.416E-01
DAV:  31    -0.351025752152E+03   -0.83509E-03   -0.44276E-03  1064   0.441E-01    0.505E-01
DAV:  32    -0.351025222462E+03    0.52969E-03   -0.26569E-03  1064   0.359E-01    0.324E-01
DAV:  33    -0.351025487334E+03   -0.26487E-03   -0.13171E-03  1024   0.239E-01    0.308E-01
DAV:  34    -0.351025420366E+03    0.66968E-04   -0.11372E-03  1048   0.255E-01    0.159E-01
DAV:  35    -0.351025549433E+03   -0.12907E-03   -0.38643E-04   800   0.138E-01    0.119E-01
DAV:  36    -0.351025720065E+03   -0.17063E-03   -0.17681E-04   592   0.998E-02    0.105E-01
DAV:  37    -0.351025975463E+03   -0.25540E-03   -0.12314E-04   592   0.666E-02    0.101E-01
DAV:  38    -0.351026251299E+03   -0.27584E-03   -0.11010E-04   592   0.704E-02    0.474E-02
DAV:  39    -0.351026517432E+03   -0.26613E-03   -0.52720E-05   584   0.519E-02    0.471E-02
DAV:  40    -0.351026656994E+03   -0.13956E-03   -0.50303E-05   592   0.402E-02    0.573E-02
DAV:  41    -0.351026939378E+03   -0.28238E-03   -0.50073E-05   584   0.343E-02    0.464E-02
DAV:  42    -0.351027177655E+03   -0.23828E-03   -0.37249E-05   584   0.367E-02    0.419E-02
DAV:  43    -0.351027474851E+03   -0.29720E-03   -0.30746E-05   600   0.351E-02    0.235E-02
DAV:  44    -0.351027521713E+03   -0.46862E-04   -0.29958E-05   592   0.203E-02
   1 F= -.35102752E+03 E0= -.35053804E+03  d E =-.978970E+00
