 vasp.6.1.0 28Jan20 (build Mar 31 2020 17:42:31) gamma-only                     
  
 executed on             LinuxIFC date 2020.04.12  00:00:25
 running on   48 total cores
 distrk:  each k-point on   48 cores,    1 groups
 distr:  one band on NCORE=   6 cores,    8 groups


--------------------------------------------------------------------------------------------------------


 INCAR:
 POTCAR:    PAW_PBE Ni_pv 06Sep2000               
 POTCAR:    PAW_PBE S 06Sep2000                   
 POTCAR:    PAW_PBE Ni_pv 06Sep2000               
   VRHFIN =Ni:                                                                                      
   LEXCH  = PE                                                                                      
   EATOM  =  3501.1230 eV,  257.3253 Ry                                                             
                                                                                                    
   TITEL  = PAW_PBE Ni_pv 06Sep2000                                                                 
   LULTRA =        F    use ultrasoft PP ?                                                          
   IUNSCR =        1    unscreen: 0-lin 1-nonlin 2-no                                               
   RPACOR =    1.500    partial core radius                                                         
   POMASS =   58.690; ZVAL   =   16.000    mass and valenz                                          
   RCORE  =    2.000    outmost cutoff radius                                                       
   RWIGS  =    2.000; RWIGS  =    1.058    wigner-seitz radius (au A)                               
   ENMAX  =  367.986; ENMIN  =  275.989 eV                                                          
   RCLOC  =    1.301    cutoff for local pot                                                        
   LCOR   =        T    correct aug charges                                                         
   LPAW   =        T    paw PP                                                                      
   EAUG   =  703.443                                                                                
   DEXC   =    0.000                                                                                
   RMAX   =    2.041    core radius for proj-oper                                                   
   RAUG   =    1.300    factor for augmentation sphere                                              
   RDEP   =    2.103    radius for radial grids                                                     
   RDEPT  =    1.618    core radius for aug-charge                                                  
                                                                                                    
   Atomic configuration                                                                             
    8 entries                                                                                       
     n  l   j            E        occ.                                                              
     1  0  0.50     -8206.4253   2.0000                                                             
     2  0  0.50      -976.1748   2.0000                                                             
     2  1  1.50      -839.0571   6.0000                                                             
     3  0  0.50      -105.9991   2.0000                                                             
     3  1  1.50       -66.4603   6.0000                                                             
     3  2  2.50        -4.6458   9.0000                                                             
     4  0  0.50        -4.4926   1.0000                                                             
     4  3  2.50        -1.3606   0.0000                                                             
   Description                                                                                      
     l       E           TYP  RCUT    TYP  RCUT                                                     
     1    -66.4602962     23  1.700                                                                 
     1     -1.3605826     23  1.700                                                                 
     2     -4.6457867     23  2.000                                                                 
     2     -6.0063693     23  2.000                                                                 
     0     -4.4925576     23  1.900                                                                 
     0     16.3626226     23  1.900                                                                 
  local pseudopotential read in
  partial core-charges read in
  partial kinetic energy density read in
  atomic valenz-charges read in
  non local Contribution for L=           1  read in
    real space projection operators read in
  non local Contribution for L=           1  read in
    real space projection operators read in
  non local Contribution for L=           2  read in
    real space projection operators read in
  non local Contribution for L=           2  read in
    real space projection operators read in
  non local Contribution for L=           0  read in
    real space projection operators read in
  non local Contribution for L=           0  read in
    real space projection operators read in
    PAW grid and wavefunctions read in
 
   number of l-projection  operators is LMAX  =           6
   number of lm-projection operators is LMMAX =          18
 
 POTCAR:    PAW_PBE S 06Sep2000                   
   VRHFIN =S : s2p4                                                                                 
   LEXCH  = PE                                                                                      
   EATOM  =   276.8230 eV,   20.3459 Ry                                                             
                                                                                                    
   TITEL  = PAW_PBE S 06Sep2000                                                                     
   LULTRA =        F    use ultrasoft PP ?                                                          
   IUNSCR =        1    unscreen: 0-lin 1-nonlin 2-no                                               
   RPACOR =    1.500    partial core radius                                                         
   POMASS =   32.066; ZVAL   =    6.000    mass and valenz                                          
   RCORE  =    1.900    outmost cutoff radius                                                       
   RWIGS  =    2.200; RWIGS  =    1.164    wigner-seitz radius (au A)                               
   ENMAX  =  258.689; ENMIN  =  194.016 eV                                                          
   ICORE  =        2    local potential                                                             
   LCOR   =        T    correct aug charges                                                         
   LPAW   =        T    paw PP                                                                      
   EAUG   =  335.092                                                                                
   DEXC   =    0.000                                                                                
   RMAX   =    1.942    core radius for proj-oper                                                   
   RAUG   =    1.300    factor for augmentation sphere                                              
   RDEP   =    1.954    radius for radial grids                                                     
   RDEPT  =    1.744    core radius for aug-charge                                                  
                                                                                                    
   Atomic configuration                                                                             
    6 entries                                                                                       
     n  l   j            E        occ.                                                              
     1  0  0.50     -2405.8406   2.0000                                                             
     2  0  0.50      -211.7007   2.0000                                                             
     2  1  1.50      -156.4958   6.0000                                                             
     3  0  0.50       -17.2562   2.0000                                                             
     3  1  0.50        -7.0085   4.0000                                                             
     3  2  1.50        -6.8029   0.0000                                                             
   Description                                                                                      
     l       E           TYP  RCUT    TYP  RCUT                                                     
     0    -17.2561641     23  1.900                                                                 
     0    -15.8743224     23  1.900                                                                 
     1     -7.0085400     23  1.900                                                                 
     1     -2.7779785     23  1.900                                                                 
     2     -6.8029130     23  1.900                                                                 
  local pseudopotential read in
  partial core-charges read in
  partial kinetic energy density read in
  atomic valenz-charges read in
  non local Contribution for L=           0  read in
    real space projection operators read in
  non local Contribution for L=           0  read in
    real space projection operators read in
  non local Contribution for L=           1  read in
    real space projection operators read in
  non local Contribution for L=           1  read in
    real space projection operators read in
    PAW grid and wavefunctions read in
 
   number of l-projection  operators is LMAX  =           4
   number of lm-projection operators is LMMAX =           8
 
 Optimization of the real space projectors (new method)

 maximal supplied QI-value         = 18.90
 optimisation between [QCUT,QGAM] = [ 10.77, 21.73] = [ 32.49,132.25] Ry 
 Optimized for a Real-space Cutoff    1.38 Angstroem

   l    n(q)    QCUT    max X(q) W(low)/X(q) W(high)/X(q)  e(spline) 
   1      8    10.771     2.836    0.40E-04    0.29E-04    0.12E-06
   1      8    10.771     4.023    0.10E-03    0.48E-04    0.29E-06
   2      8    10.771    73.368    0.42E-03    0.97E-04    0.44E-06
   2      8    10.771    69.010    0.42E-03    0.99E-04    0.45E-06
   0      9    10.771    54.797    0.10E-03    0.56E-04    0.74E-07
   0      9    10.771    24.266    0.89E-04    0.49E-04    0.67E-07
 Optimization of the real space projectors (new method)

 maximal supplied QI-value         = 19.84
 optimisation between [QCUT,QGAM] = [ 10.71, 21.63] = [ 32.15,130.99] Ry 
 Optimized for a Real-space Cutoff    1.19 Angstroem

   l    n(q)    QCUT    max X(q) W(low)/X(q) W(high)/X(q)  e(spline) 
   0      8    10.715   187.594    0.41E-03    0.53E-04    0.66E-07
   0      8    10.715   164.243    0.41E-03    0.53E-04    0.65E-07
   1      7    10.715    67.533    0.19E-03    0.59E-03    0.68E-07
   1      7    10.715    50.729    0.19E-03    0.58E-03    0.67E-07
  PAW_PBE Ni_pv 06Sep2000               :
 energy of atom  1       EATOM=-3501.1230
 kinetic energy error for atom=    0.0925 (will be added to EATOM!!)
  PAW_PBE S 06Sep2000                   :
 energy of atom  2       EATOM= -276.8230
 kinetic energy error for atom=    0.0033 (will be added to EATOM!!)
 
 
 POSCAR: Structure 38 made from -111-5.xsd file
  positions in direct lattice
  No initial velocities read in
 exchange correlation table for  LEXCH =        8
   RHO(1)=    0.500       N(1)  =     2000
   RHO(2)=  100.500       N(2)  =     4000
 


--------------------------------------------------------------------------------------------------------


 ion  position               nearest neighbor table
   1  0.261  0.479  0.253-  73 2.25  57 2.26  80 2.26  54 2.36  58 2.36   7 2.53  21 2.53
   2  0.355  0.385  0.388-  74 2.25  54 2.26  58 2.26  59 2.36  65 2.36   8 2.53  22 2.53
   3  0.449  0.291  0.523-  52 2.25  59 2.26  65 2.26  17 2.53  23 2.53
   4  0.167  0.073  0.118-  63 2.25  55 2.26  81 2.26  56 2.36  82 2.36  36 2.53  30 2.53
   5  0.056  0.051  0.488-  78 2.25  50 2.26  72 2.26  77 2.36  11 2.53  15 2.53
   6  0.274  0.333  0.083-  55 2.25  51 2.36  57 2.36  12 2.53  28 2.53
   7  0.368  0.239  0.218-  56 2.25  57 2.26  51 2.26  58 2.36  60 2.36   1 2.53  21 2.53
   8  0.462  0.145  0.353-  79 2.25  58 2.26  60 2.26  59 2.36  61 2.36   2 2.53  22 2.53
   9  0.000  0.372  0.218-  57 2.25  63 2.26  92 2.26  49 2.36  66 2.36  13 2.53  19 2.53
  10  0.094  0.278  0.353-  58 2.25  49 2.26  66 2.26  53 2.36  50 2.36  20 2.53  14 2.53
  11  0.188  0.184  0.488-  59 2.25  53 2.26  50 2.26  77 2.36   5 2.53  15 2.53
  12  0.406  0.465  0.083-  69 2.25  51 2.36  80 2.36  28 2.53   6 2.53
  13  0.761  0.479  0.253-  85 2.25  70 2.26  92 2.26  66 2.36  71 2.36  19 2.53   9 2.53
  14  0.855  0.385  0.388-  86 2.25  66 2.26  71 2.26  72 2.36  53 2.36  20 2.53  10 2.53
  15  0.949  0.291  0.523-  64 2.25  72 2.26  53 2.26   5 2.53  11 2.53
  16  0.667  0.073  0.118-  51 2.25  67 2.26  93 2.26  68 2.36  94 2.36  48 2.53  42 2.53
  17  0.556  0.051  0.488-  89 2.25  61 2.26  59 2.26  23 2.53   3 2.53
  18  0.774  0.333  0.083-  67 2.25  69 2.26  62 2.26  63 2.36  70 2.36  24 2.53  40 2.53
  19  0.868  0.239  0.218-  68 2.25  70 2.26  63 2.26  71 2.36  49 2.36  13 2.53   9 2.53
  20  0.962  0.145  0.353-  90 2.25  71 2.26  49 2.26  72 2.36  50 2.36  14 2.53  10 2.53
  21  0.500  0.372  0.218-  70 2.25  51 2.26  80 2.26  60 2.36  54 2.36   1 2.53   7 2.53
  22  0.594  0.278  0.353-  71 2.25  60 2.26  54 2.26  65 2.36  61 2.36   8 2.53   2 2.53
  23  0.688  0.184  0.488-  72 2.25  65 2.26  61 2.26  17 2.53   3 2.53
  24  0.906  0.465  0.083-  62 2.26  91 2.26  63 2.36  92 2.36  40 2.53  18 2.53
  25  0.261  0.979  0.253-  49 2.25  82 2.26  56 2.26  79 2.36  83 2.36  31 2.53  45 2.53
  26  0.355  0.885  0.388-  50 2.25  79 2.26  83 2.26  84 2.36  89 2.36  32 2.53  46 2.53
  27  0.449  0.791  0.523-  77 2.25  84 2.26  89 2.26  41 2.53  47 2.53
  28  0.167  0.573  0.118-  88 2.25  80 2.36  57 2.36  12 2.53   6 2.53
  29  0.056  0.551  0.488-  53 2.25  74 2.26  96 2.26  52 2.36  35 2.53  39 2.53
  30  0.274  0.833  0.083-  81 2.26  75 2.26  76 2.36  82 2.36  36 2.53   4 2.53
  31  0.368  0.739  0.218-  80 2.25  82 2.26  76 2.26  83 2.36  85 2.36  25 2.53  45 2.53
  32  0.462  0.645  0.353-  54 2.25  83 2.26  85 2.26  84 2.36  86 2.36  26 2.53  46 2.53
  33  0.000  0.872  0.218-  82 2.25  88 2.26  68 2.26  73 2.36  90 2.36  37 2.53  43 2.53
  34  0.094  0.778  0.353-  83 2.25  73 2.26  90 2.26  78 2.36  74 2.36  44 2.53  38 2.53
  35  0.188  0.684  0.488-  84 2.25  78 2.26  74 2.26  52 2.36  29 2.53  39 2.53
  36  0.406  0.965  0.083-  93 2.25  75 2.26  55 2.26  76 2.36  56 2.36   4 2.53  30 2.53
  37  0.761  0.979  0.253-  60 2.25  94 2.26  68 2.26  90 2.36  95 2.36  43 2.53  33 2.53
  38  0.855  0.885  0.388-  61 2.25  90 2.26  95 2.26  96 2.36  78 2.36  44 2.53  34 2.53
  39  0.949  0.791  0.523-  96 2.26  78 2.26  29 2.53  35 2.53
  40  0.667  0.573  0.118-  76 2.25  91 2.26  69 2.26  92 2.36  70 2.36  24 2.53  18 2.53
  41  0.556  0.551  0.488-  65 2.25  86 2.26  84 2.26  64 2.36  47 2.53  27 2.53
  42  0.774  0.833  0.083-  91 2.25  93 2.26  87 2.26  88 2.36  94 2.36  48 2.53  16 2.53
  43  0.868  0.739  0.218-  92 2.25  94 2.26  88 2.26  95 2.36  73 2.36  37 2.53  33 2.53
  44  0.962  0.645  0.353-  66 2.25  95 2.26  73 2.26  96 2.36  74 2.36  38 2.53  34 2.53
  45  0.500  0.872  0.218-  94 2.25  76 2.26  56 2.26  85 2.36  79 2.36  25 2.53  31 2.53
  46  0.594  0.778  0.353-  95 2.25  85 2.26  79 2.26  89 2.36  86 2.36  32 2.53  26 2.53
  47  0.688  0.684  0.488-  96 2.25  89 2.26  86 2.26  64 2.36  41 2.53  27 2.53
  48  0.906  0.965  0.083-  81 2.25  87 2.26  67 2.26  88 2.36  68 2.36  16 2.53  42 2.53
  49  0.073  0.167  0.270-  25 2.25  10 2.26  20 2.26   9 2.36  19 2.36
  50  0.167  0.073  0.405-  26 2.25  11 2.26   5 2.26  10 2.36  20 2.36
  51  0.479  0.261  0.135-  16 2.25   7 2.26  21 2.26   6 2.36  12 2.36
  52  0.261  0.479  0.540-   3 2.25  29 2.36  35 2.36
  53  0.030  0.378  0.451-  29 2.25  11 2.26  15 2.26  10 2.36  14 2.36
  54  0.436  0.472  0.315-  32 2.25   2 2.26  22 2.26   1 2.36  21 2.36
  55  0.248  0.160  0.045-   6 2.25   4 2.26  36 2.26
  56  0.342  0.066  0.180-   7 2.25  25 2.26  45 2.26   4 2.36  36 2.36
  57  0.174  0.397  0.180-   9 2.25   7 2.26   1 2.26   6 2.36  28 2.36
  58  0.268  0.303  0.315-  10 2.25   2 2.26   8 2.26   7 2.36   1 2.36
  59  0.362  0.209  0.451-  11 2.25   3 2.26  17 2.26   8 2.36   2 2.36
  60  0.573  0.167  0.270-  37 2.25  22 2.26   8 2.26  21 2.36   7 2.36
  61  0.667  0.073  0.405-  38 2.25  23 2.26  17 2.26  22 2.36   8 2.36
  62  0.885  0.355  0.000-  24 2.26  18 2.26
  63  0.979  0.261  0.135-   4 2.25  19 2.26   9 2.26  18 2.36  24 2.36
  64  0.761  0.479  0.540-  15 2.25  41 2.36  47 2.36
  65  0.530  0.378  0.451-  41 2.25  23 2.26   3 2.26  22 2.36   2 2.36
  66  0.936  0.472  0.315-  44 2.25  14 2.26  10 2.26  13 2.36   9 2.36
  67  0.748  0.160  0.045-  18 2.25  16 2.26  48 2.26
  68  0.842  0.066  0.180-  19 2.25  37 2.26  33 2.26  16 2.36  48 2.36
  69  0.580  0.491  0.045-  12 2.25  18 2.26  40 2.26
  70  0.674  0.397  0.180-  21 2.25  19 2.26  13 2.26  18 2.36  40 2.36
  71  0.768  0.303  0.315-  22 2.25  14 2.26  20 2.26  19 2.36  13 2.36
  72  0.862  0.209  0.451-  23 2.25  15 2.26   5 2.26  20 2.36  14 2.36
  73  0.073  0.667  0.270-   1 2.25  34 2.26  44 2.26  33 2.36  43 2.36
  74  0.167  0.573  0.405-   2 2.25  35 2.26  29 2.26  34 2.36  44 2.36
  75  0.385  0.855  0.000-  36 2.26  30 2.26
  76  0.479  0.761  0.135-  40 2.25  31 2.26  45 2.26  30 2.36  36 2.36
  77  0.261  0.979  0.540-  27 2.25   5 2.36  11 2.36
  78  0.030  0.878  0.451-   5 2.25  35 2.26  39 2.26  34 2.36  38 2.36
  79  0.436  0.972  0.315-   8 2.25  26 2.26  46 2.26  25 2.36  45 2.36
  80  0.342  0.566  0.180-  31 2.25   1 2.26  21 2.26  28 2.36  12 2.36
  81  0.080  0.991  0.045-  48 2.25  30 2.26   4 2.26
  82  0.174  0.897  0.180-  33 2.25  31 2.26  25 2.26  30 2.36   4 2.36
  83  0.268  0.803  0.315-  34 2.25  26 2.26  32 2.26  31 2.36  25 2.36
  84  0.362  0.709  0.451-  35 2.25  27 2.26  41 2.26  32 2.36  26 2.36
  85  0.573  0.667  0.270-  13 2.25  46 2.26  32 2.26  45 2.36  31 2.36
  86  0.667  0.573  0.405-  14 2.25  47 2.26  41 2.26  46 2.36  32 2.36
  87  0.885  0.855  0.000-  48 2.26  42 2.26
  88  0.979  0.761  0.135-  28 2.25  43 2.26  33 2.26  42 2.36  48 2.36
  89  0.530  0.878  0.451-  17 2.25  47 2.26  27 2.26  46 2.36  26 2.36
  90  0.936  0.972  0.315-  20 2.25  38 2.26  34 2.26  37 2.36  33 2.36
  91  0.748  0.660  0.045-  42 2.25  40 2.26  24 2.26
  92  0.842  0.566  0.180-  43 2.25  13 2.26   9 2.26  40 2.36  24 2.36
  93  0.580  0.991  0.045-  36 2.25  42 2.26  16 2.26
  94  0.674  0.897  0.180-  45 2.25  43 2.26  37 2.26  42 2.36  16 2.36
  95  0.768  0.803  0.315-  46 2.25  38 2.26  44 2.26  43 2.36  37 2.36
  96  0.862  0.709  0.451-  47 2.25  39 2.26  29 2.26  44 2.36  38 2.36
 
  LATTYP: Found a base centered orthorhombic cell.
 ALAT       =    11.8257374459
 B/A-ratio  =     1.6199260857
 C/A-ratio  =     1.8387210052
  
  Lattice vectors:
  
 A1 = (  10.0628203371,   5.0445621212,   0.0000000000)
 A2 = (   0.0000000000, -11.2564630382,   0.0000000000)
 A3 = (   0.0000000000,   0.0000000000, -21.7442318436)


Analysis of symmetry for initial positions (statically):
=====================================================================
 Subroutine PRICEL returns:
 Original cell was already a primitive cell.
 

 Routine SETGRP: Setting up the symmetry group for a 
 base centered orthorhombic supercell.


 Subroutine GETGRP returns: Found  2 space group operations
 (whereof  1 operations were pure point group operations)
 out of a pool of  8 trial point group operations.


The static configuration has the point symmetry C_1 .
 The point group associated with its full space group is C_1h.


Analysis of symmetry for dynamics (positions and initial velocities):
=====================================================================
 Subroutine PRICEL returns:
 Original cell was already a primitive cell.
 

 Routine SETGRP: Setting up the symmetry group for a 
 base centered orthorhombic supercell.


 Subroutine GETGRP returns: Found  2 space group operations
 (whereof  1 operations were pure point group operations)
 out of a pool of  8 trial point group operations.


The dynamic configuration has the point symmetry C_1 .
 The point group associated with its full space group is C_1h.


 Subroutine INISYM returns: Found  2 space group operations
 (whereof  1 operations are pure point group operations),
 and found     1 'primitive' translations


----------------------------------------------------------------------------------------

                                     Primitive cell                                     

  volume of cell :    2463.0075

  direct lattice vectors                    reciprocal lattice vectors
    10.062820337  5.044562121  0.000000000     0.099375718  0.000000000  0.000000000
     0.000000000 11.256463038  0.000000000    -0.044535036  0.088837852  0.000000000
     0.000000000  0.000000000 21.744231844     0.000000000  0.000000000  0.045989208

  length of vectors
    11.256463038 11.256463038 21.744231844     0.099375718  0.099375718  0.045989208

  position of ions in fractional coordinates (direct lattice)
     0.260920696  0.478780360  0.253327988
     0.354880562  0.384820493  0.388354968
     0.448840428  0.290860627  0.523381948
     0.166960829  0.072740241  0.118301008
     0.056118679  0.051479395  0.487707010
     0.274239065  0.333358994  0.082626070
     0.368198931  0.239399128  0.217653050
     0.462158798  0.145439262  0.352680030
     0.000301942  0.371502124  0.217653050
     0.094261809  0.277542258  0.352680030
     0.188221675  0.183582391  0.487707010
     0.406342061  0.465461991  0.082626070
     0.760920696  0.478780360  0.253327988
     0.854880562  0.384820493  0.388354968
     0.948840428  0.290860627  0.523381948
     0.666960829  0.072740241  0.118301008
     0.556118679  0.051479395  0.487707010
     0.774239065  0.333358994  0.082626070
     0.868198931  0.239399128  0.217653050
     0.962158798  0.145439262  0.352680030
     0.500301942  0.371502124  0.217653050
     0.594261809  0.277542258  0.352680030
     0.688221675  0.183582391  0.487707010
     0.906342061  0.465461991  0.082626070
     0.260920696  0.978780360  0.253327988
     0.354880562  0.884820493  0.388354968
     0.448840428  0.790860627  0.523381948
     0.166960829  0.572740241  0.118301008
     0.056118679  0.551479395  0.487707010
     0.274239065  0.833358994  0.082626070
     0.368198931  0.739399128  0.217653050
     0.462158798  0.645439262  0.352680030
     0.000301942  0.871502124  0.217653050
     0.094261809  0.777542258  0.352680030
     0.188221675  0.683582391  0.487707010
     0.406342061  0.965461991  0.082626070
     0.760920696  0.978780360  0.253327988
     0.854880562  0.884820493  0.388354968
     0.948840428  0.790860627  0.523381948
     0.666960829  0.572740241  0.118301008
     0.556118679  0.551479395  0.487707010
     0.774239065  0.833358994  0.082626070
     0.868198931  0.739399128  0.217653050
     0.962158798  0.645439262  0.352680030
     0.500301942  0.871502124  0.217653050
     0.594261809  0.777542258  0.352680030
     0.688221675  0.683582391  0.487707010
     0.906342061  0.965461991  0.082626070
     0.072877635  0.166823435  0.270053960
     0.166837502  0.072863568  0.405080940
     0.478917754  0.260783301  0.135026980
     0.260797368  0.478903687  0.540107920
     0.030233425  0.377682640  0.450508067
     0.436273543  0.471642507  0.315481087
     0.248353811  0.159562255  0.045427127
     0.342313677  0.065602388  0.180454107
     0.174098682  0.397387378  0.180454107
     0.268058548  0.303427512  0.315481087
     0.362018415  0.209467645  0.450508067
     0.572877635  0.166823435  0.270053960
     0.666837502  0.072863568  0.405080940
     0.884957888  0.354743168  0.000000000
     0.978917754  0.260783301  0.135026980
     0.760797368  0.478903687  0.540107920
     0.530233425  0.377682640  0.450508067
     0.936273543  0.471642507  0.315481087
     0.748353811  0.159562255  0.045427127
     0.842313677  0.065602388  0.180454107
     0.580138816  0.491347245  0.045427127
     0.674098682  0.397387378  0.180454107
     0.768058548  0.303427512  0.315481087
     0.862018415  0.209467645  0.450508067
     0.072877635  0.666823435  0.270053960
     0.166837502  0.572863568  0.405080940
     0.384957888  0.854743168  0.000000000
     0.478917754  0.760783301  0.135026980
     0.260797368  0.978903687  0.540107920
     0.030233425  0.877682640  0.450508067
     0.436273543  0.971642507  0.315481087
     0.342313677  0.565602388  0.180454107
     0.080138816  0.991347245  0.045427127
     0.174098682  0.897387378  0.180454107
     0.268058548  0.803427512  0.315481087
     0.362018415  0.709467645  0.450508067
     0.572877635  0.666823435  0.270053960
     0.666837502  0.572863568  0.405080940
     0.884957888  0.854743168  0.000000000
     0.978917754  0.760783301  0.135026980
     0.530233425  0.877682640  0.450508067
     0.936273543  0.971642507  0.315481087
     0.748353811  0.659562255  0.045427127
     0.842313677  0.565602388  0.180454107
     0.580138816  0.991347245  0.045427127
     0.674098682  0.897387378  0.180454107
     0.768058548  0.803427512  0.315481087
     0.862018415  0.709467645  0.450508067

  ion indices of the primitive-cell ions
   primitive index   ion index
                 1           1
                 2           2
                 3           3
                 4           4
                 5           5
                 6           6
                 7           7
                 8           8
                 9           9
                10          10
                11          11
                12          12
                13          13
                14          14
                15          15
                16          16
                17          17
                18          18
                19          19
                20          20
                21          21
                22          22
                23          23
                24          24
                25          25
                26          26
                27          27
                28          28
                29          29
                30          30
                31          31
                32          32
                33          33
                34          34
                35          35
                36          36
                37          37
                38          38
                39          39
                40          40
                41          41
                42          42
                43          43
                44          44
                45          45
                46          46
                47          47
                48          48
                49          49
                50          50
                51          51
                52          52
                53          53
                54          54
                55          55
                56          56
                57          57
                58          58
                59          59
                60          60
                61          61
                62          62
                63          63
                64          64
                65          65
                66          66
                67          67
                68          68
                69          69
                70          70
                71          71
                72          72
                73          73
                74          74
                75          75
                76          76
                77          77
                78          78
                79          79
                80          80
                81          81
                82          82
                83          83
                84          84
                85          85
                86          86
                87          87
                88          88
                89          89
                90          90
                91          91
                92          92
                93          93
                94          94
                95          95
                96          96

----------------------------------------------------------------------------------------

 
 
 KPOINTS: gamma-point-only calculation. no periodi

Automatic generation of k-mesh.
Space group operators:
 irot       det(A)        alpha          n_x          n_y          n_z        tau_x        tau_y        tau_z
    1     1.000000     0.000000     1.000000     0.000000     0.000000     0.000000     0.000000     0.000000
    2    -1.000000   180.000000    -0.525287    -0.850925     0.000000    -0.260299    -0.260299     0.000000
 
 Subroutine IBZKPT returns following result:
 ===========================================
 
 Found      1 irreducible k-points:
 
 Following reciprocal coordinates:
            Coordinates               Weight
  0.000000  0.000000  0.000000      1.000000
 
 Following cartesian coordinates:
            Coordinates               Weight
  0.000000  0.000000  0.000000      1.000000
 


--------------------------------------------------------------------------------------------------------




 Dimension of arrays:
   k-points           NKPTS =      1   k-points in BZ     NKDIM =      1   number of bands    NBANDS=    640
   number of dos      NEDOS =    301   number of ions     NIONS =     96
   non local maximal  LDIM  =      6   non local SUM 2l+1 LMDIM =     18
   total plane-waves  NPLWV = 432000
   max r-space proj   IRMAX =   1984   max aug-charges    IRDMAX=   5725
   dimension x,y,z NGX =    60 NGY =   60 NGZ =  120
   dimension x,y,z NGXF=   120 NGYF=  120 NGZF=  240
   support grid    NGXF=   120 NGYF=  120 NGZF=  240
   ions per type =              48  48
   NGX,Y,Z   is equivalent  to a cutoff of   8.86,  8.86,  9.17 a.u.
   NGXF,Y,Z  is equivalent  to a cutoff of  17.72, 17.72, 18.35 a.u.

 SYSTEM =  "Millerite NiS"                         
 POSCAR =  Structure 38 made from -111-5.xsd file  

 Startparameter for this run:
   NWRITE =      2    write-flag & timer
   PREC   = normal    normal or accurate (medium, high low for compatibility)
   ISTART =      0    job   : 0-new  1-cont  2-samecut
   ICHARG =      2    charge: 1-file 2-atom 10-const
   ISPIN  =      1    spin polarized calculation?
   LNONCOLLINEAR =      F non collinear calculations
   LSORBIT =      F    spin-orbit coupling
   INIWAV =      1    electr: 0-lowe 1-rand  2-diag
   LASPH  =      F    aspherical Exc in radial PAW
   METAGGA=      F    non-selfconsistent MetaGGA calc.

 Electronic Relaxation 1
   ENCUT  =  450.0 eV  33.07 Ry    5.75 a.u.  19.47 19.47 37.61*2*pi/ulx,y,z
   ENINI  =  450.0     initial cutoff
   ENAUG  =  703.4 eV  augmentation charge cutoff
   NELM   =    100;   NELMIN=  2; NELMDL= -5     # of ELM steps 
   EDIFF  = 0.1E-03   stopping-criterion for ELM
   LREAL  =      T    real-space projection
   NLSPLINE    = F    spline interpolate recip. space projectors
   LCOMPAT=      F    compatible to vasp.4.4
   GGA_COMPAT  = T    GGA compatible to vasp.4.4-vasp.4.6
   LMAXPAW     = -100 max onsite density
   LMAXMIX     =    2 max onsite mixed and CHGCAR
   VOSKOWN=      0    Vosko Wilk Nusair interpolation
   ROPT   =   -0.00050  -0.00050
 Ionic relaxation
   EDIFFG = 0.1E-02   stopping-criterion for IOM
   NSW    =      0    number of steps for IOM
   NBLOCK =      1;   KBLOCK =      1    inner block; outer block 
   IBRION =     -1    ionic relax: 0-MD 1-quasi-New 2-CG
   NFREE  =      0    steps in history (QN), initial steepest desc. (CG)
   ISIF   =      2    stress and relaxation
   IWAVPR =     10    prediction:  0-non 1-charg 2-wave 3-comb
   ISYM   =      2    0-nonsym 1-usesym 2-fastsym
   LCORR  =      T    Harris-Foulkes like correction to forces

   POTIM  = 0.5000    time-step for ionic-motion
   TEIN   =    0.0    initial temperature
   TEBEG  =    0.0;   TEEND  =   0.0 temperature during run
   SMASS  =  -3.00    Nose mass-parameter (am)
   estimated Nose-frequenzy (Omega)   =  0.10E-29 period in steps = 0.13E+47 mass=  -0.290E-26a.u.
   SCALEE = 1.0000    scale energy and forces
   NPACO  =    256;   APACO  = 16.0  distance and # of slots for P.C.
   PSTRESS=    0.0 pullay stress

  Mass of Ions in am
   POMASS =  58.69 32.07
  Ionic Valenz
   ZVAL   =  16.00  6.00
  Atomic Wigner-Seitz radii
   RWIGS  =  -1.00 -1.00
  virtual crystal weights 
   VCA    =   1.00  1.00
   NELECT =    1056.0000    total number of electrons
   NUPDOWN=      -1.0000    fix difference up-down

 DOS related values:
   EMIN   =  10.00;   EMAX   =-10.00  energy-range for DOS
   EFERMI =   0.00
   ISMEAR =     0;   SIGMA  =   0.20  broadening in eV -4-tet -1-fermi 0-gaus

 Electronic relaxation 2 (details)
   IALGO  =     38    algorithm
   LDIAG  =      T    sub-space diagonalisation (order eigenvalues)
   LSUBROT=      F    optimize rotation matrix (better conditioning)
   TURBO    =      0    0=normal 1=particle mesh
   IRESTART =      0    0=no restart 2=restart with 2 vectors
   NREBOOT  =      0    no. of reboots
   NMIN     =      0    reboot dimension
   EREF     =   0.00    reference energy to select bands
   IMIX   =      4    mixing-type and parameters
     AMIX     =   0.40;   BMIX     =  1.00
     AMIX_MAG =   1.60;   BMIX_MAG =  1.00
     AMIN     =   0.10
     WC   =   100.;   INIMIX=   1;  MIXPRE=   1;  MAXMIX= -45

 Intra band minimization:
   WEIMIN = 0.0000     energy-eigenvalue tresh-hold
   EBREAK =  0.39E-07  absolut break condition
   DEPER  =   0.30     relativ break condition  

   TIME   =   0.40     timestep for ELM

  volume/ion in A,a.u.               =      25.66       173.14
  Fermi-wavevector in a.u.,A,eV,Ry     =   1.234452  2.332776 20.733535  1.523872
  Thomas-Fermi vector in A             =   2.369142
 
 Write flags
   LWAVE        =      F    write WAVECAR
   LDOWNSAMPLE  =      F    k-point downsampling of WAVECAR
   LCHARG       =      F    write CHGCAR
   LVTOT        =      F    write LOCPOT, total local potential
   LVHAR        =      F    write LOCPOT, Hartree potential only
   LELF         =      F    write electronic localiz. function (ELF)
   LORBIT       =      0    0 simple, 1 ext, 2 COOP (PROOUT), +10 PAW based schemes


 Dipole corrections
   LMONO  =      F    monopole corrections only (constant potential shift)
   LDIPOL =      F    correct potential (dipole corrections)
   IDIPOL =      0    1-x, 2-y, 3-z, 4-all directions 
   EPSILON=  1.0000000 bulk dielectric constant

 Exchange correlation treatment:
   GGA     =    --    GGA type
   LEXCH   =     8    internal setting for exchange type
   VOSKOWN=      0    Vosko Wilk Nusair interpolation
   LHFCALC =     F    Hartree Fock is set to
   LHFONE  =     F    Hartree Fock one center treatment
   AEXX    =    0.0000 exact exchange contribution

 Linear response parameters
   LEPSILON=     F    determine dielectric tensor
   LRPA    =     F    only Hartree local field effects (RPA)
   LNABLA  =     F    use nabla operator in PAW spheres
   LVEL    =     F    velocity operator in full k-point grid
   LINTERFAST=   F  fast interpolation
   KINTER  =     0    interpolate to denser k-point grid
   CSHIFT  =0.1000    complex shift for real part using Kramers Kronig
   OMEGAMAX=  -1.0    maximum frequency
   DEG_THRESHOLD= 0.2000000E-02 threshold for treating states as degnerate
   RTIME   =   -0.100 relaxation time in fs
  (WPLASMAI=    0.000 imaginary part of plasma frequency in eV, 0.658/RTIME)
   DFIELD  = 0.0000000 0.0000000 0.0000000 field for delta impulse in time
 
 Orbital magnetization related:
   ORBITALMAG=     F  switch on orbital magnetization
   LCHIMAG   =     F  perturbation theory with respect to B field
   DQ        =  0.001000  dq finite difference perturbation B field
   LLRAUG    =     F  two centre corrections for induced B field



--------------------------------------------------------------------------------------------------------


 Static calculation
 charge density and potential will be updated during run
 non-spin polarized calculation
 Variant of blocked Davidson
 Davidson routine will perform the subspace rotation
 perform sub-space diagonalisation
    after iterative eigenvector-optimisation
 modified Broyden-mixing scheme, WC =      100.0
 initial mixing is a Kerker type mixing with AMIX =  0.4000 and BMIX =      1.0000
 Hartree-type preconditioning will be used
 using additional bands          112
 real space projection scheme for non local part
 use partial core corrections
 calculate Harris-corrections to forces 
   (improved forces if not selfconsistent)
 use gradient corrections 
 use of overlap-Matrix (Vanderbilt PP)
 Gauss-broadening in eV      SIGMA  =   0.20


--------------------------------------------------------------------------------------------------------


  energy-cutoff  :      450.00
  volume of cell :     2463.01
      direct lattice vectors                 reciprocal lattice vectors
    10.062820337  5.044562121  0.000000000     0.099375718  0.000000000  0.000000000
     0.000000000 11.256463038  0.000000000    -0.044535036  0.088837852  0.000000000
     0.000000000  0.000000000 21.744231844     0.000000000  0.000000000  0.045989208

  length of vectors
    11.256463038 11.256463038 21.744231844     0.099375718  0.099375718  0.045989208


 
 k-points in units of 2pi/SCALE and weight: gamma-point-only calculation. no periodi
   0.00000000  0.00000000  0.00000000       1.000
 
 k-points in reciprocal lattice and weights: gamma-point-only calculation. no periodi
   0.00000000  0.00000000  0.00000000       1.000
 
 position of ions in fractional coordinates (direct lattice) 
   0.26092070  0.47878036  0.25332799
   0.35488056  0.38482049  0.38835497
   0.44884043  0.29086063  0.52338195
   0.16696083  0.07274024  0.11830101
   0.05611868  0.05147940  0.48770701
   0.27423907  0.33335899  0.08262607
   0.36819893  0.23939913  0.21765305
   0.46215880  0.14543926  0.35268003
   0.00030194  0.37150212  0.21765305
   0.09426181  0.27754226  0.35268003
   0.18822168  0.18358239  0.48770701
   0.40634206  0.46546199  0.08262607
   0.76092070  0.47878036  0.25332799
   0.85488056  0.38482049  0.38835497
   0.94884043  0.29086063  0.52338195
   0.66696083  0.07274024  0.11830101
   0.55611868  0.05147940  0.48770701
   0.77423907  0.33335899  0.08262607
   0.86819893  0.23939913  0.21765305
   0.96215880  0.14543926  0.35268003
   0.50030194  0.37150212  0.21765305
   0.59426181  0.27754226  0.35268003
   0.68822168  0.18358239  0.48770701
   0.90634206  0.46546199  0.08262607
   0.26092070  0.97878036  0.25332799
   0.35488056  0.88482049  0.38835497
   0.44884043  0.79086063  0.52338195
   0.16696083  0.57274024  0.11830101
   0.05611868  0.55147940  0.48770701
   0.27423907  0.83335899  0.08262607
   0.36819893  0.73939913  0.21765305
   0.46215880  0.64543926  0.35268003
   0.00030194  0.87150212  0.21765305
   0.09426181  0.77754226  0.35268003
   0.18822168  0.68358239  0.48770701
   0.40634206  0.96546199  0.08262607
   0.76092070  0.97878036  0.25332799
   0.85488056  0.88482049  0.38835497
   0.94884043  0.79086063  0.52338195
   0.66696083  0.57274024  0.11830101
   0.55611868  0.55147940  0.48770701
   0.77423907  0.83335899  0.08262607
   0.86819893  0.73939913  0.21765305
   0.96215880  0.64543926  0.35268003
   0.50030194  0.87150212  0.21765305
   0.59426181  0.77754226  0.35268003
   0.68822168  0.68358239  0.48770701
   0.90634206  0.96546199  0.08262607
   0.07287763  0.16682343  0.27005396
   0.16683750  0.07286357  0.40508094
   0.47891775  0.26078330  0.13502698
   0.26079737  0.47890369  0.54010792
   0.03023342  0.37768264  0.45050807
   0.43627354  0.47164251  0.31548109
   0.24835381  0.15956225  0.04542713
   0.34231368  0.06560239  0.18045411
   0.17409868  0.39738738  0.18045411
   0.26805855  0.30342751  0.31548109
   0.36201842  0.20946764  0.45050807
   0.57287763  0.16682343  0.27005396
   0.66683750  0.07286357  0.40508094
   0.88495789  0.35474317  0.00000000
   0.97891775  0.26078330  0.13502698
   0.76079737  0.47890369  0.54010792
   0.53023342  0.37768264  0.45050807
   0.93627354  0.47164251  0.31548109
   0.74835381  0.15956225  0.04542713
   0.84231368  0.06560239  0.18045411
   0.58013882  0.49134725  0.04542713
   0.67409868  0.39738738  0.18045411
   0.76805855  0.30342751  0.31548109
   0.86201842  0.20946764  0.45050807
   0.07287763  0.66682343  0.27005396
   0.16683750  0.57286357  0.40508094
   0.38495789  0.85474317  0.00000000
   0.47891775  0.76078330  0.13502698
   0.26079737  0.97890369  0.54010792
   0.03023342  0.87768264  0.45050807
   0.43627354  0.97164251  0.31548109
   0.34231368  0.56560239  0.18045411
   0.08013882  0.99134725  0.04542713
   0.17409868  0.89738738  0.18045411
   0.26805855  0.80342751  0.31548109
   0.36201842  0.70946764  0.45050807
   0.57287763  0.66682343  0.27005396
   0.66683750  0.57286357  0.40508094
   0.88495789  0.85474317  0.00000000
   0.97891775  0.76078330  0.13502698
   0.53023342  0.87768264  0.45050807
   0.93627354  0.97164251  0.31548109
   0.74835381  0.65956225  0.04542713
   0.84231368  0.56560239  0.18045411
   0.58013882  0.99134725  0.04542713
   0.67409868  0.89738738  0.18045411
   0.76805855  0.80342751  0.31548109
   0.86201842  0.70946764  0.45050807
 
 position of ions in cartesian coordinates  (Angst):
   2.62559809  6.70560409  5.50842250
   3.57109934  6.12193470  8.44448046
   4.51660059  5.53826532 11.38053842
   1.68009683  1.66104211  2.57236455
   0.56471218  0.86257007 10.60481430
   2.75961844  5.13585919  1.79664042
   3.70511969  4.55218982  4.73269838
   4.65062095  3.96852044  7.66875634
   0.00303839  4.18332309  4.73269838
   0.94853965  3.59965372  7.66875634
   1.89404090  3.01598433 10.60481430
   4.08894716  7.28927347  1.79664042
   7.65700825  9.22788515  5.50842250
   8.60250951  8.64421576  8.44448046
   9.54801076  8.06054638 11.38053842
   6.71150699  4.18332317  2.57236455
   5.59612235  3.38485113 10.60481430
   7.79102861  7.65814025  1.79664042
   8.73652986  7.07447088  4.73269838
   9.68203112  6.49080150  7.66875634
   5.03444856  6.70560415  4.73269838
   5.97994982  6.12193478  7.66875634
   6.92545107  5.53826539 10.60481430
   9.12035732  9.81155453  1.79664042
   2.62559809 12.33383560  5.50842250
   3.57109934 11.75016622  8.44448046
   4.51660059 11.16649684 11.38053842
   1.68009683  7.28927363  2.57236455
   0.56471218  6.49080159 10.60481430
   2.75961844 10.76409071  1.79664042
   3.70511969 10.18042134  4.73269838
   4.65062095  9.59675196  7.66875634
   0.00303839  9.81155461  4.73269838
   0.94853965  9.22788524  7.66875634
   1.89404090  8.64421585 10.60481430
   4.08894716 12.91750499  1.79664042
   7.65700825 14.85611667  5.50842250
   8.60250951 14.27244728  8.44448046
   9.54801076 13.68877790 11.38053842
   6.71150699  9.81155469  2.57236455
   5.59612235  9.01308265 10.60481430
   7.79102861 13.28637177  1.79664042
   8.73652986 12.70270240  4.73269838
   9.68203112 12.11903302  7.66875634
   5.03444856 12.33383567  4.73269838
   5.97994982 11.75016630  7.66875634
   6.92545107 11.16649691 10.60481430
   9.12035732 15.43978605  1.79664042
   0.73335455  2.24547759  5.87211592
   1.67885581  1.66180820  8.80817387
   4.81926331  5.35142795  2.93605796
   2.62435706  6.70637018 11.74423183
   0.30423352  4.40388507  9.79595186
   4.39014228  7.50983544  6.85989390
   2.49913978  3.04894285  0.98777798
   3.44464103  2.46527346  3.92383594
   1.75192376  5.35142795  3.92383594
   2.69742501  4.76775857  6.85989390
   3.64292627  4.18408919  9.79595186
   5.76476472  4.76775865  5.87211592
   6.71026598  4.18408926  8.80817387
   8.90517223  8.45737840  0.00000000
   9.85067348  7.87370901  2.93605796
   7.65576723  9.22865124 11.74423183
   5.33564369  6.92616613  9.79595186
   9.42155245 10.03211650  6.85989390
   7.53054995  5.57122391  0.98777798
   8.47605120  4.98755452  3.92383594
   5.83783268  8.45737840  0.98777798
   6.78333393  7.87370901  3.92383594
   7.72883518  7.29003963  6.85989390
   8.67433644  6.70637025  9.79595186
   0.73335455  7.87370911  5.87211592
   1.67885581  7.29003972  8.80817387
   3.87376206 11.56332886  0.00000000
   4.81926331 10.97965947  2.93605796
   2.62435706 12.33460169 11.74423183
   0.30423352 10.03211659  9.79595186
   4.39014228 13.13806696  6.85989390
   3.44464103  8.09350498  3.92383594
   0.80642251 11.56332886  0.98777798
   1.75192376 10.97965947  3.92383594
   2.69742501 10.39599009  6.85989390
   3.64292627  9.81232071  9.79595186
   5.76476472 10.39599017  5.87211592
   6.71026598  9.81232078  8.80817387
   8.90517223 14.08560992  0.00000000
   9.85067348 13.50194053  2.93605796
   5.33564369 12.55439765  9.79595186
   9.42155245 15.66034802  6.85989390
   7.53054995 11.19945543  0.98777798
   8.47605120 10.61578604  3.92383594
   5.83783268 14.08560992  0.98777798
   6.78333393 13.50194053  3.92383594
   7.72883518 12.91827115  6.85989390
   8.67433644 12.33460177  9.79595186
 


--------------------------------------------------------------------------------------------------------


 use parallel FFT for orbitals z direction half grid
 k-point   1 :   0.0000 0.0000 0.0000  plane waves:   26744

 maximum and minimum number of plane-waves per node :      4459     4455

 maximum number of plane-waves:     26744
 maximum index in each direction: 
   IXMAX=   19   IYMAX=   19   IZMAX=   37
   IXMIN=  -19   IYMIN=  -19   IZMIN=    0


 real space projection operators:
  total allocation   :      16266.38 KBytes
  max/ min on nodes  :       2748.38       2669.31


 parallel 3D FFT for wavefunctions:
    minimum data exchange during FFTs selected (reduces bandwidth)
 parallel 3D FFT for charge:
    minimum data exchange during FFTs selected (reduces bandwidth)


 total amount of memory used by VASP MPI-rank0    51436. kBytes
=======================================================================

   base      :      30000. kBytes
   nonlr-proj:       3323. kBytes
   fftplans  :       4386. kBytes
   grid      :       7756. kBytes
   one-center:        124. kBytes
   wavefun   :       5847. kBytes
 
     INWAV:  cpu time    0.0000: real time    0.0000
 Broyden mixing: mesh for mixing (old mesh)
   NGX = 39   NGY = 39   NGZ = 75
  (NGX  =120   NGY  =120   NGZ  =240)
  gives a total of 114075 points

 initial charge density was supplied:
 charge density of overlapping atoms calculated
 number of electron    1056.0000000 magnetization 
 keeping initial charge density in first step


--------------------------------------------------------------------------------------------------------


 Maximum index for non-local projection operator          332
 Maximum index for augmentation-charges          340 (set IRDMAX)


--------------------------------------------------------------------------------------------------------


 First call to EWALD:  gamma=   0.131
 Maximum number of real-space cells 4x 4x 2
 Maximum number of reciprocal cells 2x 2x 4

    FEWALD:  cpu time    0.0044: real time    0.0045


--------------------------------------- Iteration      1(   1)  ---------------------------------------


    POTLOK:  cpu time    0.0939: real time    0.0944
    SETDIJ:  cpu time    0.0070: real time    0.0089
     EDDAV:  cpu time    6.5578: real time    6.5759
       DOS:  cpu time    0.0034: real time    0.0034
    --------------------------------------------
      LOOP:  cpu time    6.6621: real time    6.6826

 eigenvalue-minimisations  :  1552
 total energy-change (2. order) : 0.1335515E+05  (-0.6783018E+05)
 number of electron    1056.0000000 magnetization 
 augmentation part     1056.0000000 magnetization 

 Free energy of the ion-electron system (eV)
  ---------------------------------------------------
  alpha Z        PSCENC =      2684.99175279
  Ewald energy   TEWEN  =    243443.81261554
  -Hartree energ DENC   =   -407449.15328689
  -exchange      EXHF   =         0.00000000
  -V(xc)+E(xc)   XCENC  =      4873.52026595
  PAW double counting   =    150306.04444553  -156855.34918313
  entropy T*S    EENTRO =        -0.51429708
  eigenvalues    EBANDS =     -4985.01291643
  atomic energy  EATOM  =    181336.80673834
  Solvation  Ediel_sol  =         0.00000000
  ---------------------------------------------------
  free energy    TOTEN  =     13355.14613463 eV

  energy without entropy =    13355.66043172  energy(sigma->0) =    13355.40328317


--------------------------------------------------------------------------------------------------------




--------------------------------------- Iteration      1(   2)  ---------------------------------------


     EDDAV:  cpu time    5.8585: real time    5.8737
       DOS:  cpu time    0.0028: real time    0.0027
    --------------------------------------------
      LOOP:  cpu time    5.8613: real time    5.8764

 eigenvalue-minimisations  :  1360
 total energy-change (2. order) :-0.1249881E+05  (-0.1204311E+05)
 number of electron    1056.0000000 magnetization 
 augmentation part     1056.0000000 magnetization 

 Free energy of the ion-electron system (eV)
  ---------------------------------------------------
  alpha Z        PSCENC =      2684.99175279
  Ewald energy   TEWEN  =    243443.81261554
  -Hartree energ DENC   =   -407449.15328689
  -exchange      EXHF   =         0.00000000
  -V(xc)+E(xc)   XCENC  =      4873.52026595
  PAW double counting   =    150306.04444553  -156855.34918313
  entropy T*S    EENTRO =        -1.04521629
  eigenvalues    EBANDS =    -17483.29421878
  atomic energy  EATOM  =    181336.80673834
  Solvation  Ediel_sol  =         0.00000000
  ---------------------------------------------------
  free energy    TOTEN  =       856.33391308 eV

  energy without entropy =      857.37912937  energy(sigma->0) =      856.85652122


--------------------------------------------------------------------------------------------------------




--------------------------------------- Iteration      1(   3)  ---------------------------------------


     EDDAV:  cpu time    6.2346: real time    6.2523
       DOS:  cpu time    0.0027: real time    0.0027
    --------------------------------------------
      LOOP:  cpu time    6.2373: real time    6.2550

 eigenvalue-minimisations  :  1464
 total energy-change (2. order) :-0.1313502E+04  (-0.1232054E+04)
 number of electron    1056.0000000 magnetization 
 augmentation part     1056.0000000 magnetization 

 Free energy of the ion-electron system (eV)
  ---------------------------------------------------
  alpha Z        PSCENC =      2684.99175279
  Ewald energy   TEWEN  =    243443.81261554
  -Hartree energ DENC   =   -407449.15328689
  -exchange      EXHF   =         0.00000000
  -V(xc)+E(xc)   XCENC  =      4873.52026595
  PAW double counting   =    150306.04444553  -156855.34918313
  entropy T*S    EENTRO =        -1.41601191
  eigenvalues    EBANDS =    -18796.42527356
  atomic energy  EATOM  =    181336.80673834
  Solvation  Ediel_sol  =         0.00000000
  ---------------------------------------------------
  free energy    TOTEN  =      -457.16793733 eV

  energy without entropy =     -455.75192542  energy(sigma->0) =     -456.45993137


--------------------------------------------------------------------------------------------------------




--------------------------------------- Iteration      1(   4)  ---------------------------------------


     EDDAV:  cpu time    6.3915: real time    6.4094
       DOS:  cpu time    0.0031: real time    0.0031
    --------------------------------------------
      LOOP:  cpu time    6.3947: real time    6.4125

 eigenvalue-minimisations  :  1512
 total energy-change (2. order) :-0.8686422E+02  (-0.8586716E+02)
 number of electron    1056.0000000 magnetization 
 augmentation part     1056.0000000 magnetization 

 Free energy of the ion-electron system (eV)
  ---------------------------------------------------
  alpha Z        PSCENC =      2684.99175279
  Ewald energy   TEWEN  =    243443.81261554
  -Hartree energ DENC   =   -407449.15328689
  -exchange      EXHF   =         0.00000000
  -V(xc)+E(xc)   XCENC  =      4873.52026595
  PAW double counting   =    150306.04444553  -156855.34918313
  entropy T*S    EENTRO =        -1.50278097
  eigenvalues    EBANDS =    -18883.20272391
  atomic energy  EATOM  =    181336.80673834
  Solvation  Ediel_sol  =         0.00000000
  ---------------------------------------------------
  free energy    TOTEN  =      -544.03215673 eV

  energy without entropy =     -542.52937577  energy(sigma->0) =     -543.28076625


--------------------------------------------------------------------------------------------------------




--------------------------------------- Iteration      1(   5)  ---------------------------------------


     EDDAV:  cpu time    6.8222: real time    6.8414
       DOS:  cpu time    0.0025: real time    0.0025
    CHARGE:  cpu time    0.1680: real time    0.1684
    MIXING:  cpu time    0.0041: real time    0.0043
    --------------------------------------------
      LOOP:  cpu time    6.9968: real time    7.0166

 eigenvalue-minimisations  :  1640
 total energy-change (2. order) :-0.3267307E+01  (-0.3262676E+01)
 number of electron    1056.0000185 magnetization 
 augmentation part      380.5880890 magnetization 

 Broyden mixing:
  rms(total) = 0.96704E+01    rms(broyden)= 0.96522E+01
  rms(prec ) = 0.10131E+02
  weight for this iteration     100.00

 Free energy of the ion-electron system (eV)
  ---------------------------------------------------
  alpha Z        PSCENC =      2684.99175279
  Ewald energy   TEWEN  =    243443.81261554
  -Hartree energ DENC   =   -407449.15328689
  -exchange      EXHF   =         0.00000000
  -V(xc)+E(xc)   XCENC  =      4873.52026595
  PAW double counting   =    150306.04444553  -156855.34918313
  entropy T*S    EENTRO =        -1.48961112
  eigenvalues    EBANDS =    -18886.48320081
  atomic energy  EATOM  =    181336.80673834
  Solvation  Ediel_sol  =         0.00000000
  ---------------------------------------------------
  free energy    TOTEN  =      -547.29946379 eV

  energy without entropy =     -545.80985267  energy(sigma->0) =     -546.55465823


--------------------------------------------------------------------------------------------------------




--------------------------------------- Iteration      1(   6)  ---------------------------------------


    POTLOK:  cpu time    0.0919: real time    0.0931
    SETDIJ:  cpu time    0.0059: real time    0.0081
     EDDAV:  cpu time    6.6709: real time    6.6871
       DOS:  cpu time    0.0032: real time    0.0032
    CHARGE:  cpu time    0.1662: real time    0.1666
    MIXING:  cpu time    0.0036: real time    0.0037
    --------------------------------------------
      LOOP:  cpu time    6.9417: real time    6.9617

 eigenvalue-minimisations  :  1576
 total energy-change (2. order) :-0.1368766E+03  (-0.1308328E+03)
 number of electron    1056.0000146 magnetization 
 augmentation part      471.4770578 magnetization 

 Broyden mixing:
  rms(total) = 0.18985E+02    rms(broyden)= 0.18980E+02
  rms(prec ) = 0.20205E+02
  weight for this iteration     100.00

 eigenvalues of (default mixing * dielectric matrix)
  average eigenvalue GAMMA=   0.2185
  0.2185

 Free energy of the ion-electron system (eV)
  ---------------------------------------------------
  alpha Z        PSCENC =      2684.99175279
  Ewald energy   TEWEN  =    243443.81261554
  -Hartree energ DENC   =   -403428.85560187
  -exchange      EXHF   =         0.00000000
  -V(xc)+E(xc)   XCENC  =      4768.04276848
  PAW double counting   =    152744.90604020  -158966.17302014
  entropy T*S    EENTRO =        -1.14792732
  eigenvalues    EBANDS =    -23266.55943196
  atomic energy  EATOM  =    181336.80673834
  Solvation  Ediel_sol  =         0.00000000
  ---------------------------------------------------
  free energy    TOTEN  =      -684.17606594 eV

  energy without entropy =     -683.02813862  energy(sigma->0) =     -683.60210228


--------------------------------------------------------------------------------------------------------




--------------------------------------- Iteration      1(   7)  ---------------------------------------


    POTLOK:  cpu time    0.0901: real time    0.0903
    SETDIJ:  cpu time    0.0060: real time    0.0060
     EDDAV:  cpu time    6.2841: real time    6.3000
       DOS:  cpu time    0.0034: real time    0.0034
    CHARGE:  cpu time    0.1658: real time    0.1663
    MIXING:  cpu time    0.0034: real time    0.0034
    --------------------------------------------
      LOOP:  cpu time    6.5527: real time    6.5694

 eigenvalue-minimisations  :  1488
 total energy-change (2. order) : 0.1608948E+03  (-0.2277513E+02)
 number of electron    1056.0000216 magnetization 
 augmentation part      442.7688451 magnetization 

 Broyden mixing:
  rms(total) = 0.96717E+01    rms(broyden)= 0.96687E+01
  rms(prec ) = 0.10783E+02
  weight for this iteration     100.00

 eigenvalues of (default mixing * dielectric matrix)
  average eigenvalue GAMMA=   0.3809
  0.3809  0.3809

 Free energy of the ion-electron system (eV)
  ---------------------------------------------------
  alpha Z        PSCENC =      2684.99175279
  Ewald energy   TEWEN  =    243443.81261554
  -Hartree energ DENC   =   -405242.86924623
  -exchange      EXHF   =         0.00000000
  -V(xc)+E(xc)   XCENC  =      4805.12463916
  PAW double counting   =    158056.46565505  -164464.76176427
  entropy T*S    EENTRO =        -1.32397016
  eigenvalues    EBANDS =    -21141.52770284
  atomic energy  EATOM  =    181336.80673834
  Solvation  Ediel_sol  =         0.00000000
  ---------------------------------------------------
  free energy    TOTEN  =      -523.28128261 eV

  energy without entropy =     -521.95731245  energy(sigma->0) =     -522.61929753


--------------------------------------------------------------------------------------------------------




--------------------------------------- Iteration      1(   8)  ---------------------------------------


    POTLOK:  cpu time    0.0911: real time    0.0923
    SETDIJ:  cpu time    0.0059: real time    0.0059
     EDDAV:  cpu time    6.5537: real time    6.5712
       DOS:  cpu time    0.0042: real time    0.0042
    CHARGE:  cpu time    0.1658: real time    0.1662
    MIXING:  cpu time    0.0037: real time    0.0037
    --------------------------------------------
      LOOP:  cpu time    6.8244: real time    6.8435

 eigenvalue-minimisations  :  1560
 total energy-change (2. order) :-0.1643211E+03  (-0.1596232E+02)
 number of electron    1055.9999863 magnetization 
 augmentation part      416.2632683 magnetization 

 Broyden mixing:
  rms(total) = 0.18959E+02    rms(broyden)= 0.18955E+02
  rms(prec ) = 0.24404E+02
  weight for this iteration     100.00

 eigenvalues of (default mixing * dielectric matrix)
  average eigenvalue GAMMA=   0.3833
  0.5275  0.5275  0.0950

 Free energy of the ion-electron system (eV)
  ---------------------------------------------------
  alpha Z        PSCENC =      2684.99175279
  Ewald energy   TEWEN  =    243443.81261554
  -Hartree energ DENC   =   -405490.20098312
  -exchange      EXHF   =         0.00000000
  -V(xc)+E(xc)   XCENC  =      4821.11839971
  PAW double counting   =    161755.04515365  -168251.88281505
  entropy T*S    EENTRO =        -1.09779531
  eigenvalues    EBANDS =    -20986.19540447
  atomic energy  EATOM  =    181336.80673834
  Solvation  Ediel_sol  =         0.00000000
  ---------------------------------------------------
  free energy    TOTEN  =      -687.60233790 eV

  energy without entropy =     -686.50454259  energy(sigma->0) =     -687.05344025


--------------------------------------------------------------------------------------------------------




--------------------------------------- Iteration      1(   9)  ---------------------------------------


    POTLOK:  cpu time    0.0905: real time    0.0928
    SETDIJ:  cpu time    0.0059: real time    0.0084
     EDDAV:  cpu time    7.1076: real time    7.1255
       DOS:  cpu time    0.0028: real time    0.0028
    CHARGE:  cpu time    0.1672: real time    0.1676
    MIXING:  cpu time    0.0034: real time    0.0034
    --------------------------------------------
      LOOP:  cpu time    7.3776: real time    7.4006

 eigenvalue-minimisations  :  1728
 total energy-change (2. order) : 0.9486723E+02  (-0.2362341E+02)
 number of electron    1056.0000290 magnetization 
 augmentation part      420.7019912 magnetization 

 Broyden mixing:
  rms(total) = 0.12990E+02    rms(broyden)= 0.12986E+02
  rms(prec ) = 0.15492E+02
  weight for this iteration     100.00

 eigenvalues of (default mixing * dielectric matrix)
  average eigenvalue GAMMA=   0.3522
  0.7233  0.4502  0.1249  0.1103

 Free energy of the ion-electron system (eV)
  ---------------------------------------------------
  alpha Z        PSCENC =      2684.99175279
  Ewald energy   TEWEN  =    243443.81261554
  -Hartree energ DENC   =   -405575.87879422
  -exchange      EXHF   =         0.00000000
  -V(xc)+E(xc)   XCENC  =      4824.55606009
  PAW double counting   =    166239.86936839  -172797.11535934
  entropy T*S    EENTRO =        -1.70767727
  eigenvalues    EBANDS =    -20748.06980983
  atomic energy  EATOM  =    181336.80673834
  Solvation  Ediel_sol  =         0.00000000
  ---------------------------------------------------
  free energy    TOTEN  =      -592.73510550 eV

  energy without entropy =     -591.02742824  energy(sigma->0) =     -591.88126687


--------------------------------------------------------------------------------------------------------




--------------------------------------- Iteration      1(  10)  ---------------------------------------


    POTLOK:  cpu time    0.0909: real time    0.0923
    SETDIJ:  cpu time    0.0059: real time    0.0092
     EDDAV:  cpu time    7.2827: real time    7.3005
       DOS:  cpu time    0.0035: real time    0.0035
    CHARGE:  cpu time    0.1659: real time    0.1663
    MIXING:  cpu time    0.0044: real time    0.0044
    --------------------------------------------
      LOOP:  cpu time    7.5533: real time    7.5761

 eigenvalue-minimisations  :  1792
 total energy-change (2. order) : 0.6401219E+02  (-0.1060519E+02)
 number of electron    1056.0000288 magnetization 
 augmentation part      421.4227739 magnetization 

 Broyden mixing:
  rms(total) = 0.83251E+01    rms(broyden)= 0.83139E+01
  rms(prec ) = 0.92727E+01
  weight for this iteration     100.00

 eigenvalues of (default mixing * dielectric matrix)
  average eigenvalue GAMMA=   0.3823
  0.9982  0.4021  0.2898  0.1107  0.1107

 Free energy of the ion-electron system (eV)
  ---------------------------------------------------
  alpha Z        PSCENC =      2684.99175279
  Ewald energy   TEWEN  =    243443.81261554
  -Hartree energ DENC   =   -405550.89358718
  -exchange      EXHF   =         0.00000000
  -V(xc)+E(xc)   XCENC  =      4827.87576403
  PAW double counting   =    168698.80534540  -175292.29283559
  entropy T*S    EENTRO =        -1.34040099
  eigenvalues    EBANDS =    -20676.48830470
  atomic energy  EATOM  =    181336.80673834
  Solvation  Ediel_sol  =         0.00000000
  ---------------------------------------------------
  free energy    TOTEN  =      -528.72291235 eV

  energy without entropy =     -527.38251136  energy(sigma->0) =     -528.05271186


--------------------------------------------------------------------------------------------------------




--------------------------------------- Iteration      1(  11)  ---------------------------------------


    POTLOK:  cpu time    0.0911: real time    0.0913
    SETDIJ:  cpu time    0.0059: real time    0.0059
     EDDAV:  cpu time    7.3213: real time    7.3392
       DOS:  cpu time    0.0028: real time    0.0028
    CHARGE:  cpu time    0.1650: real time    0.1654
    MIXING:  cpu time    0.0043: real time    0.0043
    --------------------------------------------
      LOOP:  cpu time    7.5903: real time    7.6088

 eigenvalue-minimisations  :  1792
 total energy-change (2. order) : 0.2033002E+02  (-0.8973399E+01)
 number of electron    1056.0000242 magnetization 
 augmentation part      414.7405435 magnetization 

 Broyden mixing:
  rms(total) = 0.87584E+01    rms(broyden)= 0.87520E+01
  rms(prec ) = 0.99726E+01
  weight for this iteration     100.00

 eigenvalues of (default mixing * dielectric matrix)
  average eigenvalue GAMMA=   0.4221
  1.3804  0.3822  0.3822  0.1407  0.1407  0.1062

 Free energy of the ion-electron system (eV)
  ---------------------------------------------------
  alpha Z        PSCENC =      2684.99175279
  Ewald energy   TEWEN  =    243443.81261554
  -Hartree energ DENC   =   -405864.12875860
  -exchange      EXHF   =         0.00000000
  -V(xc)+E(xc)   XCENC  =      4829.68916394
  PAW double counting   =    171790.08599121  -178419.62191977
  entropy T*S    EENTRO =        -1.50085814
  eigenvalues    EBANDS =    -20308.52762173
  atomic energy  EATOM  =    181336.80673834
  Solvation  Ediel_sol  =         0.00000000
  ---------------------------------------------------
  free energy    TOTEN  =      -508.39289641 eV

  energy without entropy =     -506.89203827  energy(sigma->0) =     -507.64246734


--------------------------------------------------------------------------------------------------------




--------------------------------------- Iteration      1(  12)  ---------------------------------------


    POTLOK:  cpu time    0.0906: real time    0.0908
    SETDIJ:  cpu time    0.0058: real time    0.0059
     EDDAV:  cpu time    7.1295: real time    7.1471
       DOS:  cpu time    0.0032: real time    0.0032
    CHARGE:  cpu time    0.1636: real time    0.1640
    MIXING:  cpu time    0.0038: real time    0.0038
    --------------------------------------------
      LOOP:  cpu time    7.3966: real time    7.4148

 eigenvalue-minimisations  :  1744
 total energy-change (2. order) :-0.1924347E+02  (-0.1073688E+02)
 number of electron    1056.0000249 magnetization 
 augmentation part      413.6672901 magnetization 

 Broyden mixing:
  rms(total) = 0.96125E+01    rms(broyden)= 0.96102E+01
  rms(prec ) = 0.10798E+02
  weight for this iteration     100.00

 eigenvalues of (default mixing * dielectric matrix)
  average eigenvalue GAMMA=   0.4517
  1.7751  0.4202  0.4202  0.1994  0.1315  0.1079  0.1079

 Free energy of the ion-electron system (eV)
  ---------------------------------------------------
  alpha Z        PSCENC =      2684.99175279
  Ewald energy   TEWEN  =    243443.81261554
  -Hartree energ DENC   =   -405952.90890256
  -exchange      EXHF   =         0.00000000
  -V(xc)+E(xc)   XCENC  =      4827.66266285
  PAW double counting   =    174391.16974694  -181039.95596641
  entropy T*S    EENTRO =        -1.28680336
  eigenvalues    EBANDS =    -20217.92821318
  atomic energy  EATOM  =    181336.80673834
  Solvation  Ediel_sol  =         0.00000000
  ---------------------------------------------------
  free energy    TOTEN  =      -527.63636904 eV

  energy without entropy =     -526.34956568  energy(sigma->0) =     -526.99296736


--------------------------------------------------------------------------------------------------------




--------------------------------------- Iteration      1(  13)  ---------------------------------------


    POTLOK:  cpu time    0.0903: real time    0.0905
    SETDIJ:  cpu time    0.0058: real time    0.0059
     EDDAV:  cpu time    7.4312: real time    7.4519
       DOS:  cpu time    0.0026: real time    0.0026
    CHARGE:  cpu time    0.1647: real time    0.1651
    MIXING:  cpu time    0.0044: real time    0.0044
    --------------------------------------------
      LOOP:  cpu time    7.6990: real time    7.7203

 eigenvalue-minimisations  :  1832
 total energy-change (2. order) : 0.5471808E+01  (-0.3834003E+01)
 number of electron    1056.0000280 magnetization 
 augmentation part      416.6351404 magnetization 

 Broyden mixing:
  rms(total) = 0.68228E+01    rms(broyden)= 0.68216E+01
  rms(prec ) = 0.76916E+01
  weight for this iteration     100.00

 eigenvalues of (default mixing * dielectric matrix)
  average eigenvalue GAMMA=   0.4483
  1.7797  0.4854  0.4854  0.3531  0.1333  0.1333  0.1081  0.1081

 Free energy of the ion-electron system (eV)
  ---------------------------------------------------
  alpha Z        PSCENC =      2684.99175279
  Ewald energy   TEWEN  =    243443.81261554
  -Hartree energ DENC   =   -405930.90204971
  -exchange      EXHF   =         0.00000000
  -V(xc)+E(xc)   XCENC  =      4825.51174016
  PAW double counting   =    176921.25510155  -183590.62168624
  entropy T*S    EENTRO =        -1.37157460
  eigenvalues    EBANDS =    -20211.64719921
  atomic energy  EATOM  =    181336.80673834
  Solvation  Ediel_sol  =         0.00000000
  ---------------------------------------------------
  free energy    TOTEN  =      -522.16456138 eV

  energy without entropy =     -520.79298679  energy(sigma->0) =     -521.47877409


--------------------------------------------------------------------------------------------------------




--------------------------------------- Iteration      1(  14)  ---------------------------------------


    POTLOK:  cpu time    0.0911: real time    0.0932
    SETDIJ:  cpu time    0.0057: real time    0.0089
     EDDAV:  cpu time    6.9250: real time    6.9420
       DOS:  cpu time    0.0042: real time    0.0042
    CHARGE:  cpu time    0.1651: real time    0.1655
    MIXING:  cpu time    0.0042: real time    0.0042
    --------------------------------------------
      LOOP:  cpu time    7.1953: real time    7.2179

 eigenvalue-minimisations  :  1680
 total energy-change (2. order) : 0.6859654E+01  (-0.2593424E+01)
 number of electron    1056.0000220 magnetization 
 augmentation part      419.6493300 magnetization 

 Broyden mixing:
  rms(total) = 0.85869E+01    rms(broyden)= 0.85842E+01
  rms(prec ) = 0.99684E+01
  weight for this iteration     100.00

 eigenvalues of (default mixing * dielectric matrix)
  average eigenvalue GAMMA=   0.4199
  1.7494  0.5208  0.5208  0.3833  0.1484  0.1484  0.1046  0.1046  0.0985

 Free energy of the ion-electron system (eV)
  ---------------------------------------------------
  alpha Z        PSCENC =      2684.99175279
  Ewald energy   TEWEN  =    243443.81261554
  -Hartree energ DENC   =   -405768.51368527
  -exchange      EXHF   =         0.00000000
  -V(xc)+E(xc)   XCENC  =      4826.36021718
  PAW double counting   =    177477.87909477  -184157.46556019
  entropy T*S    EENTRO =        -1.32431261
  eigenvalues    EBANDS =    -20357.85176746
  atomic energy  EATOM  =    181336.80673834
  Solvation  Ediel_sol  =         0.00000000
  ---------------------------------------------------
  free energy    TOTEN  =      -515.30490689 eV

  energy without entropy =     -513.98059428  energy(sigma->0) =     -514.64275059


--------------------------------------------------------------------------------------------------------




--------------------------------------- Iteration      1(  15)  ---------------------------------------


    POTLOK:  cpu time    0.0915: real time    0.0934
    SETDIJ:  cpu time    0.0056: real time    0.0074
     EDDAV:  cpu time    7.2817: real time    7.2994
       DOS:  cpu time    0.0017: real time    0.0017
    CHARGE:  cpu time    0.1658: real time    0.1662
    MIXING:  cpu time    0.0043: real time    0.0043
    --------------------------------------------
      LOOP:  cpu time    7.5506: real time    7.5724

 eigenvalue-minimisations  :  1776
 total energy-change (2. order) : 0.1231198E+02  (-0.2325302E+01)
 number of electron    1056.0000226 magnetization 
 augmentation part      420.7605110 magnetization 

 Broyden mixing:
  rms(total) = 0.54172E+01    rms(broyden)= 0.54158E+01
  rms(prec ) = 0.65776E+01
  weight for this iteration     100.00

 eigenvalues of (default mixing * dielectric matrix)
  average eigenvalue GAMMA=   0.3956
  1.6202  0.5436  0.5436  0.4285  0.1943  0.1943  0.1163  0.1163  0.1136  0.0849

 Free energy of the ion-electron system (eV)
  ---------------------------------------------------
  alpha Z        PSCENC =      2684.99175279
  Ewald energy   TEWEN  =    243443.81261554
  -Hartree energ DENC   =   -405795.85415277
  -exchange      EXHF   =         0.00000000
  -V(xc)+E(xc)   XCENC  =      4827.67121173
  PAW double counting   =    177482.05373794  -184164.46940573
  entropy T*S    EENTRO =        -1.45653572
  eigenvalues    EBANDS =    -20316.54889113
  atomic energy  EATOM  =    181336.80673834
  Solvation  Ediel_sol  =         0.00000000
  ---------------------------------------------------
  free energy    TOTEN  =      -502.99292900 eV

  energy without entropy =     -501.53639328  energy(sigma->0) =     -502.26466114


--------------------------------------------------------------------------------------------------------




--------------------------------------- Iteration      1(  16)  ---------------------------------------


    POTLOK:  cpu time    0.0912: real time    0.0914
    SETDIJ:  cpu time    0.0059: real time    0.0059
     EDDAV:  cpu time    7.2179: real time    7.2362
       DOS:  cpu time    0.0037: real time    0.0037
    CHARGE:  cpu time    0.1671: real time    0.1675
    MIXING:  cpu time    0.0050: real time    0.0050
    --------------------------------------------
      LOOP:  cpu time    7.4909: real time    7.5098

 eigenvalue-minimisations  :  1768
 total energy-change (2. order) : 0.1190227E+02  (-0.1617944E+01)
 number of electron    1056.0000234 magnetization 
 augmentation part      417.6546794 magnetization 

 Broyden mixing:
  rms(total) = 0.41183E+01    rms(broyden)= 0.41164E+01
  rms(prec ) = 0.46383E+01
  weight for this iteration     100.00

 eigenvalues of (default mixing * dielectric matrix)
  average eigenvalue GAMMA=   0.3837
  1.6180  0.5757  0.5757  0.3865  0.2429  0.2429  0.1317  0.1317  0.1123  0.1123
  0.0909

 Free energy of the ion-electron system (eV)
  ---------------------------------------------------
  alpha Z        PSCENC =      2684.99175279
  Ewald energy   TEWEN  =    243443.81261554
  -Hartree energ DENC   =   -405932.55185467
  -exchange      EXHF   =         0.00000000
  -V(xc)+E(xc)   XCENC  =      4830.33502877
  PAW double counting   =    176923.12347572  -183604.82240513
  entropy T*S    EENTRO =        -1.46352975
  eigenvalues    EBANDS =    -20171.32248462
  atomic energy  EATOM  =    181336.80673834
  Solvation  Ediel_sol  =         0.00000000
  ---------------------------------------------------
  free energy    TOTEN  =      -491.09066301 eV

  energy without entropy =     -489.62713326  energy(sigma->0) =     -490.35889813


--------------------------------------------------------------------------------------------------------




--------------------------------------- Iteration      1(  17)  ---------------------------------------


    POTLOK:  cpu time    0.0905: real time    0.0907
    SETDIJ:  cpu time    0.0059: real time    0.0060
     EDDAV:  cpu time    7.2293: real time    7.2470
       DOS:  cpu time    0.0029: real time    0.0029
    CHARGE:  cpu time    0.1687: real time    0.1691
    MIXING:  cpu time    0.0045: real time    0.0045
    --------------------------------------------
      LOOP:  cpu time    7.5018: real time    7.5201

 eigenvalue-minimisations  :  1768
 total energy-change (2. order) : 0.5026447E+01  (-0.8946337E+00)
 number of electron    1056.0000221 magnetization 
 augmentation part      416.6688925 magnetization 

 Broyden mixing:
  rms(total) = 0.33251E+01    rms(broyden)= 0.33237E+01
  rms(prec ) = 0.37596E+01
  weight for this iteration     100.00

 eigenvalues of (default mixing * dielectric matrix)
  average eigenvalue GAMMA=   0.3946
  1.6879  0.6329  0.6329  0.3847  0.3847  0.2854  0.1518  0.1518  0.1122  0.1122
  0.1094  0.0888

 Free energy of the ion-electron system (eV)
  ---------------------------------------------------
  alpha Z        PSCENC =      2684.99175279
  Ewald energy   TEWEN  =    243443.81261554
  -Hartree energ DENC   =   -405990.32533622
  -exchange      EXHF   =         0.00000000
  -V(xc)+E(xc)   XCENC  =      4831.19935743
  PAW double counting   =    176752.32459836  -183431.43154449
  entropy T*S    EENTRO =        -1.30613530
  eigenvalues    EBANDS =    -20112.13626232
  atomic energy  EATOM  =    181336.80673834
  Solvation  Ediel_sol  =         0.00000000
  ---------------------------------------------------
  free energy    TOTEN  =      -486.06421587 eV

  energy without entropy =     -484.75808057  energy(sigma->0) =     -485.41114822


--------------------------------------------------------------------------------------------------------




--------------------------------------- Iteration      1(  18)  ---------------------------------------


    POTLOK:  cpu time    0.0909: real time    0.0912
    SETDIJ:  cpu time    0.0058: real time    0.0058
     EDDAV:  cpu time    7.1896: real time    7.2066
       DOS:  cpu time    0.0022: real time    0.0023
    CHARGE:  cpu time    0.1683: real time    0.1688
    MIXING:  cpu time    0.0047: real time    0.0047
    --------------------------------------------
      LOOP:  cpu time    7.4616: real time    7.4793

 eigenvalue-minimisations  :  1752
 total energy-change (2. order) : 0.1845304E+01  (-0.4134071E+00)
 number of electron    1056.0000212 magnetization 
 augmentation part      417.3999497 magnetization 

 Broyden mixing:
  rms(total) = 0.27965E+01    rms(broyden)= 0.27958E+01
  rms(prec ) = 0.31899E+01
  weight for this iteration     100.00

 eigenvalues of (default mixing * dielectric matrix)
  average eigenvalue GAMMA=   0.4095
  1.7131  0.7625  0.7625  0.4461  0.4461  0.3129  0.1630  0.1630  0.1188  0.1188
  0.1138  0.1138  0.0885

 Free energy of the ion-electron system (eV)
  ---------------------------------------------------
  alpha Z        PSCENC =      2684.99175279
  Ewald energy   TEWEN  =    243443.81261554
  -Hartree energ DENC   =   -405966.54960801
  -exchange      EXHF   =         0.00000000
  -V(xc)+E(xc)   XCENC  =      4831.08610061
  PAW double counting   =    176749.86632474  -183425.67837164
  entropy T*S    EENTRO =        -1.43598338
  eigenvalues    EBANDS =    -20137.11848123
  atomic energy  EATOM  =    181336.80673834
  Solvation  Ediel_sol  =         0.00000000
  ---------------------------------------------------
  free energy    TOTEN  =      -484.21891222 eV

  energy without entropy =     -482.78292884  energy(sigma->0) =     -483.50092053


--------------------------------------------------------------------------------------------------------




--------------------------------------- Iteration      1(  19)  ---------------------------------------


    POTLOK:  cpu time    0.0911: real time    0.0913
    SETDIJ:  cpu time    0.0059: real time    0.0059
     EDDAV:  cpu time    7.1754: real time    7.1924
       DOS:  cpu time    0.0020: real time    0.0020
[...]
   -.523E+03 -.567E+02 -.463E+04   0.518E+03 0.556E+02 0.463E+04   0.472E+01 0.111E+01 0.369E+01   0.119E-01 0.342E+00 0.460E+00
   -.647E+03 -.418E+03 0.463E+04   0.642E+03 0.416E+03 -.463E+04   0.495E+01 0.147E+01 0.591E+01   0.334E-02 0.114E+00 -.620E-01
   0.401E+03 -.241E+03 0.597E+03   -.402E+03 0.241E+03 -.598E+03   0.102E+01 -.585E+00 0.349E+00   -.835E-01 -.113E+00 -.160E+00
   0.395E+03 -.251E+03 -.247E+04   -.396E+03 0.251E+03 0.247E+04   0.129E+01 -.713E+00 0.653E+00   -.149E+00 -.736E-01 0.659E+00
   0.244E+03 -.187E+03 -.527E+04   -.246E+03 0.188E+03 0.526E+04   0.134E+01 -.877E+00 0.582E+01   -.727E-01 -.203E+00 0.318E+00
   0.391E+03 -.241E+03 0.408E+04   -.390E+03 0.240E+03 -.408E+04   -.173E+01 0.107E+01 -.929E+00   0.243E+00 -.150E+00 -.578E+00
   0.506E+02 0.480E+03 -.453E+04   -.483E+02 -.479E+03 0.453E+04   -.182E+01 -.683E+00 -.223E-01   0.274E+00 -.211E+00 0.336E+00
   0.838E+02 0.766E+03 0.463E+04   -.845E+02 -.760E+03 -.463E+04   0.904E+00 -.508E+01 0.591E+01   -.100E+00 -.540E-01 -.620E-01
   0.367E+02 0.552E+03 0.171E+04   -.369E+02 -.553E+03 -.171E+04   0.377E+00 0.109E+01 0.122E+01   -.116E+00 0.298E-01 -.379E+00
   0.185E+02 0.517E+03 -.139E+04   -.187E+02 -.518E+03 0.139E+04   0.305E+00 0.100E+01 0.134E+01   -.248E-01 -.273E-02 0.572E+00
   -.482E+03 -.212E+03 0.169E+04   0.482E+03 0.213E+03 -.170E+04   -.726E+00 -.834E+00 0.152E+01   0.671E-01 0.236E-01 -.364E+00
   -.438E+03 -.243E+03 -.140E+04   0.439E+03 0.243E+03 0.140E+04   -.753E+00 -.528E+00 0.161E+01   0.142E+00 -.794E-01 0.471E+00
   -.406E+03 -.260E+03 -.453E+04   0.406E+03 0.258E+03 0.453E+04   -.205E+00 0.193E+01 -.223E-01   0.312E+00 -.150E+00 0.336E+00
   -.379E+03 -.274E+03 0.455E+04   0.381E+03 0.275E+03 -.456E+04   -.172E+01 -.172E+01 0.553E+01   -.262E-01 0.115E+00 -.144E+00
   0.393E+03 -.243E+03 0.578E+03   -.394E+03 0.243E+03 -.578E+03   0.108E+01 -.665E+00 0.420E+00   0.839E-01 -.518E-01 -.213E+00
   0.423E+03 -.261E+03 -.255E+04   -.424E+03 0.262E+03 0.255E+04   0.101E+01 -.626E+00 0.788E+00   0.180E+00 -.111E+00 0.289E+00
   0.489E+03 -.302E+03 -.532E+04   -.483E+03 0.298E+03 0.530E+04   -.672E+01 0.415E+01 0.119E+02   0.402E+00 -.248E+00 0.186E+00
   0.444E+03 -.252E+03 0.370E+04   -.446E+03 0.254E+03 -.370E+04   0.192E+01 -.134E+01 0.385E+01   0.103E+00 -.330E-01 -.397E+00
   0.169E+02 0.514E+03 -.452E+04   -.144E+02 -.513E+03 0.452E+04   -.166E+01 -.111E+01 -.197E+00   -.343E-01 0.221E+00 0.508E+00
   -.294E+02 0.513E+03 0.455E+04   0.285E+02 -.516E+03 -.455E+04   0.809E+00 0.228E+01 0.575E+01   -.123E+00 -.284E-01 -.723E-01
   -.262E+02 0.526E+03 0.169E+04   0.257E+02 -.527E+03 -.170E+04   0.420E+00 0.102E+01 0.152E+01   0.896E-02 -.705E-01 -.364E+00
   0.207E+02 0.501E+03 -.140E+04   -.208E+02 -.502E+03 0.140E+04   0.135E+00 0.910E+00 0.161E+01   0.135E+00 -.916E-01 0.471E+00
   -.447E+03 -.238E+03 0.167E+04   0.448E+03 0.239E+03 -.167E+04   -.533E+00 -.766E+00 0.126E+01   0.560E-02 -.800E-01 -.383E+00
   -.462E+03 -.259E+03 -.141E+04   0.463E+03 0.259E+03 0.141E+04   -.627E+00 -.580E+00 0.143E+01   0.684E-01 -.136E+00 0.447E+00
   -.459E+03 -.313E+03 -.454E+04   0.459E+03 0.311E+03 0.454E+04   0.184E+00 0.216E+01 -.395E+00   -.941E-01 -.378E+00 0.456E+00
   -.472E+03 -.204E+03 0.455E+04   0.474E+03 0.206E+03 -.455E+04   -.168E+01 -.174E+01 0.575E+01   -.297E-01 0.122E+00 -.723E-01
   -.122E+03 0.722E+02 0.260E+03   0.124E+03 -.732E+02 -.262E+03   -.188E+01 0.103E+01 0.164E+01   0.154E-01 -.288E-01 -.352E-01
   -.117E+03 0.764E+02 -.898E+03   0.119E+03 -.774E+02 0.895E+03   -.200E+01 0.116E+01 0.237E+01   -.304E-02 -.384E-02 0.301E+00
   -.953E+02 0.588E+02 0.145E+04   0.966E+02 -.596E+02 -.145E+04   -.179E+01 0.111E+01 0.386E+00   -.477E-01 0.294E-01 -.487E+00
   -.254E+02 0.157E+02 -.201E+04   0.254E+02 -.157E+02 0.201E+04   -.838E+00 0.517E+00 -.349E+01   -.393E-01 0.243E-01 0.477E-01
   -.442E+01 -.175E+03 -.136E+04   0.420E+01 0.178E+03 0.136E+04   0.504E+00 -.298E+01 0.130E+01   0.233E-01 0.185E-01 0.289E+00
   0.552E+01 -.169E+03 -.211E+03   -.544E+01 0.172E+03 0.211E+03   0.375E-01 -.265E+01 0.191E+00   -.751E-01 0.904E-01 0.201E+00
   0.877E+02 -.139E+03 0.203E+04   -.898E+02 0.140E+03 -.204E+04   0.223E+01 -.517E+00 0.511E+01   0.465E-01 0.100E+00 -.113E-01
   0.103E+02 -.182E+03 0.932E+03   -.103E+02 0.184E+03 -.932E+03   0.130E+00 -.264E+01 0.753E+00   -.456E-01 -.138E+00 -.268E+00
   0.158E+03 0.478E+02 0.984E+03   -.160E+03 -.489E+02 -.984E+03   0.174E+01 0.136E+01 -.104E+01   -.120E+00 0.959E-01 -.337E+00
   0.154E+03 0.709E+02 -.211E+03   -.156E+03 -.722E+02 0.211E+03   0.238E+01 0.115E+01 0.191E+00   -.114E+00 0.266E-01 0.201E+00
   0.138E+03 0.854E+02 -.137E+04   -.140E+03 -.866E+02 0.137E+04   0.287E+01 0.975E+00 0.139E+01   -.204E+00 0.279E-01 0.222E+00
   -.118E+03 0.726E+02 0.257E+03   0.119E+03 -.737E+02 -.259E+03   -.183E+01 0.113E+01 0.198E+01   0.158E+00 -.978E-01 0.402E-01
   -.133E+03 0.823E+02 -.936E+03   0.135E+03 -.834E+02 0.934E+03   -.166E+01 0.103E+01 0.229E+01   0.410E-01 -.253E-01 0.456E-01
   -.119E+03 0.280E+02 0.206E+04   0.120E+03 -.282E+02 -.207E+04   -.930E+00 0.737E+00 0.544E+01   -.173E-01 0.168E-01 0.375E-01
   -.146E+03 0.576E+02 0.141E+04   0.148E+03 -.585E+02 -.141E+04   -.140E+01 0.102E+01 0.145E+01   -.935E-02 0.263E-01 -.174E+00
   -.254E+02 0.154E+02 -.201E+04   0.255E+02 -.157E+02 0.201E+04   -.904E+00 0.677E+00 -.360E+01   0.160E-02 0.256E-01 0.718E-01
   -.146E+02 -.161E+03 -.137E+04   0.146E+02 0.164E+03 0.137E+04   0.414E+00 -.300E+01 0.139E+01   -.116E+00 0.170E+00 0.222E+00
   0.263E+00 -.175E+03 -.213E+03   -.230E+00 0.177E+03 0.213E+03   -.828E-02 -.264E+01 0.433E-01   -.177E-01 0.287E-01 0.808E-01
   0.110E+03 -.761E+02 0.203E+04   -.112E+03 0.762E+02 -.203E+04   0.203E+01 -.178E+00 0.578E+01   -.255E-01 0.158E-01 -.162E-01
   0.201E+01 -.167E+03 0.924E+03   -.219E+01 0.170E+03 -.924E+03   0.217E+00 -.293E+01 0.490E+00   0.174E-01 -.266E-01 -.217E+00
   0.163E+03 -.162E+02 0.203E+04   -.165E+03 0.175E+02 -.204E+04   0.146E+01 -.176E+01 0.511E+01   -.689E-01 -.866E-01 -.113E-01
   0.167E+03 0.722E+02 0.932E+03   -.169E+03 -.734E+02 -.932E+03   0.241E+01 0.106E+01 0.753E+00   0.103E+00 0.103E+00 -.268E+00
   0.155E+03 0.772E+02 -.220E+03   -.157E+03 -.784E+02 0.220E+03   0.254E+01 0.120E+01 -.208E+00   0.330E-01 0.577E-01 0.810E-01
   0.160E+03 0.106E+03 -.138E+04   -.163E+03 -.108E+03 0.138E+04   0.309E+01 0.908E+00 0.136E+01   0.151E+00 0.134E+00 0.219E+00
   -.125E+03 0.774E+02 0.273E+03   0.127E+03 -.783E+02 -.275E+03   -.155E+01 0.956E+00 0.184E+01   0.250E-01 -.154E-01 -.143E-01
   -.115E+03 0.708E+02 -.896E+03   0.116E+03 -.718E+02 0.893E+03   -.189E+01 0.117E+01 0.250E+01   0.240E-02 -.148E-02 0.299E+00
   -.782E+02 0.935E+02 0.206E+04   0.788E+02 -.943E+02 -.207E+04   -.108E+01 0.501E+00 0.544E+01   -.228E-01 0.796E-02 0.375E-01
   -.117E+03 0.105E+03 0.141E+04   0.118E+03 -.106E+03 -.141E+04   -.154E+01 0.794E+00 0.145E+01   -.277E-01 -.345E-02 -.174E+00
   -.252E+02 0.158E+02 -.201E+04   0.254E+02 -.157E+02 0.201E+04   -.101E+01 0.504E+00 -.360E+01   -.222E-01 -.129E-01 0.718E-01
   0.258E+02 -.171E+03 -.138E+04   -.261E+02 0.174E+03 0.138E+04   0.156E+00 -.292E+01 0.143E+01   0.188E+00 0.548E-01 0.120E+00
   0.385E+00 -.173E+03 -.220E+03   -.432E+00 0.176E+03 0.220E+03   0.686E-01 -.281E+01 -.208E+00   -.368E-01 -.554E-01 0.810E-01
   0.281E+02 -.163E+03 0.984E+03   -.278E+02 0.165E+03 -.984E+03   -.438E+00 -.217E+01 -.104E+01   -.139E+00 0.639E-01 -.337E+00
   0.797E+02 -.919E+01 0.202E+04   -.807E+02 0.108E+02 -.203E+04   0.129E+01 -.211E+01 0.601E+01   0.114E-01 -.257E-01 0.125E-01
   0.149E+03 0.945E+02 0.942E+03   -.152E+03 -.961E+02 -.943E+03   0.266E+01 0.146E+01 0.331E+00   0.222E-01 0.269E-02 -.197E+00
   0.156E+03 0.781E+02 -.213E+03   -.159E+03 -.793E+02 0.213E+03   0.236E+01 0.119E+01 0.433E-01   -.336E-01 0.298E-02 0.808E-01
   0.155E+03 0.825E+02 -.136E+04   -.157E+03 -.836E+02 0.136E+04   0.289E+01 0.884E+00 0.130E+01   -.613E-02 -.291E-01 0.289E+00
   -.119E+03 0.764E+02 0.260E+03   0.121E+03 -.777E+02 -.262E+03   -.177E+01 0.122E+01 0.164E+01   0.327E-01 -.810E-03 -.352E-01
   -.121E+03 0.705E+02 -.898E+03   0.122E+03 -.717E+02 0.895E+03   -.193E+01 0.127E+01 0.237E+01   0.207E-02 0.444E-02 0.301E+00
   -.138E+03 0.850E+02 0.206E+04   0.139E+03 -.859E+02 -.207E+04   -.165E+01 0.102E+01 0.530E+01   -.179E-01 0.111E-01 0.280E-01
   -.183E+03 0.113E+03 0.144E+04   0.185E+03 -.114E+03 -.144E+04   -.184E+01 0.114E+01 0.944E+00   0.478E-01 -.295E-01 -.179E+00
   -.234E+02 -.191E+03 -.138E+04   0.232E+02 0.194E+03 0.138E+04   0.574E+00 -.317E+01 0.136E+01   -.523E-01 -.195E+00 0.219E+00
   0.432E+01 -.167E+03 -.225E+03   -.435E+01 0.170E+03 0.225E+03   0.190E-02 -.265E+01 0.483E-01   0.357E-01 -.859E-02 0.525E-01
   0.439E+02 -.672E+02 0.202E+04   -.458E+02 0.673E+02 -.203E+04   0.247E+01 -.203E+00 0.601E+01   0.281E-01 0.130E-02 0.125E-01
   -.177E+02 -.176E+03 0.942E+03   0.179E+02 0.179E+03 -.943E+03   -.115E+00 -.303E+01 0.331E+00   0.756E-02 -.211E-01 -.197E+00
   0.118E+03 -.647E+02 0.203E+04   -.118E+03 0.662E+02 -.203E+04   0.107E+01 -.173E+01 0.578E+01   -.256E-01 0.157E-01 -.162E-01
   0.150E+03 0.730E+02 0.924E+03   -.153E+03 -.741E+02 -.924E+03   0.271E+01 0.112E+01 0.490E+00   0.315E-01 -.368E-02 -.217E+00
   0.151E+03 0.710E+02 -.225E+03   -.154E+03 -.722E+02 0.225E+03   0.237E+01 0.118E+01 0.483E-01   0.237E-01 -.281E-01 0.525E-01
   0.164E+03 0.536E+02 -.138E+04   -.167E+03 -.545E+02 0.138E+04   0.268E+01 0.117E+01 0.143E+01   0.353E-01 -.193E+00 0.120E+00
 -----------------------------------------------------------------------------------------------
   -.232E+02 0.143E+02 -.180E+03   0.199E-12 0.146E-11 -.909E-11   0.239E+02 -.147E+02 0.176E+03   -.705E+00 0.435E+00 0.438E+01
 
 
 POSITION                                       TOTAL-FORCE (eV/Angst)
 -----------------------------------------------------------------------------------
      2.62560      6.70560      5.50842        -0.081905      0.050561     -0.162179
      3.57110      6.12193      8.44448         0.049745     -0.030708      0.051459
      4.51660      5.53827     11.38054        -0.798840      0.493134     -1.456047
      1.68010      1.66104      2.57236        -0.222569      0.036677     -0.300657
      0.56471      0.86257     10.60481         0.605874     -0.026573     -0.507459
      2.75962      5.13586      1.79664         0.167515     -0.831055      1.057021
      3.70512      4.55219      4.73270        -0.015272      0.089066     -0.122777
      4.65062      3.96852      7.66876         0.115270     -0.131513      0.117187
      0.00304      4.18332      4.73270        -0.059604     -0.053173     -0.057382
      0.94854      3.59965      7.66876         0.133177     -0.066641      0.027479
      1.89404      3.01598     10.60481         0.348730     -0.657624     -0.509140
      4.08895      7.28927      1.79664         0.818000      0.222684      1.057021
      7.65701      9.22789      5.50842         0.115698     -0.141736     -0.070549
      8.60251      8.64422      8.44448         0.109932     -0.013923      0.035599
      9.54801      8.06055     11.38054        -1.033814      0.608577     -1.294195
      6.71151      4.18332      2.57236        -0.165871      0.102394     -0.469769
      5.59612      3.38485     10.60481        -0.462145      0.106670     -1.464762
      7.79103      7.65814      1.79664        -0.107187     -0.463153     -0.672495
      8.73653      7.07447      4.73270        -0.027937      0.086699      0.020278
      9.68203      6.49080      7.66876         0.100856     -0.116872      0.013647
      5.03445      6.70560      4.73270        -0.086465     -0.026263     -0.122777
      5.97995      6.12193      7.66876         0.169225     -0.044109      0.117187
      6.92545      5.53827     10.60481        -0.302468      0.365335     -1.464762
      9.12036      9.81155      1.79664        -0.689134     -0.419054     -0.216938
      2.62560     12.33384      5.50842         0.178556     -0.039910     -0.070549
      3.57110     11.75017      8.44448         0.061712     -0.092035      0.035599
      4.51660     11.16650     11.38054        -1.007345      0.651454     -1.294195
      1.68010      7.28927      2.57236         0.164502     -0.101549      0.990293
      0.56471      6.49080     10.60481         0.716690     -0.020404     -0.586484
      2.75962     10.76409      1.79664         0.065783      0.803856     -0.216938
      3.70512     10.18042      4.73270         0.020823      0.077113     -0.057382
      4.65062      9.59675      7.66876         0.119258     -0.089189      0.027479
      0.00304      9.81155      4.73270        -0.195234     -0.022835      0.088190
      0.94854      9.22789      7.66876         0.161598     -0.078454      0.004008
      1.89404      8.64422     10.60481         0.339424     -0.631548     -0.586484
      4.08895     12.91750      1.79664         0.366004      0.303381     -0.672495
      7.65701     14.85612      5.50842         0.068324     -0.042177     -0.072649
      8.60251     14.27245      8.44448        -0.029805      0.018399      0.164730
      9.54801     13.68878     11.38054         0.154445     -0.095341     -1.676276
      6.71151      9.81155      2.57236        -0.132531      0.182531     -0.300657
      5.59612      9.01308     10.60481         0.744171     -0.017038     -0.509140
      7.79103     13.28637      1.79664        -0.215431     -0.370575     -0.472975
      8.73653     12.70270      4.73270        -0.067080      0.184764      0.088190
      9.68203     12.11903      7.66876         0.142554     -0.109303      0.004008
      5.03445     12.33384      4.73270        -0.090025     -0.013879      0.020278
      5.97995     11.75017      7.66876         0.149677     -0.037785      0.013647
      6.92545     11.16650     10.60481         0.295276     -0.529718     -0.507459
      9.12036     15.43979      1.79664         0.234734      0.358659     -0.472975
      0.73335      2.24548      5.87212         0.057153      0.021141      0.052502
      1.67886      1.66181      8.80817        -0.126888      0.153539     -0.012715
      4.81926      5.35143      2.93606        -0.596270      0.368085     -0.877565
      2.62436      6.70637     11.74423        -0.859653      0.530674      0.119805
      0.30423      4.40389      9.79595         0.313550     -0.170378      1.033184
      4.39014      7.50984      6.85989         0.042663      0.128914      0.151932
      2.49914      3.04894      0.98778         0.188847      0.930539      0.462549
      3.44464      2.46527      3.92384         0.076825      0.032743     -0.146252
      1.75192      5.35143      3.92384         0.018030      0.283377     -1.072169
      2.69743      4.76776      6.85989        -0.096124     -0.095911      0.151932
      3.64293      4.18409      9.79595         0.285938     -0.130058      1.105451
      5.76476      4.76776      5.87212         0.087150     -0.053799     -0.078069
      6.71027      4.18409      8.80817         0.158102     -0.097599      1.027047
      8.90517      8.45738      0.00000         0.040934      0.494873      1.238331
      9.85067      7.87371      2.93606         0.028532      0.183115     -0.362817
      7.65577      9.22865     11.74423        -0.812882      0.453403      0.017975
      5.33564      6.92617      9.79595         0.244409     -0.197332      1.105451
      9.42155     10.03212      6.85989         0.006498      0.015868      0.114314
      7.53055      5.57122      0.98778         0.222252     -0.006375      0.572595
      8.47605      4.98755      3.92384         0.045271     -0.020849     -0.144536
      5.83783      8.45738      0.98778        -0.747233     -0.585840      0.462549
      6.78333      7.87371      3.92384         0.005158     -0.083352     -0.146252
      7.72884      7.29004      6.85989        -0.000207      0.017685      0.065117
      8.67434      6.70637      9.79595         0.150900     -0.333391      1.203380
      0.73335      7.87371      5.87212         0.053622     -0.033101      0.039006
      1.67886      7.29004      8.80817        -0.166767      0.102947      0.042293
      3.87376     11.56333      0.00000        -0.424052     -0.258370      1.238331
      4.81926     10.97966      2.93606        -0.150910     -0.107569     -0.362817
      2.62436     12.33460     11.74423        -0.769616      0.523492      0.017975
      0.30423     10.03212      9.79595        -0.022335     -0.148085      1.406344
      4.39014     13.13807      6.85989        -0.015902     -0.007740      0.065117
      3.44464      8.09350      3.92384        -0.245247     -0.143113     -1.072169
      0.80642     11.56333      0.98778         0.331558     -0.581008      0.481786
      1.75192     10.97966      3.92384        -0.013106     -0.074957     -0.253557
      2.69743     10.39599      6.85989        -0.011273     -0.012920      0.114314
      3.64293      9.81232      9.79595         0.292828     -0.203946      1.033184
      5.76476     10.39599      5.87212         0.006714     -0.060567      0.052502
      6.71027      9.81232      8.80817        -0.194122      0.044624     -0.012715
      8.90517     14.08561      0.00000        -0.203483      0.125613      1.031572
      9.85067     13.50194      2.93606         0.537999     -0.332113     -0.904187
      5.33564     12.55440      9.79595         0.365663      0.014510      1.203380
      9.42155     15.66035      6.85989         0.000393      0.030990      0.114258
      7.53055     11.19946      0.98778         0.667985     -0.036022      0.481786
      8.47605     10.61579      3.92384         0.061135      0.045308     -0.253557
      5.83783     14.08561      0.98778         0.105300     -0.195827      0.572595
      6.78333     13.50194      3.92384         0.038926     -0.031127     -0.144536
      7.72884     12.91827      6.85989        -0.027528     -0.014240      0.114258
      8.67434     12.33460      9.79595         0.122373      0.086330      1.406344
 -----------------------------------------------------------------------------------
    total drift:                                0.013778     -0.019465      0.098538


--------------------------------------------------------------------------------------------------------



  FREE ENERGIE OF THE ION-ELECTRON SYSTEM (eV)
  ---------------------------------------------------
  free  energy   TOTEN  =      -478.46283847 eV

  energy  without entropy=     -477.08126808  energy(sigma->0) =     -477.77205327
 


--------------------------------------------------------------------------------------------------------


    POTLOK:  cpu time    0.0974: real time    0.0987


--------------------------------------------------------------------------------------------------------


     LOOP+:  cpu time  290.8355: real time  291.6395
    4ORBIT:  cpu time    0.0000: real time    0.0000

 total amount of memory used by VASP MPI-rank0    51436. kBytes
=======================================================================

   base      :      30000. kBytes
   nonlr-proj:       3323. kBytes
   fftplans  :       4386. kBytes
   grid      :       7756. kBytes
   one-center:        124. kBytes
   wavefun   :       5847. kBytes
 
  
  
 General timing and accounting informations for this job:
 ========================================================
  
                  Total CPU time used (sec):      294.025
                            User time (sec):      293.233
                          System time (sec):        0.791
                         Elapsed time (sec):      295.212
  
                   Maximum memory used (kb):      268712.
                   Average memory used (kb):           0.
  
                          Minor page faults:        89878
                          Major page faults:            0
                 Voluntary context switches:         1118
