       N       E                     dE             d eps       ncg     rms          rms(c)
DAV:   1     0.145630454263E+05    0.14563E+05   -0.67774E+05  1528   0.175E+03
DAV:   2     0.116232500016E+04   -0.13401E+05   -0.12931E+05  1304   0.571E+02
DAV:   3    -0.410334993216E+03   -0.15727E+04   -0.14501E+04  1424   0.207E+02
DAV:   4    -0.541924708748E+03   -0.13159E+03   -0.12846E+03  1464   0.514E+01
DAV:   5    -0.547400037646E+03   -0.54753E+01   -0.54576E+01  1584   0.116E+01    0.953E+01
DAV:   6    -0.870479737356E+03   -0.32308E+03   -0.12516E+03  1688   0.151E+02    0.253E+02
DAV:   7    -0.610942750310E+03    0.25954E+03   -0.31084E+02  1552   0.725E+01    0.139E+02
DAV:   8    -0.590862452513E+03    0.20080E+02   -0.23533E+02  1624   0.873E+01    0.187E+02
DAV:   9    -0.854448589601E+03   -0.26359E+03   -0.38871E+02  1720   0.106E+02    0.217E+02
DAV:  10    -0.565328981416E+03    0.28912E+03   -0.26277E+02  1792   0.580E+01    0.933E+01
DAV:  11    -0.545537138954E+03    0.19792E+02   -0.10157E+02  1904   0.626E+01    0.101E+02
DAV:  12    -0.573697634136E+03   -0.28160E+02   -0.11616E+02  1784   0.593E+01    0.100E+02
DAV:  13    -0.567358318050E+03    0.63393E+01   -0.74571E+01  1728   0.434E+01    0.101E+02
DAV:  14    -0.547101552062E+03    0.20257E+02   -0.48319E+01  1720   0.353E+01    0.638E+01
DAV:  15    -0.528032036935E+03    0.19070E+02   -0.47476E+01  1656   0.355E+01    0.662E+01
DAV:  16    -0.520179249857E+03    0.78528E+01   -0.58369E+01  1680   0.291E+01    0.655E+01
DAV:  17    -0.513378644836E+03    0.68006E+01   -0.26324E+01  1736   0.164E+01    0.470E+01
DAV:  18    -0.505783574401E+03    0.75951E+01   -0.12325E+01  1720   0.158E+01    0.365E+01
DAV:  19    -0.501875713121E+03    0.39079E+01   -0.68929E+00  1752   0.113E+01    0.350E+01
DAV:  20    -0.499698432438E+03    0.21773E+01   -0.49270E+00  1736   0.659E+00    0.335E+01
DAV:  21    -0.497850706136E+03    0.18477E+01   -0.11850E+00  1768   0.548E+00    0.325E+01
DAV:  22    -0.496370897295E+03    0.14798E+01   -0.47080E-01  1776   0.326E+00    0.313E+01
DAV:  23    -0.494744442682E+03    0.16265E+01   -0.25408E-01  1784   0.273E+00    0.302E+01
DAV:  24    -0.493428206733E+03    0.13162E+01   -0.17628E-01  1768   0.201E+00    0.291E+01
DAV:  25    -0.488599833783E+03    0.48284E+01   -0.12085E+00  1832   0.707E+00    0.253E+01
DAV:  26    -0.487224406052E+03    0.13754E+01   -0.85109E-01  1728   0.324E+00    0.233E+01
DAV:  27    -0.485345892220E+03    0.18785E+01   -0.32219E-01  1952   0.361E+00    0.204E+01
DAV:  28    -0.484076680289E+03    0.12692E+01   -0.49654E-01  1744   0.404E+00    0.184E+01
DAV:  29    -0.483070081629E+03    0.10066E+01   -0.10527E+00  1752   0.397E+00    0.156E+01
DAV:  30    -0.481778114391E+03    0.12920E+01   -0.10592E+00  1912   0.617E+00    0.103E+01
DAV:  31    -0.481459835386E+03    0.31828E+00   -0.17407E+00  1760   0.580E+00    0.738E+00
DAV:  32    -0.481273000813E+03    0.18683E+00   -0.46432E-01  1568   0.207E+00    0.495E+00
DAV:  33    -0.481288066530E+03   -0.15066E-01   -0.98664E-02  1568   0.162E+00    0.548E+00
DAV:  34    -0.481294170288E+03   -0.61038E-02   -0.98709E-02  1624   0.145E+00    0.560E+00
DAV:  35    -0.481262769411E+03    0.31401E-01   -0.12518E-01  1720   0.165E+00    0.490E+00
DAV:  36    -0.481307248258E+03   -0.44479E-01   -0.26838E-01  1752   0.258E+00    0.563E+00
DAV:  37    -0.481204044282E+03    0.10320E+00   -0.26341E-01  1672   0.242E+00    0.287E+00
DAV:  38    -0.481185507517E+03    0.18537E-01   -0.12592E-01  1800   0.169E+00    0.241E+00
DAV:  39    -0.481183310422E+03    0.21971E-02   -0.73248E-02  1752   0.129E+00    0.218E+00
DAV:  40    -0.481174571127E+03    0.87393E-02   -0.22212E-02  1720   0.686E-01    0.181E+00
DAV:  41    -0.481167401348E+03    0.71698E-02   -0.13468E-02  1728   0.449E-01    0.130E+00
DAV:  42    -0.481165194197E+03    0.22072E-02   -0.64199E-03  1720   0.425E-01    0.108E+00
DAV:  43    -0.481165185469E+03    0.87281E-05   -0.11370E-02  1640   0.482E-01    0.985E-01
DAV:  44    -0.481167094457E+03   -0.19090E-02   -0.81663E-03  1704   0.405E-01    0.114E+00
DAV:  45    -0.481164713944E+03    0.23805E-02   -0.50422E-03  1688   0.315E-01    0.899E-01
DAV:  46    -0.481163623205E+03    0.10907E-02   -0.24621E-03  1448   0.194E-01    0.715E-01
DAV:  47    -0.481164184367E+03   -0.56116E-03   -0.15515E-03  1320   0.203E-01    0.731E-01
DAV:  48    -0.481165392114E+03   -0.12077E-02   -0.18559E-03  1304   0.183E-01    0.876E-01
DAV:  49    -0.481162967360E+03    0.24248E-02   -0.15333E-03  1224   0.156E-01    0.538E-01
DAV:  50    -0.481162123983E+03    0.84338E-03   -0.20913E-03  1392   0.166E-01    0.228E-01
DAV:  51    -0.481162820262E+03   -0.69628E-03   -0.26938E-03  1520   0.196E-01    0.321E-01
DAV:  52    -0.481162476775E+03    0.34349E-03   -0.24347E-03  1536   0.188E-01    0.204E-01
DAV:  53    -0.481162396041E+03    0.80735E-04   -0.26304E-04   904   0.788E-02
   1 F= -.48116240E+03 E0= -.48044391E+03  d E =-.143698E+01
