
72 atoms
2 atom types
   0.0000000000   10.0797329849 xlo xhi
   0.0000000000    9.4251025535 ylo yhi
   0.0000000000   20.3205155969 zlo zhi
   3.5732980427    0.0000000000    0.0000000000 xy xz yz

Atoms # atomic

     1      1    6.8428472823    7.4925021364    2.2625144318
     2      1    7.8205595795    6.0762060003    4.8880168346
     3      1    8.7982718832    4.6599098547    7.5135192172
     4      1    9.7759841804    3.2436137185   10.1390216201
     5      1    2.6177410398    3.8787025669    3.1376818926
     6      1    3.5954533370    2.4624064308    5.7631842955
     7      1    4.5731656443    1.0461102946    8.3886866984
     8      1   11.7197617210    5.2949987125    0.5121795100
     9      1    3.9213574344    6.8574132786    9.2638541592
    10      1    7.4946554785    1.6811991430    1.3873469709
    11      1    8.4723677858    0.2649030068    4.0128493738
    12      1   13.0233781257    8.2737094242    6.6383517564
    13      1    5.6404430411    5.3765274330    1.5688409565
    14      1    6.6181553448    3.9602312874    4.1943433390
    15      1    7.5958676419    2.5439351513    6.8198457419
    16      1    8.5735799456    1.1276390057    9.4453481245
    17      1    1.4153367986    1.7627278635    2.4440084173
    18      1    2.3930491058    0.3464317273    5.0695107999
    19      1    6.9440594422    8.3552381353    7.6950132028
    20      1    7.9217717393    6.9389419991   10.3205156057
    21      1    2.7189532033    4.7414385752    8.5701806636
    22      1    9.8655492901    8.9903269931    0.6936734956
    23      1   10.8432615872    7.5740308570    3.3191758782
    24      1   11.8209738809    6.1577347114    5.9446782811
    25      1    0.8986554352    1.5018329475    8.7516746492
    26      1    8.0452515220    5.7507213654    0.8751674609
    27      1    9.0229638192    4.3344252293    3.5006698637
    28      1   10.0006761229    2.9181290837    6.1261722463
    29      1    3.8201452831    2.1369218053    1.7503349217
    30      1    4.7978575767    0.7206256598    4.3758373246
    31      1    9.3488679166    8.7294320771    7.0013397275
    32      1   10.3265802203    7.3131359315    9.6268421101
    33      1    3.1683370733    7.9482247894    2.6255024029
    34      1    4.1460493805    6.5319286532    5.2510047855
    35      1    5.1237616741    5.1156325076    7.8765071883
    36      1   12.2703577645    9.3645209350    0.0000000000
    37      2    3.7821592371    9.0027999948    9.9385890156
    38      2    7.3554572811    3.8265858592    2.0620818273
    39      2    8.3331695783    2.4102897230    4.6875842301
    40      2    9.3108818755    0.9939935868    7.3130866127
    41      2    2.1526387350    1.6290824352    0.3117469055
    42      2    3.1303510322    0.2127862991    2.9372492881
    43      2    7.6813613786    8.2215927070    5.5627516910
    44      2    8.6590736757    6.8052965708    8.1882540939
    45      2    2.4785428324    6.0240892831    3.8124167693
    46      2    3.4562551396    4.6077931469    6.4379191519
    47      2    4.4339674368    3.1914970107    9.0634215547
    48      2   11.5805635236    7.4403854287    1.1869143664
    49      2    7.9088413894    7.9372847430    0.3198772048
    50      2    8.8865536866    6.5209886068    2.9453796077
    51      2    9.8642659903    5.1046924612    5.5708819903
    52      2   10.8419782875    3.6883963250    8.1963843931
    53      2    3.6837351505    4.3234851829    1.1950446657
    54      2    4.6614474441    2.9071890373    3.8205470685
    55      2    5.6391597413    1.4908929011    6.4460494714
    56      2    6.6168720450    0.0745967555    9.0715518540
    57      2    4.0096392479    8.7184920307    4.6957145294
    58      2    4.9873515415    7.3021958851    7.3212169323
    59      2    5.9650638488    5.8858997490    9.9467193149
    60      2    9.5383618828    0.7096856133    2.0702121468
    61      2    4.8466485627    7.4608002291    1.2031749852
    62      2    5.8243608699    6.0445040929    3.8286773678
    63      2    6.8020731671    4.6282079567    6.4541797707
    64      2    7.7797854708    3.2119118111    9.0796821532
    65      2    1.5992546310    2.4307045328    4.7038448286
    66      2    2.5769669246    1.0144083872    7.3293472315
    67      2    7.1279772645    9.0232148046    9.9548496344
    68      2   10.7012753086    3.8470006690    2.0783424461
    69      2    5.4984567725    1.6494972451    0.3280075244
    70      2    6.4761690697    0.2332011089    2.9535099069
    71      2   11.0271794060    8.2420075168    5.5790123098
    72      2   12.0048917133    6.8257113807    8.2045146924
