<?xml version="1.0" encoding="ISO-8859-1"?>
<modeling>
 <generator>
  <i name="program" type="string">vasp </i>
  <i name="version" type="string">5.4.4.18Apr17-6-g9f103f2a35  </i>
  <i name="subversion" type="string">(build Aug 13 2019 17:33:20) gamma-only         parallel </i>
  <i name="platform" type="string">LinuxIFC </i>
  <i name="date" type="string">2020 05 11 </i>
  <i name="time" type="string">13:35:38 </i>
 </generator>
 <incar>
  <i type="string" name="SYSTEM">"Millerite NiS"</i>
  <i type="string" name="PREC">normal</i>
  <i type="int" name="NSIM">     4</i>
  <i type="int" name="NELM">   100</i>
  <i name="ENCUT">    450.00000000</i>
  <i type="string" name="LREAL">A</i>
  <i type="int" name="ISMEAR">     0</i>
  <i type="int" name="NWRITE">     2</i>
  <i type="logical" name="LWAVE"> F  </i>
  <i type="logical" name="LCHARG"> F  </i>
  <v type="int" name="KPOINT_BSE">    -1     0     0     0</v>
  <i type="int" name="NELM">   100</i>
 </incar>
 <structure name="primitive_cell" >
  <crystal>
   <varray name="basis" >
    <v>      11.25646304       0.00000000       0.00000000 </v>
    <v>       5.04456212      10.06282034       0.00000000 </v>
    <v>       0.00000000       0.00000000      22.51995597 </v>
   </varray>
   <i name="volume">   2550.87516496 </i>
   <varray name="rec_basis" >
    <v>       0.08883785      -0.04453504       0.00000000 </v>
    <v>       0.00000000       0.09937572       0.00000000 </v>
    <v>       0.00000000       0.00000000       0.04440506 </v>
   </varray>
  </crystal>
  <varray name="positions" >
   <v>       0.26092069       0.47878037       0.29519774 </v>
   <v>       0.07287763      -0.33317655       0.31134757 </v>
   <v>       0.17409868       0.39738739       0.22483408 </v>
   <v>       0.34231367      -0.43439760       0.22483408 </v>
   <v>       0.26805854       0.30342752       0.35520991 </v>
   <v>       0.43627354       0.47164252       0.35520991 </v>
   <v>       0.36819893       0.23939914       0.26075166 </v>
   <v>      -0.49969806       0.37150214       0.26075166 </v>
   <v>       0.16348438      -0.43058914       0.42267080 </v>
   <v>       0.35488056       0.38482050       0.42557357 </v>
   <v>       0.16696083      -0.42725975       0.16482191 </v>
   <v>       0.47891775       0.26078331       0.18097174 </v>
   <v>      -0.42712237       0.16682345       0.31134757 </v>
   <v>       0.00030194       0.37150214       0.26075166 </v>
   <v>       0.09426180      -0.22245773       0.39112749 </v>
   <v>      -0.03784121      -0.35456073       0.39112749 </v>
   <v>       0.36819893      -0.26060086       0.26075166 </v>
   <v>      -0.06372646       0.47164252       0.35520991 </v>
   <v>       0.26805854      -0.19657248       0.35520991 </v>
   <v>       0.40634206       0.46546200       0.13037583 </v>
   <v>       0.27423906       0.33335901       0.13037583 </v>
   <v>       0.46215879       0.14543927       0.39112749 </v>
   <v>      -0.40573820       0.27754227       0.39112749 </v>
   <v>       0.09426180       0.27754227       0.39112749 </v>
   <v>       0.46215879      -0.35456073       0.39112749 </v>
   <v>       0.00030194      -0.12849786       0.26075166 </v>
   <v>      -0.13180107      -0.26060086       0.26075166 </v>
   <v>      -0.02108225      -0.23921669       0.18097174 </v>
   <v>       0.34231367       0.06560240       0.22483408 </v>
   <v>      -0.32590132       0.39738739       0.22483408 </v>
   <v>       0.22170494      -0.32370316       0.47806179 </v>
   <v>      -0.15768633      -0.43439760       0.22483408 </v>
   <v>       0.17409868      -0.10261261       0.22483408 </v>
   <v>       0.25928742      -0.34264689       0.10895667 </v>
   <v>       0.37111362       0.21776333       0.47113610 </v>
   <v>      -0.47627851       0.35322116       0.47348123 </v>
   <v>       0.07287763       0.16682345       0.31134757 </v>
   <v>      -0.42712237      -0.33317655       0.31134757 </v>
   <v>       0.08531446       0.47191534       0.09863539 </v>
   <v>      -0.06372646      -0.02835748       0.35520991 </v>
   <v>      -0.23194146      -0.19657248       0.35520991 </v>
   <v>      -0.23194146       0.30342752       0.35520991 </v>
   <v>       0.43627354      -0.02835748       0.35520991 </v>
   <v>      -0.47266289      -0.47105887       0.48349870 </v>
   <v>       0.37854085      -0.28051091       0.47610261 </v>
   <v>       0.21508590      -0.46921541       0.05730609 </v>
   <v>       0.02721856       0.34024555       0.47500230 </v>
   <v>      -0.02108225       0.26078331       0.18097174 </v>
   <v>       0.47891775      -0.23921669       0.18097174 </v>
   <v>       0.03124852      -0.16624908       0.47513160 </v>
   <v>       0.27423906      -0.16664099       0.13037583 </v>
   <v>      -0.09365794       0.46546200       0.13037583 </v>
   <v>      -0.33416363       0.07397348       0.41726292 </v>
   <v>       0.21201209       0.18303704       0.48090518 </v>
   <v>      -0.41825725       0.48139723       0.10791399 </v>
   <v>       0.37325407       0.35002602       0.05612540 </v>
   <v>      -0.33303918       0.07274025       0.16482191 </v>
   <v>      -0.14511944      -0.11517949       0.42557357 </v>
   <v>       0.26092069      -0.02121963       0.29519774 </v>
   <v>      -0.23907931       0.47878037       0.29519774 </v>
   <v>      -0.13927847      -0.27911925       0.46934835 </v>
   <v>       0.24835381       0.15956227       0.09445824 </v>
   <v>       0.16696082       0.07274025       0.16482191 </v>
   <v>      -0.14511944       0.38482050       0.42557357 </v>
   <v>       0.35488056      -0.11517949       0.42557357 </v>
   <v>      -0.23907931      -0.02121963       0.29519774 </v>
   <v>      -0.33303917      -0.42725975       0.16482191 </v>
   <v>       0.16415075       0.07170214       0.42348142 </v>
   <v>      -0.33316250      -0.42713642       0.44172340 </v>
   <v>      -0.49969806      -0.12849786       0.26075166 </v>
   <v>      -0.13180107       0.23939914       0.26075166 </v>
   <v>       0.20372909       0.31711882       0.03511191 </v>
   <v>      -0.15768633       0.06560240       0.22483408 </v>
   <v>      -0.32590132      -0.10261261       0.22483408 </v>
   <v>      -0.09365794      -0.03453800       0.13037583 </v>
   <v>      -0.22576094      -0.16664099       0.13037583 </v>
   <v>      -0.22576094       0.33335901       0.13037583 </v>
   <v>       0.40634206      -0.03453800       0.13037583 </v>
   <v>      -0.03784121       0.14543927       0.39112749 </v>
   <v>      -0.40573820      -0.22245773       0.39112749 </v>
   <v>      -0.24173951      -0.34226003       0.10780493 </v>
   <v>      -0.41744868      -0.01971453       0.10874360 </v>
   <v>       0.04561941       0.19378413       0.08063449 </v>
   <v>      -0.23247369       0.15401469       0.09925653 </v>
   <v>       0.08013881      -0.00865274       0.09445824 </v>
   <v>      -0.11025058      -0.13341118       0.05608603 </v>
   <v>      -0.13966096       0.22207807       0.46620717 </v>
   <v>      -0.47972293      -0.12370360       0.47013147 </v>
   <v>      -0.30985395      -0.28669285       0.49008244 </v>
   <v>       0.37978483      -0.13981557       0.05846540 </v>
   <v>      -0.12232978       0.36130064       0.05712955 </v>
   <v>      -0.29317271      -0.46739201       0.05967462 </v>
   <v>      -0.29102374       0.02495714       0.05735007 </v>
   <v>       0.32767390       0.04442333       0.02333179 </v>
   <v>       0.19456405      -0.07246088       0.02234910 </v>
   <v>      -0.07826374       0.03789801       0.03515184 </v>
  </varray>
 </structure>
 <varray name="primitive_index" >
  <v type="int" >        1 </v>
  <v type="int" >       73 </v>
  <v type="int" >       58 </v>
  <v type="int" >       80 </v>
  <v type="int" >       59 </v>
  <v type="int" >       54 </v>
  <v type="int" >        7 </v>
  <v type="int" >       20 </v>
  <v type="int" >       74 </v>
  <v type="int" >        2 </v>
  <v type="int" >       26 </v>
  <v type="int" >       52 </v>
  <v type="int" >       61 </v>
  <v type="int" >        9 </v>
  <v type="int" >       32 </v>
  <v type="int" >       43 </v>
  <v type="int" >       29 </v>
  <v type="int" >       66 </v>
  <v type="int" >       83 </v>
  <v type="int" >       12 </v>
  <v type="int" >        6 </v>
  <v type="int" >        8 </v>
  <v type="int" >       21 </v>
  <v type="int" >       10 </v>
  <v type="int" >       30 </v>
  <v type="int" >       31 </v>
  <v type="int" >       42 </v>
  <v type="int" >       88 </v>
  <v type="int" >       56 </v>
  <v type="int" >       70 </v>
  <v type="int" >       33 </v>
  <v type="int" >       92 </v>
  <v type="int" >       82 </v>
  <v type="int" >       79 </v>
  <v type="int" >       60 </v>
  <v type="int" >       65 </v>
  <v type="int" >       49 </v>
  <v type="int" >       85 </v>
  <v type="int" >       57 </v>
  <v type="int" >       90 </v>
  <v type="int" >       95 </v>
  <v type="int" >       71 </v>
  <v type="int" >       78 </v>
  <v type="int" >       39 </v>
  <v type="int" >       84 </v>
  <v type="int" >       35 </v>
  <v type="int" >       53 </v>
  <v type="int" >       64 </v>
  <v type="int" >       76 </v>
  <v type="int" >       77 </v>
  <v type="int" >       28 </v>
  <v type="int" >       22 </v>
  <v type="int" >       62 </v>
  <v type="int" >       11 </v>
  <v type="int" >       69 </v>
  <v type="int" >       51 </v>
  <v type="int" >       16 </v>
  <v type="int" >       37 </v>
  <v type="int" >       24 </v>
  <v type="int" >       14 </v>
  <v type="int" >       96 </v>
  <v type="int" >       55 </v>
  <v type="int" >        4 </v>
  <v type="int" >       15 </v>
  <v type="int" >       25 </v>
  <v type="int" >       36 </v>
  <v type="int" >       38 </v>
  <v type="int" >       50 </v>
  <v type="int" >       86 </v>
  <v type="int" >       44 </v>
  <v type="int" >       18 </v>
  <v type="int" >        5 </v>
  <v type="int" >       68 </v>
  <v type="int" >       94 </v>
  <v type="int" >       47 </v>
  <v type="int" >       41 </v>
  <v type="int" >       17 </v>
  <v type="int" >       34 </v>
  <v type="int" >       19 </v>
  <v type="int" >       45 </v>
  <v type="int" >       91 </v>
  <v type="int" >       93 </v>
  <v type="int" >        3 </v>
  <v type="int" >       67 </v>
  <v type="int" >       81 </v>
  <v type="int" >       87 </v>
  <v type="int" >       72 </v>
  <v type="int" >       89 </v>
  <v type="int" >       46 </v>
  <v type="int" >       75 </v>
  <v type="int" >       63 </v>
  <v type="int" >       48 </v>
  <v type="int" >       40 </v>
  <v type="int" >       13 </v>
  <v type="int" >       27 </v>
  <v type="int" >       23 </v>
 </varray>
 <kpoints>
  <generation param="Gamma">
   <v type="int" name="divisions">       1        1        1 </v>
   <v name="usershift">      0.00000000       0.00000000       0.00000000 </v>
   <v name="genvec1">      1.00000000       0.00000000       0.00000000 </v>
   <v name="genvec2">      0.00000000       1.00000000       0.00000000 </v>
   <v name="genvec3">      0.00000000       0.00000000       1.00000000 </v>
   <v name="shift">      0.00000000       0.00000000       0.00000000 </v>
  </generation>
  <varray name="kpointlist" >
   <v>       0.00000000       0.00000000       0.00000000 </v>
  </varray>
  <varray name="weights" >
   <v>       1.00000000 </v>
  </varray>
 </kpoints>
 <parameters>
  <separator name="general" >
   <i type="string" name="SYSTEM">"Millerite NiS"</i>
   <i type="logical" name="LCOMPAT"> F  </i>
  </separator>
  <separator name="electronic" >
   <i type="string" name="PREC">normal</i>
   <i name="ENMAX">    450.00000000</i>
   <i name="ENAUG">    703.44300000</i>
   <i name="EDIFF">      0.00010000</i>
   <i type="int" name="IALGO">    38</i>
   <i type="int" name="IWAVPR">    10</i>
   <i type="int" name="NBANDS">   634</i>
   <i name="NELECT">   1056.00000000</i>
   <i type="int" name="TURBO">     0</i>
   <i type="int" name="IRESTART">     0</i>
   <i type="int" name="NREBOOT">     0</i>
   <i type="int" name="NMIN">     0</i>
   <i name="EREF">      0.00000000</i>
   <separator name="electronic smearing" >
    <i type="int" name="ISMEAR">     0</i>
    <i name="SIGMA">      0.20000000</i>
    <i name="KSPACING">      0.50000000</i>
    <i type="logical" name="KGAMMA"> T  </i>
   </separator>
   <separator name="electronic projectors" >
    <i type="logical" name="LREAL"> T  </i>
    <v name="ROPT">     -0.00050000     -0.00050000</v>
    <i type="int" name="LMAXPAW">  -100</i>
    <i type="int" name="LMAXMIX">     2</i>
    <i type="logical" name="NLSPLINE"> F  </i>
   </separator>
   <separator name="electronic startup" >
    <i type="int" name="ISTART">     0</i>
    <i type="int" name="ICHARG">     2</i>
    <i type="int" name="INIWAV">     1</i>
   </separator>
   <separator name="electronic spin" >
    <i type="int" name="ISPIN">     1</i>
    <i type="logical" name="LNONCOLLINEAR"> F  </i>
    <v name="MAGMOM">      1.00000000      1.00000000      1.00000000      1.00000000      1.00000000      1.00000000      1.00000000      1.00000000      1.00000000      1.00000000      1.00000000      1.00000000      1.00000000      1.00000000      1.00000000      1.00000000      1.00000000      1.00000000      1.00000000      1.00000000
      1.00000000      1.00000000      1.00000000      1.00000000      1.00000000      1.00000000      1.00000000      1.00000000      1.00000000      1.00000000      1.00000000      1.00000000      1.00000000      1.00000000      1.00000000      1.00000000      1.00000000      1.00000000      1.00000000      1.00000000
      1.00000000      1.00000000      1.00000000      1.00000000      1.00000000      1.00000000      1.00000000      1.00000000      1.00000000      1.00000000      1.00000000      1.00000000      1.00000000      1.00000000      1.00000000      1.00000000      1.00000000      1.00000000      1.00000000      1.00000000
      1.00000000      1.00000000      1.00000000      1.00000000      1.00000000      1.00000000      1.00000000      1.00000000      1.00000000      1.00000000      1.00000000      1.00000000      1.00000000      1.00000000      1.00000000      1.00000000      1.00000000      1.00000000      1.00000000      1.00000000
      1.00000000      1.00000000      1.00000000      1.00000000      1.00000000      1.00000000      1.00000000      1.00000000      1.00000000      1.00000000      1.00000000      1.00000000      1.00000000      1.00000000      1.00000000      1.00000000</v>
    <i name="NUPDOWN">     -1.00000000</i>
    <i type="logical" name="LSORBIT"> F  </i>
    <v name="SAXIS">      0.00000000      0.00000000      1.00000000</v>
    <i type="logical" name="LSPIRAL"> F  </i>
    <v name="QSPIRAL">      0.00000000      0.00000000      0.00000000</v>
    <i type="logical" name="LZEROZ"> F  </i>
   </separator>
   <separator name="electronic exchange-correlation" >
    <i type="logical" name="LASPH"> F  </i>
    <i type="logical" name="LMETAGGA"> F  </i>
   </separator>
   <separator name="electronic convergence" >
    <i type="int" name="NELM">   100</i>
    <i type="int" name="NELMDL">    -5</i>
    <i type="int" name="NELMIN">     2</i>
    <i name="ENINI">    450.00000000</i>
    <separator name="electronic convergence detail" >
     <i type="logical" name="LDIAG"> T  </i>
     <i type="logical" name="LSUBROT"> F  </i>
     <i name="WEIMIN">      0.00000000</i>
     <i name="EBREAK">      0.00000004</i>
     <i name="DEPER">      0.30000000</i>
     <i type="int" name="NRMM">     4</i>
     <i name="TIME">      0.40000000</i>
    </separator>
   </separator>
   <separator name="electronic mixer" >
    <i name="AMIX">      0.40000000</i>
    <i name="BMIX">      1.00000000</i>
    <i name="AMIN">      0.10000000</i>
    <i name="AMIX_MAG">      1.60000000</i>
    <i name="BMIX_MAG">      1.00000000</i>
    <separator name="electronic mixer details" >
     <i type="int" name="IMIX">     4</i>
     <i type="logical" name="MIXFIRST"> F  </i>
     <i type="int" name="MAXMIX">   -45</i>
     <i name="WC">    100.00000000</i>
     <i type="int" name="INIMIX">     1</i>
     <i type="int" name="MIXPRE">     1</i>
     <i type="int" name="MREMOVE">     5</i>
    </separator>
   </separator>
   <separator name="electronic dipolcorrection" >
    <i type="logical" name="LDIPOL"> F  </i>
    <i type="logical" name="LMONO"> F  </i>
    <i type="int" name="IDIPOL">     0</i>
    <i name="EPSILON">      1.00000000</i>
    <v name="DIPOL">   -100.00000000   -100.00000000   -100.00000000</v>
    <i name="EFIELD">      0.00000000</i>
   </separator>
  </separator>
  <separator name="grids" >
   <i type="int" name="NGX">    60</i>
   <i type="int" name="NGY">    60</i>
   <i type="int" name="NGZ">   120</i>
   <i type="int" name="NGXF">   120</i>
   <i type="int" name="NGYF">   120</i>
   <i type="int" name="NGZF">   240</i>
   <i type="logical" name="ADDGRID"> F  </i>
  </separator>
  <separator name="ionic" >
   <i type="int" name="NSW">     0</i>
   <i type="int" name="IBRION">    -1</i>
   <i type="int" name="MDALGO">     0</i>
   <i type="int" name="ISIF">     2</i>
   <i name="PSTRESS">      0.00000000</i>
   <i name="EDIFFG">      0.00100000</i>
   <i type="int" name="NFREE">     0</i>
   <i name="POTIM">      0.50000000</i>
   <i name="SMASS">     -3.00000000</i>
   <i name="SCALEE">      1.00000000</i>
  </separator>
  <separator name="ionic md" >
   <i name="TEBEG">      0.00010000</i>
   <i name="TEEND">      0.00010000</i>
   <i type="int" name="NBLOCK">     1</i>
   <i type="int" name="KBLOCK">     1</i>
   <i type="int" name="NPACO">   256</i>
   <i name="APACO">     16.00000000</i>
  </separator>
  <separator name="symmetry" >
   <i type="int" name="ISYM">     2</i>
   <i name="SYMPREC">      0.00001000</i>
  </separator>
  <separator name="dos" >
   <i type="int" name="LORBIT">     0</i>
   <v name="RWIGS">     -1.00000000     -1.00000000</v>
   <i type="int" name="NEDOS">   301</i>
   <i name="EMIN">     10.00000000</i>
   <i name="EMAX">    -10.00000000</i>
   <i name="EFERMI">      0.00000000</i>
  </separator>
  <separator name="writing" >
   <i type="int" name="NWRITE">     2</i>
   <i type="logical" name="LWAVE"> F  </i>
   <i type="logical" name="LDOWNSAMPLE"> F  </i>
   <i type="logical" name="LCHARG"> F  </i>
   <i type="logical" name="LPARD"> F  </i>
   <i type="logical" name="LVTOT"> F  </i>
   <i type="logical" name="LVHAR"> F  </i>
   <i type="logical" name="LELF"> F  </i>
   <i type="logical" name="LOPTICS"> F  </i>
   <v name="STM">      0.00000000      0.00000000      0.00000000      0.00000000      0.00000000      0.00000000      0.00000000</v>
  </separator>
  <separator name="performance" >
   <i type="int" name="NPAR">     2</i>
   <i type="int" name="NSIM">     4</i>
   <i type="int" name="NBLK">    -1</i>
   <i type="logical" name="LPLANE"> T  </i>
   <i type="logical" name="LSCALAPACK"> T  </i>
   <i type="logical" name="LSCAAWARE"> F  </i>
   <i type="logical" name="LSCALU"> F  </i>
   <i type="logical" name="LASYNC"> F  </i>
   <i type="logical" name="LORBITALREAL"> F  </i>
  </separator>
  <separator name="miscellaneous" >
   <i type="int" name="IDIOT">     3</i>
   <i type="int" name="ISPECIAL">     0</i>
   <i type="logical" name="LMUSIC"> F  </i>
   <v name="POMASS">     58.69000000     32.06600000</v>
   <v name="DARWINR">      0.00000000      0.00000000</v>
   <v name="DARWINV">      1.00000000      1.00000000</v>
   <i type="logical" name="LCORR"> T  </i>
  </separator>
  <i type="logical" name="GGA_COMPAT"> T  </i>
  <i type="logical" name="LBERRY"> F  </i>
  <i type="int" name="ICORELEVEL">     0</i>
  <i type="logical" name="LDAU"> F  </i>
  <i type="int" name="I_CONSTRAINED_M">     0</i>
  <separator name="electronic exchange-correlation" >
   <i type="string" name="GGA">--</i>
   <i type="int" name="VOSKOWN">     0</i>
   <i type="logical" name="LHFCALC"> F  </i>
   <i type="string" name="PRECFOCK"></i>
   <i type="logical" name="LSYMGRAD"> F  </i>
   <i type="logical" name="LHFONE"> F  </i>
   <i type="logical" name="LRHFCALC"> F  </i>
   <i type="logical" name="LTHOMAS"> F  </i>
   <i type="logical" name="LMODELHF"> F  </i>
   <i name="ENCUT4O">     -1.00000000</i>
   <i type="int" name="EXXOEP">     0</i>
   <i type="int" name="FOURORBIT">     0</i>
   <i name="AEXX">      0.00000000</i>
   <i name="HFALPHA">      0.00000000</i>
   <i name="MCALPHA">      0.00000000</i>
   <i name="ALDAX">      1.00000000</i>
   <i name="AGGAX">      1.00000000</i>
   <i name="ALDAC">      1.00000000</i>
   <i name="AGGAC">      1.00000000</i>
   <i type="int" name="NKREDX">     1</i>
   <i type="int" name="NKREDY">     1</i>
   <i type="int" name="NKREDZ">     1</i>
   <i type="logical" name="SHIFTRED"> F  </i>
   <i type="logical" name="ODDONLY"> F  </i>
   <i type="logical" name="EVENONLY"> F  </i>
   <i type="int" name="LMAXFOCK">     0</i>
   <i type="int" name="NMAXFOCKAE">     0</i>
   <i type="logical" name="LFOCKAEDFT"> F  </i>
   <i name="HFSCREEN">      0.00000000</i>
   <i name="HFSCREENC">      0.00000000</i>
   <i type="int" name="NBANDSGWLOW">     0</i>
  </separator>
  <separator name="vdW DFT" >
   <i type="logical" name="LUSE_VDW"> F  </i>
   <i name="Zab_VDW">     -0.84910000</i>
   <i name="PARAM1">      0.12340000</i>
   <i name="PARAM2">      1.00000000</i>
   <i name="PARAM3">      0.00000000</i>
  </separator>
  <separator name="model GW" >
   <i type="int" name="MODEL_GW">     0</i>
   <i name="MODEL_EPS0">     15.94296978</i>
   <i name="MODEL_ALPHA">      1.00000000</i>
  </separator>
  <separator name="linear response parameters" >
   <i type="logical" name="LEPSILON"> F  </i>
   <i type="logical" name="LRPA"> F  </i>
   <i type="logical" name="LNABLA"> F  </i>
   <i type="logical" name="LVEL"> F  </i>
   <i type="int" name="KINTER">     0</i>
   <i name="CSHIFT">      0.10000000</i>
   <i name="OMEGAMAX">     -1.00000000</i>
   <i name="DEG_THRESHOLD">      0.00200000</i>
   <i name="RTIME">     -0.10000000</i>
   <i name="WPLASMAI">      0.00000000</i>
   <v name="DFIELD">      0.00000000      0.00000000      0.00000000</v>
   <v name="WPLASMA">      0.00000000      0.00000000      0.00000000      0.00000000      0.00000000      0.00000000      0.00000000      0.00000000      0.00000000</v>
  </separator>
  <separator name="orbital magnetization" >
   <i type="logical" name="NUCIND"> F  </i>
   <v name="MAGPOS">      0.00000000      0.00000000      0.00000000</v>
   <i type="logical" name="LNICSALL"> T  </i>
   <i type="logical" name="ORBITALMAG"> F  </i>
   <i type="logical" name="LMAGBLOCH"> F  </i>
   <i type="logical" name="LCHIMAG"> F  </i>
   <i type="logical" name="LGAUGE"> T  </i>
   <i type="int" name="MAGATOM">     0</i>
   <v name="MAGDIPOL">      0.00000000      0.00000000      0.00000000</v>
   <v name="AVECCONST">      0.00000000      0.00000000      0.00000000</v>
  </separator>
  <separator name="response functions" >
   <i type="logical" name="LADDER"> F  </i>
   <i type="logical" name="LRPAFORCE"> F  </i>
   <i type="logical" name="LFXC"> F  </i>
   <i type="logical" name="LHARTREE"> T  </i>
   <i type="int" name="IBSE">     0</i>
   <v type="int" name="KPOINT">    -1     0     0     0</v>
   <i type="logical" name="LTCTE"> F  </i>
   <i type="logical" name="LTETE"> F  </i>
   <i type="logical" name="LTRIPLET"> F  </i>
   <i type="logical" name="LFXCEPS"> F  </i>
   <i type="logical" name="LFXHEG"> F  </i>
   <i type="int" name="NATURALO">     2</i>
   <i type="logical" name="L2ORDER"> F  </i>
   <i type="logical" name="LMP2LT"> F  </i>
   <i type="logical" name="LUSEW"> F  </i>
   <i name="ENCUTGW">     -2.00000000</i>
   <i name="ENCUTGWSOFT">     -2.00000000</i>
   <i name="ENCUTLF">     -1.00000000</i>
   <i type="int" name="LMAXMP2">    -1</i>
   <i name="SCISSOR">      0.00000000</i>
   <i type="int" name="NOMEGA">     0</i>
   <i type="int" name="NOMEGAR">     0</i>
   <i type="int" name="NBANDSGW">    -1</i>
   <i type="int" name="NBANDSO">    -1</i>
   <i type="int" name="NBANDSV">    -1</i>
   <i type="int" name="NELM">   100</i>
   <i type="int" name="NELMHF">     1</i>
   <i type="int" name="DIM">     3</i>
   <i type="int" name="ANTIRES">     0</i>
   <i name="OMEGAMAX">    -30.00000000</i>
   <i name="OMEGAMIN">    -30.00000000</i>
   <i name="OMEGATL">   -200.00000000</i>
   <i type="int" name="OMEGAGRID">   140</i>
   <i name="CSHIFT">     -0.10000000</i>
   <i type="logical" name="SELFENERGY"> F  </i>
   <i type="logical" name="LSPECTRAL"> F  </i>
   <i type="logical" name="LSPECTRALGW"> F  </i>
   <i type="logical" name="LSINGLES"> F  </i>
   <i type="logical" name="LFERMIGW"> F  </i>
   <i type="logical" name="ODDONLYGW"> F  </i>
   <i type="logical" name="EVENONLYGW"> F  </i>
   <i type="int" name="NKREDLFX">     1</i>
   <i type="int" name="NKREDLFY">     1</i>
   <i type="int" name="NKREDLFZ">     1</i>
   <i type="int" name="MAXMEM">  2800</i>
   <i type="int" name="TELESCOPE">     0</i>
   <i type="int" name="TAUPAR">     1</i>
   <i type="int" name="OMEGAPAR">    -1</i>
   <i name="LAMBDA">      1.00000000</i>
  </separator>
  <separator name="External order field" >
   <i name="OFIELD_KAPPA">      0.00000000</i>
   <v name="OFIELD_K">      0.00000000      0.00000000      0.00000000</v>
   <i name="OFIELD_Q6_NEAR">      0.00000000</i>
   <i name="OFIELD_Q6_FAR">      0.00000000</i>
   <i name="OFIELD_A">      0.00000000</i>
  </separator>
 </parameters>
 <atominfo>
  <atoms>      96 </atoms>
  <types>       2 </types>
  <array name="atoms" >
   <dimension dim="1">ion</dimension>
   <field type="string">element</field>
   <field type="int">atomtype</field>
   <set>
    <rc><c>Ni</c><c>   1</c></rc>
    <rc><c>Ni</c><c>   1</c></rc>
    <rc><c>Ni</c><c>   1</c></rc>
    <rc><c>Ni</c><c>   1</c></rc>
    <rc><c>Ni</c><c>   1</c></rc>
    <rc><c>Ni</c><c>   1</c></rc>
    <rc><c>Ni</c><c>   1</c></rc>
    <rc><c>Ni</c><c>   1</c></rc>
    <rc><c>Ni</c><c>   1</c></rc>
    <rc><c>Ni</c><c>   1</c></rc>
    <rc><c>Ni</c><c>   1</c></rc>
    <rc><c>Ni</c><c>   1</c></rc>
    <rc><c>Ni</c><c>   1</c></rc>
    <rc><c>Ni</c><c>   1</c></rc>
    <rc><c>Ni</c><c>   1</c></rc>
    <rc><c>Ni</c><c>   1</c></rc>
    <rc><c>Ni</c><c>   1</c></rc>
    <rc><c>Ni</c><c>   1</c></rc>
    <rc><c>Ni</c><c>   1</c></rc>
    <rc><c>Ni</c><c>   1</c></rc>
    <rc><c>Ni</c><c>   1</c></rc>
    <rc><c>Ni</c><c>   1</c></rc>
    <rc><c>Ni</c><c>   1</c></rc>
    <rc><c>Ni</c><c>   1</c></rc>
    <rc><c>Ni</c><c>   1</c></rc>
    <rc><c>Ni</c><c>   1</c></rc>
    <rc><c>Ni</c><c>   1</c></rc>
    <rc><c>Ni</c><c>   1</c></rc>
    <rc><c>Ni</c><c>   1</c></rc>
    <rc><c>Ni</c><c>   1</c></rc>
    <rc><c>Ni</c><c>   1</c></rc>
    <rc><c>Ni</c><c>   1</c></rc>
    <rc><c>Ni</c><c>   1</c></rc>
    <rc><c>Ni</c><c>   1</c></rc>
    <rc><c>Ni</c><c>   1</c></rc>
    <rc><c>Ni</c><c>   1</c></rc>
    <rc><c>Ni</c><c>   1</c></rc>
    <rc><c>Ni</c><c>   1</c></rc>
    <rc><c>Ni</c><c>   1</c></rc>
    <rc><c>Ni</c><c>   1</c></rc>
    <rc><c>Ni</c><c>   1</c></rc>
    <rc><c>Ni</c><c>   1</c></rc>
    <rc><c>Ni</c><c>   1</c></rc>
    <rc><c>Ni</c><c>   1</c></rc>
    <rc><c>Ni</c><c>   1</c></rc>
    <rc><c>Ni</c><c>   1</c></rc>
    <rc><c>Ni</c><c>   1</c></rc>
    <rc><c>Ni</c><c>   1</c></rc>
    <rc><c>S </c><c>   2</c></rc>
    <rc><c>S </c><c>   2</c></rc>
    <rc><c>S </c><c>   2</c></rc>
    <rc><c>S </c><c>   2</c></rc>
    <rc><c>S </c><c>   2</c></rc>
    <rc><c>S </c><c>   2</c></rc>
    <rc><c>S </c><c>   2</c></rc>
    <rc><c>S </c><c>   2</c></rc>
    <rc><c>S </c><c>   2</c></rc>
    <rc><c>S </c><c>   2</c></rc>
    <rc><c>S </c><c>   2</c></rc>
    <rc><c>S </c><c>   2</c></rc>
    <rc><c>S </c><c>   2</c></rc>
    <rc><c>S </c><c>   2</c></rc>
    <rc><c>S </c><c>   2</c></rc>
    <rc><c>S </c><c>   2</c></rc>
    <rc><c>S </c><c>   2</c></rc>
    <rc><c>S </c><c>   2</c></rc>
    <rc><c>S </c><c>   2</c></rc>
    <rc><c>S </c><c>   2</c></rc>
    <rc><c>S </c><c>   2</c></rc>
    <rc><c>S </c><c>   2</c></rc>
    <rc><c>S </c><c>   2</c></rc>
    <rc><c>S </c><c>   2</c></rc>
    <rc><c>S </c><c>   2</c></rc>
    <rc><c>S </c><c>   2</c></rc>
    <rc><c>S </c><c>   2</c></rc>
    <rc><c>S </c><c>   2</c></rc>
    <rc><c>S </c><c>   2</c></rc>
    <rc><c>S </c><c>   2</c></rc>
    <rc><c>S </c><c>   2</c></rc>
    <rc><c>S </c><c>   2</c></rc>
    <rc><c>S </c><c>   2</c></rc>
    <rc><c>S </c><c>   2</c></rc>
    <rc><c>S </c><c>   2</c></rc>
    <rc><c>S </c><c>   2</c></rc>
    <rc><c>S </c><c>   2</c></rc>
    <rc><c>S </c><c>   2</c></rc>
    <rc><c>S </c><c>   2</c></rc>
    <rc><c>S </c><c>   2</c></rc>
    <rc><c>S </c><c>   2</c></rc>
    <rc><c>S </c><c>   2</c></rc>
    <rc><c>S </c><c>   2</c></rc>
    <rc><c>S </c><c>   2</c></rc>
    <rc><c>S </c><c>   2</c></rc>
    <rc><c>S </c><c>   2</c></rc>
    <rc><c>S </c><c>   2</c></rc>
    <rc><c>S </c><c>   2</c></rc>
   </set>
  </array>
  <array name="atomtypes" >
   <dimension dim="1">type</dimension>
   <field type="int">atomspertype</field>
   <field type="string">element</field>
   <field>mass</field>
   <field>valence</field>
   <field type="string">pseudopotential</field>
   <set>
    <rc><c>  48</c><c>Ni</c><c>     58.69000000</c><c>     16.00000000</c><c>  PAW_PBE Ni_pv 06Sep2000               </c></rc>
    <rc><c>  48</c><c>S </c><c>     32.06600000</c><c>      6.00000000</c><c>  PAW_PBE S 06Sep2000                   </c></rc>
   </set>
  </array>
 </atominfo>
 <structure name="initialpos" >
  <crystal>
   <varray name="basis" >
    <v>      11.25646304       0.00000000       0.00000000 </v>
    <v>       5.04456212      10.06282034       0.00000000 </v>
    <v>       0.00000000       0.00000000      22.51995597 </v>
   </varray>
   <i name="volume">   2550.87516496 </i>
   <varray name="rec_basis" >
    <v>       0.08883785      -0.04453504       0.00000000 </v>
    <v>       0.00000000       0.09937572       0.00000000 </v>
    <v>       0.00000000       0.00000000       0.04440506 </v>
   </varray>
  </crystal>
  <varray name="positions" >
   <v>       0.26092069       0.47878037       0.29519774 </v>
   <v>       0.35488056       0.38482050       0.42557357 </v>
   <v>       0.04561941       0.19378413       0.08063449 </v>
   <v>       0.16696082       0.07274025       0.16482191 </v>
   <v>       0.20372909       0.31711882       0.03511191 </v>
   <v>       0.27423906       0.33335901       0.13037583 </v>
   <v>       0.36819893       0.23939914       0.26075166 </v>
   <v>       0.46215879       0.14543927       0.39112749 </v>
   <v>       0.00030194       0.37150214       0.26075166 </v>
   <v>       0.09426180       0.27754227       0.39112749 </v>
   <v>       0.21201209       0.18303704       0.48090518 </v>
   <v>       0.40634206       0.46546200       0.13037583 </v>
   <v>       0.32767390       0.04442333       0.02333179 </v>
   <v>       0.76092069       0.47878037       0.29519774 </v>
   <v>       0.85488056       0.38482050       0.42557357 </v>
   <v>       0.66696082       0.07274025       0.16482191 </v>
   <v>       0.77423906       0.33335901       0.13037583 </v>
   <v>       0.86819893       0.23939914       0.26075166 </v>
   <v>       0.96215879       0.14543927       0.39112749 </v>
   <v>       0.50030194       0.37150214       0.26075166 </v>
   <v>       0.59426180       0.27754227       0.39112749 </v>
   <v>       0.90634206       0.46546200       0.13037583 </v>
   <v>       0.92173626       0.03789801       0.03515184 </v>
   <v>       0.26092069       0.97878037       0.29519774 </v>
   <v>       0.35488056       0.88482051       0.42557357 </v>
   <v>       0.16696083       0.57274025       0.16482191 </v>
   <v>       0.19456405       0.92753912       0.02234910 </v>
   <v>       0.27423906       0.83335901       0.13037583 </v>
   <v>       0.36819893       0.73939914       0.26075166 </v>
   <v>       0.46215879       0.64543927       0.39112749 </v>
   <v>       0.00030194       0.87150214       0.26075166 </v>
   <v>       0.09426180       0.77754227       0.39112749 </v>
   <v>       0.22170494       0.67629684       0.47806179 </v>
   <v>       0.40634206       0.96546200       0.13037583 </v>
   <v>       0.21508590       0.53078459       0.05730609 </v>
   <v>       0.76092069       0.97878037       0.29519774 </v>
   <v>       0.85488056       0.88482051       0.42557357 </v>
   <v>       0.66696083       0.57274025       0.16482191 </v>
   <v>       0.52733711       0.52894113       0.48349870 </v>
   <v>       0.70897626       0.02495714       0.05735007 </v>
   <v>       0.77423906       0.83335901       0.13037583 </v>
   <v>       0.86819893       0.73939914       0.26075166 </v>
   <v>       0.96215879       0.64543927       0.39112749 </v>
   <v>       0.50030194       0.87150214       0.26075166 </v>
   <v>       0.59426180       0.77754227       0.39112749 </v>
   <v>       0.69014605       0.71330715       0.49008244 </v>
   <v>       0.90634206       0.96546200       0.13037583 </v>
   <v>       0.70682729       0.53260799       0.05967462 </v>
   <v>       0.07287763       0.16682345       0.31134757 </v>
   <v>       0.16415075       0.07170214       0.42348142 </v>
   <v>       0.37325407       0.35002602       0.05612540 </v>
   <v>       0.47891775       0.26078331       0.18097174 </v>
   <v>       0.02721856       0.34024555       0.47500230 </v>
   <v>       0.43627354       0.47164252       0.35520991 </v>
   <v>       0.24835381       0.15956227       0.09445824 </v>
   <v>       0.34231367       0.06560240       0.22483408 </v>
   <v>       0.08531446       0.47191534       0.09863539 </v>
   <v>       0.17409868       0.39738739       0.22483408 </v>
   <v>       0.26805854       0.30342752       0.35520991 </v>
   <v>       0.37111362       0.21776333       0.47113610 </v>
   <v>       0.57287763       0.16682345       0.31134757 </v>
   <v>       0.66583637       0.07397348       0.41726292 </v>
   <v>       0.87767022       0.36130064       0.05712955 </v>
   <v>       0.97891775       0.26078331       0.18097174 </v>
   <v>       0.52372149       0.35322116       0.47348123 </v>
   <v>       0.93627354       0.47164252       0.35520991 </v>
   <v>       0.76752631       0.15401469       0.09925653 </v>
   <v>       0.84231367       0.06560240       0.22483408 </v>
   <v>       0.58174275       0.48139723       0.10791399 </v>
   <v>       0.67409868       0.39738739       0.22483408 </v>
   <v>       0.76805854       0.30342752       0.35520991 </v>
   <v>       0.86033904       0.22207807       0.46620717 </v>
   <v>       0.07287763       0.66682345       0.31134757 </v>
   <v>       0.16348438       0.56941086       0.42267080 </v>
   <v>       0.37978483       0.86018443       0.05846540 </v>
   <v>       0.47891775       0.76078331       0.18097174 </v>
   <v>       0.03124852       0.83375092       0.47513160 </v>
   <v>       0.43627354       0.97164252       0.35520991 </v>
   <v>       0.25928742       0.65735311       0.10895667 </v>
   <v>       0.34231367       0.56560240       0.22483408 </v>
   <v>       0.08013881       0.99134726       0.09445824 </v>
   <v>       0.17409868       0.89738739       0.22483408 </v>
   <v>       0.26805854       0.80342752       0.35520991 </v>
   <v>       0.37854085       0.71948909       0.47610261 </v>
   <v>       0.57287763       0.66682345       0.31134757 </v>
   <v>       0.66683750       0.57286358       0.44172340 </v>
   <v>       0.88974942       0.86658882       0.05608603 </v>
   <v>       0.97891775       0.76078331       0.18097174 </v>
   <v>       0.52027707       0.87629640       0.47013147 </v>
   <v>       0.93627354       0.97164252       0.35520991 </v>
   <v>       0.75826049       0.65773997       0.10780493 </v>
   <v>       0.84231367       0.56560240       0.22483408 </v>
   <v>       0.58255132       0.98028547       0.10874360 </v>
   <v>       0.67409868       0.89738739       0.22483408 </v>
   <v>       0.76805854       0.80342752       0.35520991 </v>
   <v>       0.86072153       0.72088075       0.46934835 </v>
  </varray>
 </structure>
 <calculation>
  <scstep>
   <time name="dav">   13.49   13.49</time>
   <time name="total">   13.89   13.89</time>
   <energy>
    <i name="alphaZ">   2592.50432107 </i>
    <i name="ewald"> 326145.28115877 </i>
    <i name="hartreedc">-489384.85170313 </i>
    <i name="XCdc">   4903.91129304 </i>
    <i name="pawpsdc"> 150306.04444553 </i>
    <i name="pawaedc">-156855.34918313 </i>
    <i name="eentropy">     -0.48548580 </i>
    <i name="bandstr">  -5645.94246507 </i>
    <i name="atom"> 181336.80673834 </i>
    <i name="e_fr_energy">  13397.91911963 </i>
    <i name="e_wo_entrp">  13398.40460543 </i>
    <i name="e_0_energy">  13398.16186253 </i>
   </energy>
  </scstep>
  <scstep>
   <time name="dav">   12.24   12.25</time>
   <time name="total">   12.25   12.25</time>
   <energy>
    <i name="e_fr_energy">    847.23231977 </i>
    <i name="e_wo_entrp">    848.20533878 </i>
    <i name="e_0_energy">    847.71882927 </i>
   </energy>
  </scstep>
  <scstep>
   <time name="dav">   13.02   13.03</time>
   <time name="total">   13.02   13.03</time>
   <energy>
    <i name="e_fr_energy">   -450.91245063 </i>
    <i name="e_wo_entrp">   -449.50322316 </i>
    <i name="e_0_energy">   -450.20783689 </i>
   </energy>
  </scstep>
  <scstep>
   <time name="dav">   13.07   13.10</time>
   <time name="total">   13.07   13.10</time>
   <energy>
    <i name="e_fr_energy">   -531.99781248 </i>
    <i name="e_wo_entrp">   -530.55799201 </i>
    <i name="e_0_energy">   -531.27790225 </i>
   </energy>
  </scstep>
  <scstep>
   <time name="dav">   14.60   14.60</time>
   <time name="total">   15.01   15.01</time>
   <energy>
    <i name="e_fr_energy">   -535.16777137 </i>
    <i name="e_wo_entrp">   -533.70077154 </i>
    <i name="e_0_energy">   -534.43427145 </i>
   </energy>
  </scstep>
  <scstep>
   <time name="dav">   14.17   14.17</time>
   <time name="total">   14.96   14.97</time>
   <energy>
    <i name="e_fr_energy">   -638.39856808 </i>
    <i name="e_wo_entrp">   -637.21277110 </i>
    <i name="e_0_energy">   -637.80566959 </i>
   </energy>
  </scstep>
  <scstep>
   <time name="dav">   12.83   12.83</time>
   <time name="total">   13.62   13.62</time>
   <energy>
    <i name="e_fr_energy">   -504.03810463 </i>
    <i name="e_wo_entrp">   -502.92163093 </i>
    <i name="e_0_energy">   -503.47986778 </i>
   </energy>
  </scstep>
  <scstep>
   <time name="dav">   14.60   14.60</time>
   <time name="total">   15.39   15.40</time>
   <energy>
    <i name="e_fr_energy">   -597.17558449 </i>
    <i name="e_wo_entrp">   -596.07136987 </i>
    <i name="e_0_energy">   -596.62347718 </i>
   </energy>
  </scstep>
  <scstep>
   <time name="dav">   14.23   14.23</time>
   <time name="total">   15.02   15.03</time>
   <energy>
    <i name="e_fr_energy">   -540.29234107 </i>
    <i name="e_wo_entrp">   -538.90652322 </i>
    <i name="e_0_energy">   -539.59943215 </i>
   </energy>
  </scstep>
  <scstep>
   <time name="dav">   14.95   14.96</time>
   <time name="total">   15.75   15.75</time>
   <energy>
    <i name="e_fr_energy">   -525.08807872 </i>
    <i name="e_wo_entrp">   -523.92393158 </i>
    <i name="e_0_energy">   -524.50600515 </i>
   </energy>
  </scstep>
  <scstep>
   <time name="dav">   15.39   15.40</time>
   <time name="total">   16.19   16.19</time>
   <energy>
    <i name="e_fr_energy">   -576.73255869 </i>
    <i name="e_wo_entrp">   -575.16591782 </i>
    <i name="e_0_energy">   -575.94923825 </i>
   </energy>
  </scstep>
  <scstep>
   <time name="dav">   14.61   14.62</time>
   <time name="total">   15.63   15.64</time>
   <energy>
    <i name="e_fr_energy">   -511.28897408 </i>
    <i name="e_wo_entrp">   -510.18117470 </i>
    <i name="e_0_energy">   -510.73507439 </i>
   </energy>
  </scstep>
  <scstep>
   <time name="dav">   14.86   14.86</time>
   <time name="total">   15.68   15.69</time>
   <energy>
    <i name="e_fr_energy">   -510.37418979 </i>
    <i name="e_wo_entrp">   -509.16735576 </i>
    <i name="e_0_energy">   -509.77077277 </i>
   </energy>
  </scstep>
  <scstep>
   <time name="dav">   14.35   14.35</time>
   <time name="total">   15.23   15.24</time>
   <energy>
    <i name="e_fr_energy">   -486.62556902 </i>
    <i name="e_wo_entrp">   -485.51159882 </i>
    <i name="e_0_energy">   -486.06858392 </i>
   </energy>
  </scstep>
  <scstep>
   <time name="dav">   15.29   15.29</time>
   <time name="total">   16.09   16.09</time>
   <energy>
    <i name="e_fr_energy">   -481.53015963 </i>
    <i name="e_wo_entrp">   -480.42925724 </i>
    <i name="e_0_energy">   -480.97970843 </i>
   </energy>
  </scstep>
  <scstep>
   <time name="dav">   15.11   15.11</time>
   <time name="total">   15.91   15.91</time>
   <energy>
    <i name="e_fr_energy">   -476.40509267 </i>
    <i name="e_wo_entrp">   -475.25142994 </i>
    <i name="e_0_energy">   -475.82826131 </i>
   </energy>
  </scstep>
  <scstep>
   <time name="dav">   14.78   14.79</time>
   <time name="total">   15.58   15.58</time>
   <energy>
    <i name="e_fr_energy">   -474.89203935 </i>
    <i name="e_wo_entrp">   -473.68342031 </i>
    <i name="e_0_energy">   -474.28772983 </i>
   </energy>
  </scstep>
  <scstep>
   <time name="dav">   15.23   15.23</time>
   <time name="total">   16.03   16.04</time>
   <energy>
    <i name="e_fr_energy">   -474.12305672 </i>
    <i name="e_wo_entrp">   -472.93246509 </i>
    <i name="e_0_energy">   -473.52776091 </i>
   </energy>
  </scstep>
  <scstep>
   <time name="dav">   14.59   14.60</time>
   <time name="total">   15.39   15.40</time>
   <energy>
    <i name="e_fr_energy">   -473.14450269 </i>
    <i name="e_wo_entrp">   -471.91769659 </i>
    <i name="e_0_energy">   -472.53109964 </i>
   </energy>
  </scstep>
  <scstep>
   <time name="dav">   15.53   15.53</time>
   <time name="total">   16.34   16.34</time>
   <energy>
    <i name="e_fr_energy">   -471.48322747 </i>
    <i name="e_wo_entrp">   -470.19275787 </i>
    <i name="e_0_energy">   -470.83799267 </i>
   </energy>
  </scstep>
  <scstep>
   <time name="dav">   15.03   15.03</time>
   <time name="total">   15.88   15.88</time>
   <energy>
    <i name="e_fr_energy">   -469.88351705 </i>
    <i name="e_wo_entrp">   -468.56741818 </i>
    <i name="e_0_energy">   -469.22546762 </i>
   </energy>
  </scstep>
  <scstep>
   <time name="dav">   14.75   14.75</time>
   <time name="total">   15.61   15.61</time>
   <energy>
    <i name="e_fr_energy">   -469.48777360 </i>
    <i name="e_wo_entrp">   -468.16066828 </i>
    <i name="e_0_energy">   -468.82422094 </i>
   </energy>
  </scstep>
  <scstep>
   <time name="dav">   13.68   13.68</time>
   <time name="total">   14.57   14.57</time>
   <energy>
    <i name="e_fr_energy">   -469.35427046 </i>
    <i name="e_wo_entrp">   -468.02865945 </i>
    <i name="e_0_energy">   -468.69146496 </i>
   </energy>
  </scstep>
  <scstep>
   <time name="dav">   15.09   15.09</time>
   <time name="total">   15.91   15.91</time>
   <energy>
    <i name="e_fr_energy">   -469.20264231 </i>
    <i name="e_wo_entrp">   -467.86246407 </i>
    <i name="e_0_energy">   -468.53255319 </i>
   </energy>
  </scstep>
  <scstep>
   <time name="dav">   15.05   15.05</time>
   <time name="total">   15.86   15.87</time>
   <energy>
    <i name="e_fr_energy">   -469.09525450 </i>
    <i name="e_wo_entrp">   -467.75522076 </i>
    <i name="e_0_energy">   -468.42523763 </i>
   </energy>
  </scstep>
  <scstep>
   <time name="dav">   15.19   15.19</time>
   <time name="total">   16.00   16.00</time>
   <energy>
    <i name="e_fr_energy">   -469.04687269 </i>
    <i name="e_wo_entrp">   -467.67505497 </i>
    <i name="e_0_energy">   -468.36096383 </i>
   </energy>
  </scstep>
  <scstep>
   <time name="dav">   14.74   14.74</time>
   <time name="total">   15.56   15.57</time>
   <energy>
    <i name="e_fr_energy">   -468.99916722 </i>
    <i name="e_wo_entrp">   -467.63828303 </i>
    <i name="e_0_energy">   -468.31872513 </i>
   </energy>
  </scstep>
  <scstep>
   <time name="dav">   13.32   13.32</time>
   <time name="total">   14.15   14.15</time>
   <energy>
    <i name="e_fr_energy">   -469.00587677 </i>
    <i name="e_wo_entrp">   -467.64142855 </i>
    <i name="e_0_energy">   -468.32365266 </i>
   </energy>
  </scstep>
  <scstep>
   <time name="dav">   12.94   12.94</time>
   <time name="total">   13.78   13.78</time>
   <energy>
    <i name="e_fr_energy">   -468.99318103 </i>
    <i name="e_wo_entrp">   -467.63559878 </i>
    <i name="e_0_energy">   -468.31438990 </i>
   </energy>
  </scstep>
  <scstep>
   <time name="dav">   14.64   14.64</time>
   <time name="total">   15.47   15.47</time>
   <energy>
    <i name="e_fr_energy">   -468.99584714 </i>
    <i name="e_wo_entrp">   -467.63481807 </i>
    <i name="e_0_energy">   -468.31533260 </i>
   </energy>
  </scstep>
  <scstep>
   <time name="dav">   14.42   14.42</time>
   <time name="total">   15.51   15.51</time>
   <energy>
    <i name="e_fr_energy">   -468.99080065 </i>
    <i name="e_wo_entrp">   -467.63469735 </i>
    <i name="e_0_energy">   -468.31274900 </i>
   </energy>
  </scstep>
  <scstep>
   <time name="dav">   14.51   14.51</time>
   <time name="total">   15.34   15.34</time>
   <energy>
    <i name="e_fr_energy">   -468.99123019 </i>
    <i name="e_wo_entrp">   -467.63497253 </i>
    <i name="e_0_energy">   -468.31310136 </i>
   </energy>
  </scstep>
  <scstep>
   <time name="dav">   13.30   13.30</time>
   <time name="total">   14.14   14.14</time>
   <energy>
    <i name="e_fr_energy">   -468.99126344 </i>
    <i name="e_wo_entrp">   -467.63676256 </i>
    <i name="e_0_energy">   -468.31401300 </i>
   </energy>
  </scstep>
  <scstep>
   <time name="dav">   12.51   12.52</time>
   <time name="total">   13.35   13.36</time>
   <energy>
    <i name="e_fr_energy">   -468.99132533 </i>
    <i name="e_wo_entrp">   -467.63624937 </i>
    <i name="e_0_energy">   -468.31378735 </i>
   </energy>
  </scstep>
  <scstep>
   <time name="dav">   11.35   11.35</time>
   <time name="total">   11.77   11.78</time>
   <energy>
    <i name="alphaZ">   2592.50432107 </i>
    <i name="ewald"> 326145.28115877 </i>
    <i name="hartreedc">-488458.82663910 </i>
    <i name="XCdc">   4863.13009567 </i>
    <i name="pawpsdc"> 184037.60646793 </i>
    <i name="pawaedc">-190685.00846191 </i>
    <i name="eentropy">     -1.35452618 </i>
    <i name="bandstr"> -20299.13045412 </i>
    <i name="atom"> 181336.80673834 </i>
    <i name="e_fr_energy">   -468.99129953 </i>
    <i name="e_wo_entrp">   -467.63677335 </i>
    <i name="e_0_energy">   -468.31403644 </i>
   </energy>
  </scstep>
  <structure>
   <crystal>
    <varray name="basis" >
     <v>      11.25646304       0.00000000       0.00000000 </v>
     <v>       5.04456212      10.06282034       0.00000000 </v>
     <v>       0.00000000       0.00000000      22.51995597 </v>
    </varray>
    <i name="volume">   2550.87516496 </i>
    <varray name="rec_basis" >
     <v>       0.08883785      -0.04453504       0.00000000 </v>
     <v>       0.00000000       0.09937572       0.00000000 </v>
     <v>       0.00000000       0.00000000       0.04440506 </v>
    </varray>
   </crystal>
   <varray name="positions" >
    <v>       0.26092069       0.47878037       0.29519774 </v>
    <v>       0.35488056       0.38482050       0.42557357 </v>
    <v>       0.04561941       0.19378413       0.08063449 </v>
    <v>       0.16696082       0.07274025       0.16482191 </v>
    <v>       0.20372909       0.31711882       0.03511191 </v>
    <v>       0.27423906       0.33335901       0.13037583 </v>
    <v>       0.36819893       0.23939914       0.26075166 </v>
    <v>       0.46215879       0.14543927       0.39112749 </v>
    <v>       0.00030194       0.37150214       0.26075166 </v>
    <v>       0.09426180       0.27754227       0.39112749 </v>
    <v>       0.21201209       0.18303704       0.48090518 </v>
    <v>       0.40634206       0.46546200       0.13037583 </v>
    <v>       0.32767390       0.04442333       0.02333179 </v>
    <v>       0.76092069       0.47878037       0.29519774 </v>
    <v>       0.85488056       0.38482050       0.42557357 </v>
    <v>       0.66696082       0.07274025       0.16482191 </v>
    <v>       0.77423906       0.33335901       0.13037583 </v>
    <v>       0.86819893       0.23939914       0.26075166 </v>
    <v>       0.96215879       0.14543927       0.39112749 </v>
    <v>       0.50030194       0.37150214       0.26075166 </v>
    <v>       0.59426180       0.27754227       0.39112749 </v>
    <v>       0.90634206       0.46546200       0.13037583 </v>
    <v>       0.92173626       0.03789801       0.03515184 </v>
    <v>       0.26092069       0.97878037       0.29519774 </v>
    <v>       0.35488056       0.88482051       0.42557357 </v>
    <v>       0.16696083       0.57274025       0.16482191 </v>
    <v>       0.19456405       0.92753912       0.02234910 </v>
    <v>       0.27423906       0.83335901       0.13037583 </v>
    <v>       0.36819893       0.73939914       0.26075166 </v>
    <v>       0.46215879       0.64543927       0.39112749 </v>
    <v>       0.00030194       0.87150214       0.26075166 </v>
    <v>       0.09426180       0.77754227       0.39112749 </v>
    <v>       0.22170494       0.67629684       0.47806179 </v>
    <v>       0.40634206       0.96546200       0.13037583 </v>
    <v>       0.21508590       0.53078459       0.05730609 </v>
    <v>       0.76092069       0.97878037       0.29519774 </v>
    <v>       0.85488056       0.88482051       0.42557357 </v>
    <v>       0.66696083       0.57274025       0.16482191 </v>
    <v>       0.52733711       0.52894113       0.48349870 </v>
    <v>       0.70897626       0.02495714       0.05735007 </v>
    <v>       0.77423906       0.83335901       0.13037583 </v>
    <v>       0.86819893       0.73939914       0.26075166 </v>
    <v>       0.96215879       0.64543927       0.39112749 </v>
    <v>       0.50030194       0.87150214       0.26075166 </v>
    <v>       0.59426180       0.77754227       0.39112749 </v>
    <v>       0.69014605       0.71330715       0.49008244 </v>
    <v>       0.90634206       0.96546200       0.13037583 </v>
    <v>       0.70682729       0.53260799       0.05967462 </v>
    <v>       0.07287763       0.16682345       0.31134757 </v>
    <v>       0.16415075       0.07170214       0.42348142 </v>
    <v>       0.37325407       0.35002602       0.05612540 </v>
    <v>       0.47891775       0.26078331       0.18097174 </v>
    <v>       0.02721856       0.34024555       0.47500230 </v>
    <v>       0.43627354       0.47164252       0.35520991 </v>
    <v>       0.24835381       0.15956227       0.09445824 </v>
    <v>       0.34231367       0.06560240       0.22483408 </v>
    <v>       0.08531446       0.47191534       0.09863539 </v>
    <v>       0.17409868       0.39738739       0.22483408 </v>
    <v>       0.26805854       0.30342752       0.35520991 </v>
    <v>       0.37111362       0.21776333       0.47113610 </v>
    <v>       0.57287763       0.16682345       0.31134757 </v>
    <v>       0.66583637       0.07397348       0.41726292 </v>
    <v>       0.87767022       0.36130064       0.05712955 </v>
    <v>       0.97891775       0.26078331       0.18097174 </v>
    <v>       0.52372149       0.35322116       0.47348123 </v>
    <v>       0.93627354       0.47164252       0.35520991 </v>
    <v>       0.76752631       0.15401469       0.09925653 </v>
    <v>       0.84231367       0.06560240       0.22483408 </v>
    <v>       0.58174275       0.48139723       0.10791399 </v>
    <v>       0.67409868       0.39738739       0.22483408 </v>
    <v>       0.76805854       0.30342752       0.35520991 </v>
    <v>       0.86033904       0.22207807       0.46620717 </v>
    <v>       0.07287763       0.66682345       0.31134757 </v>
    <v>       0.16348438       0.56941086       0.42267080 </v>
    <v>       0.37978483       0.86018443       0.05846540 </v>
    <v>       0.47891775       0.76078331       0.18097174 </v>
    <v>       0.03124852       0.83375092       0.47513160 </v>
    <v>       0.43627354       0.97164252       0.35520991 </v>
    <v>       0.25928742       0.65735311       0.10895667 </v>
    <v>       0.34231367       0.56560240       0.22483408 </v>
    <v>       0.08013881       0.99134726       0.09445824 </v>
    <v>       0.17409868       0.89738739       0.22483408 </v>
    <v>       0.26805854       0.80342752       0.35520991 </v>
    <v>       0.37854085       0.71948909       0.47610261 </v>
    <v>       0.57287763       0.66682345       0.31134757 </v>
    <v>       0.66683750       0.57286358       0.44172340 </v>
    <v>       0.88974942       0.86658882       0.05608603 </v>
    <v>       0.97891775       0.76078331       0.18097174 </v>
    <v>       0.52027707       0.87629640       0.47013147 </v>
    <v>       0.93627354       0.97164252       0.35520991 </v>
    <v>       0.75826049       0.65773997       0.10780493 </v>
    <v>       0.84231367       0.56560240       0.22483408 </v>
    <v>       0.58255132       0.98028547       0.10874360 </v>
    <v>       0.67409868       0.89738739       0.22483408 </v>
    <v>       0.76805854       0.80342752       0.35520991 </v>
    <v>       0.86072153       0.72088075       0.46934835 </v>
   </varray>
  </structure>
  <varray name="forces" >
   <v>       0.25383939      -0.41102075      -0.20070386 </v>
   <v>      -0.81973118       1.17647899      -1.69972504 </v>
   <v>       0.10796409      -0.19600392      -1.06951808 </v>
   <v>       0.13817025      -0.20937908       1.26570879 </v>
   <v>      -0.59805373      -0.24309402      -1.27160818 </v>
   <v>       0.26294456      -1.26201557       3.71237717 </v>
   <v>       0.05010180       0.15797692       0.01950659 </v>
   <v>      -0.14335988      -0.37448009      -2.08671143 </v>
   <v>      -0.08341682       0.06978705       0.04549881 </v>
   <v>       0.06177139       0.32617842      -2.93762187 </v>
   <v>      -0.16687702      -0.40084073       1.29306309 </v>
   <v>       0.74326841      -0.59596337       1.15720891 </v>
   <v>       0.41390046       0.63700173      -1.18372344 </v>
   <v>       0.18782887      -0.29573640      -0.20523538 </v>
   <v>      -0.19895197       1.69043676      -1.78546063 </v>
   <v>      -0.00066456       0.72585999       1.43568448 </v>
   <v>      -0.17668931      -1.03937947       1.68642679 </v>
   <v>      -0.03419451       0.11456542       0.08675032 </v>
   <v>       0.15414772      -0.66187906      -2.25780559 </v>
   <v>      -0.16224261       0.07109613       0.04855988 </v>
   <v>       0.18157124      -0.18251146      -2.11423189 </v>
   <v>       0.97438289      -0.31372956       1.61048655 </v>
   <v>       0.50029760       0.39656189      -1.20171792 </v>
   <v>       0.12513836      -0.33047441      -0.08035189 </v>
   <v>      -0.66842133       0.90205285      -1.13925030 </v>
   <v>      -0.59520975       0.31339952       1.43939354 </v>
   <v>      -0.73421748       0.05975304      -1.25318155 </v>
   <v>      -0.31407063       0.03281899       1.27521765 </v>
   <v>      -0.07246241      -0.01552629       0.00774754 </v>
   <v>       0.06981162       0.02670577      -1.92708143 </v>
   <v>      -0.13082198       0.02329978       0.01887911 </v>
   <v>       0.15943794       0.16446105      -2.99608270 </v>
   <v>      -0.09331911      -0.65944180       1.29966456 </v>
   <v>       0.11711302       0.21822254       1.46212792 </v>
   <v>      -0.50819982       1.47397523      -1.56267692 </v>
   <v>       0.13830365      -0.44206327      -0.10653243 </v>
   <v>      -0.25660093       1.11978772      -1.47098311 </v>
   <v>      -0.42577803       0.76320919       2.38656302 </v>
   <v>      -0.10424955       0.29242287       1.18208037 </v>
   <v>      -1.09762476       1.14363837      -1.59227156 </v>
   <v>       0.23850813      -1.00290977       1.12359545 </v>
   <v>      -0.03893107       0.19459045       0.12502073 </v>
   <v>      -0.22593602      -0.27148571      -1.79261809 </v>
   <v>       0.09709309      -0.03366044       0.05378107 </v>
   <v>      -0.03952264      -0.27040282      -2.23269196 </v>
   <v>       0.63987359      -0.30136279       1.24608351 </v>
   <v>       1.03574118      -0.88500829       3.68236936 </v>
   <v>      -0.56449783       0.91558485      -1.86585868 </v>
   <v>      -0.05519986       0.04632541      -0.91396660 </v>
   <v>      -0.07647410      -1.41640719       1.28468746 </v>
   <v>       2.22845993      -1.71449211      -2.91750444 </v>
   <v>       0.07809257      -0.15078408      -0.00282661 </v>
   <v>       0.30466216       1.24495881       3.25302359 </v>
   <v>       0.22522234       0.16995526      -0.50706155 </v>
   <v>       0.58207355       0.87501503       0.92984530 </v>
   <v>       0.05788373       0.03079576       0.12479692 </v>
   <v>      -1.63483295       1.27213268      -0.41952246 </v>
   <v>      -0.14968533      -0.02296955       0.11890068 </v>
   <v>      -0.09584436      -0.07342177      -0.96131924 </v>
   <v>       0.28259038      -0.71462231       3.23581181 </v>
   <v>      -0.18407600       0.34418639      -1.03866001 </v>
   <v>       0.40949396      -0.74961290       1.76719667 </v>
   <v>       0.51235464      -0.76171741      -3.22392004 </v>
   <v>       0.09331698      -0.04237840       0.22078422 </v>
   <v>       1.16130130      -0.78640221       3.15790945 </v>
   <v>      -0.00252803       0.27229295      -0.07683238 </v>
   <v>      -0.38883388       2.09960856      -0.44655612 </v>
   <v>       0.13440326       0.03616067       0.13971339 </v>
   <v>      -1.84456528       0.16906127      -1.37594205 </v>
   <v>      -0.03374174      -0.23207712       0.54586383 </v>
   <v>      -0.14450325       0.22588855      -0.48886240 </v>
   <v>      -1.59330193      -0.89018029       3.47243249 </v>
   <v>      -0.07691563       0.06407818      -0.84716802 </v>
   <v>      -0.17418140      -1.17426995       1.12798294 </v>
   <v>       1.47148974      -2.50527206      -2.34454153 </v>
   <v>      -0.00002924       0.07142887       0.31404428 </v>
   <v>       0.53962629       1.30972561       3.35004341 </v>
   <v>       0.03290103       0.07428999      -0.73357016 </v>
   <v>       0.29262208       1.49742668      -1.33208935 </v>
   <v>       0.02777673      -0.11840362       0.64555289 </v>
   <v>      -1.07603623      -0.22571090       0.96081589 </v>
   <v>      -0.02362830      -0.05065951       0.13988226 </v>
   <v>       0.06532674      -0.03830063      -0.79512526 </v>
   <v>      -0.71076593       0.54958352       2.34351167 </v>
   <v>       0.08518597      -0.16156093      -0.12009167 </v>
   <v>       0.27955825      -1.37720917      -0.07209553 </v>
   <v>       0.55202998      -2.67727164      -2.91958169 </v>
   <v>       0.08769305      -0.13170962      -0.10473370 </v>
   <v>       0.86682212       2.12006852       2.45598271 </v>
   <v>       0.31937292       0.08172060      -0.21929346 </v>
   <v>       0.71219853       1.72448391      -1.29951069 </v>
   <v>       0.17472247      -0.11875444       0.46400277 </v>
   <v>      -1.53370586       0.38793961      -1.34030144 </v>
   <v>       0.13938163      -0.15682223       0.65975491 </v>
   <v>      -0.23748970      -0.13062827      -0.88898448 </v>
   <v>      -0.07738768      -0.85698491       3.04737008 </v>
  </varray>
  <varray name="stress" >
   <v>      62.96614647       0.63681740       0.72709805 </v>
   <v>       0.63681751      61.92813035       0.69528178 </v>
   <v>       0.72709792       0.69528179      75.01787086 </v>
  </varray>
  <energy>
   <i name="e_fr_energy">   -468.99129953 </i>
   <i name="e_wo_entrp">   -468.31403644 </i>
   <i name="e_0_energy">     -1.35452618 </i>
  </energy>
  <time name="totalsc">  534.57  534.70</time>
  <eigenvalues>
   <array>
    <dimension dim="1">band</dimension>
    <dimension dim="2">kpoint</dimension>
    <dimension dim="3">spin</dimension>
    <field>eigene</field>
    <field>occ</field>
    <set>
     <set comment="spin 1">
      <set comment="kpoint 1">
       <r>  -63.0775    1.0000 </r>
       <r>  -63.0640    1.0000 </r>
       <r>  -63.0511    1.0000 </r>
       <r>  -63.0304    1.0000 </r>
       <r>  -62.9962    1.0000 </r>
       <r>  -62.9820    1.0000 </r>
       <r>  -62.9774    1.0000 </r>
       <r>  -62.9590    1.0000 </r>
       <r>  -62.9385    1.0000 </r>
       <r>  -62.9149    1.0000 </r>
       <r>  -62.9086    1.0000 </r>
       <r>  -62.8937    1.0000 </r>
       <r>  -62.8779    1.0000 </r>
       <r>  -62.8764    1.0000 </r>
       <r>  -62.8686    1.0000 </r>
       <r>  -62.8667    1.0000 </r>
       <r>  -62.8651    1.0000 </r>
       <r>  -62.8631    1.0000 </r>
       <r>  -62.8521    1.0000 </r>
       <r>  -62.8521    1.0000 </r>
       <r>  -62.8429    1.0000 </r>
       <r>  -62.8363    1.0000 </r>
       <r>  -62.8223    1.0000 </r>
       <r>  -62.8197    1.0000 </r>
       <r>  -62.8092    1.0000 </r>
       <r>  -62.7971    1.0000 </r>
       <r>  -62.7862    1.0000 </r>
       <r>  -62.7645    1.0000 </r>
       <r>  -62.7478    1.0000 </r>
       <r>  -62.7453    1.0000 </r>
       <r>  -62.7415    1.0000 </r>
       <r>  -62.7209    1.0000 </r>
       <r>  -62.7201    1.0000 </r>
       <r>  -62.6953    1.0000 </r>
       <r>  -62.6925    1.0000 </r>
       <r>  -62.6917    1.0000 </r>
       <r>  -62.6904    1.0000 </r>
       <r>  -62.6884    1.0000 </r>
       <r>  -62.6526    1.0000 </r>
       <r>  -62.6452    1.0000 </r>
       <r>  -62.6359    1.0000 </r>
       <r>  -62.6345    1.0000 </r>
       <r>  -62.6321    1.0000 </r>
       <r>  -62.6135    1.0000 </r>
       <r>  -62.5920    1.0000 </r>
       <r>  -62.5893    1.0000 </r>
       <r>  -62.5810    1.0000 </r>
       <r>  -62.5805    1.0000 </r>
       <r>  -62.5779    1.0000 </r>
       <r>  -62.5770    1.0000 </r>
       <r>  -62.5710    1.0000 </r>
       <r>  -62.5693    1.0000 </r>
       <r>  -62.5686    1.0000 </r>
       <r>  -62.5415    1.0000 </r>
       <r>  -62.5372    1.0000 </r>
       <r>  -62.5371    1.0000 </r>
       <r>  -62.5352    1.0000 </r>
       <r>  -62.5351    1.0000 </r>
       <r>  -62.5319    1.0000 </r>
       <r>  -62.5291    1.0000 </r>
       <r>  -62.5251    1.0000 </r>
       <r>  -62.5209    1.0000 </r>
       <r>  -62.5143    1.0000 </r>
       <r>  -62.5050    1.0000 </r>
       <r>  -62.5022    1.0000 </r>
       <r>  -62.5008    1.0000 </r>
       <r>  -62.4857    1.0000 </r>
       <r>  -62.4826    1.0000 </r>
       <r>  -62.4817    1.0000 </r>
       <r>  -62.4677    1.0000 </r>
       <r>  -62.4643    1.0000 </r>
       <r>  -62.4627    1.0000 </r>
       <r>  -62.4611    1.0000 </r>
       <r>  -62.4586    1.0000 </r>
       <r>  -62.4556    1.0000 </r>
       <r>  -62.4528    1.0000 </r>
       <r>  -62.4513    1.0000 </r>
       <r>  -62.4469    1.0000 </r>
       <r>  -62.4455    1.0000 </r>
       <r>  -62.4426    1.0000 </r>
       <r>  -62.4425    1.0000 </r>
       <r>  -62.4327    1.0000 </r>
       <r>  -62.4261    1.0000 </r>
       <r>  -62.4261    1.0000 </r>
       <r>  -62.4248    1.0000 </r>
       <r>  -62.4220    1.0000 </r>
       <r>  -62.4162    1.0000 </r>
       <r>  -62.4143    1.0000 </r>
       <r>  -62.4140    1.0000 </r>
       <r>  -62.4112    1.0000 </r>
       <r>  -62.3996    1.0000 </r>
       <r>  -62.3994    1.0000 </r>
       <r>  -62.3992    1.0000 </r>
       <r>  -62.3960    1.0000 </r>
       <r>  -62.3824    1.0000 </r>
       <r>  -62.3811    1.0000 </r>
       <r>  -62.3782    1.0000 </r>
       <r>  -62.3721    1.0000 </r>
       <r>  -62.3709    1.0000 </r>
       <r>  -62.3673    1.0000 </r>
       <r>  -62.3635    1.0000 </r>
       <r>  -62.3539    1.0000 </r>
       <r>  -62.3394    1.0000 </r>
       <r>  -62.3380    1.0000 </r>
       <r>  -62.3302    1.0000 </r>
       <r>  -62.3258    1.0000 </r>
       <r>  -62.3166    1.0000 </r>
       <r>  -62.3155    1.0000 </r>
       <r>  -62.2994    1.0000 </r>
       <r>  -62.2980    1.0000 </r>
       <r>  -62.2762    1.0000 </r>
       <r>  -62.2729    1.0000 </r>
       <r>  -62.2705    1.0000 </r>
       <r>  -62.2704    1.0000 </r>
       <r>  -62.2531    1.0000 </r>
       <r>  -62.2482    1.0000 </r>
       <r>  -62.2459    1.0000 </r>
       <r>  -62.2354    1.0000 </r>
       <r>  -62.2267    1.0000 </r>
       <r>  -62.2236    1.0000 </r>
       <r>  -62.2219    1.0000 </r>
       <r>  -62.2210    1.0000 </r>
       <r>  -62.1913    1.0000 </r>
       <r>  -62.1900    1.0000 </r>
       <r>  -62.1876    1.0000 </r>
       <r>  -62.1844    1.0000 </r>
       <r>  -62.1532    1.0000 </r>
       <r>  -62.1345    1.0000 </r>
       <r>  -62.0633    1.0000 </r>
       <r>  -62.0354    1.0000 </r>
       <r>  -62.0326    1.0000 </r>
       <r>  -61.9346    1.0000 </r>
       <r>  -61.9301    1.0000 </r>
       <r>  -61.8764    1.0000 </r>
       <r>  -61.8670    1.0000 </r>
       <r>  -61.8612    1.0000 </r>
       <r>  -61.8504    1.0000 </r>
       <r>  -61.8268    1.0000 </r>
       <r>  -61.8120    1.0000 </r>
       <r>  -61.8102    1.0000 </r>
       <r>  -61.7945    1.0000 </r>
       <r>  -61.7117    1.0000 </r>
       <r>  -61.4738    1.0000 </r>
       <r>  -61.4050    1.0000 </r>
       <r>  -14.4772    1.0000 </r>
       <r>  -14.2177    1.0000 </r>
       <r>  -13.8681    1.0000 </r>
       <r>  -13.8096    1.0000 </r>
       <r>  -13.6874    1.0000 </r>
       <r>  -13.5719    1.0000 </r>
       <r>  -13.5483    1.0000 </r>
       <r>  -13.4762    1.0000 </r>
       <r>  -13.4349    1.0000 </r>
       <r>  -13.4022    1.0000 </r>
       <r>  -13.2163    1.0000 </r>
       <r>  -13.1658    1.0000 </r>
       <r>  -13.1324    1.0000 </r>
       <r>  -13.0458    1.0000 </r>
       <r>  -12.9172    1.0000 </r>
       <r>  -12.7955    1.0000 </r>
       <r>  -12.7884    1.0000 </r>
       <r>  -12.7217    1.0000 </r>
       <r>  -12.6672    1.0000 </r>
       <r>  -12.6373    1.0000 </r>
       <r>  -12.6016    1.0000 </r>
       <r>  -12.5341    1.0000 </r>
       <r>  -12.5033    1.0000 </r>
       <r>  -12.4780    1.0000 </r>
       <r>  -12.4461    1.0000 </r>
       <r>  -12.3992    1.0000 </r>
       <r>  -12.3322    1.0000 </r>
       <r>  -12.3130    1.0000 </r>
       <r>  -12.2721    1.0000 </r>
       <r>  -12.2549    1.0000 </r>
       <r>  -12.1843    1.0000 </r>
       <r>  -12.1303    1.0000 </r>
       <r>  -12.0822    1.0000 </r>
       <r>  -12.0525    1.0000 </r>
       <r>  -12.0092    1.0000 </r>
       <r>  -11.9094    1.0000 </r>
       <r>  -11.8608    1.0000 </r>
       <r>  -11.8120    1.0000 </r>
       <r>  -11.7911    1.0000 </r>
       <r>  -11.7705    1.0000 </r>
       <r>  -11.6637    1.0000 </r>
       <r>  -11.6309    1.0000 </r>
       <r>  -11.5763    1.0000 </r>
       <r>  -11.5554    1.0000 </r>
       <r>  -11.4161    1.0000 </r>
       <r>  -11.3852    1.0000 </r>
       <r>  -11.1835    1.0000 </r>
       <r>  -11.0918    1.0000 </r>
       <r>   -6.4725    1.0000 </r>
       <r>   -6.2363    1.0000 </r>
       <r>   -6.2151    1.0000 </r>
       <r>   -6.0590    1.0000 </r>
       <r>   -6.0259    1.0000 </r>
       <r>   -5.9596    1.0000 </r>
       <r>   -5.9017    1.0000 </r>
       <r>   -5.8166    1.0000 </r>
       <r>   -5.7982    1.0000 </r>
       <r>   -5.7248    1.0000 </r>
       <r>   -5.6922    1.0000 </r>
       <r>   -5.6162    1.0000 </r>
       <r>   -5.4764    1.0000 </r>
       <r>   -5.4044    1.0000 </r>
       <r>   -5.3539    1.0000 </r>
       <r>   -5.3072    1.0000 </r>
       <r>   -5.2747    1.0000 </r>
       <r>   -5.2689    1.0000 </r>
       <r>   -5.2240    1.0000 </r>
       <r>   -5.1806    1.0000 </r>
       <r>   -5.1668    1.0000 </r>
       <r>   -5.1463    1.0000 </r>
       <r>   -5.1042    1.0000 </r>
       <r>   -5.0918    1.0000 </r>
       <r>   -5.0591    1.0000 </r>
       <r>   -5.0389    1.0000 </r>
       <r>   -4.9912    1.0000 </r>
       <r>   -4.9791    1.0000 </r>
       <r>   -4.9732    1.0000 </r>
       <r>   -4.9450    1.0000 </r>
       <r>   -4.8952    1.0000 </r>
       <r>   -4.8308    1.0000 </r>
       <r>   -4.8054    1.0000 </r>
       <r>   -4.7808    1.0000 </r>
       <r>   -4.7631    1.0000 </r>
       <r>   -4.7533    1.0000 </r>
       <r>   -4.6907    1.0000 </r>
       <r>   -4.6732    1.0000 </r>
       <r>   -4.5828    1.0000 </r>
       <r>   -4.5400    1.0000 </r>
       <r>   -4.5056    1.0000 </r>
       <r>   -4.4913    1.0000 </r>
       <r>   -4.4810    1.0000 </r>
       <r>   -4.4216    1.0000 </r>
       <r>   -4.3915    1.0000 </r>
       <r>   -4.3500    1.0000 </r>
       <r>   -4.3145    1.0000 </r>
       <r>   -4.3039    1.0000 </r>
       <r>   -4.2686    1.0000 </r>
       <r>   -4.2298    1.0000 </r>
       <r>   -4.2136    1.0000 </r>
       <r>   -4.1703    1.0000 </r>
       <r>   -4.1226    1.0000 </r>
       <r>   -4.1008    1.0000 </r>
       <r>   -4.0909    1.0000 </r>
       <r>   -4.0406    1.0000 </r>
       <r>   -4.0003    1.0000 </r>
       <r>   -3.9824    1.0000 </r>
       <r>   -3.9446    1.0000 </r>
       <r>   -3.8993    1.0000 </r>
       <r>   -3.8802    1.0000 </r>
       <r>   -3.8463    1.0000 </r>
       <r>   -3.7924    1.0000 </r>
       <r>   -3.7899    1.0000 </r>
       <r>   -3.7455    1.0000 </r>
       <r>   -3.7354    1.0000 </r>
       <r>   -3.6792    1.0000 </r>
       <r>   -3.6427    1.0000 </r>
       <r>   -3.6323    1.0000 </r>
       <r>   -3.6211    1.0000 </r>
       <r>   -3.6062    1.0000 </r>
       <r>   -3.5796    1.0000 </r>
       <r>   -3.5352    1.0000 </r>
       <r>   -3.5180    1.0000 </r>
       <r>   -3.4911    1.0000 </r>
       <r>   -3.4809    1.0000 </r>
       <r>   -3.4471    1.0000 </r>
       <r>   -3.4371    1.0000 </r>
       <r>   -3.4139    1.0000 </r>
       <r>   -3.3998    1.0000 </r>
       <r>   -3.3563    1.0000 </r>
       <r>   -3.3407    1.0000 </r>
       <r>   -3.3237    1.0000 </r>
       <r>   -3.2886    1.0000 </r>
       <r>   -3.2841    1.0000 </r>
       <r>   -3.2571    1.0000 </r>
       <r>   -3.2372    1.0000 </r>
       <r>   -3.2032    1.0000 </r>
       <r>   -3.1853    1.0000 </r>
       <r>   -3.1537    1.0000 </r>
       <r>   -3.1400    1.0000 </r>
       <r>   -3.1253    1.0000 </r>
       <r>   -3.1144    1.0000 </r>
       <r>   -3.1016    1.0000 </r>
       <r>   -3.0602    1.0000 </r>
       <r>   -3.0518    1.0000 </r>
       <r>   -2.9901    1.0000 </r>
       <r>   -2.9480    1.0000 </r>
       <r>   -2.9353    1.0000 </r>
       <r>   -2.8878    1.0000 </r>
       <r>   -2.8514    1.0000 </r>
       <r>   -2.8476    1.0000 </r>
       <r>   -2.8357    1.0000 </r>
       <r>   -2.7913    1.0000 </r>
       <r>   -2.7629    1.0000 </r>
       <r>   -2.7435    1.0000 </r>
       <r>   -2.7327    1.0000 </r>
       <r>   -2.7100    1.0000 </r>
       <r>   -2.6915    1.0000 </r>
       <r>   -2.6495    1.0000 </r>
       <r>   -2.6327    1.0000 </r>
       <r>   -2.6199    1.0000 </r>
       <r>   -2.5925    1.0000 </r>
       <r>   -2.5366    1.0000 </r>
       <r>   -2.5247    1.0000 </r>
       <r>   -2.5146    1.0000 </r>
       <r>   -2.4603    1.0000 </r>
       <r>   -2.4455    1.0000 </r>
       <r>   -2.4195    1.0000 </r>
       <r>   -2.4118    1.0000 </r>
       <r>   -2.4051    1.0000 </r>
       <r>   -2.3858    1.0000 </r>
       <r>   -2.3608    1.0000 </r>
       <r>   -2.3498    1.0000 </r>
       <r>   -2.3274    1.0000 </r>
       <r>   -2.3060    1.0000 </r>
       <r>   -2.2694    1.0000 </r>
       <r>   -2.2190    1.0000 </r>
       <r>   -2.2032    1.0000 </r>
       <r>   -2.1511    1.0000 </r>
       <r>   -2.0980    1.0000 </r>
       <r>   -2.0225    1.0000 </r>
       <r>   -1.9591    1.0000 </r>
       <r>   -1.9097    1.0000 </r>
       <r>   -1.8604    1.0000 </r>
       <r>   -1.8552    1.0000 </r>
       <r>   -1.8077    1.0000 </r>
       <r>   -1.7669    1.0000 </r>
       <r>   -1.7561    1.0000 </r>
       <r>   -1.6987    1.0000 </r>
       <r>   -1.6744    1.0000 </r>
       <r>   -1.6382    1.0000 </r>
       <r>   -1.6295    1.0000 </r>
       <r>   -1.6044    1.0000 </r>
       <r>   -1.5822    1.0000 </r>
       <r>   -1.5626    1.0000 </r>
       <r>   -1.5353    1.0000 </r>
       <r>   -1.5222    1.0000 </r>
       <r>   -1.4997    1.0000 </r>
       <r>   -1.4785    1.0000 </r>
       <r>   -1.4617    1.0000 </r>
       <r>   -1.4313    1.0000 </r>
       <r>   -1.4183    1.0000 </r>
       <r>   -1.3917    1.0000 </r>
       <r>   -1.3780    1.0000 </r>
       <r>   -1.3591    1.0000 </r>
       <r>   -1.3431    1.0000 </r>
       <r>   -1.3290    1.0000 </r>
       <r>   -1.2761    1.0000 </r>
       <r>   -1.2645    1.0000 </r>
       <r>   -1.2411    1.0000 </r>
       <r>   -1.2324    1.0000 </r>
       <r>   -1.2089    1.0000 </r>
       <r>   -1.1930    1.0000 </r>
       <r>   -1.1794    1.0000 </r>
       <r>   -1.1526    1.0000 </r>
       <r>   -1.1351    1.0000 </r>
       <r>   -1.1212    1.0000 </r>
       <r>   -1.0673    1.0000 </r>
       <r>   -1.0502    1.0000 </r>
       <r>   -1.0265    1.0000 </r>
       <r>   -1.0076    1.0000 </r>
       <r>   -1.0021    1.0000 </r>
       <r>   -0.9928    1.0000 </r>
       <r>   -0.9818    1.0000 </r>
       <r>   -0.9633    1.0000 </r>
       <r>   -0.9421    1.0000 </r>
       <r>   -0.9176    1.0000 </r>
       <r>   -0.9052    1.0000 </r>
       <r>   -0.9037    1.0000 </r>
       <r>   -0.8793    1.0000 </r>
       <r>   -0.8607    1.0000 </r>
       <r>   -0.8498    1.0000 </r>
       <r>   -0.8229    1.0000 </r>
       <r>   -0.8177    1.0000 </r>
       <r>   -0.7932    1.0000 </r>
       <r>   -0.7901    1.0000 </r>
       <r>   -0.7720    1.0000 </r>
       <r>   -0.7545    1.0000 </r>
       <r>   -0.7312    1.0000 </r>
       <r>   -0.7255    1.0000 </r>
       <r>   -0.7075    1.0000 </r>
       <r>   -0.6892    1.0000 </r>
       <r>   -0.6848    1.0000 </r>
       <r>   -0.6642    1.0000 </r>
       <r>   -0.6528    1.0000 </r>
       <r>   -0.6387    1.0000 </r>
       <r>   -0.6246    1.0000 </r>
       <r>   -0.6141    1.0000 </r>
       <r>   -0.5919    1.0000 </r>
       <r>   -0.5850    1.0000 </r>
       <r>   -0.5746    1.0000 </r>
       <r>   -0.5605    1.0000 </r>
       <r>   -0.5534    1.0000 </r>
       <r>   -0.5455    1.0000 </r>
       <r>   -0.5373    1.0000 </r>
       <r>   -0.5217    1.0000 </r>
       <r>   -0.5115    1.0000 </r>
       <r>   -0.4945    1.0000 </r>
       <r>   -0.4747    1.0000 </r>
       <r>   -0.4646    1.0000 </r>
       <r>   -0.4518    1.0000 </r>
       <r>   -0.4366    1.0000 </r>
       <r>   -0.4307    1.0000 </r>
       <r>   -0.4252    1.0000 </r>
       <r>   -0.4160    1.0000 </r>
       <r>   -0.3997    1.0000 </r>
       <r>   -0.3935    1.0000 </r>
       <r>   -0.3706    1.0000 </r>
       <r>   -0.3649    1.0000 </r>
       <r>   -0.3565    1.0000 </r>
       <r>   -0.3416    1.0000 </r>
       <r>   -0.3370    1.0000 </r>
       <r>   -0.3301    1.0000 </r>
       <r>   -0.3240    1.0000 </r>
       <r>   -0.3137    1.0000 </r>
       <r>   -0.3124    1.0000 </r>
       <r>   -0.2818    1.0000 </r>
       <r>   -0.2628    1.0000 </r>
       <r>   -0.2533    1.0000 </r>
       <r>   -0.2407    1.0000 </r>
       <r>   -0.2304    1.0000 </r>
       <r>   -0.2148    1.0000 </r>
       <r>   -0.2039    1.0000 </r>
       <r>   -0.1913    1.0000 </r>
       <r>   -0.1821    1.0000 </r>
       <r>   -0.1516    1.0000 </r>
       <r>   -0.1497    1.0000 </r>
       <r>   -0.1440    1.0000 </r>
       <r>   -0.1303    1.0000 </r>
       <r>   -0.1299    1.0000 </r>
       <r>   -0.1212    1.0000 </r>
       <r>   -0.1031    1.0000 </r>
       <r>   -0.0943    1.0000 </r>
       <r>   -0.0880    1.0000 </r>
       <r>   -0.0868    1.0000 </r>
       <r>   -0.0713    1.0000 </r>
       <r>   -0.0585    1.0000 </r>
       <r>   -0.0517    1.0000 </r>
       <r>   -0.0470    1.0000 </r>
       <r>   -0.0401    1.0000 </r>
       <r>   -0.0258    1.0000 </r>
       <r>   -0.0213    1.0000 </r>
       <r>   -0.0088    1.0000 </r>
       <r>    0.0052    1.0000 </r>
       <r>    0.0170    1.0000 </r>
       <r>    0.0296    1.0000 </r>
       <r>    0.0351    1.0000 </r>
       <r>    0.0508    1.0000 </r>
       <r>    0.0558    1.0000 </r>
       <r>    0.0614    1.0000 </r>
       <r>    0.0787    1.0000 </r>
       <r>    0.0889    1.0000 </r>
       <r>    0.1065    1.0000 </r>
       <r>    0.1143    1.0000 </r>
       <r>    0.1195    1.0000 </r>
       <r>    0.1415    1.0000 </r>
       <r>    0.1512    1.0000 </r>
       <r>    0.1692    1.0000 </r>
       <r>    0.1875    1.0000 </r>
       <r>    0.1924    1.0000 </r>
       <r>    0.2165    1.0000 </r>
       <r>    0.2238    1.0000 </r>
       <r>    0.2348    1.0000 </r>
       <r>    0.2491    1.0000 </r>
       <r>    0.2682    1.0000 </r>
       <r>    0.2724    1.0000 </r>
       <r>    0.2811    1.0000 </r>
       <r>    0.3121    1.0000 </r>
       <r>    0.3265    1.0000 </r>
       <r>    0.3465    1.0000 </r>
       <r>    0.3515    1.0000 </r>
       <r>    0.3641    1.0000 </r>
       <r>    0.3728    1.0000 </r>
       <r>    0.3891    1.0000 </r>
       <r>    0.4118    1.0000 </r>
       <r>    0.4244    1.0000 </r>
       <r>    0.4441    1.0000 </r>
       <r>    0.4518    1.0000 </r>
       <r>    0.4738    1.0000 </r>
       <r>    0.4892    1.0000 </r>
       <r>    0.4937    1.0000 </r>
       <r>    0.5008    1.0000 </r>
       <r>    0.5319    1.0000 </r>
       <r>    0.5469    1.0000 </r>
       <r>    0.5572    1.0000 </r>
       <r>    0.5873    1.0000 </r>
       <r>    0.5959    1.0000 </r>
       <r>    0.6491    1.0000 </r>
       <r>    0.6847    1.0000 </r>
       <r>    0.6976    1.0000 </r>
       <r>    0.7354    1.0000 </r>
       <r>    0.7491    1.0000 </r>
       <r>    0.7684    1.0000 </r>
       <r>    0.7956    1.0000 </r>
       <r>    0.8128    1.0000 </r>
       <r>    0.8423    1.0000 </r>
       <r>    0.8564    1.0000 </r>
       <r>    0.8658    1.0000 </r>
       <r>    0.8848    1.0000 </r>
       <r>    0.9194    1.0000 </r>
       <r>    0.9569    1.0000 </r>
       <r>    0.9773    1.0000 </r>
       <r>    1.0034    1.0000 </r>
       <r>    1.0457    0.9999 </r>
       <r>    1.0505    0.9999 </r>
       <r>    1.0882    0.9997 </r>
       <r>    1.1078    0.9995 </r>
       <r>    1.1163    0.9993 </r>
       <r>    1.1633    0.9980 </r>
       <r>    1.1762    0.9973 </r>
       <r>    1.1949    0.9960 </r>
       <r>    1.2131    0.9942 </r>
       <r>    1.2406    0.9901 </r>
       <r>    1.2542    0.9873 </r>
       <r>    1.2847    0.9783 </r>
       <r>    1.3106    0.9669 </r>
       <r>    1.3605    0.9310 </r>
       <r>    1.3777    0.9134 </r>
       <r>    1.3985    0.8878 </r>
       <r>    1.4178    0.8596 </r>
       <r>    1.4399    0.8218 </r>
       <r>    1.4603    0.7816 </r>
       <r>    1.4876    0.7207 </r>
       <r>    1.5203    0.6383 </r>
       <r>    1.5411    0.5818 </r>
       <r>    1.5480    0.5626 </r>
       <r>    1.5978    0.4228 </r>
       <r>    1.6532    0.2790 </r>
       <r>    1.6621    0.2582 </r>
       <r>    1.6827    0.2134 </r>
       <r>    1.7702    0.0788 </r>
       <r>    1.7781    0.0709 </r>
       <r>    1.8296    0.0334 </r>
       <r>    1.8591    0.0206 </r>
       <r>    1.9029    0.0093 </r>
       <r>    1.9200    0.0067 </r>
       <r>    2.0079    0.0010 </r>
       <r>    2.0304    0.0006 </r>
       <r>    2.0487    0.0004 </r>
       <r>    2.0946    0.0001 </r>
[...]
       <r>   -58.5654     0.0000   288.0000 </r>
       <r>   -58.3055     0.0000   288.0000 </r>
       <r>   -58.0456     0.0000   288.0000 </r>
       <r>   -57.7858     0.0000   288.0000 </r>
       <r>   -57.5259     0.0000   288.0000 </r>
       <r>   -57.2661     0.0000   288.0000 </r>
       <r>   -57.0062     0.0000   288.0000 </r>
       <r>   -56.7463     0.0000   288.0000 </r>
       <r>   -56.4865     0.0000   288.0000 </r>
       <r>   -56.2266     0.0000   288.0000 </r>
       <r>   -55.9668     0.0000   288.0000 </r>
       <r>   -55.7069     0.0000   288.0000 </r>
       <r>   -55.4470     0.0000   288.0000 </r>
       <r>   -55.1872     0.0000   288.0000 </r>
       <r>   -54.9273     0.0000   288.0000 </r>
       <r>   -54.6675     0.0000   288.0000 </r>
       <r>   -54.4076     0.0000   288.0000 </r>
       <r>   -54.1477     0.0000   288.0000 </r>
       <r>   -53.8879     0.0000   288.0000 </r>
       <r>   -53.6280     0.0000   288.0000 </r>
       <r>   -53.3682     0.0000   288.0000 </r>
       <r>   -53.1083     0.0000   288.0000 </r>
       <r>   -52.8484     0.0000   288.0000 </r>
       <r>   -52.5886     0.0000   288.0000 </r>
       <r>   -52.3287     0.0000   288.0000 </r>
       <r>   -52.0689     0.0000   288.0000 </r>
       <r>   -51.8090     0.0000   288.0000 </r>
       <r>   -51.5491     0.0000   288.0000 </r>
       <r>   -51.2893     0.0000   288.0000 </r>
       <r>   -51.0294     0.0000   288.0000 </r>
       <r>   -50.7696     0.0000   288.0000 </r>
       <r>   -50.5097     0.0000   288.0000 </r>
       <r>   -50.2498     0.0000   288.0000 </r>
       <r>   -49.9900     0.0000   288.0000 </r>
       <r>   -49.7301     0.0000   288.0000 </r>
       <r>   -49.4703     0.0000   288.0000 </r>
       <r>   -49.2104     0.0000   288.0000 </r>
       <r>   -48.9505     0.0000   288.0000 </r>
       <r>   -48.6907     0.0000   288.0000 </r>
       <r>   -48.4308     0.0000   288.0000 </r>
       <r>   -48.1710     0.0000   288.0000 </r>
       <r>   -47.9111     0.0000   288.0000 </r>
       <r>   -47.6512     0.0000   288.0000 </r>
       <r>   -47.3914     0.0000   288.0000 </r>
       <r>   -47.1315     0.0000   288.0000 </r>
       <r>   -46.8717     0.0000   288.0000 </r>
       <r>   -46.6118     0.0000   288.0000 </r>
       <r>   -46.3520     0.0000   288.0000 </r>
       <r>   -46.0921     0.0000   288.0000 </r>
       <r>   -45.8322     0.0000   288.0000 </r>
       <r>   -45.5724     0.0000   288.0000 </r>
       <r>   -45.3125     0.0000   288.0000 </r>
       <r>   -45.0527     0.0000   288.0000 </r>
       <r>   -44.7928     0.0000   288.0000 </r>
       <r>   -44.5329     0.0000   288.0000 </r>
       <r>   -44.2731     0.0000   288.0000 </r>
       <r>   -44.0132     0.0000   288.0000 </r>
       <r>   -43.7534     0.0000   288.0000 </r>
       <r>   -43.4935     0.0000   288.0000 </r>
       <r>   -43.2336     0.0000   288.0000 </r>
       <r>   -42.9738     0.0000   288.0000 </r>
       <r>   -42.7139     0.0000   288.0000 </r>
       <r>   -42.4541     0.0000   288.0000 </r>
       <r>   -42.1942     0.0000   288.0000 </r>
       <r>   -41.9343     0.0000   288.0000 </r>
       <r>   -41.6745     0.0000   288.0000 </r>
       <r>   -41.4146     0.0000   288.0000 </r>
       <r>   -41.1548     0.0000   288.0000 </r>
       <r>   -40.8949     0.0000   288.0000 </r>
       <r>   -40.6350     0.0000   288.0000 </r>
       <r>   -40.3752     0.0000   288.0000 </r>
       <r>   -40.1153     0.0000   288.0000 </r>
       <r>   -39.8555     0.0000   288.0000 </r>
       <r>   -39.5956     0.0000   288.0000 </r>
       <r>   -39.3357     0.0000   288.0000 </r>
       <r>   -39.0759     0.0000   288.0000 </r>
       <r>   -38.8160     0.0000   288.0000 </r>
       <r>   -38.5562     0.0000   288.0000 </r>
       <r>   -38.2963     0.0000   288.0000 </r>
       <r>   -38.0364     0.0000   288.0000 </r>
       <r>   -37.7766     0.0000   288.0000 </r>
       <r>   -37.5167     0.0000   288.0000 </r>
       <r>   -37.2569     0.0000   288.0000 </r>
       <r>   -36.9970     0.0000   288.0000 </r>
       <r>   -36.7371     0.0000   288.0000 </r>
       <r>   -36.4773     0.0000   288.0000 </r>
       <r>   -36.2174     0.0000   288.0000 </r>
       <r>   -35.9576     0.0000   288.0000 </r>
       <r>   -35.6977     0.0000   288.0000 </r>
       <r>   -35.4378     0.0000   288.0000 </r>
       <r>   -35.1780     0.0000   288.0000 </r>
       <r>   -34.9181     0.0000   288.0000 </r>
       <r>   -34.6583     0.0000   288.0000 </r>
       <r>   -34.3984     0.0000   288.0000 </r>
       <r>   -34.1385     0.0000   288.0000 </r>
       <r>   -33.8787     0.0000   288.0000 </r>
       <r>   -33.6188     0.0000   288.0000 </r>
       <r>   -33.3590     0.0000   288.0000 </r>
       <r>   -33.0991     0.0000   288.0000 </r>
       <r>   -32.8392     0.0000   288.0000 </r>
       <r>   -32.5794     0.0000   288.0000 </r>
       <r>   -32.3195     0.0000   288.0000 </r>
       <r>   -32.0597     0.0000   288.0000 </r>
       <r>   -31.7998     0.0000   288.0000 </r>
       <r>   -31.5399     0.0000   288.0000 </r>
       <r>   -31.2801     0.0000   288.0000 </r>
       <r>   -31.0202     0.0000   288.0000 </r>
       <r>   -30.7604     0.0000   288.0000 </r>
       <r>   -30.5005     0.0000   288.0000 </r>
       <r>   -30.2406     0.0000   288.0000 </r>
       <r>   -29.9808     0.0000   288.0000 </r>
       <r>   -29.7209     0.0000   288.0000 </r>
       <r>   -29.4611     0.0000   288.0000 </r>
       <r>   -29.2012     0.0000   288.0000 </r>
       <r>   -28.9413     0.0000   288.0000 </r>
       <r>   -28.6815     0.0000   288.0000 </r>
       <r>   -28.4216     0.0000   288.0000 </r>
       <r>   -28.1618     0.0000   288.0000 </r>
       <r>   -27.9019     0.0000   288.0000 </r>
       <r>   -27.6420     0.0000   288.0000 </r>
       <r>   -27.3822     0.0000   288.0000 </r>
       <r>   -27.1223     0.0000   288.0000 </r>
       <r>   -26.8625     0.0000   288.0000 </r>
       <r>   -26.6026     0.0000   288.0000 </r>
       <r>   -26.3427     0.0000   288.0000 </r>
       <r>   -26.0829     0.0000   288.0000 </r>
       <r>   -25.8230     0.0000   288.0000 </r>
       <r>   -25.5632     0.0000   288.0000 </r>
       <r>   -25.3033     0.0000   288.0000 </r>
       <r>   -25.0434     0.0000   288.0000 </r>
       <r>   -24.7836     0.0000   288.0000 </r>
       <r>   -24.5237     0.0000   288.0000 </r>
       <r>   -24.2639     0.0000   288.0000 </r>
       <r>   -24.0040     0.0000   288.0000 </r>
       <r>   -23.7441     0.0000   288.0000 </r>
       <r>   -23.4843     0.0000   288.0000 </r>
       <r>   -23.2244     0.0000   288.0000 </r>
       <r>   -22.9646     0.0000   288.0000 </r>
       <r>   -22.7047     0.0000   288.0000 </r>
       <r>   -22.4448     0.0000   288.0000 </r>
       <r>   -22.1850     0.0000   288.0000 </r>
       <r>   -21.9251     0.0000   288.0000 </r>
       <r>   -21.6653     0.0000   288.0000 </r>
       <r>   -21.4054     0.0000   288.0000 </r>
       <r>   -21.1455     0.0000   288.0000 </r>
       <r>   -20.8857     0.0000   288.0000 </r>
       <r>   -20.6258     0.0000   288.0000 </r>
       <r>   -20.3660     0.0000   288.0000 </r>
       <r>   -20.1061     0.0000   288.0000 </r>
       <r>   -19.8462     0.0000   288.0000 </r>
       <r>   -19.5864     0.0000   288.0000 </r>
       <r>   -19.3265     0.0000   288.0000 </r>
       <r>   -19.0667     0.0000   288.0000 </r>
       <r>   -18.8068     0.0000   288.0000 </r>
       <r>   -18.5469     0.0000   288.0000 </r>
       <r>   -18.2871     0.0000   288.0000 </r>
       <r>   -18.0272     0.0000   288.0000 </r>
       <r>   -17.7674     0.0000   288.0000 </r>
       <r>   -17.5075     0.0000   288.0000 </r>
       <r>   -17.2476     0.0000   288.0000 </r>
       <r>   -16.9878     0.0000   288.0000 </r>
       <r>   -16.7279     0.0000   288.0000 </r>
       <r>   -16.4681     0.0000   288.0000 </r>
       <r>   -16.2082     0.0000   288.0000 </r>
       <r>   -15.9483     0.0000   288.0000 </r>
       <r>   -15.6885     0.0000   288.0000 </r>
       <r>   -15.4286     0.0000   288.0000 </r>
       <r>   -15.1688     0.0000   288.0000 </r>
       <r>   -14.9089     0.0087   288.0023 </r>
       <r>   -14.6490     0.8637   288.2267 </r>
       <r>   -14.3892     5.6394   289.6922 </r>
       <r>   -14.1293     7.1290   291.5447 </r>
       <r>   -13.8695     9.1229   293.9154 </r>
       <r>   -13.6096    20.9518   299.3599 </r>
       <r>   -13.3497    28.5295   306.7736 </r>
       <r>   -13.0899    25.0587   313.2854 </r>
       <r>   -12.8300    25.4800   319.9066 </r>
       <r>   -12.5702    40.0110   330.3038 </r>
       <r>   -12.3103    48.6554   342.9474 </r>
       <r>   -12.0504    43.9214   354.3609 </r>
       <r>   -11.7906    39.4316   364.6075 </r>
       <r>   -11.5307    36.4226   374.0723 </r>
       <r>   -11.2709    22.5279   379.9264 </r>
       <r>   -11.0110    12.5862   383.1970 </r>
       <r>   -10.7511     3.0197   383.9817 </r>
       <r>   -10.4913     0.0701   384.0000 </r>
       <r>   -10.2314     0.0001   384.0000 </r>
       <r>    -9.9716     0.0000   384.0000 </r>
       <r>    -9.7117     0.0000   384.0000 </r>
       <r>    -9.4518     0.0000   384.0000 </r>
       <r>    -9.1920     0.0000   384.0000 </r>
       <r>    -8.9321     0.0000   384.0000 </r>
       <r>    -8.6723     0.0000   384.0000 </r>
       <r>    -8.4124     0.0000   384.0000 </r>
       <r>    -8.1525     0.0000   384.0000 </r>
       <r>    -7.8927     0.0000   384.0000 </r>
       <r>    -7.6328     0.0000   384.0000 </r>
       <r>    -7.3730     0.0000   384.0000 </r>
       <r>    -7.1131     0.0000   384.0000 </r>
       <r>    -6.8532     0.0274   384.0071 </r>
       <r>    -6.5934     1.5577   384.4119 </r>
       <r>    -6.3335     8.6554   386.6611 </r>
       <r>    -6.0737    20.0343   391.8672 </r>
       <r>    -5.8138    31.1833   399.9705 </r>
       <r>    -5.5539    30.3758   407.8639 </r>
       <r>    -5.2941    38.2213   417.7961 </r>
       <r>    -5.0342    65.3056   434.7664 </r>
       <r>    -4.7744    64.7092   451.5818 </r>
       <r>    -4.5145    55.4309   465.9861 </r>
       <r>    -4.2546    60.1887   481.6267 </r>
       <r>    -3.9948    62.1888   497.7871 </r>
       <r>    -3.7349    64.9688   514.6698 </r>
       <r>    -3.4751    79.8147   535.4105 </r>
       <r>    -3.2152    88.7222   558.4658 </r>
       <r>    -2.9553    80.7880   579.4594 </r>
       <r>    -2.6955    77.7261   599.6573 </r>
       <r>    -2.4356    83.7875   621.4303 </r>
       <r>    -2.1758    72.3821   640.2395 </r>
       <r>    -1.9159    45.6370   652.0987 </r>
       <r>    -1.6560    61.5895   668.1034 </r>
       <r>    -1.3962    88.4905   691.0985 </r>
       <r>    -1.1363    97.5549   716.4492 </r>
       <r>    -0.8765   112.8850   745.7834 </r>
       <r>    -0.6166   139.0472   781.9163 </r>
       <r>    -0.3567   166.5064   825.1846 </r>
       <r>    -0.0969   181.1688   872.2631 </r>
       <r>     0.1630   178.3030   918.5969 </r>
       <r>     0.4228   143.1114   955.7859 </r>
       <r>     0.6827   107.1096   983.6194 </r>
       <r>     0.9426    85.8234  1005.9214 </r>
       <r>     1.2024    82.6493  1027.3987 </r>
       <r>     1.4623    80.1532  1048.2273 </r>
       <r>     1.7221    65.9233  1065.3581 </r>
       <r>     1.9820    53.3484  1079.2212 </r>
       <r>     2.2419    56.2866  1093.8479 </r>
       <r>     2.5017    66.8741  1111.2258 </r>
       <r>     2.7616    63.7765  1127.7988 </r>
       <r>     3.0214    46.6602  1139.9239 </r>
       <r>     3.2813    33.6514  1148.6685 </r>
       <r>     3.5412    17.8789  1153.3145 </r>
       <r>     3.8010     2.9732  1154.0872 </r>
       <r>     4.0609     4.0322  1155.1350 </r>
       <r>     4.3207     3.2484  1155.9791 </r>
       <r>     4.5806     4.2957  1157.0954 </r>
       <r>     4.8405    16.2485  1161.3177 </r>
       <r>     5.1003    20.7198  1166.7020 </r>
       <r>     5.3602    21.5599  1172.3045 </r>
       <r>     5.6200    24.1317  1178.5754 </r>
       <r>     5.8799    26.4544  1185.4498 </r>
       <r>     6.1398    30.5874  1193.3982 </r>
       <r>     6.3996    25.0050  1199.8960 </r>
       <r>     6.6595    33.6447  1208.6389 </r>
       <r>     6.9193    42.7727  1219.7538 </r>
       <r>     7.1792    48.7115  1232.4120 </r>
       <r>     7.4391    52.9250  1246.1651 </r>
       <r>     7.6989    55.5042  1260.5884 </r>
       <r>     7.9588    26.3544  1267.4369 </r>
       <r>     8.2186     2.1517  1267.9960 </r>
       <r>     8.4785     0.0153  1268.0000 </r>
       <r>     8.7384     0.0000  1268.0000 </r>
       <r>     8.9982     0.0000  1268.0000 </r>
       <r>     9.2581     0.0000  1268.0000 </r>
       <r>     9.5179     0.0000  1268.0000 </r>
       <r>     9.7778     0.0000  1268.0000 </r>
       <r>    10.0377     0.0000  1268.0000 </r>
       <r>    10.2975     0.0000  1268.0000 </r>
       <r>    10.5574     0.0000  1268.0000 </r>
       <r>    10.8172     0.0000  1268.0000 </r>
       <r>    11.0771     0.0000  1268.0000 </r>
       <r>    11.3370     0.0000  1268.0000 </r>
      </set>
     </set>
    </array>
   </total>
  </dos>
 </calculation>
 <structure name="finalpos" >
  <crystal>
   <varray name="basis" >
    <v>      11.25646304       0.00000000       0.00000000 </v>
    <v>       5.04456212      10.06282034       0.00000000 </v>
    <v>       0.00000000       0.00000000      22.51995597 </v>
   </varray>
   <i name="volume">   2550.87516496 </i>
   <varray name="rec_basis" >
    <v>       0.08883785      -0.04453504       0.00000000 </v>
    <v>       0.00000000       0.09937572       0.00000000 </v>
    <v>       0.00000000       0.00000000       0.04440506 </v>
   </varray>
  </crystal>
  <varray name="positions" >
   <v>       0.26092069       0.47878037       0.29519774 </v>
   <v>       0.35488056       0.38482050       0.42557357 </v>
   <v>       0.04561941       0.19378413       0.08063449 </v>
   <v>       0.16696082       0.07274025       0.16482191 </v>
   <v>       0.20372909       0.31711882       0.03511191 </v>
   <v>       0.27423906       0.33335901       0.13037583 </v>
   <v>       0.36819893       0.23939914       0.26075166 </v>
   <v>       0.46215879       0.14543927       0.39112749 </v>
   <v>       0.00030194       0.37150214       0.26075166 </v>
   <v>       0.09426180       0.27754227       0.39112749 </v>
   <v>       0.21201209       0.18303704       0.48090518 </v>
   <v>       0.40634206       0.46546200       0.13037583 </v>
   <v>       0.32767390       0.04442333       0.02333179 </v>
   <v>       0.76092069       0.47878037       0.29519774 </v>
   <v>       0.85488056       0.38482050       0.42557357 </v>
   <v>       0.66696082       0.07274025       0.16482191 </v>
   <v>       0.77423906       0.33335901       0.13037583 </v>
   <v>       0.86819893       0.23939914       0.26075166 </v>
   <v>       0.96215879       0.14543927       0.39112749 </v>
   <v>       0.50030194       0.37150214       0.26075166 </v>
   <v>       0.59426180       0.27754227       0.39112749 </v>
   <v>       0.90634206       0.46546200       0.13037583 </v>
   <v>       0.92173626       0.03789801       0.03515184 </v>
   <v>       0.26092069       0.97878037       0.29519774 </v>
   <v>       0.35488056       0.88482051       0.42557357 </v>
   <v>       0.16696083       0.57274025       0.16482191 </v>
   <v>       0.19456405       0.92753912       0.02234910 </v>
   <v>       0.27423906       0.83335901       0.13037583 </v>
   <v>       0.36819893       0.73939914       0.26075166 </v>
   <v>       0.46215879       0.64543927       0.39112749 </v>
   <v>       0.00030194       0.87150214       0.26075166 </v>
   <v>       0.09426180       0.77754227       0.39112749 </v>
   <v>       0.22170494       0.67629684       0.47806179 </v>
   <v>       0.40634206       0.96546200       0.13037583 </v>
   <v>       0.21508590       0.53078459       0.05730609 </v>
   <v>       0.76092069       0.97878037       0.29519774 </v>
   <v>       0.85488056       0.88482051       0.42557357 </v>
   <v>       0.66696083       0.57274025       0.16482191 </v>
   <v>       0.52733711       0.52894113       0.48349870 </v>
   <v>       0.70897626       0.02495714       0.05735007 </v>
   <v>       0.77423906       0.83335901       0.13037583 </v>
   <v>       0.86819893       0.73939914       0.26075166 </v>
   <v>       0.96215879       0.64543927       0.39112749 </v>
   <v>       0.50030194       0.87150214       0.26075166 </v>
   <v>       0.59426180       0.77754227       0.39112749 </v>
   <v>       0.69014605       0.71330715       0.49008244 </v>
   <v>       0.90634206       0.96546200       0.13037583 </v>
   <v>       0.70682729       0.53260799       0.05967462 </v>
   <v>       0.07287763       0.16682345       0.31134757 </v>
   <v>       0.16415075       0.07170214       0.42348142 </v>
   <v>       0.37325407       0.35002602       0.05612540 </v>
   <v>       0.47891775       0.26078331       0.18097174 </v>
   <v>       0.02721856       0.34024555       0.47500230 </v>
   <v>       0.43627354       0.47164252       0.35520991 </v>
   <v>       0.24835381       0.15956227       0.09445824 </v>
   <v>       0.34231367       0.06560240       0.22483408 </v>
   <v>       0.08531446       0.47191534       0.09863539 </v>
   <v>       0.17409868       0.39738739       0.22483408 </v>
   <v>       0.26805854       0.30342752       0.35520991 </v>
   <v>       0.37111362       0.21776333       0.47113610 </v>
   <v>       0.57287763       0.16682345       0.31134757 </v>
   <v>       0.66583637       0.07397348       0.41726292 </v>
   <v>       0.87767022       0.36130064       0.05712955 </v>
   <v>       0.97891775       0.26078331       0.18097174 </v>
   <v>       0.52372149       0.35322116       0.47348123 </v>
   <v>       0.93627354       0.47164252       0.35520991 </v>
   <v>       0.76752631       0.15401469       0.09925653 </v>
   <v>       0.84231367       0.06560240       0.22483408 </v>
   <v>       0.58174275       0.48139723       0.10791399 </v>
   <v>       0.67409868       0.39738739       0.22483408 </v>
   <v>       0.76805854       0.30342752       0.35520991 </v>
   <v>       0.86033904       0.22207807       0.46620717 </v>
   <v>       0.07287763       0.66682345       0.31134757 </v>
   <v>       0.16348438       0.56941086       0.42267080 </v>
   <v>       0.37978483       0.86018443       0.05846540 </v>
   <v>       0.47891775       0.76078331       0.18097174 </v>
   <v>       0.03124852       0.83375092       0.47513160 </v>
   <v>       0.43627354       0.97164252       0.35520991 </v>
   <v>       0.25928742       0.65735311       0.10895667 </v>
   <v>       0.34231367       0.56560240       0.22483408 </v>
   <v>       0.08013881       0.99134726       0.09445824 </v>
   <v>       0.17409868       0.89738739       0.22483408 </v>
   <v>       0.26805854       0.80342752       0.35520991 </v>
   <v>       0.37854085       0.71948909       0.47610261 </v>
   <v>       0.57287763       0.66682345       0.31134757 </v>
   <v>       0.66683750       0.57286358       0.44172340 </v>
   <v>       0.88974942       0.86658882       0.05608603 </v>
   <v>       0.97891775       0.76078331       0.18097174 </v>
   <v>       0.52027707       0.87629640       0.47013147 </v>
   <v>       0.93627354       0.97164252       0.35520991 </v>
   <v>       0.75826049       0.65773997       0.10780493 </v>
   <v>       0.84231367       0.56560240       0.22483408 </v>
   <v>       0.58255132       0.98028547       0.10874360 </v>
   <v>       0.67409868       0.89738739       0.22483408 </v>
   <v>       0.76805854       0.80342752       0.35520991 </v>
   <v>       0.86072153       0.72088075       0.46934835 </v>
  </varray>
 </structure>
</modeling>
