LAMMPS data file via write_data, version 5 Jun 2019, timestep = 37

96 atoms
2 atom types

0.0000000000000000e+00 1.1256463038200000e+01 xlo xhi
0.0000000000000000e+00 1.0062820337100000e+01 ylo yhi
0.0000000000000000e+00 2.1744231843600001e+01 zlo zhi
5.0445621212000002e+00 0.0000000000000000e+00 0.0000000000000000e+00 xy xz yz

Masses

1 58.71
2 32.06

Atoms # atomic

1 1 5.3522814389000004e+00 4.8178807436000000e+00 5.5084225035000003e+00 0 0 0
2 1 5.9359508115999997e+00 3.8723794831000009e+00 8.4444804617999996e+00 0 0 0
3 1 6.0564989739261499e+00 3.6771194121116855e+00 1.0811374532928983e+01 0 0 0
4 1 2.2463310649000001e+00 7.3197197650000023e-01 2.5723645453000001e+00 0 0 0
5 1 8.2540070806494037e-01 5.4855020189985126e-01 1.0271549596154147e+01 0 0 0
6 1 4.7686120527000000e+00 3.3545316644000001e+00 1.7966404224000001e+00 0 0 0
7 1 5.3522814304999997e+00 2.4090304139000001e+00 4.7326983806999996e+00 0 0 0
8 1 5.9359508195000004e+00 1.4635291635000003e+00 7.6687563388999989e+00 0 0 0
9 1 1.8774643416000001e+00 3.7383591286000000e+00 4.7326983806999996e+00 0 0 0
10 1 2.4611337306999999e+00 2.7928578782000000e+00 7.6687563388999989e+00 0 0 0
11 1 3.0471646596334701e+00 1.9200612263595647e+00 1.0271486448946977e+01 0 0 0
12 1 7.8584666994653167e+00 4.5420199831633372e+00 2.5392409441835904e+00 0 0 0
13 1 1.0980512958000002e+01 4.8178807436000000e+00 5.5084225035000003e+00 0 0 0
14 1 1.1564182330700000e+01 3.8723794831000009e+00 8.4444804617999996e+00 0 0 0
15 1 1.1684890997861277e+01 3.6768015783789063e+00 1.0811422849823650e+01 0 0 0
16 1 7.5389612049782002e+00 1.0843507825426308e+00 3.8702732734136585e+00 0 0 0
17 1 6.4537144850155093e+00 5.4846553680387278e-01 1.0272735804085954e+01 0 0 0
18 1 1.1237927063298145e+01 4.3417619059569743e+00 2.6770456708891541e+00 0 0 0
19 1 1.0980512949600000e+01 2.4090304139000001e+00 4.7326983806999996e+00 0 0 0
20 1 1.1564182338599998e+01 1.4635291635000003e+00 7.6687563388999989e+00 0 0 0
21 1 7.5056958608000004e+00 3.7383591286000000e+00 4.7326983806999996e+00 0 0 0
22 1 8.0893652498000002e+00 2.7928578782000000e+00 7.6687563388999989e+00 0 0 0
23 1 8.6752976427382595e+00 1.9198797433719434e+00 1.0272810127967308e+01 0 0 0
24 1 2.4174017983488101e+00 4.3477810514095214e+00 2.4754103382061712e+00 1 0 0
25 1 7.8745624993999996e+00 9.8492909121000007e+00 5.5084225035000003e+00 0 0 0
26 1 8.4582318722000007e+00 8.9037896516000004e+00 8.4444804617999996e+00 0 0 0
27 1 8.5787272372576897e+00 8.7086298040428645e+00 1.0811291015204711e+01 0 0 0
28 1 4.8945417019757667e+00 5.5590135908849847e+00 2.7921626354327373e+00 0 0 0
29 1 3.3476706490622776e+00 5.5799573307592327e+00 1.0271570885588753e+01 0 0 0
30 1 7.3937838242973202e+00 8.3830677729631606e+00 2.1121397097116170e+00 0 0 0
31 1 7.8745624910999998e+00 7.4404405823999999e+00 4.7326983806999996e+00 0 0 0
32 1 8.4582318800999996e+00 6.4949393320000004e+00 7.6687563388999989e+00 0 0 0
33 1 4.3997454021999998e+00 8.7697692971999999e+00 4.7326983806999996e+00 0 0 0
34 1 4.9834147912000004e+00 7.8242680467000003e+00 7.6687563388999989e+00 0 0 0
35 1 5.5694078719255309e+00 6.9514653410144325e+00 1.0271562685800307e+01 0 0 0
36 1 9.4611944489416491e+00 9.6893450627596138e+00 2.1547657847149972e+00 0 0 0
37 1 1.3502794018600001e+01 9.8492909121000007e+00 5.5084225035000003e+00 0 0 0
38 1 1.4086463391300001e+01 8.9037896516000004e+00 8.4444804617999996e+00 0 0 0
39 1 1.4207266467793435e+01 8.7080533435074248e+00 1.0811497628643652e+01 0 0 0
40 1 9.9569558411416299e+00 6.0298145656545321e+00 3.7918124730143878e+00 0 0 0
41 1 8.9760380480720023e+00 5.5799254435581904e+00 1.0272639527034034e+01 0 0 0
42 1 1.3780712711739314e+01 9.3539093109860012e+00 2.7788630258009541e+00 0 0 0
43 1 1.3502794010200001e+01 7.4404405823999999e+00 4.7326983806999996e+00 0 0 0
44 1 1.4086463399199998e+01 6.4949393320000004e+00 7.6687563388999989e+00 0 0 0
45 1 1.0027976921300001e+01 8.7697692971999999e+00 4.7326983806999996e+00 0 0 0
46 1 1.0611646310399999e+01 7.8242680467000003e+00 7.6687563388999989e+00 0 0 0
47 1 1.1197598112971214e+01 6.9513318081668913e+00 1.0272552608792603e+01 0 0 0
48 1 4.9436139134380284e+00 9.3688861408133466e+00 2.4554930439253395e+00 1 0 0
49 2 1.6618955858000000e+00 1.6787142544000002e+00 5.8721159164999994e+00 0 0 0
50 2 2.2455649697999998e+00 7.3321299390000005e-01 8.8081738747999996e+00 0 0 0
51 2 6.2163874157517931e+00 4.7750271629130330e+00 1.3287655630260697e+00 0 0 0
52 2 6.7064575583000003e+00 2.6242155049000000e+00 2.9360579583000002e+00 0 0 0
53 2 5.0388782809107076e+00 5.3256136372211422e+00 1.1450676064219822e+01 0 0 0
54 2 2.2455649705999998e+00 3.8005525507000000e+00 9.7959518563000003e+00 0 0 0
55 2 7.2901269369000010e+00 4.7460538113000004e+00 6.8598938979999993e+00 0 0 0
56 2 3.8170815162539116e+00 1.5320835756868996e+00 1.4345729964162515e+00 0 0 0
57 2 4.1841765742000003e+00 6.6014504409999997e-01 3.9238359396999996e+00 0 0 0
58 2 3.7716451765038612e+00 5.0303664550176350e+00 1.1148266016643154e+00 0 0 0
59 2 3.9643806934000003e+00 3.9988377890000004e+00 3.9238359396999996e+00 0 0 0
60 2 4.5480500711999996e+00 3.0533365386000000e+00 6.8598938979999993e+00 0 0 0
61 2 5.1317194551999998e+00 2.1078352781000000e+00 9.7959518563000003e+00 0 0 0
62 2 7.2901271048999998e+00 1.6787142544000002e+00 5.8721159164999994e+00 0 0 0
63 2 7.8737964889000001e+00 7.3321299390000005e-01 8.8081738747999996e+00 0 0 0
64 2 1.2320885061970685e+01 4.7167027080734574e+00 1.0115685960697753e+00 0 0 0
65 2 1.2334689077400000e+01 2.6242155049000000e+00 2.9360579583000002e+00 0 0 0
66 2 1.0667349877533420e+01 5.3252440136364116e+00 1.1451110245356816e+01 0 0 0
67 2 7.8737964897000001e+00 3.8005525507000000e+00 9.7959518563000003e+00 0 0 0
68 2 1.2918358456000000e+01 4.7460538113000004e+00 6.8598938979999993e+00 0 0 0
69 2 9.8124080933000002e+00 6.6014504409999997e-01 3.9238359396999996e+00 0 0 0
70 2 9.6159663363695849e+00 5.2795163108256773e+00 1.7361248564663225e+00 0 0 0
71 2 9.5926122126000006e+00 3.9988377890000004e+00 3.9238359396999996e+00 0 0 0
72 2 1.0176281590300000e+01 3.0533365386000000e+00 6.8598938979999993e+00 0 0 0
73 2 1.0759950974300001e+01 2.1078352781000000e+00 9.7959518563000003e+00 0 0 0
74 2 4.1841766464000001e+00 6.7101244228999999e+00 5.8721159164999994e+00 0 0 0
75 2 4.7678460304000003e+00 5.7646231624000004e+00 8.8081738747999996e+00 0 0 0
76 2 8.6815640637328908e+00 8.7441683048588104e+00 5.6938772662868420e-01 0 0 0
77 2 9.2287386188999996e+00 7.6556256734000003e+00 2.9360579583000002e+00 0 0 0
78 2 2.5165878578524654e+00 2.9428351744803261e-01 1.1450693807098272e+01 0 1 0
79 2 4.7678460312000039e+00 8.8319627192999999e+00 9.7959518563000003e+00 0 0 0
80 2 9.8124079974999994e+00 9.7774639798000003e+00 6.8598938979999993e+00 0 0 0
81 2 6.7064576347999996e+00 5.6915552127000000e+00 3.9238359396999996e+00 0 0 0
82 2 6.3489584055304800e+00 9.8304659405923047e+00 1.0397788616401520e+00 0 0 0
83 2 6.4866617540000027e+00 9.0302479576000003e+00 3.9238359396999996e+00 0 0 0
84 2 7.0703311317999997e+00 8.0847467071000008e+00 6.8598938979999993e+00 0 0 0
85 2 7.6540005157999991e+00 7.1392454466000022e+00 9.7959518563000003e+00 0 0 0
86 2 9.8124081655000008e+00 6.7101244228999999e+00 5.8721159164999994e+00 0 0 0
87 2 1.0396077549499999e+01 5.7646231624000004e+00 8.8081738747999996e+00 0 0 0
88 2 1.4772235051509128e+01 9.8540806445265758e+00 1.1047379017730821e+00 0 0 0
89 2 1.4856970137999999e+01 7.6556256734000003e+00 2.9360579583000002e+00 0 0 0
90 2 8.1450703315193529e+00 2.9366815719110922e-01 1.1451097136092329e+01 0 1 0
91 2 1.0396077550300001e+01 8.8319627192999999e+00 9.7959518563000003e+00 0 0 0
92 2 1.5440639516599999e+01 9.7774639798000003e+00 6.8598938979999993e+00 0 0 0
93 2 1.2334689153899999e+01 5.6915552127000000e+00 3.9238359396999996e+00 0 0 0
94 2 1.2114893273100002e+01 9.0302479576000003e+00 3.9238359396999996e+00 0 0 0
95 2 1.2698562650900000e+01 8.0847467071000008e+00 6.8598938979999993e+00 0 0 0
96 2 1.3282232034900000e+01 7.1392454466000022e+00 9.7959518563000003e+00 0 0 0

Velocities

1 0.0000000000000000e+00 0.0000000000000000e+00 0.0000000000000000e+00
2 0.0000000000000000e+00 0.0000000000000000e+00 0.0000000000000000e+00
3 0.0000000000000000e+00 0.0000000000000000e+00 0.0000000000000000e+00
4 0.0000000000000000e+00 0.0000000000000000e+00 0.0000000000000000e+00
5 0.0000000000000000e+00 0.0000000000000000e+00 0.0000000000000000e+00
6 0.0000000000000000e+00 0.0000000000000000e+00 0.0000000000000000e+00
7 0.0000000000000000e+00 0.0000000000000000e+00 0.0000000000000000e+00
8 0.0000000000000000e+00 0.0000000000000000e+00 0.0000000000000000e+00
9 0.0000000000000000e+00 0.0000000000000000e+00 0.0000000000000000e+00
10 0.0000000000000000e+00 0.0000000000000000e+00 0.0000000000000000e+00
11 0.0000000000000000e+00 0.0000000000000000e+00 0.0000000000000000e+00
12 0.0000000000000000e+00 0.0000000000000000e+00 0.0000000000000000e+00
13 0.0000000000000000e+00 0.0000000000000000e+00 0.0000000000000000e+00
14 0.0000000000000000e+00 0.0000000000000000e+00 0.0000000000000000e+00
15 0.0000000000000000e+00 0.0000000000000000e+00 0.0000000000000000e+00
16 0.0000000000000000e+00 0.0000000000000000e+00 0.0000000000000000e+00
17 0.0000000000000000e+00 0.0000000000000000e+00 0.0000000000000000e+00
18 0.0000000000000000e+00 0.0000000000000000e+00 0.0000000000000000e+00
19 0.0000000000000000e+00 0.0000000000000000e+00 0.0000000000000000e+00
20 0.0000000000000000e+00 0.0000000000000000e+00 0.0000000000000000e+00
21 0.0000000000000000e+00 0.0000000000000000e+00 0.0000000000000000e+00
22 0.0000000000000000e+00 0.0000000000000000e+00 0.0000000000000000e+00
23 0.0000000000000000e+00 0.0000000000000000e+00 0.0000000000000000e+00
24 0.0000000000000000e+00 0.0000000000000000e+00 0.0000000000000000e+00
25 0.0000000000000000e+00 0.0000000000000000e+00 0.0000000000000000e+00
26 0.0000000000000000e+00 0.0000000000000000e+00 0.0000000000000000e+00
27 0.0000000000000000e+00 0.0000000000000000e+00 0.0000000000000000e+00
28 0.0000000000000000e+00 0.0000000000000000e+00 0.0000000000000000e+00
29 0.0000000000000000e+00 0.0000000000000000e+00 0.0000000000000000e+00
30 0.0000000000000000e+00 0.0000000000000000e+00 0.0000000000000000e+00
31 0.0000000000000000e+00 0.0000000000000000e+00 0.0000000000000000e+00
32 0.0000000000000000e+00 0.0000000000000000e+00 0.0000000000000000e+00
33 0.0000000000000000e+00 0.0000000000000000e+00 0.0000000000000000e+00
34 0.0000000000000000e+00 0.0000000000000000e+00 0.0000000000000000e+00
35 0.0000000000000000e+00 0.0000000000000000e+00 0.0000000000000000e+00
36 0.0000000000000000e+00 0.0000000000000000e+00 0.0000000000000000e+00
37 0.0000000000000000e+00 0.0000000000000000e+00 0.0000000000000000e+00
38 0.0000000000000000e+00 0.0000000000000000e+00 0.0000000000000000e+00
39 0.0000000000000000e+00 0.0000000000000000e+00 0.0000000000000000e+00
40 0.0000000000000000e+00 0.0000000000000000e+00 0.0000000000000000e+00
41 0.0000000000000000e+00 0.0000000000000000e+00 0.0000000000000000e+00
42 0.0000000000000000e+00 0.0000000000000000e+00 0.0000000000000000e+00
43 0.0000000000000000e+00 0.0000000000000000e+00 0.0000000000000000e+00
44 0.0000000000000000e+00 0.0000000000000000e+00 0.0000000000000000e+00
45 0.0000000000000000e+00 0.0000000000000000e+00 0.0000000000000000e+00
46 0.0000000000000000e+00 0.0000000000000000e+00 0.0000000000000000e+00
47 0.0000000000000000e+00 0.0000000000000000e+00 0.0000000000000000e+00
48 0.0000000000000000e+00 0.0000000000000000e+00 0.0000000000000000e+00
49 0.0000000000000000e+00 0.0000000000000000e+00 0.0000000000000000e+00
50 0.0000000000000000e+00 0.0000000000000000e+00 0.0000000000000000e+00
51 0.0000000000000000e+00 0.0000000000000000e+00 0.0000000000000000e+00
52 0.0000000000000000e+00 0.0000000000000000e+00 0.0000000000000000e+00
53 0.0000000000000000e+00 0.0000000000000000e+00 0.0000000000000000e+00
54 0.0000000000000000e+00 0.0000000000000000e+00 0.0000000000000000e+00
55 0.0000000000000000e+00 0.0000000000000000e+00 0.0000000000000000e+00
56 0.0000000000000000e+00 0.0000000000000000e+00 0.0000000000000000e+00
57 0.0000000000000000e+00 0.0000000000000000e+00 0.0000000000000000e+00
58 0.0000000000000000e+00 0.0000000000000000e+00 0.0000000000000000e+00
59 0.0000000000000000e+00 0.0000000000000000e+00 0.0000000000000000e+00
60 0.0000000000000000e+00 0.0000000000000000e+00 0.0000000000000000e+00
61 0.0000000000000000e+00 0.0000000000000000e+00 0.0000000000000000e+00
62 0.0000000000000000e+00 0.0000000000000000e+00 0.0000000000000000e+00
63 0.0000000000000000e+00 0.0000000000000000e+00 0.0000000000000000e+00
64 0.0000000000000000e+00 0.0000000000000000e+00 0.0000000000000000e+00
65 0.0000000000000000e+00 0.0000000000000000e+00 0.0000000000000000e+00
66 0.0000000000000000e+00 0.0000000000000000e+00 0.0000000000000000e+00
67 0.0000000000000000e+00 0.0000000000000000e+00 0.0000000000000000e+00
68 0.0000000000000000e+00 0.0000000000000000e+00 0.0000000000000000e+00
69 0.0000000000000000e+00 0.0000000000000000e+00 0.0000000000000000e+00
70 0.0000000000000000e+00 0.0000000000000000e+00 0.0000000000000000e+00
71 0.0000000000000000e+00 0.0000000000000000e+00 0.0000000000000000e+00
72 0.0000000000000000e+00 0.0000000000000000e+00 0.0000000000000000e+00
73 0.0000000000000000e+00 0.0000000000000000e+00 0.0000000000000000e+00
74 0.0000000000000000e+00 0.0000000000000000e+00 0.0000000000000000e+00
75 0.0000000000000000e+00 0.0000000000000000e+00 0.0000000000000000e+00
76 0.0000000000000000e+00 0.0000000000000000e+00 0.0000000000000000e+00
77 0.0000000000000000e+00 0.0000000000000000e+00 0.0000000000000000e+00
78 0.0000000000000000e+00 0.0000000000000000e+00 0.0000000000000000e+00
79 0.0000000000000000e+00 0.0000000000000000e+00 0.0000000000000000e+00
80 0.0000000000000000e+00 0.0000000000000000e+00 0.0000000000000000e+00
81 0.0000000000000000e+00 0.0000000000000000e+00 0.0000000000000000e+00
82 0.0000000000000000e+00 0.0000000000000000e+00 0.0000000000000000e+00
83 0.0000000000000000e+00 0.0000000000000000e+00 0.0000000000000000e+00
84 0.0000000000000000e+00 0.0000000000000000e+00 0.0000000000000000e+00
85 0.0000000000000000e+00 0.0000000000000000e+00 0.0000000000000000e+00
86 0.0000000000000000e+00 0.0000000000000000e+00 0.0000000000000000e+00
87 0.0000000000000000e+00 0.0000000000000000e+00 0.0000000000000000e+00
88 0.0000000000000000e+00 0.0000000000000000e+00 0.0000000000000000e+00
89 0.0000000000000000e+00 0.0000000000000000e+00 0.0000000000000000e+00
90 0.0000000000000000e+00 0.0000000000000000e+00 0.0000000000000000e+00
91 0.0000000000000000e+00 0.0000000000000000e+00 0.0000000000000000e+00
92 0.0000000000000000e+00 0.0000000000000000e+00 0.0000000000000000e+00
93 0.0000000000000000e+00 0.0000000000000000e+00 0.0000000000000000e+00
94 0.0000000000000000e+00 0.0000000000000000e+00 0.0000000000000000e+00
95 0.0000000000000000e+00 0.0000000000000000e+00 0.0000000000000000e+00
96 0.0000000000000000e+00 0.0000000000000000e+00 0.0000000000000000e+00
