"Millerite NiS"                         
           1
     9.425103    3.573298    0.000000
     0.000000   10.079733    0.000000
     0.000000    0.000000   20.502010
   Ni   S 
    36    36
Direct configuration=     1
   0.24679038  0.94522030  0.00000000
   0.39705889  0.79495179  0.12806073
   0.54732741  0.64468327  0.25612147
   0.69759592  0.49441476  0.38418220
   0.84786443  0.34414625  0.51224294
   0.11381506  0.41152895  0.17074764
   0.26408358  0.26126044  0.29880838
   0.41435209  0.11099193  0.42686911
   0.96354655  0.56179746  0.04268691
   0.13110826  0.72756909  0.46955603
   0.68030272  0.17837463  0.08537382
   0.83057124  0.02810611  0.21343456
   0.98083975  0.87783760  0.34149529
   0.35735705  0.57044763  0.09422632
   0.50762556  0.42017912  0.22228705
   0.65789408  0.26991060  0.35034779
   0.80816259  0.11964209  0.47840852
   0.07411322  0.18702479  0.13691323
   0.22438173  0.03675628  0.26497397
   0.37465025  0.88648777  0.39303470
   0.92384471  0.33729331  0.00885250
   0.09140642  0.50306493  0.43572161
   0.64060088  0.95387047  0.05153941
   0.79086939  0.80360195  0.17960014
   0.94113790  0.65333344  0.30766088
   0.03266675  0.15934394  0.44457411
   0.58186121  0.61014947  0.06039191
   0.73212972  0.45988096  0.18845264
   0.88239823  0.30961245  0.31651337
   0.29861738  0.22672663  0.10307882
   0.44888589  0.07645812  0.23113955
   0.59915440  0.92618961  0.35920029
   0.74942292  0.77592110  0.48726102
   0.01537355  0.84330380  0.14576573
   0.16564206  0.69303529  0.27382646
   0.31591057  0.54276677  0.40188720
   0.03660483  0.95519385  0.50246669
   0.58579930  0.40599939  0.11828449
   0.73606781  0.25573087  0.24634523
   0.88633632  0.10546236  0.37440596
   0.15228695  0.17284506  0.03291067
   0.30255547  0.02257655  0.16097140
   0.45282398  0.87230804  0.28903214
   0.60309249  0.72203952  0.41709287
   0.01931164  0.63915371  0.20365831
   0.16958015  0.48888520  0.33171905
   0.31984866  0.33861669  0.45977978
   0.86904312  0.78942222  0.07559758
   0.48608562  0.84214306  0.03330723
   0.63635413  0.69187455  0.16136796
   0.78662264  0.54160604  0.28942870
   0.93689116  0.39133752  0.41748943
   0.20284179  0.45872023  0.07599414
   0.35311030  0.30845171  0.20405488
   0.50337881  0.15818320  0.33211561
   0.65364733  0.00791469  0.46017634
   0.06986647  0.92502888  0.24674179
   0.22013499  0.77476036  0.37480252
   0.37040350  0.62449185  0.50286326
   0.91959796  0.07529739  0.11868105
   0.20021045  0.79158823  0.07639070
   0.35047897  0.64131971  0.20445144
   0.50074748  0.49105120  0.33251217
   0.65101599  0.34078269  0.46057291
   0.06723514  0.25789688  0.24713835
   0.21750365  0.10762836  0.37519908
   0.36777216  0.95735985  0.50325982
   0.91696663  0.40816539  0.11907762
   0.48345428  0.17501106  0.03370379
   0.63372280  0.02474255  0.16176453
   0.78399131  0.87447404  0.28982526
   0.93425982  0.72420553  0.41788599
