"Millerite NiS"                         
           1
    11.256463    0.000000    0.000000
     0.000000    9.578410    0.000000
     0.000000    0.000000   17.192492
   Ni   S 
    26    26
Direct configuration=     1
   0.43933499  0.46388800  0.16283377
   0.49118692  0.46388800  0.34224601
   0.16340903  0.96388800  0.07312765
   0.21526096  0.96388800  0.25253989
   0.43933499  0.19968200  0.16283377
   0.49118692  0.19968200  0.34224601
   0.16340903  0.69968200  0.07312765
   0.21526096  0.69968200  0.25253989
   0.13063970  0.33178500  0.13913288
   0.18249164  0.33178500  0.31854511
   0.35471373  0.83178500  0.04942676
   0.40656566  0.83178500  0.22883899
   0.45841760  0.83178500  0.40825124
   0.93933499  0.46388800  0.16283377
   0.99118692  0.46388800  0.34224601
   0.66340903  0.96388800  0.07312765
   0.71526096  0.96388800  0.25253989
   0.93933499  0.19968200  0.16283377
   0.99118692  0.19968200  0.34224601
   0.66340903  0.69968200  0.07312765
   0.71526096  0.69968200  0.25253989
   0.63063970  0.33178500  0.13913288
   0.68249164  0.33178500  0.31854511
   0.85471373  0.83178500  0.04942676
   0.90656566  0.83178500  0.22883899
   0.95841760  0.83178500  0.40825124
   0.05963710  0.16357000  0.05952629
   0.11148904  0.16357000  0.23893853
   0.16334097  0.16357000  0.41835077
   0.33556306  0.66357000  0.14923241
   0.38741500  0.66357000  0.32864465
   0.05963710  0.50000000  0.05952629
   0.11148904  0.50000000  0.23893853
   0.16334097  0.50000000  0.41835077
   0.33556306  1.00000000  0.14923241
   0.31603687  0.33178500  0.08970612
   0.36788880  0.33178500  0.26911836
   0.04011091  0.83178500  0.00000000
   0.09196284  0.83178500  0.17941224
   0.14381478  0.83178500  0.35882448
   0.55963710  0.16357000  0.05952629
   0.61148904  0.16357000  0.23893853
   0.66334097  0.16357000  0.41835077
   0.83556306  0.66357000  0.14923241
   0.88741500  0.66357000  0.32864465
   0.55963710  0.50000000  0.05952629
   0.61148904  0.50000000  0.23893853
   0.66334097  0.50000000  0.41835077
   0.83556306  1.00000000  0.14923241
   0.88741500  1.00000000  0.32864465
   0.86788880  0.33178500  0.26911836
   0.59196284  0.83178500  0.17941224
