<?xml version="1.0" encoding="ISO-8859-1"?>
<modeling>
 <generator>
  <i name="program" type="string">vasp </i>
  <i name="version" type="string">6.1.0  </i>
  <i name="subversion" type="string">28Jan20 (build Mar 31 2020 17:42:31) gamma-only                       parallel </i>
  <i name="platform" type="string">LinuxIFC </i>
  <i name="date" type="string">2020 04 13 </i>
  <i name="time" type="string">00:17:26 </i>
 </generator>
 <incar>
  <i type="string" name="SYSTEM">"Millerite NiS"</i>
  <i type="int" name="NSIM">     4</i>
  <i type="int" name="NELM">   100</i>
  <i name="ENCUT">    450.00000000</i>
  <i type="string" name="LREAL">A</i>
  <i type="int" name="ISMEAR">     0</i>
  <i type="int" name="NWRITE">     2</i>
  <i type="logical" name="LWAVE"> F  </i>
  <i type="logical" name="LCHARG"> F  </i>
  <i type="int" name="NCORE">     6</i>
  <i type="int" name="NELM">   100</i>
 </incar>
 <structure name="primitive_cell" >
  <crystal>
   <varray name="basis" >
    <v>      16.88469405       0.00000000       0.00000000 </v>
    <v>       0.00000000       9.57841000       0.00000000 </v>
    <v>       0.00000000       0.00000000      16.17386302 </v>
   </varray>
   <i name="volume">   2615.77496754 </i>
   <varray name="rec_basis" >
    <v>       0.05922524       0.00000000       0.00000000 </v>
    <v>       0.00000000       0.10440146       0.00000000 </v>
    <v>       0.00000000       0.00000000       0.06182815 </v>
   </varray>
  </crystal>
  <varray name="positions" >
   <v>       0.06497261       0.92341313       0.30979220 </v>
   <v>       0.09954057       0.92341313       0.11908059 </v>
   <v>       0.58225659       0.42341313       0.21443640 </v>
   <v>       0.61682455       0.42341313       0.02372478 </v>
   <v>       0.23740060       0.42341313       0.27800694 </v>
   <v>       0.27196856       0.42341313       0.08729532 </v>
   <v>       0.72011663       0.92341313       0.37336274 </v>
   <v>       0.75468458       0.92341313       0.18265113 </v>
   <v>       0.40982860       0.92341313       0.24622167 </v>
   <v>       0.44439655       0.92341313       0.05551005 </v>
   <v>       0.89254462       0.42341313       0.34157747 </v>
   <v>       0.92711258       0.42341313       0.15086586 </v>
   <v>       0.42015216       0.55551613       0.37995444 </v>
   <v>       0.45472012       0.55551613       0.18924282 </v>
   <v>       0.93743614       0.05551613       0.28459863 </v>
   <v>       0.97200410       0.05551613       0.09388701 </v>
   <v>       0.10986414       0.55551613       0.25281336 </v>
   <v>       0.14443209       0.55551613       0.06210174 </v>
   <v>       0.59258016       0.05551613       0.34816917 </v>
   <v>       0.62714811       0.05551613       0.15745755 </v>
   <v>       0.28229213       0.05551613       0.22102809 </v>
   <v>       0.31686009       0.05551613       0.03031647 </v>
   <v>       0.76500815       0.55551613       0.31638390 </v>
   <v>       0.79957611       0.55551613       0.12567228 </v>
   <v>       0.06497261       0.18761913       0.30979220 </v>
   <v>       0.09954057       0.18761913       0.11908059 </v>
   <v>       0.58225659       0.68761913       0.21443640 </v>
   <v>       0.61682455       0.68761913       0.02372478 </v>
   <v>       0.23740060       0.68761913       0.27800694 </v>
   <v>       0.27196856       0.68761913       0.08729532 </v>
   <v>       0.72011663       0.18761913       0.37336274 </v>
   <v>       0.75468458       0.18761913       0.18265113 </v>
   <v>       0.40982860       0.18761913       0.24622167 </v>
   <v>       0.44439655       0.18761913       0.05551005 </v>
   <v>       0.89254462       0.68761913       0.34157747 </v>
   <v>       0.92711258       0.68761913       0.15086586 </v>
   <v>       0.02101885       0.22373113       0.00000000 </v>
   <v>       0.46916691       0.72373113       0.28606742 </v>
   <v>       0.50373487       0.72373113       0.09535581 </v>
   <v>       0.95188293       0.22373113       0.38142323 </v>
   <v>       0.98645089       0.22373113       0.19071162 </v>
   <v>       0.12431093       0.72373113       0.34963796 </v>
   <v>       0.15887888       0.72373113       0.15892635 </v>
   <v>       0.64159490       0.22373113       0.25428215 </v>
   <v>       0.67616286       0.22373113       0.06357054 </v>
   <v>       0.29673892       0.22373113       0.31785269 </v>
   <v>       0.33130688       0.22373113       0.12714108 </v>
   <v>       0.81402290       0.72373113       0.22249689 </v>
   <v>       0.84859085       0.72373113       0.03178527 </v>
   <v>       0.14885104       0.05551613       0.22279217 </v>
   <v>       0.18341900       0.05551613       0.03208056 </v>
   <v>       0.63156706       0.55551613       0.31814798 </v>
   <v>       0.66613502       0.55551613       0.12743636 </v>
   <v>       0.32127903       0.55551613       0.19100690 </v>
   <v>       0.35584699       0.55551613       0.00029528 </v>
   <v>       0.80399506       0.05551613       0.28636271 </v>
   <v>       0.83856301       0.05551613       0.09565109 </v>
   <v>       0.01099101       0.55551613       0.06386582 </v>
   <v>       0.49370703       0.05551613       0.15922163 </v>
   <v>       0.97642305       0.55551613       0.25457744 </v>
   <v>       0.02101885       0.88730113       0.00000000 </v>
   <v>       0.50373487       0.38730113       0.09535581 </v>
   <v>       0.95188293       0.88730113       0.38142323 </v>
   <v>       0.98645089       0.88730113       0.19071162 </v>
   <v>       0.12431093       0.38730113       0.34963796 </v>
   <v>       0.15887888       0.38730113       0.15892635 </v>
   <v>       0.64159490       0.88730113       0.25428215 </v>
   <v>       0.67616286       0.88730113       0.06357054 </v>
   <v>       0.29673892       0.88730113       0.31785269 </v>
   <v>       0.33130688       0.88730113       0.12714108 </v>
   <v>       0.81402290       0.38730113       0.22249689 </v>
   <v>       0.84859085       0.38730113       0.03178527 </v>
  </varray>
 </structure>
 <varray name="primitive_index" >
  <v type="int" >        1 </v>
  <v type="int" >        2 </v>
  <v type="int" >        3 </v>
  <v type="int" >        4 </v>
  <v type="int" >        5 </v>
  <v type="int" >        6 </v>
  <v type="int" >        7 </v>
  <v type="int" >        8 </v>
  <v type="int" >        9 </v>
  <v type="int" >       10 </v>
  <v type="int" >       11 </v>
  <v type="int" >       12 </v>
  <v type="int" >       13 </v>
  <v type="int" >       14 </v>
  <v type="int" >       15 </v>
  <v type="int" >       16 </v>
  <v type="int" >       17 </v>
  <v type="int" >       18 </v>
  <v type="int" >       19 </v>
  <v type="int" >       20 </v>
  <v type="int" >       21 </v>
  <v type="int" >       22 </v>
  <v type="int" >       23 </v>
  <v type="int" >       24 </v>
  <v type="int" >       25 </v>
  <v type="int" >       26 </v>
  <v type="int" >       27 </v>
  <v type="int" >       28 </v>
  <v type="int" >       29 </v>
  <v type="int" >       30 </v>
  <v type="int" >       31 </v>
  <v type="int" >       32 </v>
  <v type="int" >       33 </v>
  <v type="int" >       34 </v>
  <v type="int" >       35 </v>
  <v type="int" >       36 </v>
  <v type="int" >       37 </v>
  <v type="int" >       38 </v>
  <v type="int" >       39 </v>
  <v type="int" >       40 </v>
  <v type="int" >       41 </v>
  <v type="int" >       42 </v>
  <v type="int" >       43 </v>
  <v type="int" >       44 </v>
  <v type="int" >       45 </v>
  <v type="int" >       46 </v>
  <v type="int" >       47 </v>
  <v type="int" >       48 </v>
  <v type="int" >       49 </v>
  <v type="int" >       50 </v>
  <v type="int" >       51 </v>
  <v type="int" >       52 </v>
  <v type="int" >       53 </v>
  <v type="int" >       54 </v>
  <v type="int" >       55 </v>
  <v type="int" >       56 </v>
  <v type="int" >       57 </v>
  <v type="int" >       58 </v>
  <v type="int" >       59 </v>
  <v type="int" >       60 </v>
  <v type="int" >       61 </v>
  <v type="int" >       62 </v>
  <v type="int" >       63 </v>
  <v type="int" >       64 </v>
  <v type="int" >       65 </v>
  <v type="int" >       66 </v>
  <v type="int" >       67 </v>
  <v type="int" >       68 </v>
  <v type="int" >       69 </v>
  <v type="int" >       70 </v>
  <v type="int" >       71 </v>
  <v type="int" >       72 </v>
 </varray>
 <kpoints>
  <generation param="Gamma">
   <v type="int" name="divisions">       1        1        1 </v>
   <v name="usershift">      0.00000000       0.00000000       0.00000000 </v>
   <v name="genvec1">      1.00000000       0.00000000       0.00000000 </v>
   <v name="genvec2">      0.00000000       1.00000000       0.00000000 </v>
   <v name="genvec3">      0.00000000       0.00000000       1.00000000 </v>
   <v name="shift">      0.00000000       0.00000000       0.00000000 </v>
  </generation>
  <varray name="kpointlist" >
   <v>       0.00000000       0.00000000       0.00000000 </v>
  </varray>
  <varray name="weights" >
   <v>       1.00000000 </v>
  </varray>
 </kpoints>
 <parameters>
  <separator name="general" >
   <i type="string" name="SYSTEM">"Millerite NiS"</i>
   <i type="logical" name="LCOMPAT"> F  </i>
  </separator>
  <separator name="electronic" >
   <i type="string" name="PREC">normal</i>
   <i name="ENMAX">    450.00000000</i>
   <i name="ENAUG">    703.44300000</i>
   <i name="EDIFF">      0.00010000</i>
   <i type="int" name="IALGO">    38</i>
   <i type="int" name="IWAVPR">    10</i>
   <i type="int" name="NBANDS">   480</i>
   <i type="int" name="NBANDSLOW">    -1</i>
   <i type="int" name="NBANDSHIGH">    -1</i>
   <i name="NELECT">    792.00000000</i>
   <i type="int" name="TURBO">     0</i>
   <i type="int" name="IRESTART">     0</i>
   <i type="int" name="NREBOOT">     0</i>
   <i type="int" name="NMIN">     0</i>
   <i name="EREF">      0.00000000</i>
   <separator name="electronic smearing" >
    <i type="int" name="ISMEAR">     0</i>
    <i name="SIGMA">      0.20000000</i>
    <i name="KSPACING">      0.50000000</i>
    <i type="logical" name="KGAMMA"> T  </i>
    <i type="logical" name="KBLOWUP"> T  </i>
   </separator>
   <separator name="electronic projectors" >
    <i type="logical" name="LREAL"> T  </i>
    <v name="ROPT">     -0.00050000     -0.00050000</v>
    <i type="int" name="LMAXPAW">  -100</i>
    <i type="int" name="LMAXMIX">     2</i>
    <i type="logical" name="NLSPLINE"> F  </i>
   </separator>
   <separator name="electronic startup" >
    <i type="int" name="ISTART">     0</i>
    <i type="int" name="ICHARG">     2</i>
    <i type="int" name="INIWAV">     1</i>
   </separator>
   <separator name="electronic spin" >
    <i type="int" name="ISPIN">     1</i>
    <i type="logical" name="LNONCOLLINEAR"> F  </i>
    <v name="MAGMOM">      1.00000000      1.00000000      1.00000000      1.00000000      1.00000000      1.00000000      1.00000000      1.00000000      1.00000000      1.00000000      1.00000000      1.00000000      1.00000000      1.00000000      1.00000000      1.00000000      1.00000000      1.00000000      1.00000000      1.00000000
      1.00000000      1.00000000      1.00000000      1.00000000      1.00000000      1.00000000      1.00000000      1.00000000      1.00000000      1.00000000      1.00000000      1.00000000      1.00000000      1.00000000      1.00000000      1.00000000      1.00000000      1.00000000      1.00000000      1.00000000
      1.00000000      1.00000000      1.00000000      1.00000000      1.00000000      1.00000000      1.00000000      1.00000000      1.00000000      1.00000000      1.00000000      1.00000000      1.00000000      1.00000000      1.00000000      1.00000000      1.00000000      1.00000000      1.00000000      1.00000000
      1.00000000      1.00000000      1.00000000      1.00000000      1.00000000      1.00000000      1.00000000      1.00000000      1.00000000      1.00000000      1.00000000      1.00000000</v>
    <i name="NUPDOWN">     -1.00000000</i>
    <i type="logical" name="LSORBIT"> F  </i>
    <v name="SAXIS">      0.00000000      0.00000000      1.00000000</v>
    <i type="logical" name="LSPIRAL"> F  </i>
    <v name="QSPIRAL">      0.00000000      0.00000000      0.00000000</v>
    <i type="logical" name="LZEROZ"> F  </i>
   </separator>
   <separator name="electronic exchange-correlation" >
    <i type="logical" name="LASPH"> F  </i>
    <i type="logical" name="LMETAGGA"> F  </i>
   </separator>
   <separator name="electronic convergence" >
    <i type="int" name="NELM">   100</i>
    <i type="int" name="NELMDL">    -5</i>
    <i type="int" name="NELMIN">     2</i>
    <i name="ENINI">    450.00000000</i>
    <separator name="electronic convergence detail" >
     <i type="logical" name="LDIAG"> T  </i>
     <i type="logical" name="LSUBROT"> F  </i>
     <i name="WEIMIN">      0.00000000</i>
     <i name="EBREAK">      0.00000005</i>
     <i name="DEPER">      0.30000000</i>
     <i type="int" name="NRMM">     4</i>
     <i name="TIME">      0.40000000</i>
    </separator>
   </separator>
   <separator name="electronic mixer" >
    <i name="AMIX">      0.40000000</i>
    <i name="BMIX">      1.00000000</i>
    <i name="AMIN">      0.10000000</i>
    <i name="AMIX_MAG">      1.60000000</i>
    <i name="BMIX_MAG">      1.00000000</i>
    <separator name="electronic mixer details" >
     <i type="int" name="IMIX">     4</i>
     <i type="logical" name="MIXFIRST"> F  </i>
     <i type="int" name="MAXMIX">   -45</i>
     <i name="WC">    100.00000000</i>
     <i type="int" name="INIMIX">     1</i>
     <i type="int" name="MIXPRE">     1</i>
     <i type="int" name="MREMOVE">     5</i>
    </separator>
   </separator>
   <separator name="electronic dipolcorrection" >
    <i type="logical" name="LDIPOL"> F  </i>
    <i type="logical" name="LMONO"> F  </i>
    <i type="int" name="IDIPOL">     0</i>
    <i name="EPSILON">      1.00000000</i>
    <v name="DIPOL">   -100.00000000   -100.00000000   -100.00000000</v>
    <i name="EFIELD">      0.00000000</i>
   </separator>
  </separator>
  <separator name="grids" >
   <i type="int" name="NGX">    90</i>
   <i type="int" name="NGY">    50</i>
   <i type="int" name="NGZ">    84</i>
   <i type="int" name="NGXF">   180</i>
   <i type="int" name="NGYF">   100</i>
   <i type="int" name="NGZF">   168</i>
   <i type="logical" name="ADDGRID"> F  </i>
  </separator>
  <separator name="ionic" >
   <i type="int" name="NSW">     0</i>
   <i type="int" name="IBRION">    -1</i>
   <i type="int" name="MDALGO">     0</i>
   <i type="int" name="ISIF">     2</i>
   <i name="PSTRESS">      0.00000000</i>
   <i name="EDIFFG">      0.00100000</i>
   <i type="int" name="NFREE">     0</i>
   <i name="POTIM">      0.50000000</i>
   <i name="SMASS">     -3.00000000</i>
   <i name="SCALEE">      1.00000000</i>
  </separator>
  <separator name="ionic md" >
   <i name="TEBEG">      0.00010000</i>
   <i name="TEEND">      0.00010000</i>
   <i type="int" name="NBLOCK">     1</i>
   <i type="int" name="KBLOCK">     1</i>
   <i type="int" name="NPACO">   256</i>
   <i name="APACO">     16.00000000</i>
  </separator>
  <separator name="symmetry" >
   <i type="int" name="ISYM">     2</i>
   <i name="SYMPREC">      0.00001000</i>
  </separator>
  <separator name="dos" >
   <i type="int" name="LORBIT">     0</i>
   <v name="RWIGS">     -1.00000000     -1.00000000</v>
   <i type="int" name="NEDOS">   301</i>
   <i name="EMIN">     10.00000000</i>
   <i name="EMAX">    -10.00000000</i>
   <i name="EFERMI">      0.00000000</i>
  </separator>
  <separator name="writing" >
   <i type="int" name="NWRITE">     2</i>
   <i type="logical" name="LWAVE"> F  </i>
   <i type="logical" name="LDOWNSAMPLE"> F  </i>
   <i type="logical" name="LCHARG"> F  </i>
   <i type="logical" name="LPARD"> F  </i>
   <i type="logical" name="LVTOT"> F  </i>
   <i type="logical" name="LVHAR"> F  </i>
   <i type="logical" name="LELF"> F  </i>
   <i type="logical" name="LOPTICS"> F  </i>
   <v name="STM">      0.00000000      0.00000000      0.00000000      0.00000000      0.00000000      0.00000000      0.00000000</v>
  </separator>
  <separator name="performance" >
   <i type="int" name="NPAR">     8</i>
   <i type="int" name="NSIM">     4</i>
   <i type="int" name="NBLK">    -1</i>
   <i type="logical" name="LPLANE"> T  </i>
   <i type="logical" name="LSCALAPACK"> T  </i>
   <i type="logical" name="LSCAAWARE"> F  </i>
   <i type="logical" name="LSCALU"> F  </i>
   <i type="logical" name="LASYNC"> F  </i>
   <i type="logical" name="LORBITALREAL"> F  </i>
  </separator>
  <separator name="miscellaneous" >
   <i type="int" name="IDIOT">     3</i>
   <i type="int" name="PHON_NSTRUCT">    -1</i>
   <i type="logical" name="LMUSIC"> F  </i>
   <v name="POMASS">     58.69000000     32.06600000</v>
   <v name="DARWINR">      0.00000000      0.00000000</v>
   <v name="DARWINV">      1.00000000      1.00000000</v>
   <i type="logical" name="LCORR"> T  </i>
  </separator>
  <i type="logical" name="GGA_COMPAT"> T  </i>
  <i type="logical" name="LBERRY"> F  </i>
  <i type="int" name="ICORELEVEL">     0</i>
  <i type="logical" name="LDAU"> F  </i>
  <i type="int" name="I_CONSTRAINED_M">     0</i>
  <separator name="electronic exchange-correlation" >
   <i type="string" name="GGA">--</i>
   <i type="int" name="VOSKOWN">     0</i>
   <i type="logical" name="LHFCALC"> F  </i>
   <i type="string" name="PRECFOCK"></i>
   <i type="logical" name="LSYMGRAD"> F  </i>
   <i type="logical" name="LHFONE"> F  </i>
   <i type="logical" name="LRHFCALC"> F  </i>
   <i type="logical" name="LTHOMAS"> F  </i>
   <i type="logical" name="LMODELHF"> F  </i>
   <i type="logical" name="LFOCKACE"> F  </i>
   <i name="ENCUT4O">     -1.00000000</i>
   <i type="int" name="EXXOEP">     0</i>
   <i type="int" name="FOURORBIT">     0</i>
   <i name="AEXX">      0.00000000</i>
   <i name="HFALPHA">      0.00000000</i>
   <i name="MCALPHA">      0.00000000</i>
   <i name="ALDAX">      1.00000000</i>
   <i name="AGGAX">      1.00000000</i>
   <i name="ALDAC">      1.00000000</i>
   <i name="AGGAC">      1.00000000</i>
   <i type="int" name="NKREDX">     1</i>
   <i type="int" name="NKREDY">     1</i>
   <i type="int" name="NKREDZ">     1</i>
   <i type="logical" name="SHIFTRED"> F  </i>
   <i type="logical" name="ODDONLY"> F  </i>
   <i type="logical" name="EVENONLY"> F  </i>
   <i type="int" name="LMAXFOCK">     0</i>
   <i type="int" name="NMAXFOCKAE">     0</i>
   <i type="logical" name="LFOCKAEDFT"> F  </i>
   <i name="HFSCREEN">      0.00000000</i>
   <i name="HFSCREENC">      0.00000000</i>
   <i type="int" name="NBANDSGWLOW">     0</i>
  </separator>
  <separator name="vdW DFT" >
   <i type="logical" name="LUSE_VDW"> F  </i>
   <i name="Zab_VDW">     -0.84910000</i>
   <i name="PARAM1">      0.12340000</i>
   <i name="PARAM2">      1.00000000</i>
   <i name="PARAM3">      0.00000000</i>
  </separator>
  <separator name="model GW" >
   <i type="int" name="MODEL_GW">     0</i>
   <i name="MODEL_EPS0">     21.79812473</i>
   <i name="MODEL_ALPHA">      1.00000000</i>
  </separator>
  <separator name="linear response parameters" >
   <i type="logical" name="LEPSILON"> F  </i>
   <i type="logical" name="LRPA"> F  </i>
   <i type="logical" name="LNABLA"> F  </i>
   <i type="logical" name="LVEL"> F  </i>
   <i type="int" name="KINTER">     0</i>
   <i name="CSHIFT">      0.10000000</i>
   <i name="OMEGAMAX">     -1.00000000</i>
   <i name="DEG_THRESHOLD">      0.00200000</i>
   <i name="RTIME">     -0.10000000</i>
   <i name="WPLASMAI">      0.00000000</i>
   <v name="DFIELD">      0.00000000      0.00000000      0.00000000</v>
   <v name="WPLASMA">      0.00000000      0.00000000      0.00000000      0.00000000      0.00000000      0.00000000      0.00000000      0.00000000      0.00000000</v>
  </separator>
  <separator name="orbital magnetization" >
   <i type="logical" name="NUCIND"> F  </i>
   <v name="MAGPOS">      0.00000000      0.00000000      0.00000000</v>
   <i type="logical" name="LNICSALL"> T  </i>
   <i type="logical" name="ORBITALMAG"> F  </i>
   <i type="logical" name="LMAGBLOCH"> F  </i>
   <i type="logical" name="LCHIMAG"> F  </i>
   <i type="logical" name="LGAUGE"> T  </i>
   <i type="int" name="MAGATOM">     0</i>
   <v name="MAGDIPOL">      0.00000000      0.00000000      0.00000000</v>
   <v name="AVECCONST">      0.00000000      0.00000000      0.00000000</v>
  </separator>
  <separator name="response functions" >
   <i type="logical" name="LFINITE_TEMPERATURE"> F  </i>
   <i type="logical" name="LADDER"> F  </i>
   <i type="logical" name="LRPAFORCE"> F  </i>
   <i type="logical" name="LFXC"> F  </i>
   <i type="logical" name="LHARTREE"> T  </i>
   <i type="int" name="IBSE">     0</i>
   <v type="int" name="KPOINT">    -1     0     0     0</v>
   <i type="logical" name="LTCTC"> F  </i>
   <i type="logical" name="LTCTE"> F  </i>
   <i type="logical" name="LTETE"> F  </i>
   <i type="logical" name="LTRIPLET"> F  </i>
   <i type="logical" name="LFXCEPS"> F  </i>
   <i type="logical" name="LFXHEG"> F  </i>
   <i type="int" name="NATURALO">     2</i>
   <i type="logical" name="LHOLEGF"> F  </i>
   <i type="logical" name="L2ORDER"> F  </i>
   <i type="logical" name="LDMP1"> F  </i>
   <i type="logical" name="LMP2LT"> F  </i>
   <i type="logical" name="LSMP2LT"> F  </i>
   <i type="logical" name="LGWLF"> F  </i>
   <i name="ENCUTGW">     -2.00000000</i>
   <i name="ENCUTGWSOFT">     -2.00000000</i>
   <i name="ENCUTLF">     -1.00000000</i>
   <i type="logical" name="LESF_SPLINES"> F  </i>
   <i type="int" name="LMAXMP2">    -1</i>
   <i name="SCISSOR">      0.00000000</i>
   <i type="int" name="NOMEGA">     0</i>
   <i type="int" name="NOMEGAR">     0</i>
   <i type="int" name="NBANDSGW">    -1</i>
   <i type="int" name="NBANDSO">    -1</i>
   <i type="int" name="NBANDSV">    -1</i>
   <i type="int" name="NELM">   100</i>
   <i type="int" name="NELMHF">     1</i>
   <i type="int" name="DIM">     3</i>
   <i type="int" name="IESPILON">     4</i>
   <i type="int" name="ANTIRES">     0</i>
   <i name="OMEGAMAX">    -30.00000000</i>
   <i name="OMEGAMIN">    -30.00000000</i>
   <i name="OMEGATL">   -200.00000000</i>
   <i type="int" name="OMEGAGRID">     0</i>
   <i name="CSHIFT">     -0.10000000</i>
   <i type="logical" name="LSELFENERGY"> F  </i>
   <i type="logical" name="LSPECTRAL"> F  </i>
   <i type="logical" name="LSPECTRALGW"> F  </i>
   <i type="logical" name="LSINGLES"> F  </i>
   <i type="logical" name="LFERMIGW"> F  </i>
   <i type="logical" name="ODDONLYGW"> F  </i>
   <i type="logical" name="EVENONLYGW"> F  </i>
   <i type="int" name="NKREDLFX">     1</i>
   <i type="int" name="NKREDLFY">     1</i>
   <i type="int" name="NKREDLFZ">     1</i>
   <i type="int" name="MAXMEM">  2800</i>
   <i type="int" name="TELESCOPE">     0</i>
   <i type="int" name="NTAUPAR">    -1</i>
   <i type="int" name="NOMEGAPAR">    -1</i>
   <i name="LAMBDA">      1.00000000</i>
  </separator>
  <separator name="External order field" >
   <i name="OFIELD_KAPPA">      0.00000000</i>
   <v name="OFIELD_K">      0.00000000      0.00000000      0.00000000</v>
   <i name="OFIELD_Q6_NEAR">      0.00000000</i>
   <i name="OFIELD_Q6_FAR">      0.00000000</i>
   <i name="OFIELD_A">      0.00000000</i>
  </separator>
 </parameters>
 <atominfo>
  <atoms>      72 </atoms>
  <types>       2 </types>
  <array name="atoms" >
   <dimension dim="1">ion</dimension>
   <field type="string">element</field>
   <field type="int">atomtype</field>
   <set>
    <rc><c>Ni</c><c>   1</c></rc>
    <rc><c>Ni</c><c>   1</c></rc>
    <rc><c>Ni</c><c>   1</c></rc>
    <rc><c>Ni</c><c>   1</c></rc>
    <rc><c>Ni</c><c>   1</c></rc>
    <rc><c>Ni</c><c>   1</c></rc>
    <rc><c>Ni</c><c>   1</c></rc>
    <rc><c>Ni</c><c>   1</c></rc>
    <rc><c>Ni</c><c>   1</c></rc>
    <rc><c>Ni</c><c>   1</c></rc>
    <rc><c>Ni</c><c>   1</c></rc>
    <rc><c>Ni</c><c>   1</c></rc>
    <rc><c>Ni</c><c>   1</c></rc>
    <rc><c>Ni</c><c>   1</c></rc>
    <rc><c>Ni</c><c>   1</c></rc>
    <rc><c>Ni</c><c>   1</c></rc>
    <rc><c>Ni</c><c>   1</c></rc>
    <rc><c>Ni</c><c>   1</c></rc>
    <rc><c>Ni</c><c>   1</c></rc>
    <rc><c>Ni</c><c>   1</c></rc>
    <rc><c>Ni</c><c>   1</c></rc>
    <rc><c>Ni</c><c>   1</c></rc>
    <rc><c>Ni</c><c>   1</c></rc>
    <rc><c>Ni</c><c>   1</c></rc>
    <rc><c>Ni</c><c>   1</c></rc>
    <rc><c>Ni</c><c>   1</c></rc>
    <rc><c>Ni</c><c>   1</c></rc>
    <rc><c>Ni</c><c>   1</c></rc>
    <rc><c>Ni</c><c>   1</c></rc>
    <rc><c>Ni</c><c>   1</c></rc>
    <rc><c>Ni</c><c>   1</c></rc>
    <rc><c>Ni</c><c>   1</c></rc>
    <rc><c>Ni</c><c>   1</c></rc>
    <rc><c>Ni</c><c>   1</c></rc>
    <rc><c>Ni</c><c>   1</c></rc>
    <rc><c>Ni</c><c>   1</c></rc>
    <rc><c>S </c><c>   2</c></rc>
    <rc><c>S </c><c>   2</c></rc>
    <rc><c>S </c><c>   2</c></rc>
    <rc><c>S </c><c>   2</c></rc>
    <rc><c>S </c><c>   2</c></rc>
    <rc><c>S </c><c>   2</c></rc>
    <rc><c>S </c><c>   2</c></rc>
    <rc><c>S </c><c>   2</c></rc>
    <rc><c>S </c><c>   2</c></rc>
    <rc><c>S </c><c>   2</c></rc>
    <rc><c>S </c><c>   2</c></rc>
    <rc><c>S </c><c>   2</c></rc>
    <rc><c>S </c><c>   2</c></rc>
    <rc><c>S </c><c>   2</c></rc>
    <rc><c>S </c><c>   2</c></rc>
    <rc><c>S </c><c>   2</c></rc>
    <rc><c>S </c><c>   2</c></rc>
    <rc><c>S </c><c>   2</c></rc>
    <rc><c>S </c><c>   2</c></rc>
    <rc><c>S </c><c>   2</c></rc>
    <rc><c>S </c><c>   2</c></rc>
    <rc><c>S </c><c>   2</c></rc>
    <rc><c>S </c><c>   2</c></rc>
    <rc><c>S </c><c>   2</c></rc>
    <rc><c>S </c><c>   2</c></rc>
    <rc><c>S </c><c>   2</c></rc>
    <rc><c>S </c><c>   2</c></rc>
    <rc><c>S </c><c>   2</c></rc>
    <rc><c>S </c><c>   2</c></rc>
    <rc><c>S </c><c>   2</c></rc>
    <rc><c>S </c><c>   2</c></rc>
    <rc><c>S </c><c>   2</c></rc>
    <rc><c>S </c><c>   2</c></rc>
    <rc><c>S </c><c>   2</c></rc>
    <rc><c>S </c><c>   2</c></rc>
    <rc><c>S </c><c>   2</c></rc>
   </set>
  </array>
  <array name="atomtypes" >
   <dimension dim="1">type</dimension>
   <field type="int">atomspertype</field>
   <field type="string">element</field>
   <field>mass</field>
   <field>valence</field>
   <field type="string">pseudopotential</field>
   <set>
    <rc><c>  36</c><c>Ni</c><c>     58.69000000</c><c>     16.00000000</c><c>  PAW_PBE Ni_pv 06Sep2000               </c></rc>
    <rc><c>  36</c><c>S </c><c>     32.06600000</c><c>      6.00000000</c><c>  PAW_PBE S 06Sep2000                   </c></rc>
   </set>
  </array>
 </atominfo>
 <structure name="initialpos" >
  <crystal>
   <varray name="basis" >
    <v>      16.88469405       0.00000000       0.00000000 </v>
    <v>       0.00000000       9.57841000       0.00000000 </v>
    <v>       0.00000000       0.00000000      16.17386302 </v>
   </varray>
   <i name="volume">   2615.77496754 </i>
   <varray name="rec_basis" >
    <v>       0.05922524       0.00000000       0.00000000 </v>
    <v>       0.00000000       0.10440146       0.00000000 </v>
    <v>       0.00000000       0.00000000       0.06182815 </v>
   </varray>
  </crystal>
  <varray name="positions" >
   <v>       0.06497261       0.92341313       0.30979220 </v>
   <v>       0.09954057       0.92341313       0.11908059 </v>
   <v>       0.58225659       0.42341313       0.21443640 </v>
   <v>       0.61682455       0.42341313       0.02372478 </v>
   <v>       0.23740060       0.42341313       0.27800694 </v>
   <v>       0.27196856       0.42341313       0.08729532 </v>
   <v>       0.72011663       0.92341313       0.37336274 </v>
   <v>       0.75468458       0.92341313       0.18265113 </v>
   <v>       0.40982860       0.92341313       0.24622167 </v>
   <v>       0.44439655       0.92341313       0.05551005 </v>
   <v>       0.89254462       0.42341313       0.34157747 </v>
   <v>       0.92711258       0.42341313       0.15086586 </v>
   <v>       0.42015216       0.55551613       0.37995444 </v>
   <v>       0.45472012       0.55551613       0.18924282 </v>
   <v>       0.93743614       0.05551613       0.28459863 </v>
   <v>       0.97200410       0.05551613       0.09388701 </v>
   <v>       0.10986414       0.55551613       0.25281336 </v>
   <v>       0.14443209       0.55551613       0.06210174 </v>
   <v>       0.59258016       0.05551613       0.34816917 </v>
   <v>       0.62714811       0.05551613       0.15745755 </v>
   <v>       0.28229213       0.05551613       0.22102809 </v>
   <v>       0.31686009       0.05551613       0.03031647 </v>
   <v>       0.76500815       0.55551613       0.31638390 </v>
   <v>       0.79957611       0.55551613       0.12567228 </v>
   <v>       0.06497261       0.18761913       0.30979220 </v>
   <v>       0.09954057       0.18761913       0.11908059 </v>
   <v>       0.58225659       0.68761913       0.21443640 </v>
   <v>       0.61682455       0.68761913       0.02372478 </v>
   <v>       0.23740060       0.68761913       0.27800694 </v>
   <v>       0.27196856       0.68761913       0.08729532 </v>
   <v>       0.72011663       0.18761913       0.37336274 </v>
   <v>       0.75468458       0.18761913       0.18265113 </v>
   <v>       0.40982860       0.18761913       0.24622167 </v>
   <v>       0.44439655       0.18761913       0.05551005 </v>
   <v>       0.89254462       0.68761913       0.34157747 </v>
   <v>       0.92711258       0.68761913       0.15086586 </v>
   <v>       0.02101885       0.22373113       0.00000000 </v>
   <v>       0.46916691       0.72373113       0.28606742 </v>
   <v>       0.50373487       0.72373113       0.09535581 </v>
   <v>       0.95188293       0.22373113       0.38142323 </v>
   <v>       0.98645089       0.22373113       0.19071162 </v>
   <v>       0.12431093       0.72373113       0.34963796 </v>
   <v>       0.15887888       0.72373113       0.15892635 </v>
   <v>       0.64159490       0.22373113       0.25428215 </v>
   <v>       0.67616286       0.22373113       0.06357054 </v>
   <v>       0.29673892       0.22373113       0.31785269 </v>
   <v>       0.33130688       0.22373113       0.12714108 </v>
   <v>       0.81402290       0.72373113       0.22249689 </v>
   <v>       0.84859085       0.72373113       0.03178527 </v>
   <v>       0.14885104       0.05551613       0.22279217 </v>
   <v>       0.18341900       0.05551613       0.03208056 </v>
   <v>       0.63156706       0.55551613       0.31814798 </v>
   <v>       0.66613502       0.55551613       0.12743636 </v>
   <v>       0.32127903       0.55551613       0.19100690 </v>
   <v>       0.35584699       0.55551613       0.00029528 </v>
   <v>       0.80399506       0.05551613       0.28636271 </v>
   <v>       0.83856301       0.05551613       0.09565109 </v>
   <v>       0.01099101       0.55551613       0.06386582 </v>
   <v>       0.49370703       0.05551613       0.15922163 </v>
   <v>       0.97642305       0.55551613       0.25457744 </v>
   <v>       0.02101885       0.88730113       0.00000000 </v>
   <v>       0.50373487       0.38730113       0.09535581 </v>
   <v>       0.95188293       0.88730113       0.38142323 </v>
   <v>       0.98645089       0.88730113       0.19071162 </v>
   <v>       0.12431093       0.38730113       0.34963796 </v>
   <v>       0.15887888       0.38730113       0.15892635 </v>
   <v>       0.64159490       0.88730113       0.25428215 </v>
   <v>       0.67616286       0.88730113       0.06357054 </v>
   <v>       0.29673892       0.88730113       0.31785269 </v>
   <v>       0.33130688       0.88730113       0.12714108 </v>
   <v>       0.81402290       0.38730113       0.22249689 </v>
   <v>       0.84859085       0.38730113       0.03178527 </v>
  </varray>
 </structure>
 <calculation>
  <scstep>
   <time name="dav">    2.55    2.56</time>
   <time name="total">    2.61    2.63</time>
   <energy>
    <i name="alphaZ">   1422.10231021 </i>
    <i name="ewald"> 104320.15776346 </i>
    <i name="hartreedc">-225197.61938388 </i>
    <i name="XCdc">   3637.28288454 </i>
    <i name="pawpsdc"> 112729.53333415 </i>
    <i name="pawaedc">-117641.51188735 </i>
    <i name="eentropy">     -0.47481916 </i>
    <i name="bandstr">  -6702.99533745 </i>
    <i name="atom"> 136002.60505376 </i>
    <i name="e_fr_energy">   8569.07991828 </i>
    <i name="e_wo_entrp">   8569.55473744 </i>
    <i name="e_0_energy">   8569.31732786 </i>
   </energy>
  </scstep>
  <scstep>
   <time name="dav">    2.26    2.27</time>
   <time name="total">    2.26    2.27</time>
   <energy>
    <i name="e_fr_energy">    474.50133407 </i>
    <i name="e_wo_entrp">    475.44740160 </i>
    <i name="e_0_energy">    474.97436784 </i>
   </energy>
  </scstep>
  <scstep>
   <time name="dav">    2.45    2.46</time>
   <time name="total">    2.45    2.46</time>
   <energy>
    <i name="e_fr_energy">   -346.90668527 </i>
    <i name="e_wo_entrp">   -345.44419294 </i>
    <i name="e_0_energy">   -346.17543911 </i>
   </energy>
  </scstep>
  <scstep>
   <time name="dav">    2.45    2.46</time>
   <time name="total">    2.46    2.47</time>
   <energy>
    <i name="e_fr_energy">   -395.08156184 </i>
    <i name="e_wo_entrp">   -393.53105181 </i>
    <i name="e_0_energy">   -394.30630682 </i>
   </energy>
  </scstep>
  <scstep>
   <time name="dav">    2.55    2.56</time>
   <time name="total">    2.61    2.62</time>
   <energy>
    <i name="e_fr_energy">   -396.70817730 </i>
    <i name="e_wo_entrp">   -395.16224157 </i>
    <i name="e_0_energy">   -395.93520943 </i>
   </energy>
  </scstep>
  <scstep>
   <time name="dav">    2.45    2.46</time>
   <time name="total">    2.57    2.57</time>
   <energy>
    <i name="e_fr_energy">   -527.27287980 </i>
    <i name="e_wo_entrp">   -526.33368945 </i>
    <i name="e_0_energy">   -526.80328463 </i>
   </energy>
  </scstep>
  <scstep>
   <time name="dav">    2.50    2.51</time>
   <time name="total">    2.62    2.63</time>
   <energy>
    <i name="e_fr_energy">   -375.34625921 </i>
    <i name="e_wo_entrp">   -374.08667014 </i>
    <i name="e_0_energy">   -374.71646467 </i>
   </energy>
  </scstep>
  <scstep>
   <time name="dav">    2.89    2.90</time>
   <time name="total">    3.01    3.02</time>
   <energy>
    <i name="e_fr_energy">   -376.44044924 </i>
    <i name="e_wo_entrp">   -374.99698261 </i>
    <i name="e_0_energy">   -375.71871593 </i>
   </energy>
  </scstep>
  <scstep>
   <time name="dav">    2.69    2.70</time>
   <time name="total">    2.80    2.81</time>
   <energy>
    <i name="e_fr_energy">   -361.28908326 </i>
    <i name="e_wo_entrp">   -359.73962682 </i>
    <i name="e_0_energy">   -360.51435504 </i>
   </energy>
  </scstep>
  <scstep>
   <time name="dav">    2.83    2.84</time>
   <time name="total">    2.95    2.95</time>
   <energy>
    <i name="e_fr_energy">   -366.27564036 </i>
    <i name="e_wo_entrp">   -364.82004481 </i>
    <i name="e_0_energy">   -365.54784258 </i>
   </energy>
  </scstep>
  <scstep>
   <time name="dav">    2.80    2.80</time>
   <time name="total">    2.91    2.91</time>
   <energy>
    <i name="e_fr_energy">   -370.39388021 </i>
    <i name="e_wo_entrp">   -369.19050684 </i>
    <i name="e_0_energy">   -369.79219353 </i>
   </energy>
  </scstep>
  <scstep>
   <time name="dav">    2.75    2.76</time>
   <time name="total">    2.86    2.87</time>
   <energy>
    <i name="e_fr_energy">   -351.26461840 </i>
    <i name="e_wo_entrp">   -350.08164963 </i>
    <i name="e_0_energy">   -350.67313402 </i>
   </energy>
  </scstep>
  <scstep>
   <time name="dav">    2.77    2.78</time>
   <time name="total">    2.88    2.89</time>
   <energy>
    <i name="e_fr_energy">   -351.81938658 </i>
    <i name="e_wo_entrp">   -350.68835251 </i>
    <i name="e_0_energy">   -351.25386954 </i>
   </energy>
  </scstep>
  <scstep>
   <time name="dav">    2.73    2.74</time>
   <time name="total">    2.84    2.85</time>
   <energy>
    <i name="e_fr_energy">   -348.47899317 </i>
    <i name="e_wo_entrp">   -347.32762877 </i>
    <i name="e_0_energy">   -347.90331097 </i>
   </energy>
  </scstep>
  <scstep>
   <time name="dav">    2.77    2.78</time>
   <time name="total">    2.88    2.88</time>
   <energy>
    <i name="e_fr_energy">   -344.99897645 </i>
    <i name="e_wo_entrp">   -343.80089543 </i>
    <i name="e_0_energy">   -344.39993594 </i>
   </energy>
  </scstep>
  <scstep>
   <time name="dav">    2.77    2.77</time>
   <time name="total">    2.87    2.88</time>
   <energy>
    <i name="e_fr_energy">   -344.72344198 </i>
    <i name="e_wo_entrp">   -343.55735852 </i>
    <i name="e_0_energy">   -344.14040025 </i>
   </energy>
  </scstep>
  <scstep>
   <time name="dav">    2.71    2.71</time>
   <time name="total">    2.82    2.82</time>
   <energy>
    <i name="e_fr_energy">   -342.90123617 </i>
    <i name="e_wo_entrp">   -341.75160986 </i>
    <i name="e_0_energy">   -342.32642301 </i>
   </energy>
  </scstep>
  <scstep>
   <time name="dav">    2.71    2.72</time>
   <time name="total">    2.82    2.83</time>
   <energy>
    <i name="e_fr_energy">   -342.09560556 </i>
    <i name="e_wo_entrp">   -340.87156635 </i>
    <i name="e_0_energy">   -341.48358596 </i>
   </energy>
  </scstep>
  <scstep>
   <time name="dav">    2.83    2.84</time>
   <time name="total">    2.94    2.95</time>
   <energy>
    <i name="e_fr_energy">   -341.84691093 </i>
    <i name="e_wo_entrp">   -340.58136349 </i>
    <i name="e_0_energy">   -341.21413721 </i>
   </energy>
  </scstep>
  <scstep>
   <time name="dav">    2.83    2.84</time>
   <time name="total">    2.94    2.95</time>
   <energy>
    <i name="e_fr_energy">   -341.77478908 </i>
    <i name="e_wo_entrp">   -340.24570104 </i>
    <i name="e_0_energy">   -341.01024506 </i>
   </energy>
  </scstep>
  <scstep>
   <time name="dav">    2.67    2.67</time>
   <time name="total">    2.78    2.79</time>
   <energy>
    <i name="e_fr_energy">   -341.67921102 </i>
    <i name="e_wo_entrp">   -340.36927595 </i>
    <i name="e_0_energy">   -341.02424349 </i>
   </energy>
  </scstep>
  <scstep>
   <time name="dav">    2.77    2.78</time>
   <time name="total">    2.88    2.89</time>
   <energy>
    <i name="e_fr_energy">   -341.53743080 </i>
    <i name="e_wo_entrp">   -340.09759640 </i>
    <i name="e_0_energy">   -340.81751360 </i>
   </energy>
  </scstep>
  <scstep>
   <time name="dav">    2.70    2.71</time>
   <time name="total">    2.81    2.82</time>
   <energy>
    <i name="e_fr_energy">   -341.49461288 </i>
    <i name="e_wo_entrp">   -340.09735519 </i>
    <i name="e_0_energy">   -340.79598404 </i>
   </energy>
  </scstep>
  <scstep>
   <time name="dav">    2.67    2.68</time>
   <time name="total">    2.78    2.79</time>
   <energy>
    <i name="e_fr_energy">   -341.49485474 </i>
    <i name="e_wo_entrp">   -340.03446100 </i>
    <i name="e_0_energy">   -340.76465787 </i>
   </energy>
  </scstep>
  <scstep>
   <time name="dav">    2.69    2.70</time>
   <time name="total">    2.80    2.81</time>
   <energy>
    <i name="e_fr_energy">   -341.53266447 </i>
    <i name="e_wo_entrp">   -340.09182485 </i>
    <i name="e_0_energy">   -340.81224466 </i>
   </energy>
  </scstep>
  <scstep>
   <time name="dav">    2.72    2.73</time>
   <time name="total">    2.83    2.84</time>
   <energy>
    <i name="e_fr_energy">   -341.58085933 </i>
    <i name="e_wo_entrp">   -339.99550988 </i>
    <i name="e_0_energy">   -340.78818461 </i>
   </energy>
  </scstep>
  <scstep>
   <time name="dav">    2.76    2.77</time>
   <time name="total">    2.87    2.88</time>
   <energy>
    <i name="e_fr_energy">   -341.49591409 </i>
    <i name="e_wo_entrp">   -339.94493439 </i>
    <i name="e_0_energy">   -340.72042424 </i>
   </energy>
  </scstep>
  <scstep>
   <time name="dav">    2.73    2.74</time>
   <time name="total">    2.84    2.85</time>
   <energy>
    <i name="e_fr_energy">   -341.44884968 </i>
    <i name="e_wo_entrp">   -339.93222739 </i>
    <i name="e_0_energy">   -340.69053853 </i>
   </energy>
  </scstep>
  <scstep>
   <time name="dav">    2.75    2.75</time>
   <time name="total">    2.86    2.87</time>
   <energy>
    <i name="e_fr_energy">   -341.43512876 </i>
    <i name="e_wo_entrp">   -339.94157872 </i>
    <i name="e_0_energy">   -340.68835374 </i>
   </energy>
  </scstep>
  <scstep>
   <time name="dav">    2.71    2.72</time>
   <time name="total">    2.82    2.83</time>
   <energy>
    <i name="e_fr_energy">   -341.40344371 </i>
    <i name="e_wo_entrp">   -339.95006919 </i>
    <i name="e_0_energy">   -340.67675645 </i>
   </energy>
  </scstep>
  <scstep>
   <time name="dav">    2.80    2.81</time>
   <time name="total">    2.92    2.93</time>
   <energy>
    <i name="e_fr_energy">   -341.39950205 </i>
    <i name="e_wo_entrp">   -339.95914574 </i>
    <i name="e_0_energy">   -340.67932389 </i>
   </energy>
  </scstep>
  <scstep>
   <time name="dav">    2.71    2.72</time>
   <time name="total">    2.83    2.84</time>
   <energy>
    <i name="e_fr_energy">   -341.40204306 </i>
    <i name="e_wo_entrp">   -339.94781682 </i>
    <i name="e_0_energy">   -340.67492994 </i>
   </energy>
  </scstep>
  <scstep>
   <time name="dav">    2.58    2.59</time>
   <time name="total">    2.69    2.70</time>
   <energy>
    <i name="e_fr_energy">   -341.39704018 </i>
    <i name="e_wo_entrp">   -339.95111975 </i>
    <i name="e_0_energy">   -340.67407996 </i>
   </energy>
  </scstep>
  <scstep>
   <time name="dav">    2.76    2.77</time>
   <time name="total">    2.87    2.88</time>
   <energy>
    <i name="e_fr_energy">   -341.39381924 </i>
    <i name="e_wo_entrp">   -339.96171726 </i>
    <i name="e_0_energy">   -340.67776825 </i>
   </energy>
  </scstep>
  <scstep>
   <time name="dav">    2.70    2.71</time>
   <time name="total">    2.81    2.82</time>
   <energy>
    <i name="e_fr_energy">   -341.39020818 </i>
    <i name="e_wo_entrp">   -339.98020413 </i>
    <i name="e_0_energy">   -340.68520615 </i>
   </energy>
  </scstep>
  <scstep>
   <time name="dav">    2.50    2.50</time>
   <time name="total">    2.61    2.61</time>
   <energy>
    <i name="e_fr_energy">   -341.39095593 </i>
    <i name="e_wo_entrp">   -339.98045442 </i>
    <i name="e_0_energy">   -340.68570518 </i>
   </energy>
  </scstep>
  <scstep>
   <time name="dav">    2.17    2.17</time>
   <time name="total">    2.23    2.23</time>
   <energy>
    <i name="alphaZ">   1422.10231021 </i>
    <i name="ewald"> 104320.15776346 </i>
    <i name="hartreedc">-224497.66763097 </i>
    <i name="XCdc">   3609.07563035 </i>
    <i name="pawpsdc"> 128263.00544684 </i>
    <i name="pawaedc">-133229.57517523 </i>
    <i name="eentropy">     -1.40769904 </i>
    <i name="bandstr"> -16229.68673807 </i>
    <i name="atom"> 136002.60505376 </i>
    <i name="e_fr_energy">   -341.39103870 </i>
    <i name="e_wo_entrp">   -339.98333966 </i>
    <i name="e_0_energy">   -340.68718918 </i>
   </energy>
  </scstep>
  <structure>
   <crystal>
    <varray name="basis" >
     <v>      16.88469405       0.00000000       0.00000000 </v>
     <v>       0.00000000       9.57841000       0.00000000 </v>
     <v>       0.00000000       0.00000000      16.17386302 </v>
    </varray>
    <i name="volume">   2615.77496754 </i>
    <varray name="rec_basis" >
     <v>       0.05922524       0.00000000       0.00000000 </v>
     <v>       0.00000000       0.10440146       0.00000000 </v>
     <v>       0.00000000       0.00000000       0.06182815 </v>
    </varray>
   </crystal>
   <varray name="positions" >
    <v>       0.06497261       0.92341313       0.30979220 </v>
    <v>       0.09954057       0.92341313       0.11908059 </v>
    <v>       0.58225659       0.42341313       0.21443640 </v>
    <v>       0.61682455       0.42341313       0.02372478 </v>
    <v>       0.23740060       0.42341313       0.27800694 </v>
    <v>       0.27196856       0.42341313       0.08729532 </v>
    <v>       0.72011663       0.92341313       0.37336274 </v>
    <v>       0.75468458       0.92341313       0.18265113 </v>
    <v>       0.40982860       0.92341313       0.24622167 </v>
    <v>       0.44439655       0.92341313       0.05551005 </v>
    <v>       0.89254462       0.42341313       0.34157747 </v>
    <v>       0.92711258       0.42341313       0.15086586 </v>
    <v>       0.42015216       0.55551613       0.37995444 </v>
    <v>       0.45472012       0.55551613       0.18924282 </v>
    <v>       0.93743614       0.05551613       0.28459863 </v>
    <v>       0.97200410       0.05551613       0.09388701 </v>
    <v>       0.10986414       0.55551613       0.25281336 </v>
    <v>       0.14443209       0.55551613       0.06210174 </v>
    <v>       0.59258016       0.05551613       0.34816917 </v>
    <v>       0.62714811       0.05551613       0.15745755 </v>
    <v>       0.28229213       0.05551613       0.22102809 </v>
    <v>       0.31686009       0.05551613       0.03031647 </v>
    <v>       0.76500815       0.55551613       0.31638390 </v>
    <v>       0.79957611       0.55551613       0.12567228 </v>
    <v>       0.06497261       0.18761913       0.30979220 </v>
    <v>       0.09954057       0.18761913       0.11908059 </v>
    <v>       0.58225659       0.68761913       0.21443640 </v>
    <v>       0.61682455       0.68761913       0.02372478 </v>
    <v>       0.23740060       0.68761913       0.27800694 </v>
    <v>       0.27196856       0.68761913       0.08729532 </v>
    <v>       0.72011663       0.18761913       0.37336274 </v>
    <v>       0.75468458       0.18761913       0.18265113 </v>
    <v>       0.40982860       0.18761913       0.24622167 </v>
    <v>       0.44439655       0.18761913       0.05551005 </v>
    <v>       0.89254462       0.68761913       0.34157747 </v>
    <v>       0.92711258       0.68761913       0.15086586 </v>
    <v>       0.02101885       0.22373113       0.00000000 </v>
    <v>       0.46916691       0.72373113       0.28606742 </v>
    <v>       0.50373487       0.72373113       0.09535581 </v>
    <v>       0.95188293       0.22373113       0.38142323 </v>
    <v>       0.98645089       0.22373113       0.19071162 </v>
    <v>       0.12431093       0.72373113       0.34963796 </v>
    <v>       0.15887888       0.72373113       0.15892635 </v>
    <v>       0.64159490       0.22373113       0.25428215 </v>
    <v>       0.67616286       0.22373113       0.06357054 </v>
    <v>       0.29673892       0.22373113       0.31785269 </v>
    <v>       0.33130688       0.22373113       0.12714108 </v>
    <v>       0.81402290       0.72373113       0.22249689 </v>
    <v>       0.84859085       0.72373113       0.03178527 </v>
    <v>       0.14885104       0.05551613       0.22279217 </v>
    <v>       0.18341900       0.05551613       0.03208056 </v>
    <v>       0.63156706       0.55551613       0.31814798 </v>
    <v>       0.66613502       0.55551613       0.12743636 </v>
    <v>       0.32127903       0.55551613       0.19100690 </v>
    <v>       0.35584699       0.55551613       0.00029528 </v>
    <v>       0.80399506       0.05551613       0.28636271 </v>
    <v>       0.83856301       0.05551613       0.09565109 </v>
    <v>       0.01099101       0.55551613       0.06386582 </v>
    <v>       0.49370703       0.05551613       0.15922163 </v>
    <v>       0.97642305       0.55551613       0.25457744 </v>
    <v>       0.02101885       0.88730113       0.00000000 </v>
    <v>       0.50373487       0.38730113       0.09535581 </v>
    <v>       0.95188293       0.88730113       0.38142323 </v>
    <v>       0.98645089       0.88730113       0.19071162 </v>
    <v>       0.12431093       0.38730113       0.34963796 </v>
    <v>       0.15887888       0.38730113       0.15892635 </v>
    <v>       0.64159490       0.88730113       0.25428215 </v>
    <v>       0.67616286       0.88730113       0.06357054 </v>
    <v>       0.29673892       0.88730113       0.31785269 </v>
    <v>       0.33130688       0.88730113       0.12714108 </v>
    <v>       0.81402290       0.38730113       0.22249689 </v>
    <v>       0.84859085       0.38730113       0.03178527 </v>
   </varray>
  </structure>
  <varray name="forces" >
   <v>      -0.30568301      -0.70106580      -0.21503412 </v>
   <v>       0.03281995       0.05449932      -0.56525768 </v>
   <v>       0.41248754      -0.04580523      -0.16963301 </v>
   <v>      -0.11876899      -0.32182103       2.15911643 </v>
   <v>      -0.27032453      -0.64753055      -0.25087563 </v>
   <v>       0.70837245       0.55762702       0.15151510 </v>
   <v>      -0.06244739       0.63796700      -1.62430099 </v>
   <v>       0.21116286       0.11900711      -0.14391123 </v>
   <v>      -0.20588813      -0.65337017      -0.13888685 </v>
   <v>      -0.12219732      -0.26663293       1.55503376 </v>
   <v>       0.31983199      -0.44989543      -0.91558006 </v>
   <v>       0.07427444       0.15741932      -0.30765883 </v>
   <v>       0.45385347       1.10120572      -1.92858668 </v>
   <v>      -0.04822994       0.57889834      -0.28815062 </v>
   <v>       0.45905935      -0.00353059       0.49450260 </v>
   <v>      -0.19041943      -0.00813472      -0.64502053 </v>
   <v>       0.34446158       0.02165069       0.46540728 </v>
   <v>      -1.04803906      -0.00932700       1.41495748 </v>
   <v>       1.07439284       0.05057981      -1.46737235 </v>
   <v>      -0.11608203      -0.02299561      -0.16143709 </v>
   <v>      -0.05076852      -0.06928987       0.09632679 </v>
   <v>      -0.91884083      -0.00433803       1.67385218 </v>
   <v>      -0.07423304      -0.05231191      -1.04421706 </v>
   <v>       0.07523884       0.01620453      -0.68288779 </v>
   <v>      -0.32089589       0.69289174      -0.20151958 </v>
   <v>       0.07426122      -0.02026069      -0.56661298 </v>
   <v>      -0.04042240      -0.17498900       0.16433335 </v>
   <v>      -0.16540518       0.42384708       2.03858829 </v>
   <v>      -0.21076685       0.71938582      -0.18516612 </v>
   <v>       0.73585131      -0.57214151       0.16227152 </v>
   <v>      -0.06174678      -0.62143597      -1.61553406 </v>
   <v>       0.24331335      -0.11505327      -0.19356034 </v>
   <v>      -0.46370564       0.07898602      -0.72101717 </v>
   <v>      -0.19651970       0.27007354       1.55571300 </v>
   <v>       0.31389021       0.45874701      -0.90949885 </v>
   <v>       0.05565805      -0.15888737      -0.31547702 </v>
   <v>       0.29699489      -0.91999857       1.39244237 </v>
   <v>      -0.74646876      -0.89908632       0.91880537 </v>
   <v>       0.54701785      -0.10916682      -0.76311426 </v>
   <v>      -0.00739006       0.65548599      -0.45258307 </v>
   <v>       0.00603738      -0.50132032      -0.47633345 </v>
   <v>       0.47040766       0.35795270      -0.48247284 </v>
   <v>       0.14207955      -0.47266158      -1.08485846 </v>
   <v>      -0.71612882      -0.08224462       1.12743756 </v>
   <v>      -0.03132242      -0.22573487      -0.04266671 </v>
   <v>       0.90568832       0.49438665      -0.30377356 </v>
   <v>       0.20373734      -0.35506750      -1.02775617 </v>
   <v>      -0.03668453      -0.51212821       0.74727623 </v>
   <v>       0.21033089      -0.82673065       1.31676829 </v>
   <v>      -0.19243872      -0.02858543       0.91454806 </v>
   <v>      -0.30046982      -0.03640174      -0.21480508 </v>
   <v>       0.52713875      -0.30354394      -0.22454913 </v>
   <v>      -0.27371461       0.03826088      -1.46266142 </v>
   <v>       0.15383496      -0.19908263       1.08563962 </v>
   <v>      -2.03157355       0.05963491       1.21610005 </v>
   <v>      -0.42080903      -0.02806055       0.80215561 </v>
   <v>      -0.34704525      -0.01152235      -0.24058247 </v>
   <v>       0.14987871      -0.00998640      -0.49913451 </v>
   <v>      -0.07513092       0.00347158      -0.12500270 </v>
   <v>      -0.59359521      -0.03246764       0.71117889 </v>
   <v>       0.26472922       0.89606137       1.37516845 </v>
   <v>       0.23127987       0.02590418       0.27957725 </v>
   <v>      -0.01673401      -0.65495223      -0.44929071 </v>
   <v>      -0.00386436       0.49616604      -0.46915715 </v>
   <v>       0.49271458      -0.32327284      -0.46326501 </v>
   <v>       0.13250985       0.47271524      -1.09301777 </v>
   <v>      -0.22324565       0.37032591       1.03376639 </v>
   <v>      -0.01610564       0.22312045      -0.16022965 </v>
   <v>       0.43807242      -0.33580912      -0.46923510 </v>
   <v>       0.13343696       0.38539979      -1.16488423 </v>
   <v>      -0.05817710       0.54681899       0.76256587 </v>
   <v>       0.18746446       0.82194629       1.31152232 </v>
  </varray>
  <varray name="stress" >
   <v>     -27.52659555      -0.39828542       7.78988341 </v>
   <v>      -0.39828532     -30.01534804       0.77231870 </v>
   <v>       7.78988322       0.77231849     -37.88797222 </v>
  </varray>
  <energy>
   <i name="e_fr_energy">   -341.39103870 </i>
   <i name="e_wo_entrp">   -339.98333966 </i>
   <i name="e_0_energy">   -340.68718918 </i>
  </energy>
  <time name="totalsc">  104.33  104.68</time>
  <eigenvalues>
   <array>
    <dimension dim="1">band</dimension>
    <dimension dim="2">kpoint</dimension>
    <dimension dim="3">spin</dimension>
    <field>eigene</field>
    <field>occ</field>
    <set>
     <set comment="spin 1">
      <set comment="kpoint 1">
       <r>  -64.5135    1.0000 </r>
       <r>  -64.5079    1.0000 </r>
       <r>  -64.5055    1.0000 </r>
       <r>  -64.4907    1.0000 </r>
       <r>  -64.4871    1.0000 </r>
       <r>  -64.4617    1.0000 </r>
       <r>  -64.4586    1.0000 </r>
       <r>  -64.4415    1.0000 </r>
       <r>  -64.4358    1.0000 </r>
       <r>  -64.4357    1.0000 </r>
       <r>  -64.4337    1.0000 </r>
       <r>  -64.4304    1.0000 </r>
       <r>  -64.4264    1.0000 </r>
       <r>  -64.4253    1.0000 </r>
       <r>  -64.4209    1.0000 </r>
       <r>  -64.4074    1.0000 </r>
       <r>  -64.4067    1.0000 </r>
       <r>  -64.4043    1.0000 </r>
       <r>  -64.4022    1.0000 </r>
       <r>  -64.3965    1.0000 </r>
       <r>  -64.3872    1.0000 </r>
       <r>  -64.3773    1.0000 </r>
       <r>  -64.3723    1.0000 </r>
       <r>  -64.3525    1.0000 </r>
       <r>  -64.3400    1.0000 </r>
       <r>  -64.3302    1.0000 </r>
       <r>  -64.3243    1.0000 </r>
       <r>  -64.2879    1.0000 </r>
       <r>  -64.2704    1.0000 </r>
       <r>  -64.2573    1.0000 </r>
       <r>  -64.2528    1.0000 </r>
       <r>  -64.2338    1.0000 </r>
       <r>  -64.2331    1.0000 </r>
       <r>  -64.2219    1.0000 </r>
       <r>  -64.2054    1.0000 </r>
       <r>  -64.2012    1.0000 </r>
       <r>  -64.1895    1.0000 </r>
       <r>  -64.1852    1.0000 </r>
       <r>  -64.1817    1.0000 </r>
       <r>  -64.1768    1.0000 </r>
       <r>  -64.1689    1.0000 </r>
       <r>  -64.1548    1.0000 </r>
       <r>  -64.1243    1.0000 </r>
       <r>  -64.1208    1.0000 </r>
       <r>  -64.1068    1.0000 </r>
       <r>  -64.0987    1.0000 </r>
       <r>  -64.0947    1.0000 </r>
       <r>  -64.0824    1.0000 </r>
       <r>  -64.0577    1.0000 </r>
       <r>  -64.0521    1.0000 </r>
       <r>  -64.0440    1.0000 </r>
       <r>  -64.0318    1.0000 </r>
       <r>  -64.0301    1.0000 </r>
       <r>  -64.0247    1.0000 </r>
       <r>  -64.0219    1.0000 </r>
       <r>  -64.0173    1.0000 </r>
       <r>  -63.9959    1.0000 </r>
       <r>  -63.9900    1.0000 </r>
       <r>  -63.9609    1.0000 </r>
       <r>  -63.9512    1.0000 </r>
       <r>  -63.9385    1.0000 </r>
       <r>  -63.9262    1.0000 </r>
       <r>  -63.9225    1.0000 </r>
       <r>  -63.9050    1.0000 </r>
       <r>  -63.8856    1.0000 </r>
       <r>  -63.8787    1.0000 </r>
       <r>  -63.8650    1.0000 </r>
       <r>  -63.8456    1.0000 </r>
       <r>  -63.8364    1.0000 </r>
       <r>  -63.7954    1.0000 </r>
       <r>  -63.7748    1.0000 </r>
       <r>  -63.7645    1.0000 </r>
       <r>  -63.7553    1.0000 </r>
       <r>  -63.7551    1.0000 </r>
       <r>  -63.7514    1.0000 </r>
       <r>  -63.7462    1.0000 </r>
       <r>  -63.7339    1.0000 </r>
       <r>  -63.7316    1.0000 </r>
       <r>  -63.7228    1.0000 </r>
       <r>  -63.7167    1.0000 </r>
       <r>  -63.7071    1.0000 </r>
       <r>  -63.6991    1.0000 </r>
       <r>  -63.6717    1.0000 </r>
       <r>  -63.6623    1.0000 </r>
       <r>  -63.6510    1.0000 </r>
       <r>  -63.6478    1.0000 </r>
       <r>  -63.6254    1.0000 </r>
       <r>  -63.5933    1.0000 </r>
       <r>  -63.5700    1.0000 </r>
       <r>  -63.5222    1.0000 </r>
       <r>  -63.5104    1.0000 </r>
       <r>  -63.4941    1.0000 </r>
       <r>  -63.3890    1.0000 </r>
       <r>  -63.3763    1.0000 </r>
       <r>  -63.3759    1.0000 </r>
       <r>  -63.3384    1.0000 </r>
       <r>  -63.2536    1.0000 </r>
       <r>  -63.2312    1.0000 </r>
       <r>  -63.1914    1.0000 </r>
       <r>  -63.1752    1.0000 </r>
       <r>  -63.1336    1.0000 </r>
       <r>  -63.1185    1.0000 </r>
       <r>  -63.0516    1.0000 </r>
       <r>  -63.0330    1.0000 </r>
       <r>  -63.0190    1.0000 </r>
       <r>  -62.7993    1.0000 </r>
       <r>  -62.5737    1.0000 </r>
       <r>  -62.4885    1.0000 </r>
       <r>  -15.3117    1.0000 </r>
       <r>  -15.0528    1.0000 </r>
       <r>  -14.9640    1.0000 </r>
       <r>  -14.6022    1.0000 </r>
       <r>  -14.5391    1.0000 </r>
       <r>  -14.4314    1.0000 </r>
       <r>  -14.3646    1.0000 </r>
       <r>  -14.2021    1.0000 </r>
       <r>  -14.1537    1.0000 </r>
       <r>  -14.1327    1.0000 </r>
       <r>  -14.0646    1.0000 </r>
       <r>  -13.9296    1.0000 </r>
       <r>  -13.8577    1.0000 </r>
       <r>  -13.8411    1.0000 </r>
       <r>  -13.7920    1.0000 </r>
       <r>  -13.7265    1.0000 </r>
       <r>  -13.6093    1.0000 </r>
       <r>  -13.4491    1.0000 </r>
       <r>  -13.3454    1.0000 </r>
       <r>  -13.2678    1.0000 </r>
       <r>  -13.2315    1.0000 </r>
       <r>  -13.0559    1.0000 </r>
       <r>  -12.9822    1.0000 </r>
       <r>  -12.9626    1.0000 </r>
       <r>  -12.9489    1.0000 </r>
       <r>  -12.8375    1.0000 </r>
       <r>  -12.8037    1.0000 </r>
       <r>  -12.7281    1.0000 </r>
       <r>  -12.5517    1.0000 </r>
       <r>  -12.5378    1.0000 </r>
       <r>  -12.5084    1.0000 </r>
       <r>  -12.2333    1.0000 </r>
       <r>  -12.2111    1.0000 </r>
       <r>  -12.1074    1.0000 </r>
       <r>  -11.8649    1.0000 </r>
       <r>  -11.8346    1.0000 </r>
       <r>   -7.0337    1.0000 </r>
       <r>   -7.0141    1.0000 </r>
       <r>   -6.9906    1.0000 </r>
       <r>   -6.9208    1.0000 </r>
       <r>   -6.8680    1.0000 </r>
       <r>   -6.5947    1.0000 </r>
       <r>   -6.5383    1.0000 </r>
       <r>   -6.4706    1.0000 </r>
       <r>   -6.4597    1.0000 </r>
       <r>   -6.4145    1.0000 </r>
       <r>   -6.4064    1.0000 </r>
       <r>   -6.3476    1.0000 </r>
       <r>   -6.3100    1.0000 </r>
       <r>   -6.2838    1.0000 </r>
       <r>   -6.1751    1.0000 </r>
       <r>   -6.1100    1.0000 </r>
       <r>   -6.0809    1.0000 </r>
       <r>   -6.0585    1.0000 </r>
       <r>   -6.0045    1.0000 </r>
       <r>   -5.9559    1.0000 </r>
       <r>   -5.8868    1.0000 </r>
       <r>   -5.8077    1.0000 </r>
       <r>   -5.7483    1.0000 </r>
       <r>   -5.7280    1.0000 </r>
       <r>   -5.7123    1.0000 </r>
       <r>   -5.6737    1.0000 </r>
       <r>   -5.6700    1.0000 </r>
       <r>   -5.6451    1.0000 </r>
       <r>   -5.6093    1.0000 </r>
       <r>   -5.5186    1.0000 </r>
       <r>   -5.4641    1.0000 </r>
       <r>   -5.4169    1.0000 </r>
       <r>   -5.3604    1.0000 </r>
       <r>   -5.3461    1.0000 </r>
       <r>   -5.3014    1.0000 </r>
       <r>   -5.2468    1.0000 </r>
       <r>   -5.1679    1.0000 </r>
       <r>   -5.1413    1.0000 </r>
       <r>   -5.1108    1.0000 </r>
       <r>   -5.0234    1.0000 </r>
       <r>   -4.9861    1.0000 </r>
       <r>   -4.9783    1.0000 </r>
       <r>   -4.9063    1.0000 </r>
       <r>   -4.8983    1.0000 </r>
       <r>   -4.8032    1.0000 </r>
       <r>   -4.7513    1.0000 </r>
       <r>   -4.7323    1.0000 </r>
       <r>   -4.7181    1.0000 </r>
       <r>   -4.6438    1.0000 </r>
       <r>   -4.5932    1.0000 </r>
       <r>   -4.5734    1.0000 </r>
       <r>   -4.5621    1.0000 </r>
       <r>   -4.5581    1.0000 </r>
       <r>   -4.5095    1.0000 </r>
       <r>   -4.4731    1.0000 </r>
       <r>   -4.4279    1.0000 </r>
       <r>   -4.4039    1.0000 </r>
       <r>   -4.3650    1.0000 </r>
       <r>   -4.3243    1.0000 </r>
       <r>   -4.2024    1.0000 </r>
       <r>   -4.1680    1.0000 </r>
       <r>   -4.1450    1.0000 </r>
       <r>   -4.1169    1.0000 </r>
       <r>   -4.0750    1.0000 </r>
       <r>   -4.0616    1.0000 </r>
       <r>   -4.0441    1.0000 </r>
       <r>   -4.0116    1.0000 </r>
       <r>   -4.0039    1.0000 </r>
       <r>   -3.9992    1.0000 </r>
       <r>   -3.9859    1.0000 </r>
       <r>   -3.9165    1.0000 </r>
       <r>   -3.8775    1.0000 </r>
       <r>   -3.8335    1.0000 </r>
       <r>   -3.8118    1.0000 </r>
       <r>   -3.7989    1.0000 </r>
       <r>   -3.7455    1.0000 </r>
       <r>   -3.6918    1.0000 </r>
       <r>   -3.6620    1.0000 </r>
       <r>   -3.5973    1.0000 </r>
       <r>   -3.5771    1.0000 </r>
       <r>   -3.5460    1.0000 </r>
       <r>   -3.5349    1.0000 </r>
       <r>   -3.5023    1.0000 </r>
       <r>   -3.4925    1.0000 </r>
       <r>   -3.4321    1.0000 </r>
       <r>   -3.4174    1.0000 </r>
       <r>   -3.3964    1.0000 </r>
       <r>   -3.3788    1.0000 </r>
       <r>   -3.3599    1.0000 </r>
       <r>   -3.3467    1.0000 </r>
       <r>   -3.3298    1.0000 </r>
       <r>   -3.2465    1.0000 </r>
       <r>   -3.2258    1.0000 </r>
       <r>   -3.1831    1.0000 </r>
       <r>   -3.1469    1.0000 </r>
       <r>   -3.1070    1.0000 </r>
       <r>   -3.0816    1.0000 </r>
       <r>   -3.0714    1.0000 </r>
       <r>   -2.9983    1.0000 </r>
       <r>   -2.9696    1.0000 </r>
       <r>   -2.9312    1.0000 </r>
       <r>   -2.9250    1.0000 </r>
       <r>   -2.9065    1.0000 </r>
       <r>   -2.8706    1.0000 </r>
       <r>   -2.8175    1.0000 </r>
       <r>   -2.8036    1.0000 </r>
       <r>   -2.7751    1.0000 </r>
       <r>   -2.7209    1.0000 </r>
       <r>   -2.6827    1.0000 </r>
       <r>   -2.6506    1.0000 </r>
       <r>   -2.6277    1.0000 </r>
       <r>   -2.6034    1.0000 </r>
       <r>   -2.5801    1.0000 </r>
       <r>   -2.5720    1.0000 </r>
       <r>   -2.5456    1.0000 </r>
       <r>   -2.5196    1.0000 </r>
       <r>   -2.4990    1.0000 </r>
       <r>   -2.4806    1.0000 </r>
       <r>   -2.4663    1.0000 </r>
       <r>   -2.4425    1.0000 </r>
       <r>   -2.4340    1.0000 </r>
       <r>   -2.4272    1.0000 </r>
       <r>   -2.3859    1.0000 </r>
       <r>   -2.3849    1.0000 </r>
       <r>   -2.3498    1.0000 </r>
       <r>   -2.3407    1.0000 </r>
       <r>   -2.3262    1.0000 </r>
       <r>   -2.3083    1.0000 </r>
       <r>   -2.2860    1.0000 </r>
       <r>   -2.2753    1.0000 </r>
       <r>   -2.2635    1.0000 </r>
       <r>   -2.2466    1.0000 </r>
       <r>   -2.2420    1.0000 </r>
       <r>   -2.2251    1.0000 </r>
       <r>   -2.1985    1.0000 </r>
       <r>   -2.1912    1.0000 </r>
       <r>   -2.1830    1.0000 </r>
       <r>   -2.1676    1.0000 </r>
       <r>   -2.1464    1.0000 </r>
       <r>   -2.1426    1.0000 </r>
       <r>   -2.1241    1.0000 </r>
       <r>   -2.1156    1.0000 </r>
       <r>   -2.0913    1.0000 </r>
       <r>   -2.0795    1.0000 </r>
       <r>   -2.0752    1.0000 </r>
       <r>   -2.0507    1.0000 </r>
       <r>   -2.0383    1.0000 </r>
       <r>   -2.0117    1.0000 </r>
       <r>   -1.9956    1.0000 </r>
       <r>   -1.9849    1.0000 </r>
       <r>   -1.9754    1.0000 </r>
       <r>   -1.9744    1.0000 </r>
       <r>   -1.9541    1.0000 </r>
       <r>   -1.9493    1.0000 </r>
       <r>   -1.9347    1.0000 </r>
       <r>   -1.9247    1.0000 </r>
       <r>   -1.9155    1.0000 </r>
       <r>   -1.9009    1.0000 </r>
       <r>   -1.8951    1.0000 </r>
       <r>   -1.8791    1.0000 </r>
       <r>   -1.8733    1.0000 </r>
       <r>   -1.8500    1.0000 </r>
       <r>   -1.8435    1.0000 </r>
       <r>   -1.8322    1.0000 </r>
       <r>   -1.8144    1.0000 </r>
       <r>   -1.7985    1.0000 </r>
       <r>   -1.7941    1.0000 </r>
       <r>   -1.7786    1.0000 </r>
       <r>   -1.7771    1.0000 </r>
       <r>   -1.7638    1.0000 </r>
       <r>   -1.7458    1.0000 </r>
       <r>   -1.7348    1.0000 </r>
       <r>   -1.7227    1.0000 </r>
       <r>   -1.7188    1.0000 </r>
       <r>   -1.7020    1.0000 </r>
       <r>   -1.6953    1.0000 </r>
       <r>   -1.6723    1.0000 </r>
       <r>   -1.6615    1.0000 </r>
       <r>   -1.6430    1.0000 </r>
       <r>   -1.6282    1.0000 </r>
       <r>   -1.6218    1.0000 </r>
       <r>   -1.6198    1.0000 </r>
       <r>   -1.6103    1.0000 </r>
       <r>   -1.5853    1.0000 </r>
       <r>   -1.5700    1.0000 </r>
       <r>   -1.5494    1.0000 </r>
       <r>   -1.5435    1.0000 </r>
       <r>   -1.5404    1.0000 </r>
       <r>   -1.5315    1.0000 </r>
       <r>   -1.5278    1.0000 </r>
       <r>   -1.4868    1.0000 </r>
       <r>   -1.4847    1.0000 </r>
       <r>   -1.4736    1.0000 </r>
       <r>   -1.4694    1.0000 </r>
       <r>   -1.4587    1.0000 </r>
       <r>   -1.4432    1.0000 </r>
       <r>   -1.4356    1.0000 </r>
       <r>   -1.4217    1.0000 </r>
       <r>   -1.4109    1.0000 </r>
       <r>   -1.3931    1.0000 </r>
       <r>   -1.3857    1.0000 </r>
       <r>   -1.3669    1.0000 </r>
       <r>   -1.3347    1.0000 </r>
       <r>   -1.3078    1.0000 </r>
       <r>   -1.2944    1.0000 </r>
       <r>   -1.2923    1.0000 </r>
       <r>   -1.2721    1.0000 </r>
       <r>   -1.2415    1.0000 </r>
       <r>   -1.2241    1.0000 </r>
       <r>   -1.1983    1.0000 </r>
       <r>   -1.1893    1.0000 </r>
       <r>   -1.1809    1.0000 </r>
       <r>   -1.1459    1.0000 </r>
       <r>   -1.1300    1.0000 </r>
       <r>   -1.1203    1.0000 </r>
       <r>   -1.1048    1.0000 </r>
       <r>   -1.0937    1.0000 </r>
       <r>   -1.0715    1.0000 </r>
       <r>   -1.0479    1.0000 </r>
       <r>   -1.0464    1.0000 </r>
       <r>   -1.0196    1.0000 </r>
       <r>   -1.0069    1.0000 </r>
       <r>   -0.9704    1.0000 </r>
       <r>   -0.9563    1.0000 </r>
       <r>   -0.9474    1.0000 </r>
       <r>   -0.9260    0.9999 </r>
       <r>   -0.9137    0.9999 </r>
       <r>   -0.8878    0.9998 </r>
       <r>   -0.8758    0.9997 </r>
       <r>   -0.8544    0.9996 </r>
       <r>   -0.8374    0.9993 </r>
       <r>   -0.8224    0.9990 </r>
       <r>   -0.8181    0.9989 </r>
       <r>   -0.7968    0.9982 </r>
       <r>   -0.7859    0.9977 </r>
       <r>   -0.7517    0.9953 </r>
       <r>   -0.7280    0.9924 </r>
       <r>   -0.7170    0.9906 </r>
       <r>   -0.6956    0.9860 </r>
       <r>   -0.6785    0.9811 </r>
       <r>   -0.6675    0.9772 </r>
       <r>   -0.6453    0.9673 </r>
       <r>   -0.6341    0.9611 </r>
       <r>   -0.6136    0.9472 </r>
       <r>   -0.6068    0.9418 </r>
       <r>   -0.5868    0.9235 </r>
       <r>   -0.5472    0.8747 </r>
       <r>   -0.5306    0.8488 </r>
       <r>   -0.4682    0.7225 </r>
       <r>   -0.4608    0.7048 </r>
       <r>   -0.4329    0.6333 </r>
       <r>   -0.3961    0.5320 </r>
       <r>   -0.3859    0.5035 </r>
       <r>   -0.3522    0.4090 </r>
       <r>   -0.3261    0.3394 </r>
       <r>   -0.3120    0.3035 </r>
       <r>   -0.2602    0.1892 </r>
       <r>   -0.2138    0.1134 </r>
       <r>   -0.1737    0.0679 </r>
       <r>   -0.1460    0.0457 </r>
       <r>   -0.1083    0.0253 </r>
       <r>   -0.0841    0.0168 </r>
       <r>   -0.0608    0.0110 </r>
       <r>    0.0220    0.0020 </r>
       <r>    0.0498    0.0011 </r>
       <r>    0.0927    0.0004 </r>
       <r>    0.1403    0.0001 </r>
       <r>    0.1724    0.0000 </r>
       <r>    0.1897    0.0000 </r>
       <r>    0.2252    0.0000 </r>
       <r>    0.2677    0.0000 </r>
       <r>    0.3226    0.0000 </r>
       <r>    0.3487    0.0000 </r>
       <r>    0.3825    0.0000 </r>
       <r>    0.3992    0.0000 </r>
       <r>    0.4479    0.0000 </r>
       <r>    0.4902    0.0000 </r>
       <r>    0.5187    0.0000 </r>
       <r>    0.5565    0.0000 </r>
       <r>    0.6115    0.0000 </r>
       <r>    0.6472    0.0000 </r>
       <r>    0.6590    0.0000 </r>
       <r>    0.7121    0.0000 </r>
       <r>    0.7290    0.0000 </r>
       <r>    0.7480    0.0000 </r>
       <r>    0.7848    0.0000 </r>
       <r>    0.8128    0.0000 </r>
       <r>    0.8491    0.0000 </r>
       <r>    0.8642    0.0000 </r>
       <r>    0.9293    0.0000 </r>
       <r>    1.0226    0.0000 </r>
       <r>    1.1176    0.0000 </r>
       <r>    1.4206    0.0000 </r>
       <r>    1.8936    0.0000 </r>
       <r>    2.0060    0.0000 </r>
       <r>    2.2963    0.0000 </r>
       <r>    2.3776    0.0000 </r>
       <r>    2.8002    0.0000 </r>
       <r>    3.0003    0.0000 </r>
       <r>    3.0359    0.0000 </r>
       <r>    3.3500    0.0000 </r>
       <r>    3.4990    0.0000 </r>
       <r>    3.5836    0.0000 </r>
       <r>    3.7500    0.0000 </r>
       <r>    3.7969    0.0000 </r>
       <r>    3.9057    0.0000 </r>
       <r>    3.9700    0.0000 </r>
       <r>    4.0548    0.0000 </r>
       <r>    4.0781    0.0000 </r>
       <r>    4.1580    0.0000 </r>
       <r>    4.1893    0.0000 </r>
       <r>    4.2381    0.0000 </r>
       <r>    4.3266    0.0000 </r>
       <r>    4.4573    0.0000 </r>
       <r>    4.5138    0.0000 </r>
       <r>    4.5237    0.0000 </r>
       <r>    4.5929    0.0000 </r>
       <r>    4.6246    0.0000 </r>
       <r>    4.7164    0.0000 </r>
       <r>    4.8435    0.0000 </r>
       <r>    4.8782    0.0000 </r>
       <r>    4.9174    0.0000 </r>
       <r>    5.0162    0.0000 </r>
       <r>    5.0676    0.0000 </r>
       <r>    5.1210    0.0000 </r>
       <r>    5.1703    0.0000 </r>
       <r>    5.2114    0.0000 </r>
       <r>    5.2788    0.0000 </r>
       <r>    5.3285    0.0000 </r>
       <r>    5.4062    0.0000 </r>
       <r>    5.4376    0.0000 </r>
       <r>    5.4434    0.0000 </r>
       <r>    5.4949    0.0000 </r>
       <r>    5.5107    0.0000 </r>
       <r>    5.5600    0.0000 </r>
       <r>    5.6123    0.0000 </r>
      </set>
     </set>
    </set>
   </array>
  </eigenvalues>
  <separator name="orbital magnetization" >
   <v name="MAGDIPOLOUT">      0.00000000      0.00000000      0.00000000</v>
  </separator>
  <dos>
   <i name="efermi">     -0.38470792 </i>
   <total>
    <array>
     <dimension dim="1">gridpoints</dimension>
     <dimension dim="2">spin</dimension>
     <field>energy</field>
     <field>total</field>
     <field>integrated</field>
     <set>
      <set comment="spin 1">
       <r>   -68.0197     0.0000     0.0000 </r>
       <r>   -67.7626     0.0000     0.0000 </r>
       <r>   -67.5055     0.0000     0.0000 </r>
       <r>   -67.2484     0.0000     0.0000 </r>
       <r>   -66.9912     0.0000     0.0000 </r>
       <r>   -66.7341     0.0000     0.0000 </r>
       <r>   -66.4770     0.0000     0.0000 </r>
       <r>   -66.2198     0.0000     0.0000 </r>
       <r>   -65.9627     0.0000     0.0000 </r>
       <r>   -65.7056     0.0000     0.0000 </r>
       <r>   -65.4485     0.0000     0.0000 </r>
       <r>   -65.1913     0.0000     0.0000 </r>
       <r>   -64.9342     0.0666     0.0171 </r>
       <r>   -64.6771     9.4288     2.4415 </r>
       <r>   -64.4200   106.5882    29.8483 </r>
       <r>   -64.1628   191.8704    79.1835 </r>
       <r>   -63.9057   178.3295   125.0369 </r>
       <r>   -63.6486   150.9096   163.8399 </r>
       <r>   -63.3914    87.8656   186.4326 </r>
       <r>   -63.1343    55.0799   200.5952 </r>
       <r>   -62.8772    34.9183   209.5737 </r>
       <r>   -62.6201    12.8552   212.8791 </r>
       <r>   -62.3629    10.1443   215.4875 </r>
       <r>   -62.1058     1.9631   215.9923 </r>
       <r>   -61.8487     0.0301   216.0000 </r>
       <r>   -61.5915     0.0000   216.0000 </r>
       <r>   -61.3344     0.0000   216.0000 </r>
       <r>   -61.0773     0.0000   216.0000 </r>
       <r>   -60.8202     0.0000   216.0000 </r>
       <r>   -60.5630     0.0000   216.0000 </r>
       <r>   -60.3059     0.0000   216.0000 </r>
       <r>   -60.0488     0.0000   216.0000 </r>
       <r>   -59.7917     0.0000   216.0000 </r>
       <r>   -59.5345     0.0000   216.0000 </r>
       <r>   -59.2774     0.0000   216.0000 </r>
       <r>   -59.0203     0.0000   216.0000 </r>
       <r>   -58.7631     0.0000   216.0000 </r>
       <r>   -58.5060     0.0000   216.0000 </r>
       <r>   -58.2489     0.0000   216.0000 </r>
       <r>   -57.9918     0.0000   216.0000 </r>
       <r>   -57.7346     0.0000   216.0000 </r>
       <r>   -57.4775     0.0000   216.0000 </r>
       <r>   -57.2204     0.0000   216.0000 </r>
       <r>   -56.9633     0.0000   216.0000 </r>
       <r>   -56.7061     0.0000   216.0000 </r>
       <r>   -56.4490     0.0000   216.0000 </r>
       <r>   -56.1919     0.0000   216.0000 </r>
       <r>   -55.9347     0.0000   216.0000 </r>
       <r>   -55.6776     0.0000   216.0000 </r>
       <r>   -55.4205     0.0000   216.0000 </r>
       <r>   -55.1634     0.0000   216.0000 </r>
       <r>   -54.9062     0.0000   216.0000 </r>
       <r>   -54.6491     0.0000   216.0000 </r>
       <r>   -54.3920     0.0000   216.0000 </r>
       <r>   -54.1348     0.0000   216.0000 </r>
       <r>   -53.8777     0.0000   216.0000 </r>
       <r>   -53.6206     0.0000   216.0000 </r>
       <r>   -53.3635     0.0000   216.0000 </r>
       <r>   -53.1063     0.0000   216.0000 </r>
       <r>   -52.8492     0.0000   216.0000 </r>
       <r>   -52.5921     0.0000   216.0000 </r>
       <r>   -52.3350     0.0000   216.0000 </r>
       <r>   -52.0778     0.0000   216.0000 </r>
       <r>   -51.8207     0.0000   216.0000 </r>
       <r>   -51.5636     0.0000   216.0000 </r>
       <r>   -51.3064     0.0000   216.0000 </r>
       <r>   -51.0493     0.0000   216.0000 </r>
       <r>   -50.7922     0.0000   216.0000 </r>
       <r>   -50.5351     0.0000   216.0000 </r>
       <r>   -50.2779     0.0000   216.0000 </r>
       <r>   -50.0208     0.0000   216.0000 </r>
       <r>   -49.7637     0.0000   216.0000 </r>
       <r>   -49.5065     0.0000   216.0000 </r>
       <r>   -49.2494     0.0000   216.0000 </r>
       <r>   -48.9923     0.0000   216.0000 </r>
       <r>   -48.7352     0.0000   216.0000 </r>
       <r>   -48.4780     0.0000   216.0000 </r>
       <r>   -48.2209     0.0000   216.0000 </r>
       <r>   -47.9638     0.0000   216.0000 </r>
       <r>   -47.7067     0.0000   216.0000 </r>
       <r>   -47.4495     0.0000   216.0000 </r>
       <r>   -47.1924     0.0000   216.0000 </r>
       <r>   -46.9353     0.0000   216.0000 </r>
       <r>   -46.6781     0.0000   216.0000 </r>
       <r>   -46.4210     0.0000   216.0000 </r>
       <r>   -46.1639     0.0000   216.0000 </r>
       <r>   -45.9068     0.0000   216.0000 </r>
       <r>   -45.6496     0.0000   216.0000 </r>
       <r>   -45.3925     0.0000   216.0000 </r>
       <r>   -45.1354     0.0000   216.0000 </r>
       <r>   -44.8783     0.0000   216.0000 </r>
       <r>   -44.6211     0.0000   216.0000 </r>
       <r>   -44.3640     0.0000   216.0000 </r>
       <r>   -44.1069     0.0000   216.0000 </r>
       <r>   -43.8497     0.0000   216.0000 </r>
       <r>   -43.5926     0.0000   216.0000 </r>
       <r>   -43.3355     0.0000   216.0000 </r>
       <r>   -43.0784     0.0000   216.0000 </r>
       <r>   -42.8212     0.0000   216.0000 </r>
       <r>   -42.5641     0.0000   216.0000 </r>
       <r>   -42.3070     0.0000   216.0000 </r>
       <r>   -42.0498     0.0000   216.0000 </r>
       <r>   -41.7927     0.0000   216.0000 </r>
       <r>   -41.5356     0.0000   216.0000 </r>
       <r>   -41.2785     0.0000   216.0000 </r>
       <r>   -41.0213     0.0000   216.0000 </r>
       <r>   -40.7642     0.0000   216.0000 </r>
       <r>   -40.5071     0.0000   216.0000 </r>
       <r>   -40.2500     0.0000   216.0000 </r>
       <r>   -39.9928     0.0000   216.0000 </r>
       <r>   -39.7357     0.0000   216.0000 </r>
       <r>   -39.4786     0.0000   216.0000 </r>
       <r>   -39.2214     0.0000   216.0000 </r>
       <r>   -38.9643     0.0000   216.0000 </r>
       <r>   -38.7072     0.0000   216.0000 </r>
       <r>   -38.4501     0.0000   216.0000 </r>
       <r>   -38.1929     0.0000   216.0000 </r>
       <r>   -37.9358     0.0000   216.0000 </r>
       <r>   -37.6787     0.0000   216.0000 </r>
       <r>   -37.4216     0.0000   216.0000 </r>
       <r>   -37.1644     0.0000   216.0000 </r>
       <r>   -36.9073     0.0000   216.0000 </r>
       <r>   -36.6502     0.0000   216.0000 </r>
       <r>   -36.3930     0.0000   216.0000 </r>
       <r>   -36.1359     0.0000   216.0000 </r>
       <r>   -35.8788     0.0000   216.0000 </r>
       <r>   -35.6217     0.0000   216.0000 </r>
       <r>   -35.3645     0.0000   216.0000 </r>
       <r>   -35.1074     0.0000   216.0000 </r>
       <r>   -34.8503     0.0000   216.0000 </r>
       <r>   -34.5931     0.0000   216.0000 </r>
       <r>   -34.3360     0.0000   216.0000 </r>
       <r>   -34.0789     0.0000   216.0000 </r>
       <r>   -33.8218     0.0000   216.0000 </r>
       <r>   -33.5646     0.0000   216.0000 </r>
       <r>   -33.3075     0.0000   216.0000 </r>
       <r>   -33.0504     0.0000   216.0000 </r>
       <r>   -32.7933     0.0000   216.0000 </r>
       <r>   -32.5361     0.0000   216.0000 </r>
       <r>   -32.2790     0.0000   216.0000 </r>
       <r>   -32.0219     0.0000   216.0000 </r>
       <r>   -31.7647     0.0000   216.0000 </r>
       <r>   -31.5076     0.0000   216.0000 </r>
       <r>   -31.2505     0.0000   216.0000 </r>
       <r>   -30.9934     0.0000   216.0000 </r>
       <r>   -30.7362     0.0000   216.0000 </r>
       <r>   -30.4791     0.0000   216.0000 </r>
       <r>   -30.2220     0.0000   216.0000 </r>
       <r>   -29.9649     0.0000   216.0000 </r>
       <r>   -29.7077     0.0000   216.0000 </r>
       <r>   -29.4506     0.0000   216.0000 </r>
       <r>   -29.1935     0.0000   216.0000 </r>
       <r>   -28.9363     0.0000   216.0000 </r>
       <r>   -28.6792     0.0000   216.0000 </r>
       <r>   -28.4221     0.0000   216.0000 </r>
       <r>   -28.1650     0.0000   216.0000 </r>
       <r>   -27.9078     0.0000   216.0000 </r>
       <r>   -27.6507     0.0000   216.0000 </r>
       <r>   -27.3936     0.0000   216.0000 </r>
       <r>   -27.1364     0.0000   216.0000 </r>
       <r>   -26.8793     0.0000   216.0000 </r>
       <r>   -26.6222     0.0000   216.0000 </r>
       <r>   -26.3651     0.0000   216.0000 </r>
       <r>   -26.1079     0.0000   216.0000 </r>
       <r>   -25.8508     0.0000   216.0000 </r>
       <r>   -25.5937     0.0000   216.0000 </r>
       <r>   -25.3366     0.0000   216.0000 </r>
       <r>   -25.0794     0.0000   216.0000 </r>
       <r>   -24.8223     0.0000   216.0000 </r>
       <r>   -24.5652     0.0000   216.0000 </r>
       <r>   -24.3080     0.0000   216.0000 </r>
       <r>   -24.0509     0.0000   216.0000 </r>
       <r>   -23.7938     0.0000   216.0000 </r>
       <r>   -23.5367     0.0000   216.0000 </r>
       <r>   -23.2795     0.0000   216.0000 </r>
       <r>   -23.0224     0.0000   216.0000 </r>
       <r>   -22.7653     0.0000   216.0000 </r>
       <r>   -22.5082     0.0000   216.0000 </r>
       <r>   -22.2510     0.0000   216.0000 </r>
       <r>   -21.9939     0.0000   216.0000 </r>
       <r>   -21.7368     0.0000   216.0000 </r>
       <r>   -21.4796     0.0000   216.0000 </r>
       <r>   -21.2225     0.0000   216.0000 </r>
       <r>   -20.9654     0.0000   216.0000 </r>
       <r>   -20.7083     0.0000   216.0000 </r>
       <r>   -20.4511     0.0000   216.0000 </r>
       <r>   -20.1940     0.0000   216.0000 </r>
       <r>   -19.9369     0.0000   216.0000 </r>
       <r>   -19.6797     0.0000   216.0000 </r>
       <r>   -19.4226     0.0000   216.0000 </r>
       <r>   -19.1655     0.0000   216.0000 </r>
       <r>   -18.9084     0.0000   216.0000 </r>
       <r>   -18.6512     0.0000   216.0000 </r>
       <r>   -18.3941     0.0000   216.0000 </r>
       <r>   -18.1370     0.0000   216.0000 </r>
       <r>   -17.8799     0.0000   216.0000 </r>
       <r>   -17.6227     0.0000   216.0000 </r>
       <r>   -17.3656     0.0000   216.0000 </r>
       <r>   -17.1085     0.0000   216.0000 </r>
       <r>   -16.8513     0.0000   216.0000 </r>
       <r>   -16.5942     0.0000   216.0000 </r>
       <r>   -16.3371     0.0000   216.0000 </r>
       <r>   -16.0800     0.0000   216.0000 </r>
       <r>   -15.8228     0.0012   216.0003 </r>
       <r>   -15.5657     0.2820   216.0728 </r>
       <r>   -15.3086     4.0069   217.1031 </r>
       <r>   -15.0514     9.2447   219.4802 </r>
       <r>   -14.7943     9.6445   221.9600 </r>
       <r>   -14.5372    12.0897   225.0686 </r>
       <r>   -14.2801    21.0151   230.4722 </r>
       <r>   -14.0229    26.5773   237.3059 </r>
       <r>   -13.7658    29.2059   244.8156 </r>
       <r>   -13.5087    21.6455   250.3813 </r>
       <r>   -13.2516    20.2919   255.5988 </r>
       <r>   -12.9944    25.6071   262.1831 </r>
       <r>   -12.7373    30.1298   269.9303 </r>
       <r>   -12.4802    23.1871   275.8924 </r>
       <r>   -12.2230    17.2611   280.3307 </r>
       <r>   -11.9659    15.7064   284.3692 </r>
       <r>   -11.7088    11.5978   287.3513 </r>
       <r>   -11.4517     2.4828   287.9897 </r>
       <r>   -11.1945     0.0398   288.0000 </r>
       <r>   -10.9374     0.0000   288.0000 </r>
       <r>   -10.6803     0.0000   288.0000 </r>
       <r>   -10.4232     0.0000   288.0000 </r>
       <r>   -10.1660     0.0000   288.0000 </r>
       <r>    -9.9089     0.0000   288.0000 </r>
       <r>    -9.6518     0.0000   288.0000 </r>
       <r>    -9.3946     0.0000   288.0000 </r>
       <r>    -9.1375     0.0000   288.0000 </r>
       <r>    -8.8804     0.0000   288.0000 </r>
       <r>    -8.6233     0.0000   288.0000 </r>
       <r>    -8.3661     0.0000   288.0000 </r>
       <r>    -8.1090     0.0000   288.0000 </r>
       <r>    -7.8519     0.0000   288.0000 </r>
       <r>    -7.5947     0.0005   288.0001 </r>
       <r>    -7.3376     0.2795   288.0720 </r>
       <r>    -7.0805     8.6523   290.2967 </r>
       <r>    -6.8234    23.6829   296.3863 </r>
       <r>    -6.5662    20.6304   301.6909 </r>
       <r>    -6.3091    40.7703   312.1741 </r>
       <r>    -6.0520    40.3474   322.5485 </r>
       <r>    -5.7949    41.7833   333.2921 </r>
       <r>    -5.5377    49.7024   346.0720 </r>
       <r>    -5.2806    43.1961   357.1789 </r>
       <r>    -5.0235    42.5577   368.1216 </r>
       <r>    -4.7663    45.6077   379.8486 </r>
       <r>    -4.5092    55.0927   394.0145 </r>
       <r>    -4.2521    50.9162   407.1064 </r>
       <r>    -3.9950    61.1975   422.8420 </r>
       <r>    -3.7378    62.5385   438.9224 </r>
       <r>    -3.4807    63.0953   455.1459 </r>
       <r>    -3.2236    68.1053   472.6577 </r>
       <r>    -2.9665    60.3952   488.1870 </r>
       <r>    -2.7093    65.0576   504.9150 </r>
       <r>    -2.4522    88.5362   527.6802 </r>
       <r>    -2.1951   123.1154   559.3365 </r>
       <r>    -1.9379   148.3304   597.4764 </r>
       <r>    -1.6808   164.0641   639.6618 </r>
       <r>    -1.4237   155.6894   679.6938 </r>
       <r>    -1.1666   124.9631   711.8253 </r>
       <r>    -0.9094   114.2365   741.1986 </r>
       <r>    -0.6523   109.6907   769.4031 </r>
       <r>    -0.3952    84.9987   791.2587 </r>
       <r>    -0.1380    62.2733   807.2708 </r>
       <r>     0.1191    52.5794   820.7905 </r>
       <r>     0.3762    54.6161   834.8338 </r>
       <r>     0.6333    56.5972   849.3865 </r>
       <r>     0.8905    55.0321   863.5367 </r>
       <r>     1.1476    27.4810   870.6029 </r>
       <r>     1.4047     8.7817   872.8609 </r>
       <r>     1.6618     4.5391   874.0280 </r>
       <r>     1.9190     6.4597   875.6890 </r>
       <r>     2.1761    10.0564   878.2748 </r>
       <r>     2.4332    10.5209   880.9800 </r>
       <r>     2.6904     5.7099   882.4482 </r>
       <r>     2.9475     9.7204   884.9475 </r>
       <r>     3.2046    11.7278   887.9631 </r>
       <r>     3.4617    11.0697   890.8094 </r>
       <r>     3.7189    17.2029   895.2327 </r>
       <r>     3.9760    24.5610   901.5481 </r>
       <r>     4.2331    32.0098   909.7787 </r>
       <r>     4.4902    29.7424   917.4263 </r>
       <r>     4.7474    31.1337   925.4316 </r>
       <r>     5.0045    30.4069   933.2501 </r>
       <r>     5.2616    36.5401   942.6455 </r>
       <r>     5.5188    42.4250   953.5542 </r>
       <r>     5.7759    23.0139   959.4717 </r>
       <r>     6.0330     2.0384   959.9958 </r>
       <r>     6.2901     0.0163   960.0000 </r>
       <r>     6.5473     0.0000   960.0000 </r>
       <r>     6.8044     0.0000   960.0000 </r>
       <r>     7.0615     0.0000   960.0000 </r>
       <r>     7.3187     0.0000   960.0000 </r>
       <r>     7.5758     0.0000   960.0000 </r>
       <r>     7.8329     0.0000   960.0000 </r>
       <r>     8.0900     0.0000   960.0000 </r>
       <r>     8.3472     0.0000   960.0000 </r>
       <r>     8.6043     0.0000   960.0000 </r>
       <r>     8.8614     0.0000   960.0000 </r>
       <r>     9.1185     0.0000   960.0000 </r>
      </set>
     </set>
    </array>
   </total>
  </dos>
 </calculation>
 <structure name="finalpos" >
  <crystal>
   <varray name="basis" >
    <v>      16.88469405       0.00000000       0.00000000 </v>
    <v>       0.00000000       9.57841000       0.00000000 </v>
    <v>       0.00000000       0.00000000      16.17386302 </v>
   </varray>
   <i name="volume">   2615.77496754 </i>
   <varray name="rec_basis" >
    <v>       0.05922524       0.00000000       0.00000000 </v>
    <v>       0.00000000       0.10440146       0.00000000 </v>
    <v>       0.00000000       0.00000000       0.06182815 </v>
   </varray>
  </crystal>
  <varray name="positions" >
   <v>       0.06497261       0.92341313       0.30979220 </v>
   <v>       0.09954057       0.92341313       0.11908059 </v>
   <v>       0.58225659       0.42341313       0.21443640 </v>
   <v>       0.61682455       0.42341313       0.02372478 </v>
   <v>       0.23740060       0.42341313       0.27800694 </v>
   <v>       0.27196856       0.42341313       0.08729532 </v>
   <v>       0.72011663       0.92341313       0.37336274 </v>
   <v>       0.75468458       0.92341313       0.18265113 </v>
   <v>       0.40982860       0.92341313       0.24622167 </v>
   <v>       0.44439655       0.92341313       0.05551005 </v>
   <v>       0.89254462       0.42341313       0.34157747 </v>
   <v>       0.92711258       0.42341313       0.15086586 </v>
   <v>       0.42015216       0.55551613       0.37995444 </v>
   <v>       0.45472012       0.55551613       0.18924282 </v>
   <v>       0.93743614       0.05551613       0.28459863 </v>
   <v>       0.97200410       0.05551613       0.09388701 </v>
   <v>       0.10986414       0.55551613       0.25281336 </v>
   <v>       0.14443209       0.55551613       0.06210174 </v>
   <v>       0.59258016       0.05551613       0.34816917 </v>
   <v>       0.62714811       0.05551613       0.15745755 </v>
   <v>       0.28229213       0.05551613       0.22102809 </v>
   <v>       0.31686009       0.05551613       0.03031647 </v>
   <v>       0.76500815       0.55551613       0.31638390 </v>
   <v>       0.79957611       0.55551613       0.12567228 </v>
   <v>       0.06497261       0.18761913       0.30979220 </v>
   <v>       0.09954057       0.18761913       0.11908059 </v>
   <v>       0.58225659       0.68761913       0.21443640 </v>
   <v>       0.61682455       0.68761913       0.02372478 </v>
   <v>       0.23740060       0.68761913       0.27800694 </v>
   <v>       0.27196856       0.68761913       0.08729532 </v>
   <v>       0.72011663       0.18761913       0.37336274 </v>
   <v>       0.75468458       0.18761913       0.18265113 </v>
   <v>       0.40982860       0.18761913       0.24622167 </v>
   <v>       0.44439655       0.18761913       0.05551005 </v>
   <v>       0.89254462       0.68761913       0.34157747 </v>
   <v>       0.92711258       0.68761913       0.15086586 </v>
   <v>       0.02101885       0.22373113       0.00000000 </v>
   <v>       0.46916691       0.72373113       0.28606742 </v>
   <v>       0.50373487       0.72373113       0.09535581 </v>
   <v>       0.95188293       0.22373113       0.38142323 </v>
   <v>       0.98645089       0.22373113       0.19071162 </v>
   <v>       0.12431093       0.72373113       0.34963796 </v>
   <v>       0.15887888       0.72373113       0.15892635 </v>
   <v>       0.64159490       0.22373113       0.25428215 </v>
   <v>       0.67616286       0.22373113       0.06357054 </v>
   <v>       0.29673892       0.22373113       0.31785269 </v>
   <v>       0.33130688       0.22373113       0.12714108 </v>
   <v>       0.81402290       0.72373113       0.22249689 </v>
   <v>       0.84859085       0.72373113       0.03178527 </v>
   <v>       0.14885104       0.05551613       0.22279217 </v>
   <v>       0.18341900       0.05551613       0.03208056 </v>
   <v>       0.63156706       0.55551613       0.31814798 </v>
   <v>       0.66613502       0.55551613       0.12743636 </v>
   <v>       0.32127903       0.55551613       0.19100690 </v>
   <v>       0.35584699       0.55551613       0.00029528 </v>
   <v>       0.80399506       0.05551613       0.28636271 </v>
   <v>       0.83856301       0.05551613       0.09565109 </v>
   <v>       0.01099101       0.55551613       0.06386582 </v>
   <v>       0.49370703       0.05551613       0.15922163 </v>
   <v>       0.97642305       0.55551613       0.25457744 </v>
   <v>       0.02101885       0.88730113       0.00000000 </v>
   <v>       0.50373487       0.38730113       0.09535581 </v>
   <v>       0.95188293       0.88730113       0.38142323 </v>
   <v>       0.98645089       0.88730113       0.19071162 </v>
   <v>       0.12431093       0.38730113       0.34963796 </v>
   <v>       0.15887888       0.38730113       0.15892635 </v>
   <v>       0.64159490       0.88730113       0.25428215 </v>
   <v>       0.67616286       0.88730113       0.06357054 </v>
   <v>       0.29673892       0.88730113       0.31785269 </v>
   <v>       0.33130688       0.88730113       0.12714108 </v>
   <v>       0.81402290       0.38730113       0.22249689 </v>
   <v>       0.84859085       0.38730113       0.03178527 </v>
  </varray>
 </structure>
</modeling>
