"Millerite NiS"                         
           1
    16.884694    0.000000    0.000000
     0.000000    9.578410    0.000000
     0.000000    0.000000   16.164311
   Ni   S 
    36    36
Direct configuration=     1
   0.78004630  0.14529696  0.09688182
   0.81461426  0.14529696  0.28770613
   0.26276233  0.64529696  0.00146967
   0.29733028  0.64529696  0.19229398
   0.43519032  0.14529696  0.03327372
   0.46975828  0.14529696  0.22409803
   0.95247430  0.64529696  0.12868587
   0.98704225  0.64529696  0.31951018
   0.12490229  0.14529696  0.16048993
   0.15947025  0.14529696  0.35131424
   0.60761831  0.64529696  0.06507777
   0.64218627  0.64529696  0.25590208
   0.90758277  0.01319396  0.07167336
   0.94215073  0.01319396  0.26249767
   0.42486675  0.51319396  0.16708551
   0.45943471  0.51319396  0.35790982
   0.56272679  0.01319396  0.00806525
   0.59729475  0.01319396  0.19888957
   0.08001077  0.51319396  0.10347741
   0.11457872  0.51319396  0.29430172
   0.25243876  0.01319396  0.13528146
   0.28700672  0.01319396  0.32610577
   0.73515478  0.51319396  0.03986931
   0.76972274  0.51319396  0.23069362
   0.90758277  0.27739996  0.07167336
   0.94215073  0.27739996  0.26249767
   0.42486675  0.77739996  0.16708551
   0.45943471  0.77739996  0.35790982
   0.56272679  0.27739996  0.00806525
   0.59729475  0.27739996  0.19888957
   0.08001077  0.77739996  0.10347741
   0.11457872  0.77739996  0.29430172
   0.25243876  0.27739996  0.13528146
   0.28700672  0.27739996  0.32610577
   0.73515478  0.77739996  0.03986931
   0.76972274  0.77739996  0.23069362
   0.02602916  0.14529696  0.34954911
   0.99146120  0.14529696  0.15872480
   0.47417722  0.64529696  0.06331264
   0.50874518  0.64529696  0.25413696
   0.64660522  0.14529696  0.09511670
   0.68117317  0.14529696  0.28594101
   0.16388920  0.64529696  0.19052885
   0.19845715  0.64529696  0.38135316
   0.30174923  0.14529696  0.03150859
   0.33631719  0.14529696  0.22233290
   0.81903321  0.64529696  0.12692075
   0.85360117  0.64529696  0.31774506
   0.79449310  0.31351196  0.00000000
   0.82906105  0.31351196  0.19082431
   0.31177707  0.81351196  0.09541216
   0.34634503  0.81351196  0.28623647
   0.48420507  0.31351196  0.12721621
   0.51877302  0.31351196  0.31804052
   0.00148905  0.81351196  0.22262836
   0.96692109  0.81351196  0.03180405
   0.13934908  0.31351196  0.06360810
   0.17391704  0.31351196  0.25443241
   0.65663306  0.81351196  0.15902026
   0.69120102  0.81351196  0.34984457
   0.31177707  0.47708196  0.09541216
   0.34634503  0.47708196  0.28623647
   0.79449310  0.97708196  0.00000000
   0.82906105  0.97708196  0.19082431
   0.00148905  0.47708196  0.22262836
   0.96692109  0.47708196  0.03180405
   0.48420507  0.97708196  0.12721621
   0.51877302  0.97708196  0.31804052
   0.65663306  0.47708196  0.15902026
   0.69120102  0.47708196  0.34984457
   0.13934908  0.97708196  0.06360810
   0.17391704  0.97708196  0.25443241
