LAMMPS (5 Jun 2019)
OMP_NUM_THREADS environment is not set. Defaulting to 1 thread. (../comm.cpp:88)
  using 1 OpenMP thread(s) per MPI task
Reading data file ...
  triclinic box = (0 0 0) to (10.0797 9.4251 20.6835) with tilt (3.5733 0 0)
  1 by 1 by 1 MPI processor grid
  reading atoms ...
  72 atoms
  read_data CPU = 0.00062713 secs
44 atoms in group bulk
WARNING: Using 'neigh_modify every 1 delay 0 check yes' setting during minimization (../min.cpp:168)
Neighbor list info ...
  update every 1 steps, delay 0 steps, check yes
  max neighbors/atom: 2000, page size: 100000
  master list distance cutoff = 8.5
  ghost atom cutoff = 8.5
  binsize = 4.25, bins = 4 3 5
  1 neighbor lists, perpetual/occasional/extra = 1 0 0
  (1) pair eam/alloy, perpetual
      attributes: half, newton on
      pair build: half/bin/newton/tri
      stencil: half/bin/3d/newton/tri
      bin: standard
Setting up cg style minimization ...
  Unit style    : metal
  Current step  : 0
Per MPI rank memory allocation (min/avg/max) = 4.113 | 4.113 | 4.113 Mbytes
Step Temp E_pair E_mol TotEng Press 
       0            0   -306.15081            0   -306.15081   -127980.51 
      57            0   -325.71156            0   -325.71156   -42274.737 
Loop time of 0.0328541 on 1 procs for 57 steps with 72 atoms

98.8% CPU use with 1 MPI tasks x 1 OpenMP threads

Minimization stats:
  Stopping criterion = energy tolerance
  Energy initial, next-to-last, final = 
         -306.15080773     -325.710257608     -325.711557937
  Force two-norm initial, final = 11.228 0.134222
  Force max component initial, final = 3.06719 0.051193
  Final line search alpha, max atom move = 0.50172 0.0256846
  Iterations, force evaluations = 57 86

MPI task timing breakdown:
Section |  min time  |  avg time  |  max time  |%varavg| %total
---------------------------------------------------------------
Pair    | 0.030286   | 0.030286   | 0.030286   |   0.0 | 92.18
Neigh   | 0.0013069  | 0.0013069  | 0.0013069  |   0.0 |  3.98
Comm    | 0.00070581 | 0.00070581 | 0.00070581 |   0.0 |  2.15
Output  | 0          | 0          | 0          |   0.0 |  0.00
Modify  | 4.7013e-05 | 4.7013e-05 | 4.7013e-05 |   0.0 |  0.14
Other   |            | 0.0005088  |            |       |  1.55

Nlocal:    72 ave 72 max 72 min
Histogram: 1 0 0 0 0 0 0 0 0 0
Nghost:    959 ave 959 max 959 min
Histogram: 1 0 0 0 0 0 0 0 0 0
Neighs:    4822 ave 4822 max 4822 min
Histogram: 1 0 0 0 0 0 0 0 0 0

Total # of neighbors = 4822
Ave neighs/atom = 66.9722
Neighbor list builds = 3
Dangerous builds = 0
System init for write_data ...
Total wall time: 0:00:00
