  74  74   0   0
  0.3639907E+02  0.1688469E-08  0.9578410E-09  0.1665465E-08  0.5000000E-15
  1.000000000000000E-004
  CAR 
 "Millerite NiS"                         
      9.25865846    -68.68181868  301     -0.19878141      1.00000000
    -68.682  0.0000E+00  0.0000E+00
    -68.422  0.0000E+00  0.0000E+00
    -68.162  0.0000E+00  0.0000E+00
    -67.902  0.0000E+00  0.0000E+00
    -67.643  0.0000E+00  0.0000E+00
    -67.383  0.0000E+00  0.0000E+00
    -67.123  0.0000E+00  0.0000E+00
    -66.863  0.0000E+00  0.0000E+00
    -66.603  0.0000E+00  0.0000E+00
    -66.344  0.0000E+00  0.0000E+00
    -66.084  0.9653E-10  0.2508E-10
    -65.824  0.5474E-05  0.1422E-05
    -65.564  0.1288E-01  0.3347E-02
    -65.304  0.1661E+01  0.4348E+00
    -65.045  0.2605E+02  0.7202E+01
    -64.785  0.1117E+03  0.3621E+02
    -64.525  0.2123E+03  0.9136E+02
    -64.265  0.2424E+03  0.1543E+03
    -64.005  0.1457E+03  0.1922E+03
    -63.746  0.6319E+02  0.2086E+03
    -63.486  0.3609E+02  0.2180E+03
    -63.226  0.1424E+02  0.2217E+03
    -62.966  0.1271E+01  0.2220E+03
    -62.706  0.1108E-01  0.2220E+03
    -62.447  0.5043E-05  0.2220E+03
    -62.187  0.9295E-10  0.2220E+03
    -61.927  0.0000E+00  0.2220E+03
    -61.667  0.0000E+00  0.2220E+03
    -61.407  0.0000E+00  0.2220E+03
    -61.148  0.0000E+00  0.2220E+03
    -60.888  0.0000E+00  0.2220E+03
    -60.628  0.0000E+00  0.2220E+03
    -60.368  0.0000E+00  0.2220E+03
    -60.108  0.0000E+00  0.2220E+03
    -59.849  0.0000E+00  0.2220E+03
    -59.589  0.0000E+00  0.2220E+03
    -59.329  0.0000E+00  0.2220E+03
    -59.069  0.0000E+00  0.2220E+03
    -58.809  0.0000E+00  0.2220E+03
    -58.550  0.0000E+00  0.2220E+03
    -58.290  0.0000E+00  0.2220E+03
    -58.030  0.0000E+00  0.2220E+03
    -57.770  0.0000E+00  0.2220E+03
    -57.510  0.0000E+00  0.2220E+03
    -57.251  0.0000E+00  0.2220E+03
    -56.991  0.0000E+00  0.2220E+03
    -56.731  0.0000E+00  0.2220E+03
    -56.471  0.0000E+00  0.2220E+03
    -56.211  0.0000E+00  0.2220E+03
    -55.952  0.0000E+00  0.2220E+03
    -55.692  0.0000E+00  0.2220E+03
    -55.432  0.0000E+00  0.2220E+03
    -55.172  0.0000E+00  0.2220E+03
    -54.912  0.0000E+00  0.2220E+03
    -54.653  0.0000E+00  0.2220E+03
    -54.393  0.0000E+00  0.2220E+03
    -54.133  0.0000E+00  0.2220E+03
    -53.873  0.0000E+00  0.2220E+03
    -53.613  0.0000E+00  0.2220E+03
    -53.354  0.0000E+00  0.2220E+03
    -53.094  0.0000E+00  0.2220E+03
    -52.834  0.0000E+00  0.2220E+03
    -52.574  0.0000E+00  0.2220E+03
    -52.314  0.0000E+00  0.2220E+03
    -52.055  0.0000E+00  0.2220E+03
    -51.795  0.0000E+00  0.2220E+03
    -51.535  0.0000E+00  0.2220E+03
    -51.275  0.0000E+00  0.2220E+03
    -51.015  0.0000E+00  0.2220E+03
    -50.756  0.0000E+00  0.2220E+03
    -50.496  0.0000E+00  0.2220E+03
    -50.236  0.0000E+00  0.2220E+03
    -49.976  0.0000E+00  0.2220E+03
    -49.716  0.0000E+00  0.2220E+03
    -49.457  0.0000E+00  0.2220E+03
    -49.197  0.0000E+00  0.2220E+03
    -48.937  0.0000E+00  0.2220E+03
    -48.677  0.0000E+00  0.2220E+03
    -48.417  0.0000E+00  0.2220E+03
    -48.157  0.0000E+00  0.2220E+03
    -47.898  0.0000E+00  0.2220E+03
    -47.638  0.0000E+00  0.2220E+03
    -47.378  0.0000E+00  0.2220E+03
    -47.118  0.0000E+00  0.2220E+03
    -46.858  0.0000E+00  0.2220E+03
    -46.599  0.0000E+00  0.2220E+03
    -46.339  0.0000E+00  0.2220E+03
    -46.079  0.0000E+00  0.2220E+03
    -45.819  0.0000E+00  0.2220E+03
    -45.559  0.0000E+00  0.2220E+03
    -45.300  0.0000E+00  0.2220E+03
    -45.040  0.0000E+00  0.2220E+03
    -44.780  0.0000E+00  0.2220E+03
    -44.520  0.0000E+00  0.2220E+03
    -44.260  0.0000E+00  0.2220E+03
    -44.001  0.0000E+00  0.2220E+03
    -43.741  0.0000E+00  0.2220E+03
    -43.481  0.0000E+00  0.2220E+03
    -43.221  0.0000E+00  0.2220E+03
    -42.961  0.0000E+00  0.2220E+03
    -42.702  0.0000E+00  0.2220E+03
    -42.442  0.0000E+00  0.2220E+03
    -42.182  0.0000E+00  0.2220E+03
    -41.922  0.0000E+00  0.2220E+03
    -41.662  0.0000E+00  0.2220E+03
    -41.403  0.0000E+00  0.2220E+03
    -41.143  0.0000E+00  0.2220E+03
    -40.883  0.0000E+00  0.2220E+03
    -40.623  0.0000E+00  0.2220E+03
    -40.363  0.0000E+00  0.2220E+03
    -40.104  0.0000E+00  0.2220E+03
    -39.844  0.0000E+00  0.2220E+03
    -39.584  0.0000E+00  0.2220E+03
    -39.324  0.0000E+00  0.2220E+03
    -39.064  0.0000E+00  0.2220E+03
    -38.805  0.0000E+00  0.2220E+03
    -38.545  0.0000E+00  0.2220E+03
    -38.285  0.0000E+00  0.2220E+03
    -38.025  0.0000E+00  0.2220E+03
    -37.765  0.0000E+00  0.2220E+03
    -37.506  0.0000E+00  0.2220E+03
    -37.246  0.0000E+00  0.2220E+03
    -36.986  0.0000E+00  0.2220E+03
    -36.726  0.0000E+00  0.2220E+03
    -36.466  0.0000E+00  0.2220E+03
    -36.207  0.0000E+00  0.2220E+03
    -35.947  0.0000E+00  0.2220E+03
    -35.687  0.0000E+00  0.2220E+03
    -35.427  0.0000E+00  0.2220E+03
    -35.167  0.0000E+00  0.2220E+03
    -34.908  0.0000E+00  0.2220E+03
    -34.648  0.0000E+00  0.2220E+03
    -34.388  0.0000E+00  0.2220E+03
    -34.128  0.0000E+00  0.2220E+03
    -33.868  0.0000E+00  0.2220E+03
    -33.609  0.0000E+00  0.2220E+03
    -33.349  0.0000E+00  0.2220E+03
    -33.089  0.0000E+00  0.2220E+03
    -32.829  0.0000E+00  0.2220E+03
    -32.569  0.0000E+00  0.2220E+03
    -32.310  0.0000E+00  0.2220E+03
    -32.050  0.0000E+00  0.2220E+03
    -31.790  0.0000E+00  0.2220E+03
    -31.530  0.0000E+00  0.2220E+03
    -31.270  0.0000E+00  0.2220E+03
    -31.011  0.0000E+00  0.2220E+03
    -30.751  0.0000E+00  0.2220E+03
    -30.491  0.0000E+00  0.2220E+03
    -30.231  0.0000E+00  0.2220E+03
    -29.971  0.0000E+00  0.2220E+03
    -29.712  0.0000E+00  0.2220E+03
    -29.452  0.0000E+00  0.2220E+03
    -29.192  0.0000E+00  0.2220E+03
    -28.932  0.0000E+00  0.2220E+03
    -28.672  0.0000E+00  0.2220E+03
    -28.413  0.0000E+00  0.2220E+03
    -28.153  0.0000E+00  0.2220E+03
    -27.893  0.0000E+00  0.2220E+03
    -27.633  0.0000E+00  0.2220E+03
    -27.373  0.0000E+00  0.2220E+03
    -27.114  0.0000E+00  0.2220E+03
    -26.854  0.0000E+00  0.2220E+03
    -26.594  0.0000E+00  0.2220E+03
    -26.334  0.0000E+00  0.2220E+03
    -26.074  0.0000E+00  0.2220E+03
    -25.815  0.0000E+00  0.2220E+03
    -25.555  0.0000E+00  0.2220E+03
    -25.295  0.0000E+00  0.2220E+03
    -25.035  0.0000E+00  0.2220E+03
    -24.775  0.0000E+00  0.2220E+03
    -24.516  0.0000E+00  0.2220E+03
    -24.256  0.0000E+00  0.2220E+03
    -23.996  0.0000E+00  0.2220E+03
    -23.736  0.0000E+00  0.2220E+03
    -23.476  0.0000E+00  0.2220E+03
    -23.217  0.0000E+00  0.2220E+03
    -22.957  0.0000E+00  0.2220E+03
    -22.697  0.0000E+00  0.2220E+03
    -22.437  0.0000E+00  0.2220E+03
    -22.177  0.0000E+00  0.2220E+03
    -21.918  0.0000E+00  0.2220E+03
    -21.658  0.0000E+00  0.2220E+03
    -21.398  0.0000E+00  0.2220E+03
    -21.138  0.0000E+00  0.2220E+03
    -20.878  0.0000E+00  0.2220E+03
    -20.619  0.0000E+00  0.2220E+03
    -20.359  0.0000E+00  0.2220E+03
    -20.099  0.0000E+00  0.2220E+03
    -19.839  0.0000E+00  0.2220E+03
    -19.579  0.0000E+00  0.2220E+03
    -19.320  0.0000E+00  0.2220E+03
    -19.060  0.0000E+00  0.2220E+03
    -18.800  0.0000E+00  0.2220E+03
    -18.540  0.0000E+00  0.2220E+03
    -18.280  0.0000E+00  0.2220E+03
    -18.021  0.0000E+00  0.2220E+03
    -17.761  0.3504E-13  0.2220E+03
    -17.501  0.1289E-07  0.2220E+03
    -17.241  0.1760E-03  0.2220E+03
    -16.981  0.9655E-01  0.2220E+03
    -16.722  0.2553E+01  0.2227E+03
    -16.462  0.5223E+01  0.2240E+03
    -16.202  0.8677E+01  0.2263E+03
    -15.942  0.9665E+01  0.2288E+03
    -15.682  0.1117E+02  0.2317E+03
    -15.422  0.1872E+02  0.2366E+03
    -15.163  0.1612E+02  0.2408E+03
    -14.903  0.2668E+02  0.2477E+03
    -14.643  0.2990E+02  0.2555E+03
    -14.383  0.3115E+02  0.2636E+03
    -14.123  0.2015E+02  0.2688E+03
    -13.864  0.2765E+02  0.2760E+03
    -13.604  0.2486E+02  0.2824E+03
    -13.344  0.2070E+02  0.2878E+03
    -13.084  0.1595E+02  0.2920E+03
    -12.824  0.1218E+02  0.2951E+03
    -12.565  0.3273E+01  0.2960E+03
    -12.305  0.1228E+00  0.2960E+03
    -12.045  0.2567E-03  0.2960E+03
    -11.785  0.2197E-07  0.2960E+03
    -11.525  0.7008E-13  0.2960E+03
    -11.266  0.0000E+00  0.2960E+03
    -11.006  0.0000E+00  0.2960E+03
    -10.746  0.0000E+00  0.2960E+03
    -10.486  0.0000E+00  0.2960E+03
    -10.226  0.0000E+00  0.2960E+03
     -9.967  0.0000E+00  0.2960E+03
     -9.707  0.0000E+00  0.2960E+03
     -9.447  0.6536E-10  0.2960E+03
     -9.187  0.3827E-05  0.2960E+03
     -8.927  0.8659E-02  0.2960E+03
     -8.668  0.8792E+00  0.2962E+03
     -8.408  0.6849E+01  0.2980E+03
     -8.148  0.1355E+02  0.3015E+03
     -7.888  0.2222E+02  0.3073E+03
     -7.628  0.3428E+02  0.3162E+03
     -7.369  0.3715E+02  0.3259E+03
     -7.109  0.3683E+02  0.3354E+03
     -6.849  0.3607E+02  0.3448E+03
     -6.589  0.4000E+02  0.3552E+03
     -6.329  0.4982E+02  0.3681E+03
     -6.070  0.5214E+02  0.3817E+03
     -5.810  0.5346E+02  0.3956E+03
     -5.550  0.5564E+02  0.4100E+03
     -5.290  0.5961E+02  0.4255E+03
     -5.030  0.6860E+02  0.4433E+03
     -4.771  0.6884E+02  0.4612E+03
     -4.511  0.5697E+02  0.4760E+03
     -4.251  0.4838E+02  0.4886E+03
     -3.991  0.4544E+02  0.5004E+03
     -3.731  0.4734E+02  0.5127E+03
     -3.472  0.5804E+02  0.5278E+03
     -3.212  0.6633E+02  0.5450E+03
     -2.952  0.7988E+02  0.5658E+03
     -2.692  0.9552E+02  0.5906E+03
     -2.432  0.1161E+03  0.6207E+03
     -2.173  0.1288E+03  0.6542E+03
     -1.913  0.1194E+03  0.6852E+03
     -1.653  0.1050E+03  0.7125E+03
     -1.393  0.9589E+02  0.7374E+03
     -1.133  0.8316E+02  0.7590E+03
     -0.874  0.6788E+02  0.7767E+03
     -0.614  0.5411E+02  0.7907E+03
     -0.354  0.5508E+02  0.8050E+03
     -0.094  0.5812E+02  0.8201E+03
      0.166  0.5657E+02  0.8348E+03
      0.425  0.4172E+02  0.8457E+03
      0.685  0.3561E+02  0.8549E+03
      0.945  0.4390E+02  0.8663E+03
      1.205  0.4711E+02  0.8785E+03
      1.465  0.2839E+02  0.8859E+03
      1.724  0.7674E+01  0.8879E+03
      1.984  0.1498E+01  0.8883E+03
      2.244  0.4922E+01  0.8896E+03
      2.504  0.1734E+01  0.8900E+03
      2.764  0.4649E+01  0.8912E+03
      3.023  0.1605E+02  0.8954E+03
      3.283  0.1364E+02  0.8990E+03
      3.543  0.1235E+02  0.9022E+03
      3.803  0.1572E+02  0.9063E+03
      4.063  0.1812E+02  0.9110E+03
      4.322  0.2338E+02  0.9170E+03
      4.582  0.3211E+02  0.9254E+03
      4.842  0.4100E+02  0.9360E+03
      5.102  0.4168E+02  0.9469E+03
      5.362  0.4307E+02  0.9580E+03
      5.621  0.4347E+02  0.9693E+03
      5.881  0.2321E+02  0.9754E+03
      6.141  0.2407E+01  0.9760E+03
      6.401  0.2014E-01  0.9760E+03
      6.661  0.8374E-05  0.9760E+03
      6.920  0.1418E-09  0.9760E+03
      7.180  0.0000E+00  0.9760E+03
      7.440  0.0000E+00  0.9760E+03
      7.700  0.0000E+00  0.9760E+03
      7.960  0.0000E+00  0.9760E+03
      8.219  0.0000E+00  0.9760E+03
      8.479  0.0000E+00  0.9760E+03
      8.739  0.0000E+00  0.9760E+03
      8.999  0.0000E+00  0.9760E+03
      9.259  0.0000E+00  0.9760E+03
