"Millerite NiS"                         
           1
    16.884694    0.000000    0.000000
     0.000000    9.578410    0.000000
     0.000000    0.000000   16.299456
   Ty   Ty
  38  38
Direct configuration=     1
   0.78004631  0.14529695  0.12761889
   0.80477584  0.14529695  0.29549357
   0.23979916  0.64529695  0.08794279
   0.29733029  0.64529695  0.22223994
   0.39705670  0.14529695  0.13441152
   0.46975828  0.14529695  0.25378030
   0.95247430  0.64529695  0.15915924
   0.96501378  0.64529695  0.31760862
   0.17739971  0.14529695  0.04999374
   0.12490229  0.14529695  0.19069959
   0.60761831  0.64529695  0.09607854
   0.64218627  0.64529695  0.28532065
   0.90900852  0.00645831  0.12376326
   0.94043433  0.00959494  0.27464573
   0.39294092  0.51985228  0.04104051
   0.42486676  0.51319395  0.19724049
   0.46551941  0.46897978  0.33895463
   0.60330045  0.93231589  0.09358699
   0.59729475  0.01319395  0.22878085
   0.08001077  0.51319395  0.13415979
   0.11720162  0.48577757  0.28723429
   0.25243876  0.01319395  0.16570014
   0.28976079  0.97516079  0.31182773
   0.74445277  0.49185613  0.09997794
   0.76972274  0.51319395  0.26032120
   0.90900852  0.28413560  0.12376326
   0.94043433  0.28099897  0.27464573
   0.39294092  0.77074163  0.04104051
   0.42486676  0.77739995  0.19724049
   0.46551941  0.82161413  0.33895463
   0.60330045  0.35827802  0.09358699
   0.59729475  0.27739995  0.22878085
   0.08001077  0.77739995  0.13415979
   0.11720162  0.80481634  0.28723429
   0.25243876  0.27739995  0.16570014
   0.28976079  0.31543312  0.31182773
   0.74445277  0.79873778  0.09997794
   0.76972274  0.77739995  0.26032120
   0.90609709  0.14529695  0.36457653
   0.99146121  0.14529695  0.18894910
   0.47417723  0.64529695  0.09432805
   0.50874518  0.64529695  0.28357016
   0.64660522  0.14529695  0.12586840
   0.68011875  0.14529695  0.28785227
   0.12619440  0.64529695  0.04657960
   0.16388920  0.64529695  0.22048946
   0.29515464  0.14529695  0.06930626
   0.33631719  0.14529695  0.25202981
   0.81903321  0.64529695  0.15740875
   0.84452838  0.64529695  0.32676810
   0.80612033  0.31722939  0.05599637
   0.82906105  0.31351195  0.22078247
   0.31177708  0.81351195  0.12616141
   0.35057577  0.79255979  0.30296819
   0.48420507  0.31351195  0.15770176
   0.52563275  0.28878150  0.33142957
   0.00148905  0.81351195  0.25232282
   0.96793365  0.82317153  0.08787891
   0.13904799  0.32076715  0.10919737
   0.17518925  0.29732554  0.27280871
   0.65267945  0.79294425  0.01619695
   0.65663306  0.81351195  0.18924211
   0.69481525  0.79091617  0.35647892
   0.31177708  0.47708195  0.12616141
   0.35057577  0.49803412  0.30296819
   0.80612033  0.97336452  0.05599637
   0.82906105  0.97708195  0.22078247
   0.00148905  0.47708195  0.25232282
   0.96793365  0.46742238  0.08787891
   0.48420507  0.97708195  0.15770176
   0.52563275  0.00181241  0.33142957
   0.65267945  0.49764966  0.01619695
   0.65663306  0.47708195  0.18924211
   0.69481525  0.49967774  0.35647892
   0.13904799  0.96982675  0.10919737
   0.17518925  0.99326837  0.27280871
