 vasp.5.4.4.18Apr17-6-g9f103f2a35 (build Aug 13 2019 17:33:20) gamma-only       
  
 executed on             LinuxIFC date 2020.05.12  18:01:36
 running on   12 total cores
 distrk:  each k-point on   12 cores,    1 groups
 distr:  one band on NCORES_PER_BAND=   6 cores,    2 groups


--------------------------------------------------------------------------------------------------------


 INCAR:
 POTCAR:    PAW_PBE Ni_pv 06Sep2000               
 POTCAR:    PAW_PBE S 06Sep2000                   
 POTCAR:    PAW_PBE Ni_pv 06Sep2000               
   VRHFIN =Ni:                                                                  
   LEXCH  = PE                                                                  
   EATOM  =  3501.1230 eV,  257.3253 Ry                                         
                                                                                
   TITEL  = PAW_PBE Ni_pv 06Sep2000                                             
   LULTRA =        F    use ultrasoft PP ?                                      
   IUNSCR =        1    unscreen: 0-lin 1-nonlin 2-no                           
   RPACOR =    1.500    partial core radius                                     
   POMASS =   58.690; ZVAL   =   16.000    mass and valenz                      
   RCORE  =    2.000    outmost cutoff radius                                   
   RWIGS  =    2.000; RWIGS  =    1.058    wigner-seitz radius (au A)           
   ENMAX  =  367.986; ENMIN  =  275.989 eV                                      
   RCLOC  =    1.301    cutoff for local pot                                    
   LCOR   =        T    correct aug charges                                     
   LPAW   =        T    paw PP                                                  
   EAUG   =  703.443                                                            
   DEXC   =    0.000                                                            
   RMAX   =    2.041    core radius for proj-oper                               
   RAUG   =    1.300    factor for augmentation sphere                          
   RDEP   =    2.103    radius for radial grids                                 
   RDEPT  =    1.618    core radius for aug-charge                              
                                                                                
   Atomic configuration                                                         
    8 entries                                                                   
     n  l   j            E        occ.                                          
     1  0  0.50     -8206.4253   2.0000                                         
     2  0  0.50      -976.1748   2.0000                                         
     2  1  1.50      -839.0571   6.0000                                         
     3  0  0.50      -105.9991   2.0000                                         
     3  1  1.50       -66.4603   6.0000                                         
     3  2  2.50        -4.6458   9.0000                                         
     4  0  0.50        -4.4926   1.0000                                         
     4  3  2.50        -1.3606   0.0000                                         
   Description                                                                  
     l       E           TYP  RCUT    TYP  RCUT                                 
     1    -66.4602962     23  1.700                                             
     1     -1.3605826     23  1.700                                             
     2     -4.6457867     23  2.000                                             
     2     -6.0063693     23  2.000                                             
     0     -4.4925576     23  1.900                                             
     0     16.3626226     23  1.900                                             
  local pseudopotential read in
  partial core-charges read in
  partial kinetic energy density read in
  atomic valenz-charges read in
  non local Contribution for L=           1  read in
    real space projection operators read in
  non local Contribution for L=           1  read in
    real space projection operators read in
  non local Contribution for L=           2  read in
    real space projection operators read in
  non local Contribution for L=           2  read in
    real space projection operators read in
  non local Contribution for L=           0  read in
    real space projection operators read in
  non local Contribution for L=           0  read in
    real space projection operators read in
    PAW grid and wavefunctions read in
 
   number of l-projection  operators is LMAX  =           6
   number of lm-projection operators is LMMAX =          18
 
 POTCAR:    PAW_PBE S 06Sep2000                   
   VRHFIN =S : s2p4                                                             
   LEXCH  = PE                                                                  
   EATOM  =   276.8230 eV,   20.3459 Ry                                         
                                                                                
   TITEL  = PAW_PBE S 06Sep2000                                                 
   LULTRA =        F    use ultrasoft PP ?                                      
   IUNSCR =        1    unscreen: 0-lin 1-nonlin 2-no                           
   RPACOR =    1.500    partial core radius                                     
   POMASS =   32.066; ZVAL   =    6.000    mass and valenz                      
   RCORE  =    1.900    outmost cutoff radius                                   
   RWIGS  =    2.200; RWIGS  =    1.164    wigner-seitz radius (au A)           
   ENMAX  =  258.689; ENMIN  =  194.016 eV                                      
   ICORE  =        2    local potential                                         
   LCOR   =        T    correct aug charges                                     
   LPAW   =        T    paw PP                                                  
   EAUG   =  335.092                                                            
   DEXC   =    0.000                                                            
   RMAX   =    1.942    core radius for proj-oper                               
   RAUG   =    1.300    factor for augmentation sphere                          
   RDEP   =    1.954    radius for radial grids                                 
   RDEPT  =    1.744    core radius for aug-charge                              
                                                                                
   Atomic configuration                                                         
    6 entries                                                                   
     n  l   j            E        occ.                                          
     1  0  0.50     -2405.8406   2.0000                                         
     2  0  0.50      -211.7007   2.0000                                         
     2  1  1.50      -156.4958   6.0000                                         
     3  0  0.50       -17.2562   2.0000                                         
     3  1  0.50        -7.0085   4.0000                                         
     3  2  1.50        -6.8029   0.0000                                         
   Description                                                                  
     l       E           TYP  RCUT    TYP  RCUT                                 
     0    -17.2561641     23  1.900                                             
     0    -15.8743224     23  1.900                                             
     1     -7.0085400     23  1.900                                             
     1     -2.7779785     23  1.900                                             
     2     -6.8029130     23  1.900                                             
  local pseudopotential read in
  partial core-charges read in
  partial kinetic energy density read in
  atomic valenz-charges read in
  non local Contribution for L=           0  read in
    real space projection operators read in
  non local Contribution for L=           0  read in
    real space projection operators read in
  non local Contribution for L=           1  read in
    real space projection operators read in
  non local Contribution for L=           1  read in
    real space projection operators read in
    PAW grid and wavefunctions read in
 
   number of l-projection  operators is LMAX  =           4
   number of lm-projection operators is LMMAX =           8
 
 Optimization of the real space projectors (new method)

 maximal supplied QI-value         = 18.90
 optimisation between [QCUT,QGAM] = [ 10.77, 21.73] = [ 32.49,132.25] Ry 
 Optimized for a Real-space Cutoff    1.38 Angstroem

   l    n(q)    QCUT    max X(q) W(low)/X(q) W(high)/X(q)  e(spline) 
   1      8    10.771     2.836    0.40E-04    0.29E-04    0.12E-06
   1      8    10.771     4.023    0.10E-03    0.48E-04    0.29E-06
   2      8    10.771    73.368    0.42E-03    0.97E-04    0.44E-06
   2      8    10.771    69.010    0.42E-03    0.99E-04    0.45E-06
   0      9    10.771    54.797    0.10E-03    0.56E-04    0.74E-07
   0      9    10.771    24.266    0.89E-04    0.49E-04    0.67E-07
 Optimization of the real space projectors (new method)

 maximal supplied QI-value         = 19.84
 optimisation between [QCUT,QGAM] = [ 10.71, 21.63] = [ 32.15,130.99] Ry 
 Optimized for a Real-space Cutoff    1.19 Angstroem

   l    n(q)    QCUT    max X(q) W(low)/X(q) W(high)/X(q)  e(spline) 
   0      8    10.715   187.594    0.41E-03    0.53E-04    0.66E-07
   0      8    10.715   164.243    0.41E-03    0.53E-04    0.65E-07
   1      7    10.715    67.533    0.19E-03    0.59E-03    0.68E-07
   1      7    10.715    50.729    0.19E-03    0.58E-03    0.67E-07
  PAW_PBE Ni_pv 06Sep2000               :
 energy of atom  1       EATOM=-3501.1230
 kinetic energy error for atom=    0.0925 (will be added to EATOM!!)
  PAW_PBE S 06Sep2000                   :
 energy of atom  2       EATOM= -276.8230
 kinetic energy error for atom=    0.0033 (will be added to EATOM!!)
 
 
 POSCAR: Type_036 Type_136                       
  positions in cartesian coordinates
  No initial velocities read in
 exchange correlation table for  LEXCH =        8
   RHO(1)=    0.500       N(1)  =     2000
   RHO(2)=  100.500       N(2)  =     4000
 


--------------------------------------------------------------------------------------------------------


 ion  position               nearest neighbor table
   1  0.341  0.993  0.056-  69 2.04  41 2.05  49 2.09  42 2.17   2 2.37  30 2.44  23 2.54
   2  0.397  0.795  0.127-  49 2.11  61 2.11  42 2.25  50 2.36  62 2.36   1 2.37  27 2.44  23 2.51

   3  0.547  0.645  0.254-  43 2.25  62 2.26  50 2.26  63 2.36  51 2.36  28 2.53  14 2.53
   4  0.698  0.494  0.381-  64 2.17  44 2.25  51 2.26  63 2.26  52 2.36  15 2.53  29 2.53
   5  0.827  0.344  0.485-  64 1.99  52 2.00  16 2.46  26 2.49
   6  0.114  0.412  0.169-  53 2.10  45 2.25  68 2.26  65 2.36  54 2.36   9 2.39  30 2.53  17 2.53

   7  0.264  0.261  0.296-  46 2.25  65 2.26  54 2.26  55 2.36  66 2.36  18 2.53  31 2.53
   8  0.414  0.111  0.423-  56 2.10  67 2.11  55 2.26  66 2.26  47 2.31  32 2.53  19 2.53
   9  0.973  0.609  0.105-  48 2.07  45 2.10  68 2.30  53 2.33   6 2.39  21 2.49
  10  0.101  0.779  0.452-  58 2.04  59 2.08  72 2.09  37 2.13
  11  0.831  0.028  0.212-  60 2.07  70 2.10  39 2.25  57 2.36  71 2.36  24 2.53  34 2.53
  12  0.981  0.878  0.338-  40 2.25  57 2.26  71 2.26  58 2.36  72 2.36  35 2.53  25 2.53
  13  0.361  0.556  0.112-  62 2.04  61 2.13  53 2.13  38 2.14
  14  0.508  0.420  0.220-  38 2.06  54 2.25  62 2.26  39 2.36  63 2.36  28 2.53   3 2.53
  15  0.658  0.270  0.347-  64 2.06  55 2.25  63 2.26  39 2.26  40 2.36   4 2.53  29 2.53
  16  0.790  0.122  0.458-  40 2.03  37 2.11  56 2.12  64 2.17   5 2.46
  17  0.074  0.187  0.136-  60 2.10  41 2.10  68 2.26  42 2.36  65 2.36   6 2.53  30 2.53
  18  0.224  0.037  0.263-  57 2.25  42 2.26  65 2.26  66 2.36  43 2.36   7 2.53  31 2.53
  19  0.375  0.886  0.390-  67 2.03  58 2.25  66 2.26  43 2.26  20 2.34  44 2.36  32 2.53   8 2.53

  20  0.439  0.728  0.477-  59 2.03  67 2.08  44 2.09  19 2.34
  21  0.070  0.377  0.049-  41 2.02  68 2.04  53 2.05   9 2.49  30 2.52
  22  0.083  0.509  0.418-  46 2.03  47 2.15  72 2.16  52 2.20  36 2.52
  23  0.590  0.892  0.103-  69 2.11  49 2.11  70 2.13  50 2.24  24 2.46   2 2.51  48 2.52   1 2.54

  24  0.791  0.804  0.178-  48 2.04  70 2.12  50 2.25  71 2.36  45 2.36  23 2.46  11 2.53  34 2.53

  25  0.941  0.653  0.305-  51 2.25  71 2.26  45 2.26  46 2.36  72 2.36  35 2.53  12 2.53
  26  0.025  0.165  0.426-  40 2.04  37 2.12  66 2.13  52 2.15   5 2.49
  27  0.590  0.597  0.080-  50 2.05  38 2.05  49 2.08   2 2.44
  28  0.732  0.460  0.187-  38 2.12  68 2.25  50 2.26  51 2.36  39 2.36  14 2.53   3 2.53
  29  0.882  0.310  0.314-  65 2.25  39 2.26  51 2.26  40 2.36  52 2.36   4 2.53  15 2.53
  30  0.299  0.227  0.102-  69 2.08  41 2.16  53 2.26  54 2.36  42 2.36   1 2.44  21 2.52   6 2.53
                            17 2.53
  31  0.449  0.076  0.229-  70 2.10  42 2.26  54 2.26  55 2.36  43 2.36  18 2.53   7 2.53
  32  0.599  0.926  0.356-  56 2.15  71 2.25  55 2.26  43 2.26  44 2.36  33 2.44   8 2.53  19 2.53

  33  0.734  0.817  0.452-  56 2.04  44 2.05  72 2.06  32 2.44
  34  0.015  0.843  0.144-  60 2.08  61 2.12  48 2.12  45 2.36  57 2.36  24 2.53  11 2.53
  35  0.166  0.693  0.271-  62 2.25  57 2.26  45 2.26  46 2.36  58 2.36  12 2.53  25 2.53
  36  0.316  0.543  0.398-  59 2.06  47 2.13  63 2.25  58 2.26  46 2.26  22 2.52
  37  0.002  0.995  0.480-  16 2.11  26 2.12  10 2.13  40 2.59
  38  0.578  0.423  0.127-  27 2.05  14 2.06  28 2.12  13 2.14
  39  0.736  0.256  0.244-  11 2.25  29 2.26  15 2.26  14 2.36  28 2.36
  40  0.886  0.105  0.371-  16 2.03  26 2.04  12 2.25  15 2.36  29 2.36  37 2.59
  41  0.158  0.163  0.042-  21 2.02   1 2.05  17 2.10  30 2.16
  42  0.303  0.023  0.160-   1 2.17   2 2.25  31 2.26  18 2.26  17 2.36  30 2.36
  43  0.453  0.872  0.286-   3 2.25  19 2.26  32 2.26  18 2.36  31 2.36
  44  0.603  0.722  0.413-  33 2.05  20 2.09   4 2.25  32 2.36  19 2.36
  45  0.019  0.639  0.202-   9 2.10   6 2.25  25 2.26  35 2.26  24 2.36  34 2.36
  46  0.170  0.489  0.329-  22 2.03   7 2.25  36 2.26  35 2.36  25 2.36  47 2.58
  47  0.291  0.352  0.431-  36 2.13  22 2.15   8 2.31  46 2.58
  48  0.853  0.819  0.085-  24 2.04   9 2.07  34 2.12  23 2.52
  49  0.494  0.794  0.037-  27 2.08   1 2.09   2 2.11  23 2.11
  50  0.636  0.692  0.160-  27 2.05  23 2.24  24 2.25  28 2.26   3 2.26   2 2.36
  51  0.787  0.542  0.287-  25 2.25   4 2.26  29 2.26  28 2.36   3 2.36
  52  0.937  0.391  0.414-   5 2.00  26 2.15  22 2.20   4 2.36  29 2.36
  53  0.208  0.464  0.087-  21 2.05   6 2.10  13 2.13  30 2.26   9 2.33
  54  0.353  0.308  0.202-  14 2.25   7 2.26  31 2.26  30 2.36   6 2.36
  55  0.503  0.158  0.329-  15 2.25   8 2.26  32 2.26   7 2.36  31 2.36  56 2.76
  56  0.633  0.030  0.442-  33 2.04   8 2.10  16 2.12  32 2.15  55 2.76
  57  0.070  0.925  0.245-  18 2.25  35 2.26  12 2.26  11 2.36  34 2.36  60 2.73
  58  0.220  0.775  0.372-  10 2.04  19 2.25  36 2.26  35 2.36  12 2.36  59 2.74
  59  0.290  0.638  0.488-  20 2.03  36 2.06  10 2.08  58 2.74
  60  0.945  0.063  0.135-  11 2.07  34 2.08  17 2.10  57 2.73
  61  0.212  0.763  0.095-   2 2.11  34 2.12  13 2.13  62 2.69
  62  0.350  0.641  0.203-  13 2.04  35 2.25  14 2.26   3 2.26   2 2.36  61 2.69
  63  0.501  0.491  0.330-  36 2.25   4 2.26  15 2.26   3 2.36  14 2.36
  64  0.652  0.339  0.441-   5 1.99  15 2.06  16 2.17   4 2.17
  65  0.067  0.258  0.245-  29 2.25   7 2.26  18 2.26   6 2.36  17 2.36
  66  0.218  0.108  0.372-  26 2.13  19 2.26   8 2.26  18 2.36   7 2.36
  67  0.399  0.945  0.481-  19 2.03  20 2.08   8 2.11
  68  0.917  0.408  0.118-  21 2.04  28 2.25  17 2.26   6 2.26   9 2.30
  69  0.485  0.092  0.060-   1 2.04  30 2.08  23 2.11
  70  0.640  0.013  0.177-  31 2.10  11 2.10  24 2.12  23 2.13  71 2.79
  71  0.784  0.874  0.287-  32 2.25  25 2.26  12 2.26  24 2.36  11 2.36  70 2.79
  72  0.934  0.724  0.414-  33 2.06  10 2.09  22 2.16  12 2.36  25 2.36
 
  LATTYP: Found a base centered orthorhombic cell.
 ALAT       =    11.4527836704
 B/A-ratio  =     1.4485816945
 C/A-ratio  =     1.8059804630
  
  Lattice vectors:
  
 A1 = (  10.0797329849,   0.0000000000,   0.0000000000)
 A2 = (  -3.5732980427,  -9.4251025535,   0.0000000000)
 A3 = (   0.0000000000,   0.0000000000, -20.6835035552)


Analysis of symmetry for initial positions (statically):
=====================================================================
 Subroutine PRICEL returns:
 Original cell was already a primitive cell.
 

 Routine SETGRP: Setting up the symmetry group for a 
 base centered orthorhombic supercell.


 Subroutine GETGRP returns: Found  1 space group operations
 (whereof  1 operations were pure point group operations)
 out of a pool of  8 trial point group operations.


The static configuration has the point symmetry C_1 .


Analysis of symmetry for dynamics (positions and initial velocities):
=====================================================================
 Subroutine PRICEL returns:
 Original cell was already a primitive cell.
 

 Routine SETGRP: Setting up the symmetry group for a 
 base centered orthorhombic supercell.


 Subroutine GETGRP returns: Found  1 space group operations
 (whereof  1 operations were pure point group operations)
 out of a pool of  8 trial point group operations.


The dynamic configuration has the point symmetry C_1 .


 Subroutine INISYM returns: Found  1 space group operations
 (whereof  1 operations are pure point group operations),
 and found     1 'primitive' translations

 
 
 KPOINTS: gamma-point-only calculation. no periodi

Automatic generation of k-mesh.
Space group operators:
 irot       det(A)        alpha          n_x          n_y          n_z        tau_x        tau_y        tau_z
    1     1.000000     0.000000     1.000000     0.000000     0.000000     0.000000     0.000000     0.000000
 
 Subroutine IBZKPT returns following result:
 ===========================================
 
 Found      1 irreducible k-points:
 
 Following reciprocal coordinates:
            Coordinates               Weight
  0.000000  0.000000  0.000000      1.000000
 
 Following cartesian coordinates:
            Coordinates               Weight
  0.000000  0.000000  0.000000      1.000000
 


--------------------------------------------------------------------------------------------------------




 Dimension of arrays:
   k-points           NKPTS =      1   k-points in BZ     NKDIM =      1   number of bands    NBANDS=    476
   number of dos      NEDOS =    301   number of ions     NIONS =     72
   non local maximal  LDIM  =      6   non local SUM 2l+1 LMDIM =     18
   total plane-waves  NPLWV = 314928
   max r-space proj   IRMAX =   1817   max aug-charges    IRDMAX=   5248
   dimension x,y,z NGX =    54 NGY =   54 NGZ =  108
   dimension x,y,z NGXF=   108 NGYF=  108 NGZF=  216
   support grid    NGXF=   108 NGYF=  108 NGZF=  216
   ions per type =              36  36
   NGX,Y,Z   is equivalent  to a cutoff of   8.91,  8.91,  8.68 a.u.
   NGXF,Y,Z  is equivalent  to a cutoff of  17.81, 17.81, 17.36 a.u.

 SYSTEM =  "Millerite NiS"                         
 POSCAR =  Type_036 Type_136                       

 Startparameter for this run:
   NWRITE =      2    write-flag & timer
   PREC   = normal    normal or accurate (medium, high low for compatibility)
   ISTART =      0    job   : 0-new  1-cont  2-samecut
   ICHARG =      2    charge: 1-file 2-atom 10-const
   ISPIN  =      1    spin polarized calculation?
   LNONCOLLINEAR =      F non collinear calculations
   LSORBIT =      F    spin-orbit coupling
   INIWAV =      1    electr: 0-lowe 1-rand  2-diag
   LASPH  =      F    aspherical Exc in radial PAW
   METAGGA=      F    non-selfconsistent MetaGGA calc.

 Electronic Relaxation 1
   ENCUT  =  450.0 eV  33.07 Ry    5.75 a.u.  17.43 17.43 35.78*2*pi/ulx,y,z
   ENINI  =  450.0     initial cutoff
   ENAUG  =  703.4 eV  augmentation charge cutoff
   NELM   =    100;   NELMIN=  2; NELMDL= -5     # of ELM steps 
   EDIFF  = 0.1E-03   stopping-criterion for ELM
   LREAL  =      T    real-space projection
   NLSPLINE    = F    spline interpolate recip. space projectors
   LCOMPAT=      F    compatible to vasp.4.4
   GGA_COMPAT  = T    GGA compatible to vasp.4.4-vasp.4.6
   LMAXPAW     = -100 max onsite density
   LMAXMIX     =    2 max onsite mixed and CHGCAR
   VOSKOWN=      0    Vosko Wilk Nusair interpolation
   ROPT   =   -0.00050  -0.00050
 Ionic relaxation
   EDIFFG = 0.1E-02   stopping-criterion for IOM
   NSW    =      0    number of steps for IOM
   NBLOCK =      1;   KBLOCK =      1    inner block; outer block 
   IBRION =     -1    ionic relax: 0-MD 1-quasi-New 2-CG
   NFREE  =      0    steps in history (QN), initial steepest desc. (CG)
   ISIF   =      2    stress and relaxation
   IWAVPR =     10    prediction:  0-non 1-charg 2-wave 3-comb
   ISYM   =      2    0-nonsym 1-usesym 2-fastsym
   LCORR  =      T    Harris-Foulkes like correction to forces

   POTIM  = 0.5000    time-step for ionic-motion
   TEIN   =    0.0    initial temperature
   TEBEG  =    0.0;   TEEND  =   0.0 temperature during run
   SMASS  =  -3.00    Nose mass-parameter (am)
   estimated Nose-frequenzy (Omega)   =  0.10E-29 period in steps =****** mass=  -0.232E-26a.u.
   SCALEE = 1.0000    scale energy and forces
   NPACO  =    256;   APACO  = 16.0  distance and # of slots for P.C.
   PSTRESS=    0.0 pullay stress

  Mass of Ions in am
   POMASS =  58.69 32.07
  Ionic Valenz
   ZVAL   =  16.00  6.00
  Atomic Wigner-Seitz radii
   RWIGS  =  -1.00 -1.00
  virtual crystal weights 
   VCA    =   1.00  1.00
   NELECT =     792.0000    total number of electrons
   NUPDOWN=      -1.0000    fix difference up-down

 DOS related values:
   EMIN   =  10.00;   EMAX   =-10.00  energy-range for DOS
   EFERMI =   0.00
   ISMEAR =     0;   SIGMA  =   0.20  broadening in eV -4-tet -1-fermi 0-gaus

 Electronic relaxation 2 (details)
   IALGO  =     38    algorithm
   LDIAG  =      T    sub-space diagonalisation (order eigenvalues)
   LSUBROT=      F    optimize rotation matrix (better conditioning)
   TURBO    =      0    0=normal 1=particle mesh
   IRESTART =      0    0=no restart 2=restart with 2 vectors
   NREBOOT  =      0    no. of reboots
   NMIN     =      0    reboot dimension
   EREF     =   0.00    reference energy to select bands
   IMIX   =      4    mixing-type and parameters
     AMIX     =   0.40;   BMIX     =  1.00
     AMIX_MAG =   1.60;   BMIX_MAG =  1.00
     AMIN     =   0.10
     WC   =   100.;   INIMIX=   1;  MIXPRE=   1;  MAXMIX= -45

 Intra band minimization:
   WEIMIN = 0.0000     energy-eigenvalue tresh-hold
   EBREAK =  0.53E-07  absolut break condition
   DEPER  =   0.30     relativ break condition  

   TIME   =   0.40     timestep for ELM

  volume/ion in A,a.u.               =      27.29       184.17
  Fermi-wavevector in a.u.,A,eV,Ry     =   1.209289  2.285225 19.896891  1.462380
  Thomas-Fermi vector in A             =   2.344871
 
 Write flags
   LWAVE        =      F    write WAVECAR
   LDOWNSAMPLE  =      F    k-point downsampling of WAVECAR
   LCHARG       =      F    write CHGCAR
   LVTOT        =      F    write LOCPOT, total local potential
   LVHAR        =      F    write LOCPOT, Hartree potential only
   LELF         =      F    write electronic localiz. function (ELF)
   LORBIT       =      0    0 simple, 1 ext, 2 COOP (PROOUT), +10 PAW based schemes


 Dipole corrections
   LMONO  =      F    monopole corrections only (constant potential shift)
   LDIPOL =      F    correct potential (dipole corrections)
   IDIPOL =      0    1-x, 2-y, 3-z, 4-all directions 
   EPSILON=  1.0000000 bulk dielectric constant

 Exchange correlation treatment:
   GGA     =    --    GGA type
   LEXCH   =     8    internal setting for exchange type
   VOSKOWN=      0    Vosko Wilk Nusair interpolation
   LHFCALC =     F    Hartree Fock is set to
   LHFONE  =     F    Hartree Fock one center treatment
   AEXX    =    0.0000 exact exchange contribution

 Linear response parameters
   LEPSILON=     F    determine dielectric tensor
   LRPA    =     F    only Hartree local field effects (RPA)
   LNABLA  =     F    use nabla operator in PAW spheres
   LVEL    =     F    velocity operator in full k-point grid
   LINTERFAST=   F  fast interpolation
   KINTER  =     0    interpolate to denser k-point grid
   CSHIFT  =0.1000    complex shift for real part using Kramers Kronig
   OMEGAMAX=  -1.0    maximum frequency
   DEG_THRESHOLD= 0.2000000E-02 threshold for treating states as degnerate
   RTIME   =   -0.100 relaxation time in fs
  (WPLASMAI=    0.000 imaginary part of plasma frequency in eV, 0.658/RTIME)
   DFIELD  = 0.0000000 0.0000000 0.0000000 field for delta impulse in time
 
 Orbital magnetization related:
   ORBITALMAG=     F  switch on orbital magnetization
   LCHIMAG   =     F  perturbation theory with respect to B field
   DQ        =  0.001000  dq finite difference perturbation B field
   LLRAUG    =     F  two centre corrections for induced B field



--------------------------------------------------------------------------------------------------------


 Static calculation
 charge density and potential will be updated during run
 non-spin polarized calculation
 Variant of blocked Davidson
 Davidson routine will perform the subspace rotation
 perform sub-space diagonalisation
    after iterative eigenvector-optimisation
 modified Broyden-mixing scheme, WC =      100.0
 initial mixing is a Kerker type mixing with AMIX =  0.4000 and BMIX =      1.0000
 Hartree-type preconditioning will be used
 using additional bands           80
 real space projection scheme for non local part
 use partial core corrections
 calculate Harris-corrections to forces 
   (improved forces if not selfconsistent)
 use gradient corrections 
 use of overlap-Matrix (Vanderbilt PP)
 Gauss-broadening in eV      SIGMA  =   0.20


--------------------------------------------------------------------------------------------------------


  energy-cutoff  :      450.00
  volume of cell :     1964.98
      direct lattice vectors                 reciprocal lattice vectors
    10.079732985  0.000000000  0.000000000     0.099208977 -0.037612667  0.000000000
     3.573298043  9.425102554  0.000000000     0.000000000  0.106099641  0.000000000
     0.000000000  0.000000000 20.683503555     0.000000000  0.000000000  0.048347708

  length of vectors
    10.079732985 10.079732985 20.683503555     0.106099641  0.106099641  0.048347708


 
 k-points in units of 2pi/SCALE and weight: gamma-point-only calculation. no periodi
   0.00000000  0.00000000  0.00000000       1.000
 
 k-points in reciprocal lattice and weights: gamma-point-only calculation. no periodi
   0.00000000  0.00000000  0.00000000       1.000
 
 position of ions in fractional coordinates (direct lattice) 
   0.34075647  0.99264343  0.05621329
   0.39705889  0.79495179  0.12693702
   0.54732740  0.64468328  0.25387405
   0.69759592  0.49441476  0.38081107
   0.82683277  0.34420845  0.48478074
   0.11381506  0.41152895  0.16924937
   0.26408357  0.26126044  0.29618639
   0.41435209  0.11099193  0.42312341
   0.97295490  0.60922260  0.10534862
   0.10051416  0.77878925  0.45158657
   0.83057123  0.02810611  0.21156171
   0.98083975  0.87783760  0.33849873
   0.36142503  0.55641428  0.11225494
   0.50762556  0.42017912  0.22033653
   0.65789407  0.26991061  0.34727355
   0.78980457  0.12185155  0.45845592
   0.07411322  0.18702479  0.13571184
   0.22438173  0.03675628  0.26264887
   0.37465025  0.88648777  0.38958589
   0.43946338  0.72814765  0.47672626
   0.06953408  0.37653105  0.04895130
   0.08324818  0.50918493  0.41842347
   0.58959537  0.89220007  0.10287210
   0.79086939  0.80360196  0.17802418
   0.94113790  0.65333344  0.30496121
   0.02481296  0.16499052  0.42571278
   0.59049296  0.59688318  0.07988129
   0.73212972  0.45988096  0.18679900
   0.88239823  0.30961245  0.31373603
   0.29861738  0.22672664  0.10217432
   0.44888589  0.07645812  0.22911134
   0.59915440  0.92618961  0.35604837
   0.73387154  0.81709867  0.45203132
   0.01537355  0.84330380  0.14448666
   0.16564206  0.69303529  0.27142369
   0.31591057  0.54276677  0.39836071
   0.00236333  0.99501941  0.47950701
   0.57776550  0.42277956  0.12702457
   0.73606781  0.25573088  0.24418359
   0.88633632  0.10546236  0.37112062
   0.15772576  0.16286246  0.04157280
   0.30255546  0.02257655  0.15955891
   0.45282398  0.87230804  0.28649593
   0.60309249  0.72203952  0.41343296
   0.01931164  0.63915371  0.20187125
   0.16958015  0.48888520  0.32880827
   0.29119147  0.35234720  0.43057810
   0.85324464  0.81902517  0.08526708
   0.49446318  0.79361402  0.03669110
   0.63635413  0.69187455  0.15995199
   0.78662264  0.54160604  0.28688901
   0.93689115  0.39133753  0.41382604
   0.20761199  0.46435616  0.08724393
   0.35311030  0.30845171  0.20226433
   0.50337881  0.15818320  0.32920136
   0.63320152  0.03047668  0.44199193
   0.06986647  0.92502888  0.24457667
   0.22013498  0.77476036  0.37151370
   0.29014719  0.63805932  0.48783933
   0.94529539  0.06308732  0.13478136
   0.21201572  0.76339658  0.09478441
   0.35047896  0.64131972  0.20265741
   0.50074748  0.49105120  0.32959444
   0.65208192  0.33949006  0.44121174
   0.06723514  0.25789688  0.24496976
   0.21750365  0.10762837  0.37190678
   0.39896627  0.94527901  0.48135720
   0.91696662  0.40816539  0.11803273
   0.48539012  0.09207774  0.06040978
   0.64022791  0.01285501  0.17728875
   0.78399131  0.87447404  0.28728210
   0.93425982  0.72420553  0.41421912
 
 position of ions in cartesian coordinates  (Angst):
   6.98174505  9.35576608  1.16268783
   6.84284728  7.49250214  2.62550239
   7.82055958  6.07620600  5.25100480
   8.79827188  4.65990985  7.87650718
   9.56421292  3.24419995 10.02696418
   2.61774104  3.87870257  3.50066986
   3.59545334  2.46240643  6.12617225
   4.57316564  1.04611029  8.75167464
  11.98405954  5.74198549  2.17897859
   3.79600202  7.34016857  9.34039236
   8.47236779  0.26490301  4.37583732
  13.02337813  8.27370942  7.00133973
   5.63130183  5.24426168  2.32182539
   6.61815534  3.96023129  4.55733130
   7.59586764  2.54393515  7.18283371
   8.39643107  1.14846336  9.48247470
   1.41533680  1.76272786  2.80699637
   2.39304911  0.34643173  5.43249877
   6.94405944  8.35523814  8.05800116
   7.03156206  6.86286625  9.86036919
   2.04634259  3.54884372  1.01248438
   2.65858893  4.79912014  8.65446339
   9.13106062  8.40907713  2.12775546
  10.84326159  7.57403086  3.68216384
  11.82097388  6.15773471  6.30766623
   0.83966833  1.55505257  8.80523181
   8.08485280  5.62568514  1.65222488
   9.02296382  4.33442523  3.86365782
  10.00067612  2.91812908  6.48916021
   3.82014528  2.13692181  2.11332289
   4.79785758  0.72062566  4.73882528
   9.34886792  8.72943208  7.36432769
  10.31696629  7.70123879  9.34959145
   3.16833707  7.94822479  2.98849035
   4.14604938  6.53192865  5.61399275
   5.12376167  5.11563251  8.23949514
   3.57932267  9.37816002  9.91788487
   7.33443934  3.98474075  2.62731322
   8.33316958  2.41028972  5.05057219
   9.31088188  0.99399359  7.67607458
   2.17178969  1.53499539  0.85987123
   3.13035103  0.21278630  3.30023726
   7.68136138  8.22159271  5.92573965
   8.65907368  6.80529657  8.55124204
   2.47854283  6.02408928  4.17540472
   3.45625514  4.60779315  6.80090710
   4.19417379  3.32090853  8.90586356
  11.52709917  7.71939619  1.76362194
   7.81987622  7.47989352  0.75890045
   8.88655369  6.52098861  3.30836755
   9.86426599  5.10469246  5.93386996
  10.84197829  3.68839633  8.55937235
   3.75195642  4.37660447  1.80451012
   4.66144744  2.90718904  4.18353503
   5.63915974  1.49089290  6.80903742
   6.49140449  0.28724586  9.14194174
   4.00963925  8.71849203  5.05870249
   4.98735154  7.30219589  7.68420489
   5.20458227  6.01377448 10.09022643
   9.75375492  0.59460449  2.78775065
   4.86490539  7.19509107  1.96047358
   5.82436087  6.04450409  4.19166532
   6.80207317  4.62820796  6.81716773
   7.78591084  3.19972863  9.12580463
   1.59925463  2.43070453  5.06683280
   2.57696692  1.01440839  7.69233519
   7.39923710  8.90935158  9.95615329
  10.70127531  3.84700067  2.44133041
   5.22162403  0.86784211  1.24948588
   6.49926113  0.12115978  3.66695243
  11.02717941  8.24200752  5.94200025
  12.00489171  6.82571138  8.56750266
 


--------------------------------------------------------------------------------------------------------


 use parallel FFT for orbitals z direction half grid
 k-point  1 :   0.0000 0.0000 0.0000  plane waves:   21301

 maximum and minimum number of plane-waves per node :      3554     3548

 maximum number of plane-waves:     21301
 maximum index in each direction: 
   IXMAX=   17   IYMAX=   17   IZMAX=   35
   IXMIN=  -17   IYMIN=  -17   IZMIN=    0


 real space projection operators:
  total allocation   :      11160.66 KBytes
  max/ min on nodes  :       1863.19       1856.44


 parallel 3D FFT for wavefunctions:
    minimum data exchange during FFTs selected (reduces bandwidth)
 parallel 3D FFT for charge:
    minimum data exchange during FFTs selected (reduces bandwidth)


 total amount of memory used by VASP MPI-rank0    68402. kBytes
=======================================================================

   base      :      30000. kBytes
   nonlr-proj:       2287. kBytes
   fftplans  :       8265. kBytes
   grid      :      13942. kBytes
   one-center:         93. kBytes
   wavefun   :      13815. kBytes
 
     INWAV:  cpu time    0.0000: real time    0.0000
 Broyden mixing: mesh for mixing (old mesh)
   NGX = 35   NGY = 35   NGZ = 71
  (NGX  =108   NGY  =108   NGZ  =216)
  gives a total of  86975 points

 initial charge density was supplied:
 charge density of overlapping atoms calculated
 number of electron     792.0000000 magnetization 
 keeping initial charge density in first step


--------------------------------------------------------------------------------------------------------


 Maximum index for non-local projection operator          302
 Maximum index for augmentation-charges          473 (set IRDMAX)


--------------------------------------------------------------------------------------------------------


 First call to EWALD:  gamma=   0.142
 Maximum number of real-space cells 3x 3x 2
 Maximum number of reciprocal cells 2x 2x 4

    FEWALD:  cpu time    0.0050: real time    0.0050


--------------------------------------- Iteration      1(   1)  ---------------------------------------


    POTLOK:  cpu time    0.2580: real time    0.2599
    SETDIJ:  cpu time    0.0182: real time    0.0182
     EDDAV:  cpu time    6.8800: real time    6.8832
       DOS:  cpu time    0.0028: real time    0.0028
    --------------------------------------------
      LOOP:  cpu time    7.1591: real time    7.1642

 eigenvalue-minimisations  :  1176
 total energy-change (2. order) : 0.9901789E+04  (-0.5133715E+05)
 number of electron     792.0000000 magnetization 
 augmentation part      792.0000000 magnetization 

 Free energy of the ion-electron system (eV)
  ---------------------------------------------------
  alpha Z        PSCENC =      1893.09323658
  Ewald energy   TEWEN  =    214611.82337943
  -Hartree energ DENC   =   -336812.99884058
  -exchange      EXHF   =         0.00000000
  -V(xc)+E(xc)   XCENC  =      3680.09525794
  PAW double counting   =    112729.53333415  -117641.51188735
  entropy T*S    EENTRO =        -0.41111120
  eigenvalues    EBANDS =     -4560.43925446
  atomic energy  EATOM  =    136002.60505376
  Solvation  Ediel_sol  =         0.00000000
  ---------------------------------------------------
  free energy    TOTEN  =      9901.78916827 eV

  energy without entropy =     9902.20027948  energy(sigma->0) =     9901.99472388


--------------------------------------------------------------------------------------------------------




--------------------------------------- Iteration      1(   2)  ---------------------------------------


     EDDAV:  cpu time    6.1119: real time    6.1129
       DOS:  cpu time    0.0013: real time    0.0012
    --------------------------------------------
      LOOP:  cpu time    6.1130: real time    6.1140

 eigenvalue-minimisations  :  1004
 total energy-change (2. order) :-0.9284970E+04  (-0.8967878E+04)
 number of electron     792.0000000 magnetization 
 augmentation part      792.0000000 magnetization 

 Free energy of the ion-electron system (eV)
  ---------------------------------------------------
  alpha Z        PSCENC =      1893.09323658
  Ewald energy   TEWEN  =    214611.82337943
  -Hartree energ DENC   =   -336812.99884058
  -exchange      EXHF   =         0.00000000
  -V(xc)+E(xc)   XCENC  =      3680.09525794
  PAW double counting   =    112729.53333415  -117641.51188735
  entropy T*S    EENTRO =        -0.66665106
  eigenvalues    EBANDS =    -13845.15384037
  atomic energy  EATOM  =    136002.60505376
  Solvation  Ediel_sol  =         0.00000000
  ---------------------------------------------------
  free energy    TOTEN  =       616.81904251 eV

  energy without entropy =      617.48569357  energy(sigma->0) =      617.15236804


--------------------------------------------------------------------------------------------------------




--------------------------------------- Iteration      1(   3)  ---------------------------------------


     EDDAV:  cpu time    6.4806: real time    6.4820
       DOS:  cpu time    0.0014: real time    0.0014
    --------------------------------------------
      LOOP:  cpu time    6.4820: real time    6.4834

 eigenvalue-minimisations  :  1088
 total energy-change (2. order) :-0.9580492E+03  (-0.9099613E+03)
 number of electron     792.0000000 magnetization 
 augmentation part      792.0000000 magnetization 

 Free energy of the ion-electron system (eV)
  ---------------------------------------------------
  alpha Z        PSCENC =      1893.09323658
  Ewald energy   TEWEN  =    214611.82337943
  -Hartree energ DENC   =   -336812.99884058
  -exchange      EXHF   =         0.00000000
  -V(xc)+E(xc)   XCENC  =      3680.09525794
  PAW double counting   =    112729.53333415  -117641.51188735
  entropy T*S    EENTRO =        -0.99702422
  eigenvalues    EBANDS =    -14802.87269455
  atomic energy  EATOM  =    136002.60505376
  Solvation  Ediel_sol  =         0.00000000
  ---------------------------------------------------
  free energy    TOTEN  =      -341.23018484 eV

  energy without entropy =     -340.23316062  energy(sigma->0) =     -340.73167273


--------------------------------------------------------------------------------------------------------




--------------------------------------- Iteration      1(   4)  ---------------------------------------


     EDDAV:  cpu time    6.8331: real time    6.8346
       DOS:  cpu time    0.0012: real time    0.0012
    --------------------------------------------
      LOOP:  cpu time    6.8343: real time    6.8358

 eigenvalue-minimisations  :  1112
 total energy-change (2. order) :-0.5820144E+02  (-0.5754784E+02)
 number of electron     792.0000000 magnetization 
 augmentation part      792.0000000 magnetization 

 Free energy of the ion-electron system (eV)
  ---------------------------------------------------
  alpha Z        PSCENC =      1893.09323658
  Ewald energy   TEWEN  =    214611.82337943
  -Hartree energ DENC   =   -336812.99884058
  -exchange      EXHF   =         0.00000000
  -V(xc)+E(xc)   XCENC  =      3680.09525794
  PAW double counting   =    112729.53333415  -117641.51188735
  entropy T*S    EENTRO =        -1.02354300
  eigenvalues    EBANDS =    -14861.04761364
  atomic energy  EATOM  =    136002.60505376
  Solvation  Ediel_sol  =         0.00000000
  ---------------------------------------------------
  free energy    TOTEN  =      -399.43162271 eV

  energy without entropy =     -398.40807971  energy(sigma->0) =     -398.91985121


--------------------------------------------------------------------------------------------------------




--------------------------------------- Iteration      1(   5)  ---------------------------------------


     EDDAV:  cpu time    7.1987: real time    7.2026
       DOS:  cpu time    0.0013: real time    0.0013
    CHARGE:  cpu time    0.2147: real time    0.2147
    MIXING:  cpu time    0.0076: real time    0.0076
    --------------------------------------------
      LOOP:  cpu time    7.4224: real time    7.4263

 eigenvalue-minimisations  :  1248
 total energy-change (2. order) :-0.2167143E+01  (-0.2164019E+01)
 number of electron     791.9999854 magnetization 
 augmentation part      286.5836573 magnetization 

 Broyden mixing:
  rms(total) = 0.95780E+01    rms(broyden)= 0.95687E+01
  rms(prec ) = 0.99214E+01
  weight for this iteration     100.00

 Free energy of the ion-electron system (eV)
  ---------------------------------------------------
  alpha Z        PSCENC =      1893.09323658
  Ewald energy   TEWEN  =    214611.82337943
  -Hartree energ DENC   =   -336812.99884058
  -exchange      EXHF   =         0.00000000
  -V(xc)+E(xc)   XCENC  =      3680.09525794
  PAW double counting   =    112729.53333415  -117641.51188735
  entropy T*S    EENTRO =        -1.01310931
  eigenvalues    EBANDS =    -14863.22519020
  atomic energy  EATOM  =    136002.60505376
  Solvation  Ediel_sol  =         0.00000000
  ---------------------------------------------------
  free energy    TOTEN  =      -401.59876558 eV

  energy without entropy =     -400.58565627  energy(sigma->0) =     -401.09221093


--------------------------------------------------------------------------------------------------------




--------------------------------------- Iteration      1(   6)  ---------------------------------------


    POTLOK:  cpu time    0.2472: real time    0.2472
    SETDIJ:  cpu time    0.0173: real time    0.0173
     EDDAV:  cpu time    6.8749: real time    6.8758
       DOS:  cpu time    0.0012: real time    0.0012
    CHARGE:  cpu time    0.2111: real time    0.2111
    MIXING:  cpu time    0.0088: real time    0.0088
    --------------------------------------------
      LOOP:  cpu time    7.3604: real time    7.3613

 eigenvalue-minimisations  :  1176
 total energy-change (2. order) :-0.6463957E+02  (-0.9344575E+02)
 number of electron     791.9999776 magnetization 
 augmentation part      345.1800481 magnetization 

 Broyden mixing:
  rms(total) = 0.15491E+02    rms(broyden)= 0.15488E+02
  rms(prec ) = 0.16053E+02
  weight for this iteration     100.00

 eigenvalues of (default mixing * dielectric matrix)
  average eigenvalue GAMMA=   0.2503
  0.2503

 Free energy of the ion-electron system (eV)
  ---------------------------------------------------
  alpha Z        PSCENC =      1893.09323658
  Ewald energy   TEWEN  =    214611.82337943
  -Hartree energ DENC   =   -334134.65228768
  -exchange      EXHF   =         0.00000000
  -V(xc)+E(xc)   XCENC  =      3605.85544576
  PAW double counting   =    117390.98073139  -122070.74537953
  entropy T*S    EENTRO =        -0.89936494
  eigenvalues    EBANDS =    -17764.29915439
  atomic energy  EATOM  =    136002.60505376
  Solvation  Ediel_sol  =         0.00000000
  ---------------------------------------------------
  free energy    TOTEN  =      -466.23833963 eV

  energy without entropy =     -465.33897469  energy(sigma->0) =     -465.78865716


--------------------------------------------------------------------------------------------------------




--------------------------------------- Iteration      1(   7)  ---------------------------------------


    POTLOK:  cpu time    0.2524: real time    0.2526
    SETDIJ:  cpu time    0.0356: real time    0.0356
     EDDAV:  cpu time    6.5842: real time    6.5862
       DOS:  cpu time    0.0012: real time    0.0012
    CHARGE:  cpu time    0.2133: real time    0.2133
    MIXING:  cpu time    0.0092: real time    0.0092
    --------------------------------------------
      LOOP:  cpu time    7.0958: real time    7.0980

 eigenvalue-minimisations  :  1064
 total energy-change (2. order) : 0.9577226E+02  (-0.2061934E+02)
 number of electron     791.9999850 magnetization 
 augmentation part      330.6617147 magnetization 

 Broyden mixing:
  rms(total) = 0.66075E+01    rms(broyden)= 0.66060E+01
  rms(prec ) = 0.68481E+01
  weight for this iteration     100.00

 eigenvalues of (default mixing * dielectric matrix)
  average eigenvalue GAMMA=   0.5016
  0.5016  0.5016

 Free energy of the ion-electron system (eV)
  ---------------------------------------------------
  alpha Z        PSCENC =      1893.09323658
  Ewald energy   TEWEN  =    214611.82337943
  -Hartree energ DENC   =   -335271.47322637
  -exchange      EXHF   =         0.00000000
  -V(xc)+E(xc)   XCENC  =      3631.87695331
  PAW double counting   =    121864.19769898  -126683.40504592
  entropy T*S    EENTRO =        -0.82017353
  eigenvalues    EBANDS =    -16418.36395837
  atomic energy  EATOM  =    136002.60505376
  Solvation  Ediel_sol  =         0.00000000
  ---------------------------------------------------
  free energy    TOTEN  =      -370.46608213 eV

  energy without entropy =     -369.64590860  energy(sigma->0) =     -370.05599536


--------------------------------------------------------------------------------------------------------




--------------------------------------- Iteration      1(   8)  ---------------------------------------


    POTLOK:  cpu time    0.2483: real time    0.2486
    SETDIJ:  cpu time    0.0172: real time    0.0172
     EDDAV:  cpu time    7.2097: real time    7.2106
       DOS:  cpu time    0.0012: real time    0.0012
    CHARGE:  cpu time    0.2051: real time    0.2051
    MIXING:  cpu time    0.0089: real time    0.0089
    --------------------------------------------
      LOOP:  cpu time    7.6904: real time    7.6916

 eigenvalue-minimisations  :  1240
 total energy-change (2. order) :-0.6572541E+02  (-0.2256244E+02)
 number of electron     791.9999707 magnetization 
 augmentation part      304.7835579 magnetization 

 Broyden mixing:
  rms(total) = 0.13946E+02    rms(broyden)= 0.13945E+02
  rms(prec ) = 0.15850E+02
  weight for this iteration     100.00

 eigenvalues of (default mixing * dielectric matrix)
  average eigenvalue GAMMA=   0.4973
  0.8654  0.4523  0.1741

 Free energy of the ion-electron system (eV)
  ---------------------------------------------------
  alpha Z        PSCENC =      1893.09323658
  Ewald energy   TEWEN  =    214611.82337943
  -Hartree energ DENC   =   -336021.42230941
  -exchange      EXHF   =         0.00000000
  -V(xc)+E(xc)   XCENC  =      3658.35825349
  PAW double counting   =    128806.78615812  -133767.75419370
  entropy T*S    EENTRO =        -1.06554697
  eigenvalues    EBANDS =    -15618.61552003
  atomic energy  EATOM  =    136002.60505376
  Solvation  Ediel_sol  =         0.00000000
  ---------------------------------------------------
  free energy    TOTEN  =      -436.19148873 eV

  energy without entropy =     -435.12594176  energy(sigma->0) =     -435.65871525


--------------------------------------------------------------------------------------------------------




--------------------------------------- Iteration      1(   9)  ---------------------------------------


    POTLOK:  cpu time    0.2421: real time    0.2421
    SETDIJ:  cpu time    0.0179: real time    0.0179
     EDDAV:  cpu time    7.1341: real time    7.1352
       DOS:  cpu time    0.0014: real time    0.0014
    CHARGE:  cpu time    0.4712: real time    0.4714
    MIXING:  cpu time    0.0093: real time    0.0093
    --------------------------------------------
      LOOP:  cpu time    7.8760: real time    7.8772

 eigenvalue-minimisations  :  1224
 total energy-change (2. order) : 0.6123086E+02  (-0.1465038E+02)
 number of electron     791.9999875 magnetization 
 augmentation part      305.3564244 magnetization 

 Broyden mixing:
  rms(total) = 0.53814E+01    rms(broyden)= 0.53739E+01
  rms(prec ) = 0.59025E+01
  weight for this iteration     100.00

 eigenvalues of (default mixing * dielectric matrix)
  average eigenvalue GAMMA=   0.7033
  1.8155  0.4293  0.4293  0.1390

 Free energy of the ion-electron system (eV)
  ---------------------------------------------------
  alpha Z        PSCENC =      1893.09323658
  Ewald energy   TEWEN  =    214611.82337943
  -Hartree energ DENC   =   -336206.74827594
  -exchange      EXHF   =         0.00000000
  -V(xc)+E(xc)   XCENC  =      3656.48349897
  PAW double counting   =    132281.80536697  -137260.43603877
  entropy T*S    EENTRO =        -0.91472611
  eigenvalues    EBANDS =    -15352.67212480
  atomic energy  EATOM  =    136002.60505376
  Solvation  Ediel_sol  =         0.00000000
  ---------------------------------------------------
  free energy    TOTEN  =      -374.96062991 eV

  energy without entropy =     -374.04590380  energy(sigma->0) =     -374.50326686


--------------------------------------------------------------------------------------------------------




--------------------------------------- Iteration      1(  10)  ---------------------------------------


    POTLOK:  cpu time    0.2408: real time    0.2408
    SETDIJ:  cpu time    0.0172: real time    0.0172
     EDDAV:  cpu time    7.5118: real time    7.5129
       DOS:  cpu time    0.0011: real time    0.0011
    CHARGE:  cpu time    0.2143: real time    0.2143
    MIXING:  cpu time    0.0104: real time    0.0104
    --------------------------------------------
      LOOP:  cpu time    7.9956: real time    7.9967

 eigenvalue-minimisations  :  1312
 total energy-change (2. order) :-0.3246151E+02  (-0.8610112E+01)
 number of electron     791.9999833 magnetization 
 augmentation part      304.0182181 magnetization 

 Broyden mixing:
  rms(total) = 0.11183E+02    rms(broyden)= 0.11180E+02
  rms(prec ) = 0.13300E+02
  weight for this iteration     100.00

 eigenvalues of (default mixing * dielectric matrix)
  average eigenvalue GAMMA=   0.6672
  2.2072  0.4361  0.4361  0.1282  0.1282

 Free energy of the ion-electron system (eV)
  ---------------------------------------------------
  alpha Z        PSCENC =      1893.09323658
  Ewald energy   TEWEN  =    214611.82337943
  -Hartree energ DENC   =   -336111.05774747
  -exchange      EXHF   =         0.00000000
  -V(xc)+E(xc)   XCENC  =      3651.73693873
  PAW double counting   =    138725.05898577  -143736.04552236
  entropy T*S    EENTRO =        -1.17440342
  eigenvalues    EBANDS =    -15443.46206402
  atomic energy  EATOM  =    136002.60505376
  Solvation  Ediel_sol  =         0.00000000
  ---------------------------------------------------
  free energy    TOTEN  =      -407.42214301 eV

  energy without entropy =     -406.24773959  energy(sigma->0) =     -406.83494130


--------------------------------------------------------------------------------------------------------




--------------------------------------- Iteration      1(  11)  ---------------------------------------


    POTLOK:  cpu time    0.2411: real time    0.2416
    SETDIJ:  cpu time    0.0172: real time    0.0172
     EDDAV:  cpu time    7.3159: real time    7.3179
       DOS:  cpu time    0.0011: real time    0.0011
    CHARGE:  cpu time    0.4536: real time    0.4537
    MIXING:  cpu time    0.0101: real time    0.0101
    --------------------------------------------
      LOOP:  cpu time    8.0391: real time    8.0417

 eigenvalue-minimisations  :  1280
 total energy-change (2. order) : 0.2921309E+02  (-0.6641638E+01)
 number of electron     791.9999895 magnetization 
 augmentation part      310.0423729 magnetization 

 Broyden mixing:
  rms(total) = 0.52056E+01    rms(broyden)= 0.52011E+01
  rms(prec ) = 0.58508E+01
  weight for this iteration     100.00

 eigenvalues of (default mixing * dielectric matrix)
  average eigenvalue GAMMA=   0.6342
  2.4002  0.4394  0.4394  0.2786  0.1509  0.0969

 Free energy of the ion-electron system (eV)
  ---------------------------------------------------
  alpha Z        PSCENC =      1893.09323658
  Ewald energy   TEWEN  =    214611.82337943
  -Hartree energ DENC   =   -336033.81122502
  -exchange      EXHF   =         0.00000000
  -V(xc)+E(xc)   XCENC  =      3649.27099375
  PAW double counting   =    141834.76085862  -146860.18570452
  entropy T*S    EENTRO =        -1.02543167
  eigenvalues    EBANDS =    -15474.74021778
  atomic energy  EATOM  =    136002.60505376
  Solvation  Ediel_sol  =         0.00000000
  ---------------------------------------------------
  free energy    TOTEN  =      -378.20905686 eV

  energy without entropy =     -377.18362519  energy(sigma->0) =     -377.69634102


--------------------------------------------------------------------------------------------------------




--------------------------------------- Iteration      1(  12)  ---------------------------------------


    POTLOK:  cpu time    0.2395: real time    0.2395
    SETDIJ:  cpu time    0.0171: real time    0.0171
     EDDAV:  cpu time    7.2523: real time    7.2589
       DOS:  cpu time    0.0011: real time    0.0011
    CHARGE:  cpu time    0.2080: real time    0.2101
    MIXING:  cpu time    0.0113: real time    0.0113
    --------------------------------------------
      LOOP:  cpu time    7.7294: real time    7.7380

 eigenvalue-minimisations  :  1232
 total energy-change (2. order) : 0.1110562E+02  (-0.2916435E+01)
 number of electron     791.9999888 magnetization 
 augmentation part      312.8370786 magnetization 

 Broyden mixing:
  rms(total) = 0.36891E+01    rms(broyden)= 0.36865E+01
  rms(prec ) = 0.41926E+01
  weight for this iteration     100.00

 eigenvalues of (default mixing * dielectric matrix)
  average eigenvalue GAMMA=   0.6015
  2.4012  0.4502  0.4502  0.4430  0.2233  0.1359  0.1064

 Free energy of the ion-electron system (eV)
  ---------------------------------------------------
  alpha Z        PSCENC =      1893.09323658
  Ewald energy   TEWEN  =    214611.82337943
  -Hartree energ DENC   =   -335955.23750372
  -exchange      EXHF   =         0.00000000
  -V(xc)+E(xc)   XCENC  =      3647.88236871
  PAW double counting   =    143107.38649530  -148138.81591789
  entropy T*S    EENTRO =        -0.87970533
  eigenvalues    EBANDS =    -15534.96083932
  atomic energy  EATOM  =    136002.60505376
  Solvation  Ediel_sol  =         0.00000000
  ---------------------------------------------------
  free energy    TOTEN  =      -367.10343248 eV

  energy without entropy =     -366.22372715  energy(sigma->0) =     -366.66357982


--------------------------------------------------------------------------------------------------------




--------------------------------------- Iteration      1(  13)  ---------------------------------------


    POTLOK:  cpu time    0.2425: real time    0.2425
    SETDIJ:  cpu time    0.0171: real time    0.0171
     EDDAV:  cpu time    7.3317: real time    7.3381
       DOS:  cpu time    0.0012: real time    0.0012
    CHARGE:  cpu time    0.2141: real time    0.2141
    MIXING:  cpu time    0.0109: real time    0.0109
    --------------------------------------------
      LOOP:  cpu time    7.8176: real time    7.8239

 eigenvalue-minimisations  :  1280
 total energy-change (2. order) : 0.3481525E+01  (-0.2295378E+01)
 number of electron     791.9999858 magnetization 
 augmentation part      312.9046153 magnetization 

 Broyden mixing:
  rms(total) = 0.35956E+01    rms(broyden)= 0.35937E+01
  rms(prec ) = 0.41017E+01
  weight for this iteration     100.00

 eigenvalues of (default mixing * dielectric matrix)
  average eigenvalue GAMMA=   0.5668
  2.3354  0.5570  0.4664  0.4664  0.3075  0.1495  0.1495  0.1026

 Free energy of the ion-electron system (eV)
  ---------------------------------------------------
  alpha Z        PSCENC =      1893.09323658
  Ewald energy   TEWEN  =    214611.82337943
  -Hartree energ DENC   =   -335966.03612828
  -exchange      EXHF   =         0.00000000
  -V(xc)+E(xc)   XCENC  =      3647.91798828
  PAW double counting   =    142859.70475396  -147888.71403900
  entropy T*S    EENTRO =        -0.89177222
  eigenvalues    EBANDS =    -15523.12437966
  atomic energy  EATOM  =    136002.60505376
  Solvation  Ediel_sol  =         0.00000000
  ---------------------------------------------------
  free energy    TOTEN  =      -363.62190716 eV

  energy without entropy =     -362.73013493  energy(sigma->0) =     -363.17602105


--------------------------------------------------------------------------------------------------------




--------------------------------------- Iteration      1(  14)  ---------------------------------------


    POTLOK:  cpu time    0.2426: real time    0.2427
    SETDIJ:  cpu time    0.0171: real time    0.0171
     EDDAV:  cpu time    7.6969: real time    7.7000
       DOS:  cpu time    0.0011: real time    0.0011
    CHARGE:  cpu time    0.2108: real time    0.2108
    MIXING:  cpu time    0.0108: real time    0.0108
    --------------------------------------------
      LOOP:  cpu time    8.1794: real time    8.1825

 eigenvalue-minimisations  :  1312
 total energy-change (2. order) : 0.5128115E+01  (-0.1144280E+01)
 number of electron     791.9999867 magnetization 
 augmentation part      313.3885232 magnetization 

 Broyden mixing:
  rms(total) = 0.24497E+01    rms(broyden)= 0.24481E+01
  rms(prec ) = 0.27674E+01
  weight for this iteration     100.00

 eigenvalues of (default mixing * dielectric matrix)
  average eigenvalue GAMMA=   0.5342
  2.2204  0.5559  0.5559  0.4468  0.4468  0.1710  0.1710  0.1035  0.1367

 Free energy of the ion-electron system (eV)
  ---------------------------------------------------
  alpha Z        PSCENC =      1893.09323658
  Ewald energy   TEWEN  =    214611.82337943
  -Hartree energ DENC   =   -335966.33991244
  -exchange      EXHF   =         0.00000000
  -V(xc)+E(xc)   XCENC  =      3648.19173394
  PAW double counting   =    142307.75753448  -147332.83947498
  entropy T*S    EENTRO =        -0.87167163
  eigenvalues    EBANDS =    -15521.91367163
  atomic energy  EATOM  =    136002.60505376
  Solvation  Ediel_sol  =         0.00000000
  ---------------------------------------------------
  free energy    TOTEN  =      -358.49379249 eV

  energy without entropy =     -357.62212086  energy(sigma->0) =     -358.05795667


--------------------------------------------------------------------------------------------------------




--------------------------------------- Iteration      1(  15)  ---------------------------------------


    POTLOK:  cpu time    0.2445: real time    0.2445
    SETDIJ:  cpu time    0.0171: real time    0.0171
     EDDAV:  cpu time    7.4713: real time    7.4734
       DOS:  cpu time    0.0012: real time    0.0012
    CHARGE:  cpu time    0.2199: real time    0.2199
    MIXING:  cpu time    0.0118: real time    0.0118
    --------------------------------------------
      LOOP:  cpu time    7.9660: real time    7.9680

 eigenvalue-minimisations  :  1312
 total energy-change (2. order) : 0.2022985E+01  (-0.3582953E+00)
 number of electron     791.9999865 magnetization 
 augmentation part      312.7522563 magnetization 

 Broyden mixing:
  rms(total) = 0.19968E+01    rms(broyden)= 0.19964E+01
  rms(prec ) = 0.22806E+01
  weight for this iteration     100.00

 eigenvalues of (default mixing * dielectric matrix)
  average eigenvalue GAMMA=   0.5054
  2.1894  0.6013  0.6013  0.4312  0.4312  0.2027  0.2027  0.1028  0.1456  0.1456

 Free energy of the ion-electron system (eV)
  ---------------------------------------------------
  alpha Z        PSCENC =      1893.09323658
  Ewald energy   TEWEN  =    214611.82337943
  -Hartree energ DENC   =   -335992.57492740
  -exchange      EXHF   =         0.00000000
  -V(xc)+E(xc)   XCENC  =      3648.98727457
  PAW double counting   =    141711.85867124  -146733.86162449
  entropy T*S    EENTRO =        -0.89592320
  eigenvalues    EBANDS =    -15497.50594824
  atomic energy  EATOM  =    136002.60505376
  Solvation  Ediel_sol  =         0.00000000
  ---------------------------------------------------
  free energy    TOTEN  =      -356.47080775 eV

  energy without entropy =     -355.57488456  energy(sigma->0) =     -356.02284615


--------------------------------------------------------------------------------------------------------




--------------------------------------- Iteration      1(  16)  ---------------------------------------


    POTLOK:  cpu time    0.2447: real time    0.2450
    SETDIJ:  cpu time    0.0172: real time    0.0172
     EDDAV:  cpu time    7.7621: real time    7.7658
       DOS:  cpu time    0.0012: real time    0.0012
    CHARGE:  cpu time    0.2126: real time    0.2126
    MIXING:  cpu time    0.0119: real time    0.0119
    --------------------------------------------
      LOOP:  cpu time    8.2497: real time    8.2538

 eigenvalue-minimisations  :  1312
 total energy-change (2. order) : 0.7453485E+00  (-0.1420231E+00)
 number of electron     791.9999865 magnetization 
 augmentation part      312.5216747 magnetization 

 Broyden mixing:
  rms(total) = 0.18115E+01    rms(broyden)= 0.18113E+01
  rms(prec ) = 0.20577E+01
  weight for this iteration     100.00

 eigenvalues of (default mixing * dielectric matrix)
  average eigenvalue GAMMA=   0.5022
  2.1710  0.6825  0.6825  0.4269  0.4269  0.3496  0.2428  0.1540  0.1540  0.1032
  0.1308

 Free energy of the ion-electron system (eV)
  ---------------------------------------------------
  alpha Z        PSCENC =      1893.09323658
  Ewald energy   TEWEN  =    214611.82337943
  -Hartree energ DENC   =   -336001.41051955
  -exchange      EXHF   =         0.00000000
  -V(xc)+E(xc)   XCENC  =      3649.24155373
  PAW double counting   =    141473.43616260  -146493.65851251
  entropy T*S    EENTRO =        -0.89429545
  eigenvalues    EBANDS =    -15489.96151781
  atomic energy  EATOM  =    136002.60505376
  Solvation  Ediel_sol  =         0.00000000
  ---------------------------------------------------
  free energy    TOTEN  =      -355.72545921 eV

  energy without entropy =     -354.83116377  energy(sigma->0) =     -355.27831149


--------------------------------------------------------------------------------------------------------




--------------------------------------- Iteration      1(  17)  ---------------------------------------


    POTLOK:  cpu time    0.2430: real time    0.2430
    SETDIJ:  cpu time    0.0171: real time    0.0171
     EDDAV:  cpu time    7.4707: real time    7.4717
       DOS:  cpu time    0.0013: real time    0.0013
    CHARGE:  cpu time    0.2147: real time    0.2148
    MIXING:  cpu time    0.0121: real time    0.0121
    --------------------------------------------
      LOOP:  cpu time    7.9589: real time    7.9600

 eigenvalue-minimisations  :  1312
 total energy-change (2. order) : 0.5008731E+00  (-0.5161829E-01)
 number of electron     791.9999855 magnetization 
 augmentation part      312.3519756 magnetization 

 Broyden mixing:
  rms(total) = 0.17182E+01    rms(broyden)= 0.17182E+01
  rms(prec ) = 0.19678E+01
  weight for this iteration     100.00

 eigenvalues of (default mixing * dielectric matrix)
  average eigenvalue GAMMA=   0.5107
  2.1686  0.8393  0.8393  0.4522  0.4522  0.4221  0.2275  0.1746  0.1746  0.1029
  0.1373  0.1373

 Free energy of the ion-electron system (eV)
  ---------------------------------------------------
  alpha Z        PSCENC =      1893.09323658
  Ewald energy   TEWEN  =    214611.82337943
  -Hartree energ DENC   =   -336010.37016455
  -exchange      EXHF   =         0.00000000
  -V(xc)+E(xc)   XCENC  =      3649.40890440
  PAW double counting   =    141225.87153420  -146243.72759831
  entropy T*S    EENTRO =        -0.89058730
  eigenvalues    EBANDS =    -15483.03834432
  atomic energy  EATOM  =    136002.60505376
  Solvation  Ediel_sol  =         0.00000000
  ---------------------------------------------------
  free energy    TOTEN  =      -355.22458610 eV

  energy without entropy =     -354.33399880  energy(sigma->0) =     -354.77929245


--------------------------------------------------------------------------------------------------------




--------------------------------------- Iteration      1(  18)  ---------------------------------------


    POTLOK:  cpu time    0.2467: real time    0.2467
    SETDIJ:  cpu time    0.0174: real time    0.0174
     EDDAV:  cpu time    7.6771: real time    7.6784
       DOS:  cpu time    0.0013: real time    0.0012
    CHARGE:  cpu time    0.2125: real time    0.2125
    MIXING:  cpu time    0.0130: real time    0.0131
    --------------------------------------------
      LOOP:  cpu time    8.1679: real time    8.1693

 eigenvalue-minimisations  :  1312
 total energy-change (2. order) : 0.5911644E+00  (-0.3562806E-01)
 number of electron     791.9999863 magnetization 
 augmentation part      312.2910624 magnetization 

 Broyden mixing:
  rms(total) = 0.15949E+01    rms(broyden)= 0.15948E+01
  rms(prec ) = 0.18144E+01
  weight for this iteration     100.00

 eigenvalues of (default mixing * dielectric matrix)
  average eigenvalue GAMMA=   0.5079
  2.1620  0.9578  0.9578  0.4661  0.4661  0.4056  0.3029  0.1895  0.1895  0.1439
  0.1439  0.1030  0.1139

 Free energy of the ion-electron system (eV)
  ---------------------------------------------------
  alpha Z        PSCENC =      1893.09323658
  Ewald energy   TEWEN  =    214611.82337943
  -Hartree energ DENC   =   -336014.12301918
  -exchange      EXHF   =         0.00000000
  -V(xc)+E(xc)   XCENC  =      3649.50935162
  PAW double counting   =    140952.36381928  -145967.11763459
  entropy T*S    EENTRO =        -0.90848727
  eigenvalues    EBANDS =    -15481.87912133
  atomic energy  EATOM  =    136002.60505376
  Solvation  Ediel_sol  =         0.00000000
  ---------------------------------------------------
  free energy    TOTEN  =      -354.63342171 eV

  energy without entropy =     -353.72493444  energy(sigma->0) =     -354.17917807


--------------------------------------------------------------------------------------------------------




--------------------------------------- Iteration      1(  19)  ---------------------------------------


    POTLOK:  cpu time    0.2463: real time    0.2463
    SETDIJ:  cpu time    0.0172: real time    0.0172
     EDDAV:  cpu time    7.4337: real time    7.4353
       DOS:  cpu time    0.0012: real time    0.0012
    CHARGE:  cpu time    0.2100: real time    0.2100
    MIXING:  cpu time    0.0133: real time    0.0134
    --------------------------------------------
      LOOP:  cpu time    7.9219: real time    7.9234

 eigenvalue-minimisations  :  1304
 total energy-change (2. order) : 0.5414058E+00  (-0.1561053E-01)
 number of electron     791.9999860 magnetization 
 augmentation part      312.2345499 magnetization 

 Broyden mixing:
  rms(total) = 0.14337E+01    rms(broyden)= 0.14336E+01
  rms(prec ) = 0.16333E+01
  weight for this iteration     100.00

 eigenvalues of (default mixing * dielectric matrix)
  average eigenvalue GAMMA=   0.5371
  2.1529  1.2006  1.2006  0.5004  0.5004  0.3916  0.3916  0.2402  0.2402  0.1029
  0.1687  0.1598  0.1348  0.1348

 Free energy of the ion-electron system (eV)
  ---------------------------------------------------
  alpha Z        PSCENC =      1893.09323658
  Ewald energy   TEWEN  =    214611.82337943
  -Hartree energ DENC   =   -336019.40912771
  -exchange      EXHF   =         0.00000000
  -V(xc)+E(xc)   XCENC  =      3649.62686532
  PAW double counting   =    140696.32751421  -145708.35909921
  entropy T*S    EENTRO =        -0.91598870
  eigenvalues    EBANDS =    -15478.88384954
  atomic energy  EATOM  =    136002.60505376
  Solvation  Ediel_sol  =         0.00000000
  ---------------------------------------------------
  free energy    TOTEN  =      -354.09201586 eV

  energy without entropy =     -353.17602716  energy(sigma->0) =     -353.63402151


--------------------------------------------------------------------------------------------------------




--------------------------------------- Iteration      1(  20)  ---------------------------------------


    POTLOK:  cpu time    0.2477: real time    0.2477
    SETDIJ:  cpu time    0.0173: real time    0.0174
     EDDAV:  cpu time    8.1270: real time    8.1284
       DOS:  cpu time    0.0012: real time    0.0012
    CHARGE:  cpu time    0.2119: real time    0.2120
    MIXING:  cpu time    0.0138: real time    0.0138
    --------------------------------------------
      LOOP:  cpu time    8.6189: real time    8.6205

 eigenvalue-minimisations  :  1408
 total energy-change (2. order) : 0.6781860E+00  (-0.1877814E-01)
 number of electron     791.9999858 magnetization 
 augmentation part      312.1914259 magnetization 

 Broyden mixing:
  rms(total) = 0.12601E+01    rms(broyden)= 0.12600E+01
  rms(prec ) = 0.14250E+01
  weight for this iteration     100.00

 eigenvalues of (default mixing * dielectric matrix)
  average eigenvalue GAMMA=   0.5692
  2.1543  1.4715  1.4715  0.5617  0.5617  0.4285  0.4285  0.3782  0.2223  0.1736
  0.1736  0.1029  0.1429  0.1429  0.1238

 Free energy of the ion-electron system (eV)
  ---------------------------------------------------
  alpha Z        PSCENC =      1893.09323658
  Ewald energy   TEWEN  =    214611.82337943
  -Hartree energ DENC   =   -336028.42419554
  -exchange      EXHF   =         0.00000000
  -V(xc)+E(xc)   XCENC  =      3649.76936459
  PAW double counting   =    140314.92426100  -145322.63267003
  entropy T*S    EENTRO =        -0.93887210
  eigenvalues    EBANDS =    -15473.63338754
  atomic energy  EATOM  =    136002.60505376
  Solvation  Ediel_sol  =         0.00000000
  ---------------------------------------------------
  free energy    TOTEN  =      -353.41382986 eV

  energy without entropy =     -352.47495776  energy(sigma->0) =     -352.94439381


--------------------------------------------------------------------------------------------------------




--------------------------------------- Iteration      1(  21)  ---------------------------------------


    POTLOK:  cpu time    0.2469: real time    0.2469
    SETDIJ:  cpu time    0.0173: real time    0.0173
     EDDAV:  cpu time    7.4126: real time    7.4136
       DOS:  cpu time    0.0012: real time    0.0012
    CHARGE:  cpu time    0.2120: real time    0.2120
    MIXING:  cpu time    0.0143: real time    0.0143
    --------------------------------------------
      LOOP:  cpu time    7.9043: real time    7.9053

 eigenvalue-minimisations  :  1304
 total energy-change (2. order) : 0.6644707E+00  (-0.3046491E-01)
 number of electron     791.9999854 magnetization 
 augmentation part      312.1238610 magnetization 

 Broyden mixing:
  rms(total) = 0.98424E+00    rms(broyden)= 0.98415E+00
  rms(prec ) = 0.11131E+01
  weight for this iteration     100.00

 eigenvalues of (default mixing * dielectric matrix)
  average eigenvalue GAMMA=   0.6263
  2.2036  1.8075  1.8075  0.7389  0.7389  0.4625  0.4625  0.4852  0.2511  0.1945
  0.1945  0.1029  0.1548  0.1446  0.1446  0.1274

 Free energy of the ion-electron system (eV)
  ---------------------------------------------------
  alpha Z        PSCENC =      1893.09323658
  Ewald energy   TEWEN  =    214611.82337943
  -Hartree energ DENC   =   -336042.32318356
  -exchange      EXHF   =         0.00000000
  -V(xc)+E(xc)   XCENC  =      3649.92691784
  PAW double counting   =    139886.93087737  -144889.44495085
  entropy T*S    EENTRO =        -0.95660260
  eigenvalues    EBANDS =    -15464.40408715
  atomic energy  EATOM  =    136002.60505376
  Solvation  Ediel_sol  =         0.00000000
  ---------------------------------------------------
  free energy    TOTEN  =      -352.74935918 eV

  energy without entropy =     -351.79275658  energy(sigma->0) =     -352.27105788


--------------------------------------------------------------------------------------------------------




--------------------------------------- Iteration      1(  22)  ---------------------------------------


    POTLOK:  cpu time    0.2494: real time    0.2494
    SETDIJ:  cpu time    0.0186: real time    0.0186
     EDDAV:  cpu time    7.7115: real time    7.7126
       DOS:  cpu time    0.0013: real time    0.0013
    CHARGE:  cpu time    0.2160: real time    0.2160
    MIXING:  cpu time    0.0148: real time    0.0148
    --------------------------------------------
      LOOP:  cpu time    8.2116: real time    8.2128

 eigenvalue-minimisations  :  1320
 total energy-change (2. order) : 0.4773895E+00  (-0.3847592E-01)
 number of electron     791.9999850 magnetization 
 augmentation part      312.0866769 magnetization 

 Broyden mixing:
  rms(total) = 0.67206E+00    rms(broyden)= 0.67183E+00
  rms(prec ) = 0.75071E+00
  weight for this iteration     100.00

 eigenvalues of (default mixing * dielectric matrix)
  average eigenvalue GAMMA=   0.6345
  2.1937  1.9631  1.9631  0.8293  0.8293  0.5294  0.4688  0.4688  0.2767  0.2164
  0.1029  0.1888  0.1816  0.1631  0.1428  0.1428  0.1267

 Free energy of the ion-electron system (eV)
  ---------------------------------------------------
  alpha Z        PSCENC =      1893.09323658
  Ewald energy   TEWEN  =    214611.82337943
  -Hartree energ DENC   =   -336057.33552205
  -exchange      EXHF   =         0.00000000
  -V(xc)+E(xc)   XCENC  =      3650.03721164
  PAW double counting   =    139477.51263846  -144474.13012031
  entropy T*S    EENTRO =        -0.98021953
  eigenvalues    EBANDS =    -15454.89762764
  atomic energy  EATOM  =    136002.60505376
  Solvation  Ediel_sol  =         0.00000000
  ---------------------------------------------------
  free energy    TOTEN  =      -352.27196967 eV

  energy without entropy =     -351.29175013  energy(sigma->0) =     -351.78185990


--------------------------------------------------------------------------------------------------------




--------------------------------------- Iteration      1(  23)  ---------------------------------------


    POTLOK:  cpu time    0.2495: real time    0.2496
    SETDIJ:  cpu time    0.0171: real time    0.0171
     EDDAV:  cpu time    7.6201: real time    7.6216
       DOS:  cpu time    0.0013: real time    0.0013
    CHARGE:  cpu time    0.2185: real time    0.2186
    MIXING:  cpu time    0.0156: real time    0.0156
    --------------------------------------------
      LOOP:  cpu time    8.1222: real time    8.1237

 eigenvalue-minimisations  :  1352
 total energy-change (2. order) : 0.2593844E+00  (-0.3953317E-01)
 number of electron     791.9999840 magnetization 
 augmentation part      311.9557180 magnetization 

 Broyden mixing:
  rms(total) = 0.30942E+00    rms(broyden)= 0.30883E+00
  rms(prec ) = 0.33486E+00
  weight for this iteration     100.00

 eigenvalues of (default mixing * dielectric matrix)
  average eigenvalue GAMMA=   0.6369
  2.1771  2.0187  2.0187  0.9391  0.9391  0.5445  0.4755  0.4755  0.3944  0.2507
  0.1958  0.1958  0.1029  0.1614  0.1614  0.1428  0.1428  0.1271

 Free energy of the ion-electron system (eV)
  ---------------------------------------------------
  alpha Z        PSCENC =      1893.09323658
  Ewald energy   TEWEN  =    214611.82337943
  -Hartree energ DENC   =   -336072.75981370
  -exchange      EXHF   =         0.00000000
  -V(xc)+E(xc)   XCENC  =      3650.20076124
  PAW double counting   =    139004.74065676  -143995.48673291
  entropy T*S    EENTRO =        -1.01944842
  eigenvalues    EBANDS =    -15445.20967798
  atomic energy  EATOM  =    136002.60505376
  Solvation  Ediel_sol  =         0.00000000
  ---------------------------------------------------
  free energy    TOTEN  =      -352.01258524 eV

  energy without entropy =     -350.99313682  energy(sigma->0) =     -351.50286103


--------------------------------------------------------------------------------------------------------




--------------------------------------- Iteration      1(  24)  ---------------------------------------


    POTLOK:  cpu time    0.2512: real time    0.2513
    SETDIJ:  cpu time    0.0175: real time    0.0175
     EDDAV:  cpu time    7.4819: real time    7.4827
       DOS:  cpu time    0.0013: real time    0.0013
    CHARGE:  cpu time    0.2136: real time    0.2137
    MIXING:  cpu time    0.0170: real time    0.0170
    --------------------------------------------
      LOOP:  cpu time    7.9825: real time    7.9836

 eigenvalue-minimisations  :  1248
 total energy-change (2. order) : 0.1038396E-01  (-0.2118243E-01)
 number of electron     791.9999842 magnetization 
 augmentation part      311.9890659 magnetization 

 Broyden mixing:
  rms(total) = 0.24449E+00    rms(broyden)= 0.24427E+00
  rms(prec ) = 0.26543E+00
  weight for this iteration     100.00

 eigenvalues of (default mixing * dielectric matrix)
  average eigenvalue GAMMA=   0.6401
  2.1372  2.0196  2.0196  1.1103  1.1103  0.5598  0.5598  0.4722  0.4722  0.2715
  0.2040  0.2040  0.1029  0.1750  0.1750  0.1552  0.1432  0.1432  0.1269

 Free energy of the ion-electron system (eV)
  ---------------------------------------------------
  alpha Z        PSCENC =      1893.09323658
  Ewald energy   TEWEN  =    214611.82337943
  -Hartree energ DENC   =   -336077.27427452
  -exchange      EXHF   =         0.00000000
  -V(xc)+E(xc)   XCENC  =      3650.18573142
  PAW double counting   =    138839.20732618  -143827.69385211
  entropy T*S    EENTRO =        -1.03708894
  eigenvalues    EBANDS =    -15442.91171308
  atomic energy  EATOM  =    136002.60505376
  Solvation  Ediel_sol  =         0.00000000
  ---------------------------------------------------
  free energy    TOTEN  =      -352.00220128 eV

  energy without entropy =     -350.96511234  energy(sigma->0) =     -351.48365681


--------------------------------------------------------------------------------------------------------




--------------------------------------- Iteration      1(  25)  ---------------------------------------


    POTLOK:  cpu time    0.2516: real time    0.2518
    SETDIJ:  cpu time    0.0172: real time    0.0172
     EDDAV:  cpu time    6.7875: real time    6.7887
       DOS:  cpu time    0.0013: real time    0.0013
    CHARGE:  cpu time    0.2161: real time    0.2161
    MIXING:  cpu time    0.0169: real time    0.0169
    --------------------------------------------
      LOOP:  cpu time    7.2907: real time    7.2921

 eigenvalue-minimisations  :  1160
 total energy-change (2. order) : 0.1179641E-01  (-0.9334049E-02)
 number of electron     791.9999840 magnetization 
 augmentation part      312.0366683 magnetization 

 Broyden mixing:
  rms(total) = 0.17578E+00    rms(broyden)= 0.17565E+00
  rms(prec ) = 0.18774E+00
  weight for this iteration     100.00

 eigenvalues of (default mixing * dielectric matrix)
  average eigenvalue GAMMA=   0.6424
  2.0750  1.9037  1.9037  1.2961  1.2961  0.6197  0.6197  0.5318  0.4628  0.4628
  0.2658  0.1994  0.1994  0.1029  0.1778  0.1676  0.1269  0.1433  0.1433  0.1499

 Free energy of the ion-electron system (eV)
  ---------------------------------------------------
  alpha Z        PSCENC =      1893.09323658
  Ewald energy   TEWEN  =    214611.82337943
  -Hartree energ DENC   =   -336085.26028139
  -exchange      EXHF   =         0.00000000
  -V(xc)+E(xc)   XCENC  =      3650.14985907
  PAW double counting   =    138671.49237488  -143657.76208702
  entropy T*S    EENTRO =        -1.03557309
  eigenvalues    EBANDS =    -15437.09636709
  atomic energy  EATOM  =    136002.60505376
  Solvation  Ediel_sol  =         0.00000000
  ---------------------------------------------------
  free energy    TOTEN  =      -351.99040487 eV

[...]
    FORCOR:  cpu time    0.3382: real time    0.3384
    FORHAR:  cpu time    0.1486: real time    0.1486
    MIXING:  cpu time    0.0230: real time    0.0230
    OFIELD:  cpu time    0.0001: real time    0.0001

  FORCE on cell =-STRESS in cart. coord.  units (eV):
  Direction    XX          YY          ZZ          XY          YZ          ZX
  --------------------------------------------------------------------------------------
  Alpha Z  1893.09324  1893.09324  1893.09324
  Ewald  262008.10775265846.98435************ -1424.96523  -700.93463   978.20100
  Hartree298255.57827301374.83591************ -1223.38639  -515.27984   782.22215
  E(xc)   -5050.88050 -5049.54718 -5056.02142    -0.45743    -0.83160     0.47865
  Local  ************************563657.63358  2639.29983  1195.24813 -1743.13545
  n-local  -612.57133  -611.60674  -621.40665     1.16711     3.42219    -4.98593
  augment  5789.45836  5781.70430  5812.87836     1.39408     3.64051    -2.38470
  Kinetic 11076.41971 11054.28070 11153.38890     6.76416    14.30604   -12.79179
  Fock        0.00000     0.00000     0.00000     0.00000     0.00000     0.00000
  -------------------------------------------------------------------------------------
  Total      82.86109    77.00585   104.99507    -0.18387    -0.42919    -2.39606
  in kB      67.56192    62.78778    85.60917    -0.14992    -0.34994    -1.95366
  external pressure =       71.99 kB  Pullay stress =        0.00 kB


 VOLUME and BASIS-vectors are now :
 -----------------------------------------------------------------------------
  energy-cutoff  :      450.00
  volume of cell :     1964.98
      direct lattice vectors                 reciprocal lattice vectors
    10.079732985  0.000000000  0.000000000     0.099208977 -0.037612667  0.000000000
     3.573298043  9.425102554  0.000000000     0.000000000  0.106099641  0.000000000
     0.000000000  0.000000000 20.683503555     0.000000000  0.000000000  0.048347708

  length of vectors
    10.079732985 10.079732985 20.683503555     0.106099641  0.106099641  0.048347708


 FORCES acting on ions
    electron-ion (+dipol)            ewald-force                    non-local-force                 convergence-correction
 -----------------------------------------------------------------------------------------------
   0.369E+03 0.499E+02 0.540E+04   -.370E+03 -.503E+02 -.541E+04   -.195E+00 0.975E-02 0.580E+01   0.572E-01 0.216E-01 -.178E+00
   0.469E+03 -.408E+02 0.311E+04   -.473E+03 0.417E+02 -.311E+04   0.240E+01 -.113E+01 0.466E+00   0.198E+00 -.715E-01 -.861E-01
   -.529E-01 -.314E+03 -.300E+02   -.982E+00 0.316E+03 0.305E+02   0.863E+00 -.152E+01 -.715E+00   0.136E+00 -.128E+00 0.354E+00
   0.444E+01 -.529E+03 -.302E+04   -.416E+01 0.532E+03 0.302E+04   -.147E+00 -.257E+01 0.412E+00   0.162E+00 0.197E-02 0.281E+00
   -.185E+03 -.505E+03 -.559E+04   0.184E+03 0.501E+03 0.559E+04   0.714E+00 0.352E+01 0.610E+01   -.543E-01 0.368E-01 0.278E-01
   -.512E+02 -.169E+03 0.176E+04   0.512E+02 0.168E+03 -.176E+04   0.597E-01 0.856E+00 -.322E+01   0.305E-01 -.509E+00 0.341E+00
   -.647E+02 -.429E+03 -.103E+04   0.643E+02 0.429E+03 0.103E+04   0.479E+00 -.120E+01 0.791E+00   -.121E+00 0.114E+00 0.309E+00
   0.553E+02 -.742E+03 -.435E+04   -.566E+02 0.745E+03 0.435E+04   0.744E+00 -.156E+01 -.244E+01   0.715E-01 -.144E+00 0.410E+00
   0.177E+03 -.318E+03 0.454E+04   -.180E+03 0.320E+03 -.455E+04   0.352E+01 -.223E+01 0.604E+01   -.120E+00 -.268E+00 -.466E-02
   0.960E+02 -.854E+02 -.490E+04   -.965E+02 0.889E+02 0.491E+04   -.593E-01 -.340E+01 -.367E+01   -.112E+00 0.562E-02 0.339E+00
   0.362E+02 -.715E+03 0.155E+04   -.354E+02 0.719E+03 -.155E+04   -.236E+00 -.380E+01 0.542E+00   -.341E-01 0.297E+00 0.314E+00
   0.107E+01 -.451E+03 -.179E+04   -.132E+01 0.452E+03 0.179E+04   0.414E+00 -.143E+01 0.135E+01   -.902E-01 0.853E-01 0.644E+00
   0.267E+03 0.441E+03 0.429E+04   -.268E+03 -.443E+03 -.429E+04   0.842E+00 0.169E+01 0.282E+01   0.359E+00 -.131E+00 -.976E-01
   0.302E+03 0.599E+03 0.116E+04   -.303E+03 -.600E+03 -.116E+04   0.102E+01 0.914E+00 -.164E+01   0.172E+00 -.197E-01 0.209E+00
   0.551E+03 0.231E+03 -.178E+04   -.553E+03 -.232E+03 0.177E+04   0.206E+01 0.449E+00 0.221E+01   0.285E+00 0.171E+00 0.408E+00
   0.462E+03 0.257E+03 -.490E+04   -.464E+03 -.258E+03 0.491E+04   0.142E+01 0.181E+01 -.368E+01   -.354E-01 -.525E-01 0.287E+00
   0.101E+04 0.378E+03 0.317E+04   -.101E+04 -.381E+03 -.317E+04   0.372E+01 0.220E+01 -.629E+00   0.100E+00 0.124E+00 0.890E-01
   0.458E+03 0.259E+03 0.499E+02   -.460E+03 -.259E+03 -.496E+02   0.147E+01 -.182E+00 -.498E+00   -.378E-01 0.152E+00 0.292E+00
   0.394E+03 0.534E+02 -.279E+04   -.398E+03 -.537E+02 0.279E+04   0.232E+01 0.743E+00 0.722E+00   0.151E+00 -.864E-01 0.496E+00
   -.115E+03 0.408E+03 -.524E+04   0.111E+03 -.410E+03 0.525E+04   0.556E+01 0.144E+01 -.945E+00   0.199E+00 0.963E-01 0.110E+00
   0.481E+03 -.222E+03 0.577E+04   -.482E+03 0.223E+03 -.578E+04   0.871E+00 0.531E-01 0.551E+01   0.539E-01 -.425E+00 -.525E-01
   0.273E+03 0.366E+03 -.424E+04   -.276E+03 -.368E+03 0.424E+04   0.255E+01 0.142E+01 -.297E-01   -.128E+00 0.667E-01 0.334E+00
   -.752E+03 -.317E+03 0.431E+04   0.755E+03 0.320E+03 -.431E+04   -.106E+01 -.319E+01 0.349E+01   -.207E+00 -.727E-01 -.149E+00
   0.171E+03 0.137E+02 0.208E+04   -.171E+03 -.151E+02 -.208E+04   0.715E+00 0.485E+00 -.112E+01   -.393E+00 0.167E-01 0.347E+00
   0.423E+03 0.331E+03 -.948E+03   -.424E+03 -.331E+03 0.947E+03   0.156E+01 0.378E+00 0.836E-01   -.245E+00 -.181E+00 0.574E+00
   -.744E+03 0.969E+02 -.401E+04   0.749E+03 -.980E+02 0.401E+04   -.456E+01 0.117E+01 -.122E+01   -.143E+00 0.117E+00 0.239E+00
   -.367E+03 0.790E+03 0.522E+04   0.363E+03 -.791E+03 -.522E+04   0.401E+01 -.269E+00 -.595E+00   -.572E-01 -.870E-01 -.169E+00
   -.368E+03 0.584E+03 0.230E+04   0.370E+03 -.586E+03 -.230E+04   -.147E+01 0.162E+01 -.131E+01   -.127E+00 -.385E-01 0.217E+00
   -.399E+03 0.147E+03 -.741E+03   0.400E+03 -.146E+03 0.738E+03   -.316E+00 -.605E+00 0.280E+01   -.141E-01 0.182E+00 0.413E+00
   -.942E+03 -.196E+03 0.408E+04   0.948E+03 0.199E+03 -.408E+04   -.534E+01 -.170E+01 0.861E+00   -.410E-01 -.205E-01 -.201E-01
   -.542E+03 -.381E+02 0.104E+04   0.543E+03 0.380E+02 -.104E+04   -.194E+01 0.123E+00 0.606E+00   -.239E-01 0.716E-01 0.193E+00
   -.306E+03 0.767E+02 -.179E+04   0.308E+03 -.774E+02 0.179E+04   -.189E+01 0.128E+01 0.270E+01   0.813E-01 -.190E+00 0.685E+00
   -.197E+03 0.324E+03 -.495E+04   0.198E+03 -.325E+03 0.495E+04   -.358E+00 0.107E+01 0.214E+01   -.701E-01 -.198E-01 0.264E+00
   -.373E+03 -.340E+03 0.359E+04   0.378E+03 0.340E+03 -.359E+04   -.393E+01 -.574E+00 0.398E+01   0.164E+00 0.255E+00 0.544E-01
   -.458E+03 0.175E+03 0.890E+02   0.459E+03 -.174E+03 -.894E+02   -.100E+01 -.648E+00 -.873E-01   0.144E+00 -.151E+00 0.478E+00
   -.374E+03 0.445E+03 -.326E+04   0.378E+03 -.447E+03 0.326E+04   -.447E+01 0.271E+01 -.162E+01   0.767E-01 0.254E-01 0.337E+00
   -.113E+03 0.910E+02 -.205E+04   0.114E+03 -.918E+02 0.205E+04   -.436E+00 0.651E+00 -.199E+01   -.559E-01 -.376E-02 0.813E-01
   -.276E+02 0.552E+03 0.163E+04   0.277E+02 -.559E+03 -.164E+04   -.577E+00 0.335E+01 0.179E+01   0.813E-01 0.316E-01 -.450E-01
   0.345E+02 0.155E+03 0.464E+03   -.353E+02 -.156E+03 -.466E+03   0.701E+00 0.125E+01 0.162E+01   0.863E-01 0.957E-01 0.140E+00
   0.137E+02 0.135E+03 -.715E+03   -.149E+02 -.137E+03 0.709E+03   0.765E+00 0.159E+01 0.162E+01   0.478E-02 0.987E-01 0.166E+00
   0.348E+03 0.157E+03 0.222E+04   -.352E+03 -.159E+03 -.222E+04   0.179E+01 0.108E+01 0.193E+01   0.281E-01 0.570E-02 -.412E-01
   0.121E+03 0.742E+02 0.887E+03   -.121E+03 -.745E+02 -.884E+03   0.235E+00 0.275E+00 -.806E+00   -.806E-02 0.451E-01 -.316E-01
   0.198E+02 0.116E+03 -.830E+02   -.202E+02 -.118E+03 0.820E+02   0.210E+00 0.217E+01 0.772E+00   0.327E-01 -.706E-01 0.155E+00
   -.636E+02 0.206E+03 -.131E+04   0.647E+02 -.208E+03 0.131E+04   -.115E+01 0.383E+00 -.124E+01   0.119E+00 -.170E-01 0.164E+00
   -.382E+02 0.720E+02 0.535E+03   0.392E+02 -.731E+02 -.533E+03   -.734E+00 0.102E+01 -.675E+00   -.163E-01 -.113E+00 0.233E+00
   -.360E+02 0.158E+03 -.436E+03   0.362E+02 -.159E+03 0.432E+03   0.252E+00 0.150E+01 0.150E+01   -.159E-01 -.462E-01 0.166E+00
   -.510E+02 0.166E+03 -.172E+04   0.509E+02 -.167E+03 0.173E+04   0.595E+00 -.267E+00 -.662E+00   0.532E-02 0.155E-01 0.106E+00
   -.266E+02 -.283E+03 0.214E+04   0.271E+02 0.284E+03 -.214E+04   -.101E+01 -.116E+01 0.216E+01   -.116E+00 0.157E+00 -.142E+00
   -.634E+02 0.138E+03 0.235E+04   0.639E+02 -.139E+03 -.235E+04   -.167E-01 0.351E+00 0.195E+01   -.777E-02 -.964E-01 -.885E-01
   -.156E+03 0.226E+02 0.903E+03   0.158E+03 -.228E+02 -.901E+03   -.198E+01 0.747E+00 -.343E-01   -.949E-01 -.825E-01 -.128E-02
   -.107E+03 -.812E+02 -.147E+03   0.110E+03 0.831E+02 0.146E+03   -.210E+01 -.166E+01 0.789E-01   -.689E-01 -.117E+00 0.227E+00
   -.248E+03 -.172E+03 -.136E+04   0.249E+03 0.173E+03 0.136E+04   -.203E+00 -.378E+00 -.135E+01   -.110E+00 0.255E-01 0.299E-01
   -.325E+03 -.168E+03 0.185E+04   0.327E+03 0.170E+03 -.185E+04   -.694E+00 -.992E+00 0.870E+00   0.644E-01 -.188E+00 -.356E-01
   -.213E+03 -.794E+02 0.628E+03   0.215E+03 0.810E+02 -.630E+03   -.207E+01 -.210E+01 0.149E+01   -.307E-01 0.114E-01 0.329E-01
   -.112E+03 -.156E+03 -.525E+03   0.113E+03 0.158E+03 0.524E+03   -.170E+01 -.212E+01 -.227E+00   0.696E-02 -.669E-03 0.174E+00
   -.233E+02 -.182E+03 -.178E+04   0.246E+02 0.181E+03 0.178E+04   -.432E+00 0.442E+00 -.769E+00   0.417E-01 -.144E+00 0.153E+00
   -.968E+02 -.145E+03 0.279E+03   0.988E+02 0.146E+03 -.280E+03   -.149E+01 -.139E+01 0.116E+01   0.447E-01 0.885E-01 0.149E+00
   -.150E+03 -.629E+02 -.838E+03   0.152E+03 0.655E+02 0.837E+03   -.157E+01 -.242E+01 -.809E+00   0.197E-01 -.322E-01 0.217E+00
   0.367E+02 0.228E+03 -.216E+04   -.362E+02 -.230E+03 0.216E+04   -.236E+00 0.661E+00 -.185E+01   -.101E-01 0.181E-01 0.488E-01
   0.165E+03 -.214E+03 0.156E+04   -.168E+03 0.216E+03 -.157E+04   0.248E+01 -.139E+01 0.248E+01   0.466E-01 0.154E+00 -.241E-01
   0.209E+03 -.112E+03 0.183E+04   -.211E+03 0.112E+03 -.184E+04   0.109E+01 0.411E+00 0.298E+01   0.140E+00 0.341E-01 -.984E-01
   0.143E+03 -.810E+02 0.464E+03   -.145E+03 0.829E+02 -.462E+03   0.218E+01 -.109E+01 0.103E+01   0.111E+00 -.296E-01 0.101E+00
   0.166E+03 -.348E+02 -.618E+03   -.169E+03 0.360E+02 0.619E+03   0.232E+01 -.821E+00 -.175E+01   0.956E-01 0.271E-01 0.171E+00
   0.426E+03 -.148E+03 -.180E+04   -.432E+03 0.151E+03 0.180E+04   0.310E+01 -.179E+01 -.139E+01   0.891E-01 0.374E-01 0.807E-01
   0.185E+03 -.567E+02 0.162E+03   -.187E+03 0.575E+02 -.161E+03   0.247E+01 -.847E+00 -.513E+00   -.717E-01 0.687E-01 0.125E+00
   0.908E+02 -.995E+02 -.105E+04   -.934E+02 0.101E+03 0.105E+04   0.283E+01 -.149E+01 -.614E+00   -.210E-01 0.291E-01 0.156E+00
   0.372E+02 -.210E+03 -.220E+04   -.386E+02 0.211E+03 0.221E+04   0.351E+00 -.471E+00 -.148E+01   0.611E-01 -.302E-01 0.917E-01
   0.466E+03 0.598E+02 0.145E+04   -.470E+03 -.590E+02 -.146E+04   0.202E+01 0.229E-01 0.177E+01   -.856E-01 -.140E+00 0.446E-01
   -.569E+03 -.272E+03 0.197E+04   0.574E+03 0.275E+03 -.197E+04   -.199E+01 -.153E+01 0.252E+01   -.337E-01 0.626E-01 -.826E-01
   -.108E+03 -.349E+03 0.954E+03   0.108E+03 0.354E+03 -.955E+03   -.371E+00 -.309E+01 0.324E+00   -.284E-01 0.441E-01 0.370E-01
   0.131E+03 -.967E+02 -.192E+03   -.133E+03 0.975E+02 0.193E+03   0.275E+01 -.111E+01 -.510E+00   -.712E-01 -.106E-01 0.208E+00
   0.157E+03 0.705E+02 -.148E+04   -.159E+03 -.699E+02 0.148E+04   0.159E+01 -.953E+00 -.276E+01   -.125E+00 0.474E-01 0.226E+00
 -----------------------------------------------------------------------------------------------
   -.197E+02 0.141E+02 -.458E+02   0.202E-11 -.105E-11 -.136E-11   0.193E+02 -.132E+02 0.346E+02   0.494E+00 -.782E+00 0.112E+02
 
 
 POSITION                                       TOTAL-FORCE (eV/Angst)
 -----------------------------------------------------------------------------------
      6.98175      9.35577      1.16269        -0.916263     -0.427555     -1.118465
      6.84285      7.49250      2.62550        -1.003523     -0.263105      2.318436
      7.82056      6.07621      5.25100        -0.036771     -0.138988      0.153121
      8.79827      4.65991      7.87651         0.292280      0.386232     -0.193579
      9.56421      3.24420     10.02696         0.453233      0.097425      1.474982
      2.61774      3.87870      3.50067         0.035786     -0.581874      2.150060
      3.59545      2.46241      6.12617        -0.041868     -0.333636     -0.167624
      4.57317      1.04611      8.75167        -0.472628      1.329004     -0.848844
     11.98406      5.74199      2.17898        -0.129929     -0.367214     -1.041618
      3.79600      7.34017      9.34039        -0.691141      0.178798      0.629214
      8.47237      0.26490      4.37584         0.523501      0.117043      1.619518
     13.02338      8.27371      7.00134         0.074550     -0.392867     -0.318643
      5.63130      5.24426      2.32183        -0.049965     -0.078151     -1.259204
      6.61816      3.96023      4.55733        -0.398009      0.141629      1.477586
      7.59587      2.54394      7.18283         0.224781     -0.410613     -1.508932
      8.39643      1.14846      9.48247        -0.714694      0.250848      1.072161
      1.41534      1.76273      2.80700        -0.238804     -0.200921      1.814574
      2.39305      0.34643      5.43250        -0.079209     -0.127257      0.156288
      6.94406      8.35524      8.05800        -0.717237      0.324669     -2.713656
      7.03156      6.86287      9.86037         1.002342     -0.368470      0.897140
      2.04634      3.54884      1.01248        -0.227295      0.636821     -1.610285
      2.65859      4.79912      8.65446        -1.113696     -0.358976      1.319856
      9.13106      8.40908      2.12776         1.538153     -0.252556     -0.170132
     10.84326      7.57403      3.68216        -0.120260     -0.856599      2.100840
     11.82097      6.15773      6.30767        -0.065913      0.132465     -0.025940
      0.83967      1.55505      8.80523         0.797443      0.198178      0.644889
      8.08485      5.62569      1.65222         0.123954     -0.789878     -1.049657
      9.02296      4.33443      3.86366         0.573013      0.013251      0.482897
     10.00068      2.91813      6.48916         0.096771     -0.043861     -0.208110
      3.82015      2.13692      2.11332         0.607059      0.689096      1.255864
      4.79786      0.72063      4.73883        -0.596168      0.105132      0.960355
      9.34887      8.72943      7.36433        -0.347044      0.347241     -1.490458
     10.31697      7.70124      9.34959         0.365876     -0.770144      1.057046
      3.16834      7.94822      2.98849         0.763244     -0.598619      0.851980
      4.14605      6.53193      5.61399         0.245355      0.167876     -0.045062
      5.12376      5.11563      8.23950        -0.051788      0.180268     -1.881114
      3.57932      9.37816      9.91788         0.634894     -0.226264      1.921665
      7.33444      3.98474      2.62731        -0.384632     -2.704788     -2.600974
      8.33317      2.41029      5.05057         0.018290     -0.078095      0.008172
      9.31088      0.99399      7.67607        -0.410890     -0.697965     -3.381765
      2.17179      1.53500      0.85987        -1.460232     -0.613652     -3.227526
      3.13035      0.21279      3.30024        -0.608047      0.011271      1.872474
      7.68136      8.22159      5.92574        -0.087634     -0.224449     -0.102567
      8.65907      6.80530      8.55124         0.052520     -1.523470     -0.237874
      2.47854      6.02409      4.17540         0.305941     -0.192083      1.577388
      3.45626      4.60779      6.80091         0.448736      0.222829     -2.694989
      4.19417      3.32091      8.90586         0.552312     -0.847515      2.165759
     11.52710      7.71940      1.76362        -0.554141      0.232745     -3.582556
      7.81988      7.47989      0.75890         0.469887     -0.780039     -3.781673
      8.88655      6.52099      3.30837         0.525068      0.511105      1.921781
      9.86427      5.10469      5.93387         0.247496      0.065182      0.080838
     10.84198      3.68840      8.55937         1.341758      1.021112     -0.432834
      3.75196      4.37660      1.80451         1.360679      0.503570     -1.769205
      4.66145      2.90719      4.18354        -0.021886     -0.479649      0.383182
      5.63916      1.49089      6.80904        -0.290337      0.137621     -0.859265
      6.49140      0.28725      9.14194         0.915292      0.063759      1.908617
      4.00964      8.71849      5.05870         0.518062     -0.265941      0.936172
      4.98735      7.30220      7.68420         0.953844      0.105766     -2.044748
      5.20458      6.01377     10.09023         0.227031     -0.694666      3.445014
      9.75375      0.59460      2.78775        -0.149707      1.563046     -2.156600
      4.86491      7.19509      1.96047        -0.906626      0.761686     -2.069025
      5.82436      6.04450      4.19167         0.429501      0.785696      2.965017
      6.80207      4.62821      6.81717        -0.056668      0.430754     -0.601597
      7.78591      3.19973      9.12580        -2.373274      0.957611      2.318183
      1.59925      2.43070      5.06683         0.195449      0.037715     -0.029079
      2.57697      1.01441      7.69234         0.160168     -0.027903     -0.532535
      7.39924      8.90935      9.95615        -1.026139      0.836783      3.522924
     10.70128      3.84700      2.44133        -1.807863      0.641413      0.492306
      5.22162      0.86784      1.24949         2.691225      1.462056     -1.945111
      6.49926      0.12116      3.66695        -0.925353      1.634087     -0.433095
     11.02718      8.24201      5.94200         0.122615     -0.263279      0.437457
     12.00489      6.82571      8.56750        -0.812477     -0.300740     -0.259412
 -----------------------------------------------------------------------------------
    total drift:                                0.094920      0.092242     -0.029478


--------------------------------------------------------------------------------------------------------



  FREE ENERGIE OF THE ION-ELECTRON SYSTEM (eV)
  ---------------------------------------------------
  free  energy   TOTEN  =      -351.97951655 eV

  energy  without entropy=     -350.94890629  energy(sigma->0) =     -351.46421142
 


--------------------------------------------------------------------------------------------------------


    POTLOK:  cpu time    0.2655: real time    0.2670


--------------------------------------------------------------------------------------------------------


     LOOP+:  cpu time  260.9114: real time  260.9837
    4ORBIT:  cpu time    0.0000: real time    0.0000

 total amount of memory used by VASP MPI-rank0    68402. kBytes
=======================================================================

   base      :      30000. kBytes
   nonlr-proj:       2287. kBytes
   fftplans  :       8265. kBytes
   grid      :      13942. kBytes
   one-center:         93. kBytes
   wavefun   :      13815. kBytes
 
  
  
 General timing and accounting informations for this job:
 ========================================================
  
                  Total CPU time used (sec):      263.695
                            User time (sec):      263.268
                          System time (sec):        0.427
                         Elapsed time (sec):      264.009
  
                   Maximum memory used (kb):      184876.
                   Average memory used (kb):           0.
  
                          Minor page faults:       124803
                          Major page faults:            0
                 Voluntary context switches:          293
