 104 104   0   0
  0.2492376E+02  0.1125646E-08  0.1125646E-08  0.2288365E-08  0.5000000E-15
  1.000000000000000E-004
  CAR 
 "Millerite NiS"                         
     11.82057202    -66.37694763  301      2.04312537      1.00000000
    -66.377  0.0000E+00  0.0000E+00
    -66.116  0.0000E+00  0.0000E+00
    -65.856  0.0000E+00  0.0000E+00
    -65.595  0.0000E+00  0.0000E+00
    -65.334  0.0000E+00  0.0000E+00
    -65.074  0.0000E+00  0.0000E+00
    -64.813  0.0000E+00  0.0000E+00
    -64.552  0.0000E+00  0.0000E+00
    -64.292  0.0000E+00  0.0000E+00
    -64.031  0.0000E+00  0.0000E+00
    -63.770  0.7876E-10  0.2053E-10
    -63.510  0.4545E-05  0.1185E-05
    -63.249  0.1021E-01  0.2663E-02
    -62.988  0.1242E+01  0.3264E+00
    -62.728  0.2430E+02  0.6660E+01
    -62.467  0.1421E+03  0.4371E+02
    -62.206  0.2562E+03  0.1105E+03
    -61.946  0.3793E+03  0.2094E+03
    -61.685  0.2902E+03  0.2850E+03
    -61.424  0.8023E+02  0.3059E+03
    -61.164  0.2008E+02  0.3112E+03
    -60.903  0.3199E+01  0.3120E+03
    -60.642  0.5713E-01  0.3120E+03
    -60.382  0.5876E-04  0.3120E+03
    -60.121  0.2544E-08  0.3120E+03
    -59.860  0.4259E-14  0.3120E+03
    -59.600  0.0000E+00  0.3120E+03
    -59.339  0.0000E+00  0.3120E+03
    -59.079  0.0000E+00  0.3120E+03
    -58.818  0.0000E+00  0.3120E+03
    -58.557  0.0000E+00  0.3120E+03
    -58.297  0.0000E+00  0.3120E+03
    -58.036  0.0000E+00  0.3120E+03
    -57.775  0.0000E+00  0.3120E+03
    -57.515  0.0000E+00  0.3120E+03
    -57.254  0.0000E+00  0.3120E+03
    -56.993  0.0000E+00  0.3120E+03
    -56.733  0.0000E+00  0.3120E+03
    -56.472  0.0000E+00  0.3120E+03
    -56.211  0.0000E+00  0.3120E+03
    -55.951  0.0000E+00  0.3120E+03
    -55.690  0.0000E+00  0.3120E+03
    -55.429  0.0000E+00  0.3120E+03
    -55.169  0.0000E+00  0.3120E+03
    -54.908  0.0000E+00  0.3120E+03
    -54.647  0.0000E+00  0.3120E+03
    -54.387  0.0000E+00  0.3120E+03
    -54.126  0.0000E+00  0.3120E+03
    -53.865  0.0000E+00  0.3120E+03
    -53.605  0.0000E+00  0.3120E+03
    -53.344  0.0000E+00  0.3120E+03
    -53.083  0.0000E+00  0.3120E+03
    -52.823  0.0000E+00  0.3120E+03
    -52.562  0.0000E+00  0.3120E+03
    -52.301  0.0000E+00  0.3120E+03
    -52.041  0.0000E+00  0.3120E+03
    -51.780  0.0000E+00  0.3120E+03
    -51.519  0.0000E+00  0.3120E+03
    -51.259  0.0000E+00  0.3120E+03
    -50.998  0.0000E+00  0.3120E+03
    -50.737  0.0000E+00  0.3120E+03
    -50.477  0.0000E+00  0.3120E+03
    -50.216  0.0000E+00  0.3120E+03
    -49.955  0.0000E+00  0.3120E+03
    -49.695  0.0000E+00  0.3120E+03
    -49.434  0.0000E+00  0.3120E+03
    -49.173  0.0000E+00  0.3120E+03
    -48.913  0.0000E+00  0.3120E+03
    -48.652  0.0000E+00  0.3120E+03
    -48.392  0.0000E+00  0.3120E+03
    -48.131  0.0000E+00  0.3120E+03
    -47.870  0.0000E+00  0.3120E+03
    -47.610  0.0000E+00  0.3120E+03
    -47.349  0.0000E+00  0.3120E+03
    -47.088  0.0000E+00  0.3120E+03
    -46.828  0.0000E+00  0.3120E+03
    -46.567  0.0000E+00  0.3120E+03
    -46.306  0.0000E+00  0.3120E+03
    -46.046  0.0000E+00  0.3120E+03
    -45.785  0.0000E+00  0.3120E+03
    -45.524  0.0000E+00  0.3120E+03
    -45.264  0.0000E+00  0.3120E+03
    -45.003  0.0000E+00  0.3120E+03
    -44.742  0.0000E+00  0.3120E+03
    -44.482  0.0000E+00  0.3120E+03
    -44.221  0.0000E+00  0.3120E+03
    -43.960  0.0000E+00  0.3120E+03
    -43.700  0.0000E+00  0.3120E+03
    -43.439  0.0000E+00  0.3120E+03
    -43.178  0.0000E+00  0.3120E+03
    -42.918  0.0000E+00  0.3120E+03
    -42.657  0.0000E+00  0.3120E+03
    -42.396  0.0000E+00  0.3120E+03
    -42.136  0.0000E+00  0.3120E+03
    -41.875  0.0000E+00  0.3120E+03
    -41.614  0.0000E+00  0.3120E+03
    -41.354  0.0000E+00  0.3120E+03
    -41.093  0.0000E+00  0.3120E+03
    -40.832  0.0000E+00  0.3120E+03
    -40.572  0.0000E+00  0.3120E+03
    -40.311  0.0000E+00  0.3120E+03
    -40.050  0.0000E+00  0.3120E+03
    -39.790  0.0000E+00  0.3120E+03
    -39.529  0.0000E+00  0.3120E+03
    -39.268  0.0000E+00  0.3120E+03
    -39.008  0.0000E+00  0.3120E+03
    -38.747  0.0000E+00  0.3120E+03
    -38.486  0.0000E+00  0.3120E+03
    -38.226  0.0000E+00  0.3120E+03
    -37.965  0.0000E+00  0.3120E+03
    -37.705  0.0000E+00  0.3120E+03
    -37.444  0.0000E+00  0.3120E+03
    -37.183  0.0000E+00  0.3120E+03
    -36.923  0.0000E+00  0.3120E+03
    -36.662  0.0000E+00  0.3120E+03
    -36.401  0.0000E+00  0.3120E+03
    -36.141  0.0000E+00  0.3120E+03
    -35.880  0.0000E+00  0.3120E+03
    -35.619  0.0000E+00  0.3120E+03
    -35.359  0.0000E+00  0.3120E+03
    -35.098  0.0000E+00  0.3120E+03
    -34.837  0.0000E+00  0.3120E+03
    -34.577  0.0000E+00  0.3120E+03
    -34.316  0.0000E+00  0.3120E+03
    -34.055  0.0000E+00  0.3120E+03
    -33.795  0.0000E+00  0.3120E+03
    -33.534  0.0000E+00  0.3120E+03
    -33.273  0.0000E+00  0.3120E+03
    -33.013  0.0000E+00  0.3120E+03
    -32.752  0.0000E+00  0.3120E+03
    -32.491  0.0000E+00  0.3120E+03
    -32.231  0.0000E+00  0.3120E+03
    -31.970  0.0000E+00  0.3120E+03
    -31.709  0.0000E+00  0.3120E+03
    -31.449  0.0000E+00  0.3120E+03
    -31.188  0.0000E+00  0.3120E+03
    -30.927  0.0000E+00  0.3120E+03
    -30.667  0.0000E+00  0.3120E+03
    -30.406  0.0000E+00  0.3120E+03
    -30.145  0.0000E+00  0.3120E+03
    -29.885  0.0000E+00  0.3120E+03
    -29.624  0.0000E+00  0.3120E+03
    -29.363  0.0000E+00  0.3120E+03
    -29.103  0.0000E+00  0.3120E+03
    -28.842  0.0000E+00  0.3120E+03
    -28.581  0.0000E+00  0.3120E+03
    -28.321  0.0000E+00  0.3120E+03
    -28.060  0.0000E+00  0.3120E+03
    -27.800  0.0000E+00  0.3120E+03
    -27.539  0.0000E+00  0.3120E+03
    -27.278  0.0000E+00  0.3120E+03
    -27.018  0.0000E+00  0.3120E+03
    -26.757  0.0000E+00  0.3120E+03
    -26.496  0.0000E+00  0.3120E+03
    -26.236  0.0000E+00  0.3120E+03
    -25.975  0.0000E+00  0.3120E+03
    -25.714  0.0000E+00  0.3120E+03
    -25.454  0.0000E+00  0.3120E+03
    -25.193  0.0000E+00  0.3120E+03
    -24.932  0.0000E+00  0.3120E+03
    -24.672  0.0000E+00  0.3120E+03
    -24.411  0.0000E+00  0.3120E+03
    -24.150  0.0000E+00  0.3120E+03
    -23.890  0.0000E+00  0.3120E+03
    -23.629  0.0000E+00  0.3120E+03
    -23.368  0.0000E+00  0.3120E+03
    -23.108  0.0000E+00  0.3120E+03
    -22.847  0.0000E+00  0.3120E+03
    -22.586  0.0000E+00  0.3120E+03
    -22.326  0.0000E+00  0.3120E+03
    -22.065  0.0000E+00  0.3120E+03
    -21.804  0.0000E+00  0.3120E+03
    -21.544  0.0000E+00  0.3120E+03
    -21.283  0.0000E+00  0.3120E+03
    -21.022  0.0000E+00  0.3120E+03
    -20.762  0.0000E+00  0.3120E+03
    -20.501  0.0000E+00  0.3120E+03
    -20.240  0.0000E+00  0.3120E+03
    -19.980  0.0000E+00  0.3120E+03
    -19.719  0.0000E+00  0.3120E+03
    -19.458  0.0000E+00  0.3120E+03
    -19.198  0.0000E+00  0.3120E+03
    -18.937  0.0000E+00  0.3120E+03
    -18.676  0.0000E+00  0.3120E+03
    -18.416  0.0000E+00  0.3120E+03
    -18.155  0.0000E+00  0.3120E+03
    -17.894  0.0000E+00  0.3120E+03
    -17.634  0.0000E+00  0.3120E+03
    -17.373  0.0000E+00  0.3120E+03
    -17.113  0.0000E+00  0.3120E+03
    -16.852  0.0000E+00  0.3120E+03
    -16.591  0.0000E+00  0.3120E+03
    -16.331  0.0000E+00  0.3120E+03
    -16.070  0.0000E+00  0.3120E+03
    -15.809  0.0000E+00  0.3120E+03
    -15.549  0.0000E+00  0.3120E+03
    -15.288  0.5419E-10  0.3120E+03
    -15.027  0.3433E-05  0.3120E+03
    -14.767  0.8201E-02  0.3120E+03
    -14.506  0.8406E+00  0.3122E+03
    -14.245  0.5491E+01  0.3137E+03
    -13.985  0.8256E+01  0.3158E+03
    -13.724  0.9699E+01  0.3183E+03
    -13.463  0.1680E+02  0.3227E+03
    -13.203  0.2479E+02  0.3292E+03
    -12.942  0.2406E+02  0.3354E+03
    -12.681  0.2391E+02  0.3417E+03
    -12.421  0.3597E+02  0.3511E+03
    -12.160  0.4387E+02  0.3625E+03
    -11.899  0.4170E+02  0.3734E+03
    -11.639  0.4375E+02  0.3848E+03
    -11.378  0.4938E+02  0.3976E+03
    -11.117  0.3262E+02  0.4061E+03
    -10.857  0.2449E+02  0.4125E+03
    -10.596  0.1236E+02  0.4157E+03
    -10.335  0.9945E+00  0.4160E+03
    -10.075  0.6816E-02  0.4160E+03
     -9.814  0.2335E-05  0.4160E+03
     -9.553  0.3146E-10  0.4160E+03
     -9.293  0.0000E+00  0.4160E+03
     -9.032  0.0000E+00  0.4160E+03
     -8.771  0.0000E+00  0.4160E+03
     -8.511  0.0000E+00  0.4160E+03
     -8.250  0.0000E+00  0.4160E+03
     -7.989  0.0000E+00  0.4160E+03
     -7.729  0.0000E+00  0.4160E+03
     -7.468  0.0000E+00  0.4160E+03
     -7.207  0.6317E-12  0.4160E+03
     -6.947  0.1260E-06  0.4160E+03
     -6.686  0.9663E-03  0.4160E+03
     -6.426  0.3308E+00  0.4161E+03
     -6.165  0.7416E+01  0.4180E+03
     -5.904  0.2414E+02  0.4243E+03
     -5.644  0.2839E+02  0.4317E+03
     -5.383  0.2986E+02  0.4395E+03
     -5.122  0.3369E+02  0.4483E+03
     -4.862  0.5741E+02  0.4632E+03
     -4.601  0.6506E+02  0.4802E+03
     -4.340  0.6007E+02  0.4959E+03
     -4.080  0.6393E+02  0.5125E+03
     -3.819  0.6792E+02  0.5302E+03
     -3.558  0.6543E+02  0.5473E+03
     -3.298  0.6627E+02  0.5645E+03
     -3.037  0.8703E+02  0.5872E+03
     -2.776  0.9934E+02  0.6131E+03
     -2.516  0.9567E+02  0.6381E+03
     -2.255  0.8559E+02  0.6604E+03
     -1.994  0.8588E+02  0.6828E+03
     -1.734  0.7003E+02  0.7010E+03
     -1.473  0.5360E+02  0.7150E+03
     -1.212  0.7153E+02  0.7336E+03
     -0.952  0.9221E+02  0.7577E+03
     -0.691  0.1111E+03  0.7866E+03
     -0.430  0.1296E+03  0.8204E+03
     -0.170  0.1526E+03  0.8602E+03
      0.091  0.1774E+03  0.9064E+03
      0.352  0.1963E+03  0.9576E+03
      0.612  0.1972E+03  0.1009E+04
      0.873  0.1479E+03  0.1048E+04
      1.134  0.1098E+03  0.1076E+04
      1.394  0.8132E+02  0.1097E+04
      1.655  0.7330E+02  0.1116E+04
      1.916  0.7170E+02  0.1135E+04
      2.176  0.6743E+02  0.1153E+04
      2.437  0.6291E+02  0.1169E+04
      2.698  0.7151E+02  0.1188E+04
      2.958  0.7469E+02  0.1207E+04
      3.219  0.6383E+02  0.1224E+04
      3.480  0.4977E+02  0.1237E+04
      3.740  0.3203E+02  0.1245E+04
      4.001  0.1085E+02  0.1248E+04
      4.261  0.5419E+01  0.1249E+04
      4.522  0.2033E+01  0.1250E+04
      4.783  0.1187E+01  0.1250E+04
      5.043  0.1074E+02  0.1253E+04
      5.304  0.1624E+02  0.1257E+04
      5.565  0.1410E+02  0.1261E+04
      5.825  0.1720E+02  0.1265E+04
      6.086  0.2060E+02  0.1271E+04
      6.347  0.3248E+02  0.1279E+04
      6.607  0.3560E+02  0.1289E+04
      6.868  0.3626E+02  0.1298E+04
      7.129  0.4468E+02  0.1310E+04
      7.389  0.5231E+02  0.1323E+04
      7.650  0.5581E+02  0.1338E+04
      7.911  0.5703E+02  0.1353E+04
      8.171  0.4956E+02  0.1366E+04
      8.432  0.2239E+02  0.1372E+04
      8.693  0.1877E+01  0.1372E+04
      8.953  0.1371E-01  0.1372E+04
      9.214  0.5311E-05  0.1372E+04
      9.475  0.8527E-10  0.1372E+04
      9.735  0.0000E+00  0.1372E+04
      9.996  0.0000E+00  0.1372E+04
     10.257  0.0000E+00  0.1372E+04
     10.517  0.0000E+00  0.1372E+04
     10.778  0.0000E+00  0.1372E+04
     11.039  0.0000E+00  0.1372E+04
     11.299  0.0000E+00  0.1372E+04
     11.560  0.0000E+00  0.1372E+04
     11.821  0.0000E+00  0.1372E+04
