"Millerite NiS"                         
           1
    11.256463    0.000000    0.000000
     5.044562   10.062820    0.000000
     0.000000    0.000000   22.883649
   Ty   Ty
  52  52
Direct configuration=     1
   0.26092070  0.47878036  0.29050611
   0.35488056  0.38482049  0.41880986
   0.43634512  0.29091445  0.52481871
   0.05289454  0.25855591  0.09475177
   0.16696083  0.07274024  0.16220237
   0.08826949  0.97653761  0.45878782
   0.27423906  0.33335899  0.12830375
   0.36819893  0.23939913  0.25660749
   0.46215880  0.14543926  0.38491124
   0.00030194  0.37150212  0.25660749
   0.09426181  0.27754226  0.38491124
   0.40634206  0.46546199  0.12830375
   0.18922563  0.03062738  0.05413009
   0.76092070  0.47878036  0.29050611
   0.85488056  0.38482049  0.41880986
   0.52851290  0.22077951  0.08824859
   0.66696083  0.07274024  0.16220237
   0.53764066  0.05901273  0.49381339
   0.66012113  0.32613812  0.04035699
   0.77423906  0.33335899  0.12830375
   0.86819893  0.23939913  0.25660749
   0.96215880  0.14543926  0.38491124
   0.50030194  0.37150212  0.25660749
   0.59426181  0.27754226  0.38491124
   0.69735417  0.19747839  0.49091782
   0.90634206  0.46546199  0.12830375
   0.72062424  0.02192603  0.04535432
   0.26092070  0.97878036  0.29050611
   0.35488056  0.88482049  0.41880986
   0.43695300  0.80323919  0.53254201
   0.16696083  0.57274024  0.16220237
   0.27423907  0.83335899  0.12830375
   0.36819893  0.73939913  0.25660749
   0.46215880  0.64543926  0.38491124
   0.00030194  0.87150212  0.25660749
   0.09426181  0.77754226  0.38491124
   0.20869299  0.65429158  0.47449122
   0.40634206  0.96546199  0.12830375
   0.76092070  0.97878036  0.29050611
   0.85488056  0.88482049  0.41880986
   0.53892402  0.72978349  0.08930402
   0.66696083  0.57274024  0.16220237
   0.54642646  0.55637434  0.49798141
   0.69091349  0.82198246  0.03679256
   0.77423907  0.83335899  0.12830375
   0.86819893  0.73939913  0.25660749
   0.96215880  0.64543926  0.38491124
   0.50030194  0.87150212  0.25660749
   0.59426181  0.77754226  0.38491124
   0.68679783  0.69597760  0.49531459
   0.90634206  0.96546199  0.12830375
   0.71511761  0.52412345  0.04437366
   0.07287763  0.16682343  0.30639927
   0.17026347  0.07243957  0.40671632
   0.36177334  0.37923437  0.05817321
   0.47891775  0.26078330  0.17809552
   0.27160730  0.46541525  0.50663302
   0.01798897  0.34430823  0.46418866
   0.43627354  0.47164251  0.34956450
   0.24835381  0.15956225  0.09295701
   0.34231368  0.06560239  0.22126075
   0.08330125  0.47297230  0.10893821
   0.17409868  0.39738738  0.22126075
   0.26805855  0.30342751  0.34956450
   0.35932756  0.21039385  0.46247820
   0.57287763  0.16682343  0.30639927
   0.66683750  0.07286357  0.43470302
   0.88495789  0.35474317  0.04979178
   0.97891775  0.26078330  0.17809552
   0.60184584  0.64448279  0.56378023
   0.53023343  0.37768264  0.47786825
   0.93627354  0.47164251  0.34956450
   0.74835381  0.15956225  0.09295701
   0.84231368  0.06560239  0.22126075
   0.58013882  0.49134724  0.09295701
   0.67409868  0.39738738  0.22126075
   0.76805855  0.30342751  0.34956450
   0.89805458  0.15034364  0.46927846
   0.07287764  0.66682343  0.30639927
   0.16632809  0.56419001  0.40478233
   0.36806813  0.86893593  0.05437703
   0.47891775  0.76078330  0.17809552
   0.25642912  0.95556099  0.50499978
   0.02821538  0.82899854  0.47064571
   0.43627354  0.97164251  0.34956450
   0.25818717  0.65694014  0.11048175
   0.34231368  0.56560239  0.22126075
   0.07843827  0.97763681  0.10867993
   0.17409868  0.89738738  0.22126075
   0.26805855  0.80342751  0.34956450
   0.36201842  0.70946764  0.47786825
   0.57287764  0.66682343  0.30639927
   0.66683750  0.57286357  0.43470302
   0.87535553  0.83952651  0.05551543
   0.97891775  0.76078330  0.17809552
   0.60795166  0.14161807  0.55664961
   0.53023342  0.87768264  0.47786825
   0.93627354  0.97164251  0.34956450
   0.74835381  0.65956226  0.09295701
   0.84231368  0.56560239  0.22126075
   0.58013882  0.99134724  0.09295701
   0.67409868  0.89738738  0.22126075
   0.76805855  0.80342751  0.34956450
   0.84458449  0.72141676  0.45903655
