 vasp.6.1.0 28Jan20 (build Mar 31 2020 17:42:31) gamma-only                     
  
 executed on             LinuxIFC date 2020.04.13  01:35:27
 running on   48 total cores
 distrk:  each k-point on   48 cores,    1 groups
 distr:  one band on NCORE=   6 cores,    8 groups


--------------------------------------------------------------------------------------------------------


 INCAR:
 POTCAR:    PAW_PBE Ni_pv 06Sep2000               
 POTCAR:    PAW_PBE S 06Sep2000                   
 POTCAR:    PAW_PBE Ni_pv 06Sep2000               
   VRHFIN =Ni:                                                                                      
   LEXCH  = PE                                                                                      
   EATOM  =  3501.1230 eV,  257.3253 Ry                                                             
                                                                                                    
   TITEL  = PAW_PBE Ni_pv 06Sep2000                                                                 
   LULTRA =        F    use ultrasoft PP ?                                                          
   IUNSCR =        1    unscreen: 0-lin 1-nonlin 2-no                                               
   RPACOR =    1.500    partial core radius                                                         
   POMASS =   58.690; ZVAL   =   16.000    mass and valenz                                          
   RCORE  =    2.000    outmost cutoff radius                                                       
   RWIGS  =    2.000; RWIGS  =    1.058    wigner-seitz radius (au A)                               
   ENMAX  =  367.986; ENMIN  =  275.989 eV                                                          
   RCLOC  =    1.301    cutoff for local pot                                                        
   LCOR   =        T    correct aug charges                                                         
   LPAW   =        T    paw PP                                                                      
   EAUG   =  703.443                                                                                
   DEXC   =    0.000                                                                                
   RMAX   =    2.041    core radius for proj-oper                                                   
   RAUG   =    1.300    factor for augmentation sphere                                              
   RDEP   =    2.103    radius for radial grids                                                     
   RDEPT  =    1.618    core radius for aug-charge                                                  
                                                                                                    
   Atomic configuration                                                                             
    8 entries                                                                                       
     n  l   j            E        occ.                                                              
     1  0  0.50     -8206.4253   2.0000                                                             
     2  0  0.50      -976.1748   2.0000                                                             
     2  1  1.50      -839.0571   6.0000                                                             
     3  0  0.50      -105.9991   2.0000                                                             
     3  1  1.50       -66.4603   6.0000                                                             
     3  2  2.50        -4.6458   9.0000                                                             
     4  0  0.50        -4.4926   1.0000                                                             
     4  3  2.50        -1.3606   0.0000                                                             
   Description                                                                                      
     l       E           TYP  RCUT    TYP  RCUT                                                     
     1    -66.4602962     23  1.700                                                                 
     1     -1.3605826     23  1.700                                                                 
     2     -4.6457867     23  2.000                                                                 
     2     -6.0063693     23  2.000                                                                 
     0     -4.4925576     23  1.900                                                                 
     0     16.3626226     23  1.900                                                                 
  local pseudopotential read in
  partial core-charges read in
  partial kinetic energy density read in
  atomic valenz-charges read in
  non local Contribution for L=           1  read in
    real space projection operators read in
  non local Contribution for L=           1  read in
    real space projection operators read in
  non local Contribution for L=           2  read in
    real space projection operators read in
  non local Contribution for L=           2  read in
    real space projection operators read in
  non local Contribution for L=           0  read in
    real space projection operators read in
  non local Contribution for L=           0  read in
    real space projection operators read in
    PAW grid and wavefunctions read in
 
   number of l-projection  operators is LMAX  =           6
   number of lm-projection operators is LMMAX =          18
 
 POTCAR:    PAW_PBE S 06Sep2000                   
   VRHFIN =S : s2p4                                                                                 
   LEXCH  = PE                                                                                      
   EATOM  =   276.8230 eV,   20.3459 Ry                                                             
                                                                                                    
   TITEL  = PAW_PBE S 06Sep2000                                                                     
   LULTRA =        F    use ultrasoft PP ?                                                          
   IUNSCR =        1    unscreen: 0-lin 1-nonlin 2-no                                               
   RPACOR =    1.500    partial core radius                                                         
   POMASS =   32.066; ZVAL   =    6.000    mass and valenz                                          
   RCORE  =    1.900    outmost cutoff radius                                                       
   RWIGS  =    2.200; RWIGS  =    1.164    wigner-seitz radius (au A)                               
   ENMAX  =  258.689; ENMIN  =  194.016 eV                                                          
   ICORE  =        2    local potential                                                             
   LCOR   =        T    correct aug charges                                                         
   LPAW   =        T    paw PP                                                                      
   EAUG   =  335.092                                                                                
   DEXC   =    0.000                                                                                
   RMAX   =    1.942    core radius for proj-oper                                                   
   RAUG   =    1.300    factor for augmentation sphere                                              
   RDEP   =    1.954    radius for radial grids                                                     
   RDEPT  =    1.744    core radius for aug-charge                                                  
                                                                                                    
   Atomic configuration                                                                             
    6 entries                                                                                       
     n  l   j            E        occ.                                                              
     1  0  0.50     -2405.8406   2.0000                                                             
     2  0  0.50      -211.7007   2.0000                                                             
     2  1  1.50      -156.4958   6.0000                                                             
     3  0  0.50       -17.2562   2.0000                                                             
     3  1  0.50        -7.0085   4.0000                                                             
     3  2  1.50        -6.8029   0.0000                                                             
   Description                                                                                      
     l       E           TYP  RCUT    TYP  RCUT                                                     
     0    -17.2561641     23  1.900                                                                 
     0    -15.8743224     23  1.900                                                                 
     1     -7.0085400     23  1.900                                                                 
     1     -2.7779785     23  1.900                                                                 
     2     -6.8029130     23  1.900                                                                 
  local pseudopotential read in
  partial core-charges read in
  partial kinetic energy density read in
  atomic valenz-charges read in
  non local Contribution for L=           0  read in
    real space projection operators read in
  non local Contribution for L=           0  read in
    real space projection operators read in
  non local Contribution for L=           1  read in
    real space projection operators read in
  non local Contribution for L=           1  read in
    real space projection operators read in
    PAW grid and wavefunctions read in
 
   number of l-projection  operators is LMAX  =           4
   number of lm-projection operators is LMMAX =           8
 
 Optimization of the real space projectors (new method)

 maximal supplied QI-value         = 18.90
 optimisation between [QCUT,QGAM] = [ 10.77, 21.73] = [ 32.49,132.25] Ry 
 Optimized for a Real-space Cutoff    1.38 Angstroem

   l    n(q)    QCUT    max X(q) W(low)/X(q) W(high)/X(q)  e(spline) 
   1      8    10.771     2.836    0.40E-04    0.29E-04    0.12E-06
   1      8    10.771     4.023    0.10E-03    0.48E-04    0.29E-06
   2      8    10.771    73.368    0.42E-03    0.97E-04    0.44E-06
   2      8    10.771    69.010    0.42E-03    0.99E-04    0.45E-06
   0      9    10.771    54.797    0.10E-03    0.56E-04    0.74E-07
   0      9    10.771    24.266    0.89E-04    0.49E-04    0.67E-07
 Optimization of the real space projectors (new method)

 maximal supplied QI-value         = 19.84
 optimisation between [QCUT,QGAM] = [ 10.71, 21.63] = [ 32.15,130.99] Ry 
 Optimized for a Real-space Cutoff    1.19 Angstroem

   l    n(q)    QCUT    max X(q) W(low)/X(q) W(high)/X(q)  e(spline) 
   0      8    10.715   187.594    0.41E-03    0.53E-04    0.66E-07
   0      8    10.715   164.243    0.41E-03    0.53E-04    0.65E-07
   1      7    10.715    67.533    0.19E-03    0.59E-03    0.68E-07
   1      7    10.715    50.729    0.19E-03    0.58E-03    0.67E-07
  PAW_PBE Ni_pv 06Sep2000               :
 energy of atom  1       EATOM=-3501.1230
 kinetic energy error for atom=    0.0925 (will be added to EATOM!!)
  PAW_PBE S 06Sep2000                   :
 energy of atom  2       EATOM= -276.8230
 kinetic energy error for atom=    0.0033 (will be added to EATOM!!)
 
 
 POSCAR: Structure 11 made from 011-3.xsd file
  positions in direct lattice
  No initial velocities read in
 exchange correlation table for  LEXCH =        8
   RHO(1)=    0.500       N(1)  =     2000
   RHO(2)=  100.500       N(2)  =     4000
 


--------------------------------------------------------------------------------------------------------


 ion  position               nearest neighbor table
   1  0.645  0.915  0.103-  31 2.25  37 2.26  38 2.36  46 2.36  20 2.53  10 2.53
   2  0.583  0.790  0.257-  32 2.25  46 2.26  38 2.26  39 2.36  47 2.36  11 2.53  21 2.53
   3  0.520  0.665  0.412-  33 2.25  47 2.26  39 2.26  48 2.36  12 2.53
   4  0.333  0.290  0.051-  34 2.25  40 2.36  49 2.36  13 2.53  22 2.53
   5  0.270  0.165  0.206-  35 2.25  49 2.26  40 2.26  50 2.36  41 2.36  14 2.53  23 2.53
   6  0.208  0.040  0.360-  36 2.25  50 2.26  41 2.26  42 2.36  51 2.36  24 2.53  15 2.53
   7  0.020  0.665  0.000-  43 2.36  52 2.36
   8  0.958  0.540  0.154-  28 2.25  52 2.26  43 2.26  44 2.36  53 2.36  25 2.53  17 2.53
   9  0.895  0.415  0.309-  29 2.25  53 2.26  44 2.26  45 2.36  54 2.36  18 2.53  26 2.53
  10  0.662  0.684  0.062-  46 2.36  28 2.36  20 2.53   1 2.53
  11  0.599  0.559  0.217-  40 2.25  46 2.26  28 2.26  47 2.36  29 2.36   2 2.53  21 2.53
  12  0.537  0.434  0.371-  41 2.25  29 2.26  47 2.26  30 2.36  48 2.36   3 2.53
  13  0.349  0.059  0.011-  31 2.36  49 2.36   4 2.53  22 2.53
  14  0.287  0.934  0.165-  43 2.25  31 2.26  49 2.26  50 2.36  32 2.36   5 2.53  23 2.53
  15  0.224  0.809  0.320-  44 2.25  50 2.26  32 2.26  51 2.36  33 2.36  24 2.53   6 2.53
  16  0.161  0.683  0.474-  45 2.25  51 2.26  33 2.26
  17  0.974  0.309  0.114-  37 2.25  34 2.26  52 2.26  35 2.36  53 2.36  25 2.53   8 2.53
  18  0.912  0.184  0.268-  38 2.25  53 2.26  35 2.26  36 2.36  54 2.36   9 2.53  26 2.53
  19  0.849  0.058  0.423-  39 2.25  54 2.26  36 2.26  27 2.53
  20  0.909  0.915  0.103-  49 2.25  37 2.26  38 2.36  28 2.36   1 2.53  10 2.53
  21  0.847  0.790  0.257-  50 2.25  28 2.26  38 2.26  29 2.36  39 2.36   2 2.53  11 2.53
  22  0.597  0.290  0.051-  52 2.25  31 2.36  40 2.36  13 2.53   4 2.53
  23  0.534  0.165  0.206-  53 2.25  31 2.26  40 2.26  41 2.36  32 2.36  14 2.53   5 2.53
  24  0.472  0.040  0.360-  54 2.25  41 2.26  32 2.26  42 2.36  33 2.36   6 2.53  15 2.53
  25  0.222  0.540  0.154-  46 2.25  34 2.26  43 2.26  44 2.36  35 2.36   8 2.53  17 2.53
  26  0.159  0.415  0.309-  47 2.25  35 2.26  44 2.26  45 2.36  36 2.36  18 2.53   9 2.53
  27  0.097  0.290  0.463-  48 2.25  36 2.26  45 2.26  19 2.53
  28  0.825  0.674  0.153-   8 2.25  21 2.26  11 2.26  10 2.36  20 2.36
  29  0.763  0.549  0.307-   9 2.25  12 2.26  21 2.36  11 2.36
  30  0.700  0.424  0.462-  12 2.36
  31  0.513  0.050  0.102-   1 2.25  23 2.26  14 2.26  22 2.36  13 2.36
  32  0.450  0.924  0.256-   2 2.25  24 2.26  15 2.26  23 2.36  14 2.36
  33  0.387  0.799  0.410-   3 2.25  16 2.26  15 2.36  24 2.36
  34  0.200  0.425  0.050-   4 2.25  25 2.26  17 2.26
  35  0.138  0.299  0.204-   5 2.25  26 2.26  18 2.26  17 2.36  25 2.36
  36  0.075  0.174  0.359-   6 2.25  27 2.26  19 2.26  18 2.36  26 2.36
  37  0.867  0.094  0.051-  17 2.25  20 2.26   1 2.26
  38  0.804  0.969  0.205-  18 2.25   2 2.26  21 2.26  20 2.36   1 2.36
  39  0.741  0.843  0.359-  19 2.25   3 2.26   2 2.36  21 2.36
  40  0.492  0.344  0.153-  11 2.25   5 2.26  23 2.26   4 2.36  22 2.36
  41  0.429  0.219  0.308-  12 2.25  24 2.26   6 2.26  23 2.36   5 2.36
  42  0.366  0.093  0.462-  24 2.36   6 2.36
  43  0.179  0.719  0.102-  14 2.25  25 2.26   8 2.26   7 2.36
  44  0.117  0.594  0.256-  15 2.25  26 2.26   9 2.26  25 2.36   8 2.36
  45  0.054  0.468  0.411-  16 2.25  27 2.26   9 2.36  26 2.36
  46  0.489  0.674  0.153-  25 2.25  11 2.26   2 2.26  10 2.36   1 2.36
  47  0.426  0.549  0.307-  26 2.25   3 2.26  12 2.26   2 2.36  11 2.36
  48  0.363  0.424  0.462-  27 2.25   3 2.36  12 2.36
  49  0.176  0.050  0.102-  20 2.25   5 2.26  14 2.26   4 2.36  13 2.36
  50  0.114  0.924  0.256-  21 2.25   6 2.26  15 2.26   5 2.36  14 2.36
  51  0.051  0.799  0.410-  16 2.26  15 2.36   6 2.36
  52  0.864  0.425  0.050-  22 2.25   8 2.26  17 2.26   7 2.36
  53  0.801  0.299  0.204-  23 2.25   9 2.26  18 2.26   8 2.36  17 2.36
  54  0.739  0.174  0.359-  24 2.25  19 2.26  18 2.36   9 2.36
 
  LATTYP: Found a base centered orthorhombic cell.
 ALAT       =     9.5784100000
 B/A-ratio  =     1.8519363485
 C/A-ratio  =     1.9847903504
  
  Lattice vectors:
  
 A1 = (   8.4281814759,   5.5287226424,   0.0000000000)
 A2 = (   0.0000000000, -10.0797329849,   0.0000000000)
 A3 = (   0.0000000000,   0.0000000000, -19.0111357400)


Analysis of symmetry for initial positions (statically):
=====================================================================
 Subroutine PRICEL returns:
 Original cell was already a primitive cell.
 

 Routine SETGRP: Setting up the symmetry group for a 
 base centered orthorhombic supercell.


 Subroutine GETGRP returns: Found  1 space group operations
 (whereof  1 operations were pure point group operations)
 out of a pool of  8 trial point group operations.


The static configuration has the point symmetry C_1 .


Analysis of symmetry for dynamics (positions and initial velocities):
=====================================================================
 Subroutine PRICEL returns:
 Original cell was already a primitive cell.
 

 Routine SETGRP: Setting up the symmetry group for a 
 base centered orthorhombic supercell.


 Subroutine GETGRP returns: Found  1 space group operations
 (whereof  1 operations were pure point group operations)
 out of a pool of  8 trial point group operations.


The dynamic configuration has the point symmetry C_1 .


 Subroutine INISYM returns: Found  1 space group operations
 (whereof  1 operations are pure point group operations),
 and found     1 'primitive' translations


----------------------------------------------------------------------------------------

                                     Primitive cell                                     

  volume of cell :    1615.0686

  direct lattice vectors                    reciprocal lattice vectors
     8.428181476 -4.551010342  0.000000000     0.118649557  0.000000000  0.000000000
     0.000000000 10.079732985  0.000000000     0.053570403  0.099208977  0.000000000
     0.000000000  0.000000000 19.011135740     0.000000000  0.000000000  0.052600750

  length of vectors
     9.578410000 10.079732985 19.011135740     0.118649557  0.112748434  0.052600750

  position of ions in fractional coordinates (direct lattice)
     0.645270229  0.915243159  0.102959234
     0.582630317  0.789963333  0.257398085
     0.519990404  0.664683508  0.411836936
     0.332816867  0.290336434  0.051479617
     0.270176954  0.165056608  0.205918468
     0.207537041  0.039776783  0.360357319
     0.020363505  0.665429709  0.000000000
     0.957723592  0.540149884  0.154438851
     0.895083679  0.414870058  0.308877702
     0.661820070  0.684136840  0.062155563
     0.599180157  0.558857015  0.216594414
     0.536540245  0.433577189  0.371033265
     0.349366708  0.059230116  0.010675946
     0.286726795  0.933950290  0.165114797
     0.224086882  0.808670464  0.319553648
     0.161446969  0.683390639  0.473992499
     0.974273433  0.309043565  0.113635180
     0.911633520  0.183763740  0.268074031
     0.848993607  0.058483914  0.422512882
     0.909476229  0.915243159  0.102959234
     0.846836317  0.789963333  0.257398085
     0.597022867  0.290336434  0.051479617
     0.534382954  0.165056608  0.205918468
     0.471743041  0.039776783  0.360357319
     0.221929592  0.540149884  0.154438851
     0.159289679  0.414870058  0.308877702
     0.096649766  0.289590232  0.463316553
     0.825181678  0.674430055  0.153010292
     0.762541765  0.549150230  0.307449143
     0.699901852  0.423870404  0.461887994
     0.512728315  0.049523331  0.101530675
     0.450088403  0.924243505  0.255969526
     0.387448490  0.798963679  0.410408377
     0.200274953  0.424616606  0.050051058
     0.137635040  0.299336780  0.204489909
     0.074995127  0.174056954  0.358928760
     0.866747645  0.093991989  0.050529303
     0.804107732  0.968712164  0.204968154
     0.741467819  0.843432338  0.359407005
     0.491654369  0.343805439  0.153488537
     0.429014457  0.218525613  0.307927388
     0.366374544  0.093245787  0.462366239
     0.179201007  0.718898714  0.102008920
     0.116561094  0.593618888  0.256447771
     0.053921181  0.468339063  0.410886622
     0.488751678  0.674430055  0.153010292
     0.426111765  0.549150230  0.307449143
     0.363471852  0.423870404  0.461887994
     0.176298315  0.049523331  0.101530675
     0.113658403  0.924243505  0.255969526
     0.051018490  0.798963679  0.410408377
     0.863844953  0.424616606  0.050051058
     0.801205040  0.299336780  0.204489909
     0.738565127  0.174056954  0.358928760

  ion indices of the primitive-cell ions
   primitive index   ion index
                 1           1
                 2           2
                 3           3
                 4           4
                 5           5
                 6           6
                 7           7
                 8           8
                 9           9
                10          10
                11          11
                12          12
                13          13
                14          14
                15          15
                16          16
                17          17
                18          18
                19          19
                20          20
                21          21
                22          22
                23          23
                24          24
                25          25
                26          26
                27          27
                28          28
                29          29
                30          30
                31          31
                32          32
                33          33
                34          34
                35          35
                36          36
                37          37
                38          38
                39          39
                40          40
                41          41
                42          42
                43          43
                44          44
                45          45
                46          46
                47          47
                48          48
                49          49
                50          50
                51          51
                52          52
                53          53
                54          54

----------------------------------------------------------------------------------------

 
 
 KPOINTS: gamma-point-only calculation. no periodi

Automatic generation of k-mesh.
Space group operators:
 irot       det(A)        alpha          n_x          n_y          n_z        tau_x        tau_y        tau_z
    1     1.000000     0.000000     1.000000     0.000000     0.000000     0.000000     0.000000     0.000000
 
 Subroutine IBZKPT returns following result:
 ===========================================
 
 Found      1 irreducible k-points:
 
 Following reciprocal coordinates:
            Coordinates               Weight
  0.000000  0.000000  0.000000      1.000000
 
 Following cartesian coordinates:
            Coordinates               Weight
  0.000000  0.000000  0.000000      1.000000
 


--------------------------------------------------------------------------------------------------------




 Dimension of arrays:
   k-points           NKPTS =      1   k-points in BZ     NKDIM =      1   number of bands    NBANDS=    360
   number of dos      NEDOS =    301   number of ions     NIONS =     54
   non local maximal  LDIM  =      6   non local SUM 2l+1 LMDIM =     18
   total plane-waves  NPLWV = 270000
   max r-space proj   IRMAX =   1893   max aug-charges    IRDMAX=   5466
   dimension x,y,z NGX =    50 NGY =   54 NGZ =  100
   dimension x,y,z NGXF=   100 NGYF=  108 NGZF=  200
   support grid    NGXF=   100 NGYF=  108 NGZF=  200
   ions per type =              27  27
   NGX,Y,Z   is equivalent  to a cutoff of   8.68,  8.91,  8.74 a.u.
   NGXF,Y,Z  is equivalent  to a cutoff of  17.36, 17.81, 17.49 a.u.

 SYSTEM =  "Millerite NiS"                         
 POSCAR =  Structure 11 made from 011-3.xsd file   

 Startparameter for this run:
   NWRITE =      2    write-flag & timer
   PREC   = normal    normal or accurate (medium, high low for compatibility)
   ISTART =      0    job   : 0-new  1-cont  2-samecut
   ICHARG =      2    charge: 1-file 2-atom 10-const
   ISPIN  =      1    spin polarized calculation?
   LNONCOLLINEAR =      F non collinear calculations
   LSORBIT =      F    spin-orbit coupling
   INIWAV =      1    electr: 0-lowe 1-rand  2-diag
   LASPH  =      F    aspherical Exc in radial PAW
   METAGGA=      F    non-selfconsistent MetaGGA calc.

 Electronic Relaxation 1
   ENCUT  =  450.0 eV  33.07 Ry    5.75 a.u.  16.57 17.43 32.88*2*pi/ulx,y,z
   ENINI  =  450.0     initial cutoff
   ENAUG  =  703.4 eV  augmentation charge cutoff
   NELM   =    100;   NELMIN=  2; NELMDL= -5     # of ELM steps 
   EDIFF  = 0.1E-03   stopping-criterion for ELM
   LREAL  =      T    real-space projection
   NLSPLINE    = F    spline interpolate recip. space projectors
   LCOMPAT=      F    compatible to vasp.4.4
   GGA_COMPAT  = T    GGA compatible to vasp.4.4-vasp.4.6
   LMAXPAW     = -100 max onsite density
   LMAXMIX     =    2 max onsite mixed and CHGCAR
   VOSKOWN=      0    Vosko Wilk Nusair interpolation
   ROPT   =   -0.00050  -0.00050
 Ionic relaxation
   EDIFFG = 0.1E-02   stopping-criterion for IOM
   NSW    =      0    number of steps for IOM
   NBLOCK =      1;   KBLOCK =      1    inner block; outer block 
   IBRION =     -1    ionic relax: 0-MD 1-quasi-New 2-CG
   NFREE  =      0    steps in history (QN), initial steepest desc. (CG)
   ISIF   =      2    stress and relaxation
   IWAVPR =     10    prediction:  0-non 1-charg 2-wave 3-comb
   ISYM   =      2    0-nonsym 1-usesym 2-fastsym
   LCORR  =      T    Harris-Foulkes like correction to forces

   POTIM  = 0.5000    time-step for ionic-motion
   TEIN   =    0.0    initial temperature
   TEBEG  =    0.0;   TEEND  =   0.0 temperature during run
   SMASS  =  -3.00    Nose mass-parameter (am)
   estimated Nose-frequenzy (Omega)   =  0.10E-29 period in steps = 0.13E+47 mass=  -0.210E-26a.u.
   SCALEE = 1.0000    scale energy and forces
   NPACO  =    256;   APACO  = 16.0  distance and # of slots for P.C.
   PSTRESS=    0.0 pullay stress

  Mass of Ions in am
   POMASS =  58.69 32.07
  Ionic Valenz
   ZVAL   =  16.00  6.00
  Atomic Wigner-Seitz radii
   RWIGS  =  -1.00 -1.00
  virtual crystal weights 
   VCA    =   1.00  1.00
   NELECT =     594.0000    total number of electrons
   NUPDOWN=      -1.0000    fix difference up-down

 DOS related values:
   EMIN   =  10.00;   EMAX   =-10.00  energy-range for DOS
   EFERMI =   0.00
   ISMEAR =     0;   SIGMA  =   0.20  broadening in eV -4-tet -1-fermi 0-gaus

 Electronic relaxation 2 (details)
   IALGO  =     38    algorithm
   LDIAG  =      T    sub-space diagonalisation (order eigenvalues)
   LSUBROT=      F    optimize rotation matrix (better conditioning)
   TURBO    =      0    0=normal 1=particle mesh
   IRESTART =      0    0=no restart 2=restart with 2 vectors
   NREBOOT  =      0    no. of reboots
   NMIN     =      0    reboot dimension
   EREF     =   0.00    reference energy to select bands
   IMIX   =      4    mixing-type and parameters
     AMIX     =   0.40;   BMIX     =  1.00
     AMIX_MAG =   1.60;   BMIX_MAG =  1.00
     AMIN     =   0.10
     WC   =   100.;   INIMIX=   1;  MIXPRE=   1;  MAXMIX= -45

 Intra band minimization:
   WEIMIN = 0.0000     energy-eigenvalue tresh-hold
   EBREAK =  0.69E-07  absolut break condition
   DEPER  =   0.30     relativ break condition  

   TIME   =   0.40     timestep for ELM

  volume/ion in A,a.u.               =      29.91       201.83
  Fermi-wavevector in a.u.,A,eV,Ry     =   1.172933  2.216523 18.718522  1.375773
  Thomas-Fermi vector in A             =   2.309354
 
 Write flags
   LWAVE        =      F    write WAVECAR
   LDOWNSAMPLE  =      F    k-point downsampling of WAVECAR
   LCHARG       =      F    write CHGCAR
   LVTOT        =      F    write LOCPOT, total local potential
   LVHAR        =      F    write LOCPOT, Hartree potential only
   LELF         =      F    write electronic localiz. function (ELF)
   LORBIT       =      0    0 simple, 1 ext, 2 COOP (PROOUT), +10 PAW based schemes


 Dipole corrections
   LMONO  =      F    monopole corrections only (constant potential shift)
   LDIPOL =      F    correct potential (dipole corrections)
   IDIPOL =      0    1-x, 2-y, 3-z, 4-all directions 
   EPSILON=  1.0000000 bulk dielectric constant

 Exchange correlation treatment:
   GGA     =    --    GGA type
   LEXCH   =     8    internal setting for exchange type
   VOSKOWN=      0    Vosko Wilk Nusair interpolation
   LHFCALC =     F    Hartree Fock is set to
   LHFONE  =     F    Hartree Fock one center treatment
   AEXX    =    0.0000 exact exchange contribution

 Linear response parameters
   LEPSILON=     F    determine dielectric tensor
   LRPA    =     F    only Hartree local field effects (RPA)
   LNABLA  =     F    use nabla operator in PAW spheres
   LVEL    =     F    velocity operator in full k-point grid
   LINTERFAST=   F  fast interpolation
   KINTER  =     0    interpolate to denser k-point grid
   CSHIFT  =0.1000    complex shift for real part using Kramers Kronig
   OMEGAMAX=  -1.0    maximum frequency
   DEG_THRESHOLD= 0.2000000E-02 threshold for treating states as degnerate
   RTIME   =   -0.100 relaxation time in fs
  (WPLASMAI=    0.000 imaginary part of plasma frequency in eV, 0.658/RTIME)
   DFIELD  = 0.0000000 0.0000000 0.0000000 field for delta impulse in time
 
 Orbital magnetization related:
   ORBITALMAG=     F  switch on orbital magnetization
   LCHIMAG   =     F  perturbation theory with respect to B field
   DQ        =  0.001000  dq finite difference perturbation B field
   LLRAUG    =     F  two centre corrections for induced B field



--------------------------------------------------------------------------------------------------------


 Static calculation
 charge density and potential will be updated during run
 non-spin polarized calculation
 Variant of blocked Davidson
 Davidson routine will perform the subspace rotation
 perform sub-space diagonalisation
    after iterative eigenvector-optimisation
 modified Broyden-mixing scheme, WC =      100.0
 initial mixing is a Kerker type mixing with AMIX =  0.4000 and BMIX =      1.0000
 Hartree-type preconditioning will be used
 using additional bands           63
 real space projection scheme for non local part
 use partial core corrections
 calculate Harris-corrections to forces 
   (improved forces if not selfconsistent)
 use gradient corrections 
 use of overlap-Matrix (Vanderbilt PP)
 Gauss-broadening in eV      SIGMA  =   0.20


--------------------------------------------------------------------------------------------------------


  energy-cutoff  :      450.00
  volume of cell :     1615.07
      direct lattice vectors                 reciprocal lattice vectors
     8.428181476 -4.551010342  0.000000000     0.118649557  0.000000000  0.000000000
     0.000000000 10.079732985  0.000000000     0.053570403  0.099208977  0.000000000
     0.000000000  0.000000000 19.011135740     0.000000000  0.000000000  0.052600750

  length of vectors
     9.578410000 10.079732985 19.011135740     0.118649557  0.112748434  0.052600750


 
 k-points in units of 2pi/SCALE and weight: gamma-point-only calculation. no periodi
   0.00000000  0.00000000  0.00000000       1.000
 
 k-points in reciprocal lattice and weights: gamma-point-only calculation. no periodi
   0.00000000  0.00000000  0.00000000       1.000
 
 position of ions in fractional coordinates (direct lattice) 
   0.64527023  0.91524316  0.10295923
   0.58263032  0.78996333  0.25739808
   0.51999040  0.66468351  0.41183694
   0.33281687  0.29033643  0.05147962
   0.27017695  0.16505661  0.20591847
   0.20753704  0.03977678  0.36035732
   0.02036350  0.66542971  0.00000000
   0.95772359  0.54014988  0.15443885
   0.89508368  0.41487006  0.30887770
   0.66182007  0.68413684  0.06215556
   0.59918016  0.55885702  0.21659441
   0.53654024  0.43357719  0.37103327
   0.34936671  0.05923012  0.01067595
   0.28672679  0.93395029  0.16511480
   0.22408688  0.80867046  0.31955365
   0.16144697  0.68339064  0.47399250
   0.97427343  0.30904357  0.11363518
   0.91163352  0.18376374  0.26807403
   0.84899361  0.05848391  0.42251288
   0.90947623  0.91524316  0.10295923
   0.84683632  0.78996333  0.25739808
   0.59702287  0.29033643  0.05147962
   0.53438295  0.16505661  0.20591847
   0.47174304  0.03977678  0.36035732
   0.22192959  0.54014988  0.15443885
   0.15928968  0.41487006  0.30887770
   0.09664977  0.28959023  0.46331655
   0.82518168  0.67443006  0.15301029
   0.76254177  0.54915023  0.30744914
   0.69990185  0.42387040  0.46188799
   0.51272831  0.04952333  0.10153067
   0.45008840  0.92424350  0.25596953
   0.38744849  0.79896368  0.41040838
   0.20027495  0.42461661  0.05005106
   0.13763504  0.29933678  0.20448991
   0.07499513  0.17405695  0.35892876
   0.86674764  0.09399199  0.05052930
   0.80410773  0.96871216  0.20496815
   0.74146782  0.84343234  0.35940701
   0.49165437  0.34380544  0.15348854
   0.42901446  0.21852561  0.30792739
   0.36637454  0.09324579  0.46236624
   0.17920101  0.71889871  0.10200892
   0.11656109  0.59361889  0.25644777
   0.05392118  0.46833906  0.41088662
   0.48875168  0.67443006  0.15301029
   0.42611177  0.54915023  0.30744914
   0.36347185  0.42387040  0.46188799
   0.17629831  0.04952333  0.10153067
   0.11365840  0.92424350  0.25596953
   0.05101849  0.79896368  0.41040838
   0.86384495  0.42461661  0.05005106
   0.80120504  0.29933678  0.20448991
   0.73856513  0.17405695  0.35892876
 
 position of ions in cartesian coordinates  (Angst):
   5.43845459  6.28877517  1.95737197
   4.91051405  5.31106287  4.89342993
   4.38257349  4.33335057  7.82948789
   2.80504095  1.41186073  0.97868599
   2.27710040  0.43414842  3.91474395
   1.74915984 -0.54356387  6.85080191
   0.17162732  6.61467927  0.00000000
   8.07186824  1.08595663  2.93605796
   7.54392768  0.10824433  5.87211592
   5.57793965  3.88396669  1.18164785
   5.04999910  2.90625440  4.11770581
   4.52205855  1.92854209  7.05376376
   2.94452602 -0.99294775  0.20296186
   2.41658546  8.10907293  3.13901982
   1.88864491  7.13136063  6.07507778
   1.36070435  6.15364834  9.01113574
   8.21135330 -1.31885185  2.16033383
   7.68341275 -2.29656415  5.09639179
   7.15547219 -3.27427645  8.03244975
   7.66523071  5.08637093  1.95737197
   7.13729016  4.10865863  4.89342993
   5.03181707  0.20945649  0.97868599
   4.50387651 -0.76825581  3.91474395
   3.97593596 -1.74596811  6.85080191
   1.87046288  4.43456273  2.93605796
   1.34252232  3.45685043  5.87211592
   0.81458177  2.47913813  8.80817388
   6.95478093  3.04266452  2.90889943
   6.42684038  2.06495223  5.84495739
   5.89889982  1.08723993  8.78101535
   4.32136729 -1.83424991  1.93021344
   3.79342674  7.26777077  4.86627140
   3.26548619  6.29005846  7.80232936
   1.68795365  3.36856863  0.95152746
   1.16001309  2.39085632  3.88758542
   0.63207254  1.41314402  6.82364338
   7.30510645 -2.99716334  0.96061944
   6.77716589  6.10485735  3.89667740
   6.24922534  5.12714504  6.83273536
   4.14375225  1.22794291  2.91799141
   3.61581170  0.25023060  5.85404937
   3.08787114 -0.72748170  8.79010733
   1.51033861  6.43076144  1.93930542
   0.98239805  5.45304914  4.87536338
   0.45445750  4.47533685  7.81142134
   4.11928784  4.57376093  2.90889943
   3.59134728  3.59604864  5.84495739
   3.06340673  2.61833633  8.78101535
   1.48587419 -0.30315350  1.93021344
   0.95793365  8.79886718  4.86627140
   0.42999309  7.82115487  7.80232936
   7.28064203  0.34865469  0.95152746
   6.75270148 -0.62905761  3.88758542
   6.22476092 -1.60676991  6.82364338
 


--------------------------------------------------------------------------------------------------------


 use parallel FFT for orbitals z direction half grid
 k-point   1 :   0.0000 0.0000 0.0000  plane waves:   17472

 maximum and minimum number of plane-waves per node :      2913     2910

 maximum number of plane-waves:     17472
 maximum index in each direction: 
   IXMAX=   16   IYMAX=   17   IZMAX=   32
   IXMIN=  -16   IYMIN=  -17   IZMIN=    0


 real space projection operators:
  total allocation   :       8734.47 KBytes
  max/ min on nodes  :       1571.66       1393.52


 parallel 3D FFT for wavefunctions:
    minimum data exchange during FFTs selected (reduces bandwidth)
 parallel 3D FFT for charge:
    minimum data exchange during FFTs selected (reduces bandwidth)


 total amount of memory used by VASP MPI-rank0    42845. kBytes
=======================================================================

   base      :      30000. kBytes
   nonlr-proj:       1931. kBytes
   fftplans  :       3097. kBytes
   grid      :       5606. kBytes
   one-center:         69. kBytes
   wavefun   :       2142. kBytes
 
     INWAV:  cpu time    0.0000: real time    0.0000
 Broyden mixing: mesh for mixing (old mesh)
   NGX = 33   NGY = 35   NGZ = 65
  (NGX  =100   NGY  =108   NGZ  =200)
  gives a total of  75075 points

 initial charge density was supplied:
 charge density of overlapping atoms calculated
 number of electron     594.0000000 magnetization 
 keeping initial charge density in first step


--------------------------------------------------------------------------------------------------------


 Maximum index for non-local projection operator          410
 Maximum index for augmentation-charges          505 (set IRDMAX)


--------------------------------------------------------------------------------------------------------


 First call to EWALD:  gamma=   0.151
 Maximum number of real-space cells 4x 3x 2
 Maximum number of reciprocal cells 2x 2x 4

    FEWALD:  cpu time    0.0028: real time    0.0028


--------------------------------------- Iteration      1(   1)  ---------------------------------------


    POTLOK:  cpu time    0.0374: real time    0.0378
    SETDIJ:  cpu time    0.0049: real time    0.0050
     EDDAV:  cpu time    1.1489: real time    1.1529
       DOS:  cpu time    0.0009: real time    0.0009
    --------------------------------------------
      LOOP:  cpu time    1.1922: real time    1.1967

 eigenvalue-minimisations  :   880
 total energy-change (2. order) : 0.6978094E+04  (-0.3789342E+05)
 number of electron     594.0000000 magnetization 
 augmentation part      594.0000000 magnetization 

 Free energy of the ion-electron system (eV)
  ---------------------------------------------------
  alpha Z        PSCENC =      1295.57565721
  Ewald energy   TEWEN  =    107484.98395086
  -Hartree energ DENC   =   -198978.24034228
  -exchange      EXHF   =         0.00000000
  -V(xc)+E(xc)   XCENC  =      2734.63876321
  PAW double counting   =     84547.15000061   -88231.13391551
  entropy T*S    EENTRO =        -0.39238365
  eigenvalues    EBANDS =     -3876.44113397
  atomic energy  EATOM  =    102001.95379032
  Solvation  Ediel_sol  =         0.00000000
  ---------------------------------------------------
  free energy    TOTEN  =      6978.09438680 eV

  energy without entropy =     6978.48677045  energy(sigma->0) =     6978.29057863


--------------------------------------------------------------------------------------------------------




--------------------------------------- Iteration      1(   2)  ---------------------------------------


     EDDAV:  cpu time    0.9965: real time    0.9994
       DOS:  cpu time    0.0005: real time    0.0005
    --------------------------------------------
      LOOP:  cpu time    0.9970: real time    0.9999

 eigenvalue-minimisations  :   768
 total energy-change (2. order) :-0.6587018E+04  (-0.6347821E+04)
 number of electron     594.0000000 magnetization 
 augmentation part      594.0000000 magnetization 

 Free energy of the ion-electron system (eV)
  ---------------------------------------------------
  alpha Z        PSCENC =      1295.57565721
  Ewald energy   TEWEN  =    107484.98395086
  -Hartree energ DENC   =   -198978.24034228
  -exchange      EXHF   =         0.00000000
  -V(xc)+E(xc)   XCENC  =      2734.63876321
  PAW double counting   =     84547.15000061   -88231.13391551
  entropy T*S    EENTRO =        -0.56919075
  eigenvalues    EBANDS =    -10463.28264919
  atomic energy  EATOM  =    102001.95379032
  Solvation  Ediel_sol  =         0.00000000
  ---------------------------------------------------
  free energy    TOTEN  =       391.07606449 eV

  energy without entropy =      391.64525524  energy(sigma->0) =      391.36065986


--------------------------------------------------------------------------------------------------------




--------------------------------------- Iteration      1(   3)  ---------------------------------------


     EDDAV:  cpu time    1.1060: real time    1.1104
       DOS:  cpu time    0.0006: real time    0.0006
    --------------------------------------------
      LOOP:  cpu time    1.1067: real time    1.1110

 eigenvalue-minimisations  :   840
 total energy-change (2. order) :-0.6505553E+03  (-0.6171251E+03)
 number of electron     594.0000000 magnetization 
 augmentation part      594.0000000 magnetization 

 Free energy of the ion-electron system (eV)
  ---------------------------------------------------
  alpha Z        PSCENC =      1295.57565721
  Ewald energy   TEWEN  =    107484.98395086
  -Hartree energ DENC   =   -198978.24034228
  -exchange      EXHF   =         0.00000000
  -V(xc)+E(xc)   XCENC  =      2734.63876321
  PAW double counting   =     84547.15000061   -88231.13391551
  entropy T*S    EENTRO =        -0.99441710
  eigenvalues    EBANDS =    -11113.41276256
  atomic energy  EATOM  =    102001.95379032
  Solvation  Ediel_sol  =         0.00000000
  ---------------------------------------------------
  free energy    TOTEN  =      -259.47927524 eV

  energy without entropy =     -258.48485814  energy(sigma->0) =     -258.98206669


--------------------------------------------------------------------------------------------------------




--------------------------------------- Iteration      1(   4)  ---------------------------------------


     EDDAV:  cpu time    1.0888: real time    1.0937
       DOS:  cpu time    0.0006: real time    0.0006
    --------------------------------------------
      LOOP:  cpu time    1.0895: real time    1.0943

 eigenvalue-minimisations  :   864
 total energy-change (2. order) :-0.3932392E+02  (-0.3891658E+02)
 number of electron     594.0000000 magnetization 
 augmentation part      594.0000000 magnetization 

 Free energy of the ion-electron system (eV)
  ---------------------------------------------------
  alpha Z        PSCENC =      1295.57565721
  Ewald energy   TEWEN  =    107484.98395086
  -Hartree energ DENC   =   -198978.24034228
  -exchange      EXHF   =         0.00000000
  -V(xc)+E(xc)   XCENC  =      2734.63876321
  PAW double counting   =     84547.15000061   -88231.13391551
  entropy T*S    EENTRO =        -1.05991616
  eigenvalues    EBANDS =    -11152.67118382
  atomic energy  EATOM  =    102001.95379032
  Solvation  Ediel_sol  =         0.00000000
  ---------------------------------------------------
  free energy    TOTEN  =      -298.80319556 eV

  energy without entropy =     -297.74327940  energy(sigma->0) =     -298.27323748


--------------------------------------------------------------------------------------------------------




--------------------------------------- Iteration      1(   5)  ---------------------------------------


     EDDAV:  cpu time    1.1308: real time    1.1336
       DOS:  cpu time    0.0007: real time    0.0007
    CHARGE:  cpu time    0.0289: real time    0.0290
    MIXING:  cpu time    0.0023: real time    0.0026
    --------------------------------------------
      LOOP:  cpu time    1.1627: real time    1.1658

 eigenvalue-minimisations  :   904
 total energy-change (2. order) :-0.1216473E+01  (-0.1214774E+01)
 number of electron     594.0000140 magnetization 
 augmentation part      214.5053557 magnetization 

 Broyden mixing:
  rms(total) = 0.70697E+01    rms(broyden)= 0.70567E+01
  rms(prec ) = 0.75275E+01
  weight for this iteration     100.00

 Free energy of the ion-electron system (eV)
  ---------------------------------------------------
  alpha Z        PSCENC =      1295.57565721
  Ewald energy   TEWEN  =    107484.98395086
  -Hartree energ DENC   =   -198978.24034228
  -exchange      EXHF   =         0.00000000
  -V(xc)+E(xc)   XCENC  =      2734.63876321
  PAW double counting   =     84547.15000061   -88231.13391551
  entropy T*S    EENTRO =        -1.05878801
  eigenvalues    EBANDS =    -11153.88878531
  atomic energy  EATOM  =    102001.95379032
  Solvation  Ediel_sol  =         0.00000000
  ---------------------------------------------------
  free energy    TOTEN  =      -300.01966890 eV

  energy without entropy =     -298.96088089  energy(sigma->0) =     -299.49027490


--------------------------------------------------------------------------------------------------------




--------------------------------------- Iteration      1(   6)  ---------------------------------------


    POTLOK:  cpu time    0.0363: real time    0.0364
    SETDIJ:  cpu time    0.0038: real time    0.0060
     EDDAV:  cpu time    1.1122: real time    1.1149
       DOS:  cpu time    0.0008: real time    0.0007
    CHARGE:  cpu time    0.0269: real time    0.0269
    MIXING:  cpu time    0.0018: real time    0.0018
    --------------------------------------------
      LOOP:  cpu time    1.1818: real time    1.1868

 eigenvalue-minimisations  :   888
 total energy-change (2. order) :-0.7765201E+02  (-0.7462752E+02)
 number of electron     594.0000209 magnetization 
 augmentation part      265.7563707 magnetization 

 Broyden mixing:
  rms(total) = 0.14153E+02    rms(broyden)= 0.14150E+02
  rms(prec ) = 0.14855E+02
  weight for this iteration     100.00

 eigenvalues of (default mixing * dielectric matrix)
  average eigenvalue GAMMA=   0.2192
  0.2192

 Free energy of the ion-electron system (eV)
  ---------------------------------------------------
  alpha Z        PSCENC =      1295.57565721
  Ewald energy   TEWEN  =    107484.98395086
  -Hartree energ DENC   =   -196910.80782688
  -exchange      EXHF   =         0.00000000
  -V(xc)+E(xc)   XCENC  =      2676.79907834
  PAW double counting   =     85619.63743477   -89122.18299337
  entropy T*S    EENTRO =        -0.61373750
  eigenvalues    EBANDS =    -13423.01703490
  atomic energy  EATOM  =    102001.95379032
  Solvation  Ediel_sol  =         0.00000000
  ---------------------------------------------------
  free energy    TOTEN  =      -377.67168115 eV

  energy without entropy =     -377.05794365  energy(sigma->0) =     -377.36481240


--------------------------------------------------------------------------------------------------------




--------------------------------------- Iteration      1(   7)  ---------------------------------------


    POTLOK:  cpu time    0.0355: real time    0.0356
    SETDIJ:  cpu time    0.0046: real time    0.0046
     EDDAV:  cpu time    1.0938: real time    1.0977
       DOS:  cpu time    0.0006: real time    0.0006
    CHARGE:  cpu time    0.0279: real time    0.0280
    MIXING:  cpu time    0.0015: real time    0.0015
    --------------------------------------------
      LOOP:  cpu time    1.1639: real time    1.1680

 eigenvalue-minimisations  :   840
 total energy-change (2. order) : 0.9750953E+02  (-0.1339369E+02)
 number of electron     594.0000203 magnetization 
 augmentation part      250.3860660 magnetization 

 Broyden mixing:
  rms(total) = 0.58634E+01    rms(broyden)= 0.58623E+01
  rms(prec ) = 0.62391E+01
  weight for this iteration     100.00

 eigenvalues of (default mixing * dielectric matrix)
  average eigenvalue GAMMA=   0.5101
  0.5101  0.5101

 Free energy of the ion-electron system (eV)
  ---------------------------------------------------
  alpha Z        PSCENC =      1295.57565721
  Ewald energy   TEWEN  =    107484.98395086
  -Hartree energ DENC   =   -197830.08416031
  -exchange      EXHF   =         0.00000000
  -V(xc)+E(xc)   XCENC  =      2699.02990756
  PAW double counting   =     88686.30479813   -92298.65615847
  entropy T*S    EENTRO =        -0.63647111
  eigenvalues    EBANDS =    -12318.63347027
  atomic energy  EATOM  =    102001.95379032
  Solvation  Ediel_sol  =         0.00000000
  ---------------------------------------------------
  free energy    TOTEN  =      -280.16215608 eV

  energy without entropy =     -279.52568497  energy(sigma->0) =     -279.84392053


--------------------------------------------------------------------------------------------------------




--------------------------------------- Iteration      1(   8)  ---------------------------------------


    POTLOK:  cpu time    0.0363: real time    0.0385
    SETDIJ:  cpu time    0.0041: real time    0.0060
     EDDAV:  cpu time    1.2303: real time    1.2333
       DOS:  cpu time    0.0005: real time    0.0005
    CHARGE:  cpu time    0.0268: real time    0.0268
    MIXING:  cpu time    0.0014: real time    0.0014
    --------------------------------------------
      LOOP:  cpu time    1.2995: real time    1.3066

 eigenvalue-minimisations  :  1016
 total energy-change (2. order) :-0.3882127E+02  (-0.1330443E+02)
 number of electron     594.0000113 magnetization 
 augmentation part      228.2508005 magnetization 

 Broyden mixing:
  rms(total) = 0.12900E+02    rms(broyden)= 0.12898E+02
  rms(prec ) = 0.16114E+02
  weight for this iteration     100.00

 eigenvalues of (default mixing * dielectric matrix)
  average eigenvalue GAMMA=   0.3930
  0.5790  0.5093  0.0906

 Free energy of the ion-electron system (eV)
  ---------------------------------------------------
  alpha Z        PSCENC =      1295.57565721
  Ewald energy   TEWEN  =    107484.98395086
  -Hartree energ DENC   =   -198397.52695090
  -exchange      EXHF   =         0.00000000
  -V(xc)+E(xc)   XCENC  =      2715.58015378
  PAW double counting   =     92623.19520886   -96314.29354432
  entropy T*S    EENTRO =        -0.86923599
  eigenvalues    EBANDS =    -11727.58245417
  atomic energy  EATOM  =    102001.95379032
  Solvation  Ediel_sol  =         0.00000000
  ---------------------------------------------------
  free energy    TOTEN  =      -318.98342436 eV

  energy without entropy =     -318.11418837  energy(sigma->0) =     -318.54880636


--------------------------------------------------------------------------------------------------------




--------------------------------------- Iteration      1(   9)  ---------------------------------------


    POTLOK:  cpu time    0.0356: real time    0.0357
    SETDIJ:  cpu time    0.0046: real time    0.0046
     EDDAV:  cpu time    1.1361: real time    1.1387
       DOS:  cpu time    0.0005: real time    0.0005
    CHARGE:  cpu time    0.0274: real time    0.0275
    MIXING:  cpu time    0.0015: real time    0.0015
    --------------------------------------------
      LOOP:  cpu time    1.2058: real time    1.2086

 eigenvalue-minimisations  :   920
 total energy-change (2. order) : 0.3648360E+02  (-0.1001623E+02)
 number of electron     594.0000120 magnetization 
 augmentation part      227.8570259 magnetization 

 Broyden mixing:
  rms(total) = 0.83307E+01    rms(broyden)= 0.83266E+01
  rms(prec ) = 0.96329E+01
  weight for this iteration     100.00

 eigenvalues of (default mixing * dielectric matrix)
  average eigenvalue GAMMA=   0.3550
  0.7672  0.4170  0.1612  0.0748

 Free energy of the ion-electron system (eV)
  ---------------------------------------------------
  alpha Z        PSCENC =      1295.57565721
  Ewald energy   TEWEN  =    107484.98395086
  -Hartree energ DENC   =   -198498.18888510
  -exchange      EXHF   =         0.00000000
  -V(xc)+E(xc)   XCENC  =      2716.13709884
  PAW double counting   =     93604.10108647   -97306.44757412
  entropy T*S    EENTRO =        -0.98223057
  eigenvalues    EBANDS =    -11579.63271796
  atomic energy  EATOM  =    102001.95379032
  Solvation  Ediel_sol  =         0.00000000
  ---------------------------------------------------
  free energy    TOTEN  =      -282.49982406 eV

  energy without entropy =     -281.51759349  energy(sigma->0) =     -282.00870878


--------------------------------------------------------------------------------------------------------




--------------------------------------- Iteration      1(  10)  ---------------------------------------


    POTLOK:  cpu time    0.0354: real time    0.0355
    SETDIJ:  cpu time    0.0046: real time    0.0046
     EDDAV:  cpu time    1.2089: real time    1.2118
       DOS:  cpu time    0.0005: real time    0.0005
    CHARGE:  cpu time    0.0267: real time    0.0268
    MIXING:  cpu time    0.0017: real time    0.0017
    --------------------------------------------
      LOOP:  cpu time    1.2779: real time    1.2809

 eigenvalue-minimisations  :   992
 total energy-change (2. order) : 0.5930450E+01  (-0.6020291E+01)
 number of electron     594.0000156 magnetization 
 augmentation part      231.0530037 magnetization 

 Broyden mixing:
  rms(total) = 0.44427E+01    rms(broyden)= 0.44405E+01
  rms(prec ) = 0.50333E+01
  weight for this iteration     100.00

 eigenvalues of (default mixing * dielectric matrix)
  average eigenvalue GAMMA=   0.4255
  1.2134  0.3695  0.3695  0.0875  0.0875

 Free energy of the ion-electron system (eV)
  ---------------------------------------------------
  alpha Z        PSCENC =      1295.57565721
  Ewald energy   TEWEN  =    107484.98395086
  -Hartree energ DENC   =   -198479.79355931
  -exchange      EXHF   =         0.00000000
  -V(xc)+E(xc)   XCENC  =      2715.06269641
  PAW double counting   =     94244.35497778   -97951.08341396
  entropy T*S    EENTRO =        -0.75864043
  eigenvalues    EBANDS =    -11586.86483333
  atomic energy  EATOM  =    102001.95379032
  Solvation  Ediel_sol  =         0.00000000
  ---------------------------------------------------
  free energy    TOTEN  =      -276.56937445 eV

  energy without entropy =     -275.81073402  energy(sigma->0) =     -276.19005424


--------------------------------------------------------------------------------------------------------




--------------------------------------- Iteration      1(  11)  ---------------------------------------


    POTLOK:  cpu time    0.0355: real time    0.0356
    SETDIJ:  cpu time    0.0045: real time    0.0045
     EDDAV:  cpu time    1.2018: real time    1.2046
       DOS:  cpu time    0.0014: real time    0.0013
    CHARGE:  cpu time    0.0270: real time    0.0270
    MIXING:  cpu time    0.0017: real time    0.0017
    --------------------------------------------
      LOOP:  cpu time    1.2718: real time    1.2748

 eigenvalue-minimisations  :   984
 total energy-change (2. order) :-0.9165570E+01  (-0.2424418E+01)
 number of electron     594.0000134 magnetization 
 augmentation part      227.9923172 magnetization 

 Broyden mixing:
  rms(total) = 0.10022E+02    rms(broyden)= 0.10020E+02
  rms(prec ) = 0.12221E+02
  weight for this iteration     100.00

 eigenvalues of (default mixing * dielectric matrix)
  average eigenvalue GAMMA=   0.4849
  1.8214  0.4130  0.4130  0.0968  0.0968  0.0681

 Free energy of the ion-electron system (eV)
  ---------------------------------------------------
  alpha Z        PSCENC =      1295.57565721
  Ewald energy   TEWEN  =    107484.98395086
  -Hartree energ DENC   =   -198429.09654905
  -exchange      EXHF   =         0.00000000
  -V(xc)+E(xc)   XCENC  =      2715.43123706
  PAW double counting   =     95684.76674245   -99407.39369523
  entropy T*S    EENTRO =        -0.91887492
  eigenvalues    EBANDS =    -11631.03720329
  atomic energy  EATOM  =    102001.95379032
  Solvation  Ediel_sol  =         0.00000000
  ---------------------------------------------------
  free energy    TOTEN  =      -285.73494459 eV

  energy without entropy =     -284.81606967  energy(sigma->0) =     -285.27550713


--------------------------------------------------------------------------------------------------------




--------------------------------------- Iteration      1(  12)  ---------------------------------------


    POTLOK:  cpu time    0.0358: real time    0.0359
    SETDIJ:  cpu time    0.0045: real time    0.0045
     EDDAV:  cpu time    1.2464: real time    1.2495
       DOS:  cpu time    0.0005: real time    0.0005
    CHARGE:  cpu time    0.0279: real time    0.0280
    MIXING:  cpu time    0.0018: real time    0.0018
    --------------------------------------------
      LOOP:  cpu time    1.3170: real time    1.3202

 eigenvalue-minimisations  :  1000
 total energy-change (2. order) : 0.1458422E+02  (-0.3252489E+01)
 number of electron     594.0000185 magnetization 
 augmentation part      234.9128774 magnetization 

 Broyden mixing:
  rms(total) = 0.36344E+01    rms(broyden)= 0.36315E+01
  rms(prec ) = 0.41698E+01
  weight for this iteration     100.00

 eigenvalues of (default mixing * dielectric matrix)
  average eigenvalue GAMMA=   0.4709
  1.9489  0.4075  0.4075  0.2728  0.0959  0.0959  0.0682

 Free energy of the ion-electron system (eV)
  ---------------------------------------------------
  alpha Z        PSCENC =      1295.57565721
  Ewald energy   TEWEN  =    107484.98395086
  -Hartree energ DENC   =   -198375.02066862
  -exchange      EXHF   =         0.00000000
  -V(xc)+E(xc)   XCENC  =      2711.86917181
  PAW double counting   =     97552.87278726  -101284.30635581
  entropy T*S    EENTRO =        -0.77548973
  eigenvalues    EBANDS =    -11658.30356596
  atomic energy  EATOM  =    102001.95379032
  Solvation  Ediel_sol  =         0.00000000
  ---------------------------------------------------
  free energy    TOTEN  =      -271.15072267 eV

  energy without entropy =     -270.37523294  energy(sigma->0) =     -270.76297780


--------------------------------------------------------------------------------------------------------




--------------------------------------- Iteration      1(  13)  ---------------------------------------


    POTLOK:  cpu time    0.0367: real time    0.0387
    SETDIJ:  cpu time    0.0041: real time    0.0058
     EDDAV:  cpu time    1.1986: real time    1.2016
       DOS:  cpu time    0.0006: real time    0.0006
    CHARGE:  cpu time    0.0268: real time    0.0269
    MIXING:  cpu time    0.0020: real time    0.0020
    --------------------------------------------
      LOOP:  cpu time    1.2689: real time    1.2755

 eigenvalue-minimisations  :   976
 total energy-change (2. order) : 0.5886868E+00  (-0.1974220E+01)
 number of electron     594.0000157 magnetization 
 augmentation part      236.0779913 magnetization 

 Broyden mixing:
  rms(total) = 0.32621E+01    rms(broyden)= 0.32604E+01
  rms(prec ) = 0.38229E+01
  weight for this iteration     100.00

 eigenvalues of (default mixing * dielectric matrix)
  average eigenvalue GAMMA=   0.4754
  1.9693  0.5821  0.4245  0.4245  0.1448  0.0945  0.0945  0.0690

 Free energy of the ion-electron system (eV)
  ---------------------------------------------------
  alpha Z        PSCENC =      1295.57565721
  Ewald energy   TEWEN  =    107484.98395086
  -Hartree energ DENC   =   -198367.78359789
  -exchange      EXHF   =         0.00000000
  -V(xc)+E(xc)   XCENC  =      2711.37050848
  PAW double counting   =     98068.08653560  -101804.46741995
  entropy T*S    EENTRO =        -0.71504959
  eigenvalues    EBANDS =    -11659.56641089
  atomic energy  EATOM  =    102001.95379032
  Solvation  Ediel_sol  =         0.00000000
  ---------------------------------------------------
  free energy    TOTEN  =      -270.56203585 eV

  energy without entropy =     -269.84698625  energy(sigma->0) =     -270.20451105


--------------------------------------------------------------------------------------------------------




--------------------------------------- Iteration      1(  14)  ---------------------------------------


    POTLOK:  cpu time    0.0358: real time    0.0359
    SETDIJ:  cpu time    0.0046: real time    0.0046
     EDDAV:  cpu time    1.1334: real time    1.1361
       DOS:  cpu time    0.0005: real time    0.0005
    CHARGE:  cpu time    0.0269: real time    0.0269
    MIXING:  cpu time    0.0018: real time    0.0018
    --------------------------------------------
      LOOP:  cpu time    1.2030: real time    1.2059

 eigenvalue-minimisations  :   912
 total energy-change (2. order) : 0.4063791E+01  (-0.6300489E+00)
 number of electron     594.0000161 magnetization 
 augmentation part      236.0058631 magnetization 

 Broyden mixing:
  rms(total) = 0.22730E+01    rms(broyden)= 0.22720E+01
  rms(prec ) = 0.26969E+01
  weight for this iteration     100.00

 eigenvalues of (default mixing * dielectric matrix)
  average eigenvalue GAMMA=   0.4502
  1.9201  0.5460  0.4421  0.4421  0.2766  0.1648  0.0955  0.0955  0.0687

 Free energy of the ion-electron system (eV)
  ---------------------------------------------------
  alpha Z        PSCENC =      1295.57565721
  Ewald energy   TEWEN  =    107484.98395086
  -Hartree energ DENC   =   -198391.21242261
  -exchange      EXHF   =         0.00000000
  -V(xc)+E(xc)   XCENC  =      2712.18801285
  PAW double counting   =     98217.36103484  -101958.13680582
  entropy T*S    EENTRO =        -0.65946890
  eigenvalues    EBANDS =    -11628.55199364
  atomic energy  EATOM  =    102001.95379032
  Solvation  Ediel_sol  =         0.00000000
  ---------------------------------------------------
  free energy    TOTEN  =      -266.49824490 eV

  energy without entropy =     -265.83877600  energy(sigma->0) =     -266.16851045


--------------------------------------------------------------------------------------------------------




--------------------------------------- Iteration      1(  15)  ---------------------------------------


    POTLOK:  cpu time    0.0358: real time    0.0358
    SETDIJ:  cpu time    0.0045: real time    0.0045
     EDDAV:  cpu time    1.2175: real time    1.2204
       DOS:  cpu time    0.0005: real time    0.0005
    CHARGE:  cpu time    0.0272: real time    0.0273
    MIXING:  cpu time    0.0020: real time    0.0020
    --------------------------------------------
      LOOP:  cpu time    1.2875: real time    1.2905

 eigenvalue-minimisations  :  1000
 total energy-change (2. order) : 0.1057309E+01  (-0.3492492E+00)
 number of electron     594.0000156 magnetization 
 augmentation part      235.4610344 magnetization 

 Broyden mixing:
  rms(total) = 0.20179E+01    rms(broyden)= 0.20171E+01
  rms(prec ) = 0.24294E+01
  weight for this iteration     100.00

 eigenvalues of (default mixing * dielectric matrix)
  average eigenvalue GAMMA=   0.4568
  1.8722  0.6432  0.6432  0.4108  0.4108  0.1757  0.1526  0.0951  0.0951  0.0688

 Free energy of the ion-electron system (eV)
  ---------------------------------------------------
  alpha Z        PSCENC =      1295.57565721
  Ewald energy   TEWEN  =    107484.98395086
  -Hartree energ DENC   =   -198409.88590715
  -exchange      EXHF   =         0.00000000
  -V(xc)+E(xc)   XCENC  =      2712.80649068
  PAW double counting   =     98126.75684491  -101867.72613026
  entropy T*S    EENTRO =        -0.70559730
  eigenvalues    EBANDS =    -11609.20003532
  atomic energy  EATOM  =    102001.95379032
  Solvation  Ediel_sol  =         0.00000000
  ---------------------------------------------------
  free energy    TOTEN  =      -265.44093606 eV

  energy without entropy =     -264.73533876  energy(sigma->0) =     -265.08813741


--------------------------------------------------------------------------------------------------------




--------------------------------------- Iteration      1(  16)  ---------------------------------------


    POTLOK:  cpu time    0.0363: real time    0.0363
    SETDIJ:  cpu time    0.0045: real time    0.0045
     EDDAV:  cpu time    1.1431: real time    1.1458
       DOS:  cpu time    0.0016: real time    0.0016
    CHARGE:  cpu time    0.0272: real time    0.0273
    MIXING:  cpu time    0.0020: real time    0.0020
    --------------------------------------------
      LOOP:  cpu time    1.2146: real time    1.2175

 eigenvalue-minimisations  :   928
 total energy-change (2. order) : 0.1120431E+01  (-0.1443495E+00)
 number of electron     594.0000161 magnetization 
 augmentation part      234.9518719 magnetization 

 Broyden mixing:
  rms(total) = 0.16684E+01    rms(broyden)= 0.16679E+01
  rms(prec ) = 0.19776E+01
  weight for this iteration     100.00

 eigenvalues of (default mixing * dielectric matrix)
  average eigenvalue GAMMA=   0.4855
  1.9077  0.8580  0.8580  0.4117  0.4117  0.3166  0.0688  0.0952  0.0952  0.1767
  0.1410

 Free energy of the ion-electron system (eV)
  ---------------------------------------------------
  alpha Z        PSCENC =      1295.57565721
  Ewald energy   TEWEN  =    107484.98395086
  -Hartree energ DENC   =   -198426.07312333
  -exchange      EXHF   =         0.00000000
  -V(xc)+E(xc)   XCENC  =      2713.28720543
  PAW double counting   =     97977.56453811  -101716.86705962
  entropy T*S    EENTRO =        -0.70364597
  eigenvalues    EBANDS =    -11594.04181799
  atomic energy  EATOM  =    102001.95379032
  Solvation  Ediel_sol  =         0.00000000
  ---------------------------------------------------
  free energy    TOTEN  =      -264.32050499 eV

  energy without entropy =     -263.61685901  energy(sigma->0) =     -263.96868200


--------------------------------------------------------------------------------------------------------




--------------------------------------- Iteration      1(  17)  ---------------------------------------


    POTLOK:  cpu time    0.0357: real time    0.0358
    SETDIJ:  cpu time    0.0045: real time    0.0045
     EDDAV:  cpu time    1.2074: real time    1.2103
       DOS:  cpu time    0.0008: real time    0.0008
    CHARGE:  cpu time    0.0272: real time    0.0273
    MIXING:  cpu time    0.0021: real time    0.0021
    --------------------------------------------
      LOOP:  cpu time    1.2776: real time    1.2806

 eigenvalue-minimisations  :   992
 total energy-change (2. order) : 0.3588635E+00  (-0.1763997E+00)
 number of electron     594.0000159 magnetization 
 augmentation part      234.4334767 magnetization 

 Broyden mixing:
  rms(total) = 0.17313E+01    rms(broyden)= 0.17304E+01
  rms(prec ) = 0.20207E+01
  weight for this iteration     100.00

 eigenvalues of (default mixing * dielectric matrix)
  average eigenvalue GAMMA=   0.4990
  1.9612  1.0150  1.0150  0.4229  0.4229  0.4383  0.0688  0.0952  0.0952  0.1787
  0.1375  0.1375

 Free energy of the ion-electron system (eV)
  ---------------------------------------------------
  alpha Z        PSCENC =      1295.57565721
  Ewald energy   TEWEN  =    107484.98395086
  -Hartree energ DENC   =   -198442.11322624
  -exchange      EXHF   =         0.00000000
  -V(xc)+E(xc)   XCENC  =      2713.37581180
  PAW double counting   =     97895.91407088  -101632.73093065
  entropy T*S    EENTRO =        -0.75875359
  eigenvalues    EBANDS =    -11580.16201208
  atomic energy  EATOM  =    102001.95379032
  Solvation  Ediel_sol  =         0.00000000
  ---------------------------------------------------
  free energy    TOTEN  =      -263.96164148 eV

  energy without entropy =     -263.20288789  energy(sigma->0) =     -263.58226469


--------------------------------------------------------------------------------------------------------




--------------------------------------- Iteration      1(  18)  ---------------------------------------


    POTLOK:  cpu time    0.0359: real time    0.0359
    SETDIJ:  cpu time    0.0045: real time    0.0045
     EDDAV:  cpu time    1.1859: real time    1.1888
       DOS:  cpu time    0.0007: real time    0.0007
    CHARGE:  cpu time    0.0273: real time    0.0274
    MIXING:  cpu time    0.0022: real time    0.0022
    --------------------------------------------
      LOOP:  cpu time    1.2566: real time    1.2596

 eigenvalue-minimisations  :   968
 total energy-change (2. order) : 0.9674165E+00  (-0.1516595E+00)
 number of electron     594.0000165 magnetization 
 augmentation part      234.7169678 magnetization 

 Broyden mixing:
  rms(total) = 0.12801E+01    rms(broyden)= 0.12794E+01
  rms(prec ) = 0.15191E+01
  weight for this iteration     100.00

 eigenvalues of (default mixing * dielectric matrix)
  average eigenvalue GAMMA=   0.5039
  1.9740  1.1262  1.1262  0.4612  0.4334  0.4334  0.2868  0.0688  0.0952  0.0952
  0.1781  0.1418  0.1307

 Free energy of the ion-electron system (eV)
  ---------------------------------------------------
  alpha Z        PSCENC =      1295.57565721
  Ewald energy   TEWEN  =    107484.98395086
  -Hartree energ DENC   =   -198441.73694959
  -exchange      EXHF   =         0.00000000
  -V(xc)+E(xc)   XCENC  =      2713.33031850
  PAW double counting   =     97858.81252515  -101593.53400704
  entropy T*S    EENTRO =        -0.69741318
  eigenvalues    EBANDS =    -11581.68209719
  atomic energy  EATOM  =    102001.95379032
  Solvation  Ediel_sol  =         0.00000000
  ---------------------------------------------------
  free energy    TOTEN  =      -262.99422496 eV

  energy without entropy =     -262.29681178  energy(sigma->0) =     -262.64551837


--------------------------------------------------------------------------------------------------------




--------------------------------------- Iteration      1(  19)  ---------------------------------------


    POTLOK:  cpu time    0.0356: real time    0.0357
    SETDIJ:  cpu time    0.0045: real time    0.0045
     EDDAV:  cpu time    1.2020: real time    1.2049
       DOS:  cpu time    0.0007: real time    0.0007
    CHARGE:  cpu time    0.0272: real time    0.0273
    MIXING:  cpu time    0.0022: real time    0.0023
    --------------------------------------------
      LOOP:  cpu time    1.2722: real time    1.2753

 eigenvalue-minimisations  :   984
 total energy-change (2. order) : 0.4106819E+00  (-0.5295496E-01)
 number of electron     594.0000163 magnetization 
 augmentation part      234.7880664 magnetization 

 Broyden mixing:
  rms(total) = 0.11177E+01    rms(broyden)= 0.11174E+01
  rms(prec ) = 0.13352E+01
  weight for this iteration     100.00

 eigenvalues of (default mixing * dielectric matrix)
  average eigenvalue GAMMA=   0.4990
  1.9800  1.2083  1.2083  0.4480  0.4480  0.4027  0.4027  0.0688  0.0952  0.0952
  0.1946  0.1620  0.1363  0.1363

 Free energy of the ion-electron system (eV)
  ---------------------------------------------------
  alpha Z        PSCENC =      1295.57565721
  Ewald energy   TEWEN  =    107484.98395086
  -Hartree energ DENC   =   -198446.31554260
  -exchange      EXHF   =         0.00000000
  -V(xc)+E(xc)   XCENC  =      2713.40183377
  PAW double counting   =     97799.77833392  -101533.08947291
  entropy T*S    EENTRO =        -0.72575090
  eigenvalues    EBANDS =    -11578.14634268
  atomic energy  EATOM  =    102001.95379032
  Solvation  Ediel_sol  =         0.00000000
  ---------------------------------------------------
  free energy    TOTEN  =      -262.58354302 eV

  energy without entropy =     -261.85779212  energy(sigma->0) =     -262.22066757


--------------------------------------------------------------------------------------------------------




--------------------------------------- Iteration      1(  20)  ---------------------------------------


    POTLOK:  cpu time    0.0362: real time    0.0363
    SETDIJ:  cpu time    0.0045: real time    0.0045
     EDDAV:  cpu time    1.2092: real time    1.2122
       DOS:  cpu time    0.0006: real time    0.0006
    CHARGE:  cpu time    0.0319: real time    0.0332
    MIXING:  cpu time    0.0038: real time    0.0038
    --------------------------------------------
      LOOP:  cpu time    1.2862: real time    1.2906

 eigenvalue-minimisations  :   992
 total energy-change (2. order) : 0.2272381E+00  (-0.3215725E-01)
 number of electron     594.0000164 magnetization 
 augmentation part      234.8537445 magnetization 

 Broyden mixing:
  rms(total) = 0.96594E+00    rms(broyden)= 0.96561E+00
  rms(prec ) = 0.11582E+01
  weight for this iteration     100.00

 eigenvalues of (default mixing * dielectric matrix)
  average eigenvalue GAMMA=   0.5183
  1.9706  1.3446  1.3446  0.5658  0.5658  0.4202  0.4202  0.3091  0.0688  0.0952
  0.0952  0.1737  0.1408  0.1408  0.1186

 Free energy of the ion-electron system (eV)
  ---------------------------------------------------
  alpha Z        PSCENC =      1295.57565721
  Ewald energy   TEWEN  =    107484.98395086
  -Hartree energ DENC   =   -198448.77588920
  -exchange      EXHF   =         0.00000000
  -V(xc)+E(xc)   XCENC  =      2713.42089303
  PAW double counting   =     97748.42816037  -101480.62073890
  entropy T*S    EENTRO =        -0.69896799
  eigenvalues    EBANDS =    -11576.62316065
  atomic energy  EATOM  =    102001.95379032
  Solvation  Ediel_sol  =         0.00000000
  ---------------------------------------------------
  free energy    TOTEN  =      -262.35630495 eV

  energy without entropy =     -261.65733696  energy(sigma->0) =     -262.00682095


--------------------------------------------------------------------------------------------------------




--------------------------------------- Iteration      1(  21)  ---------------------------------------


    POTLOK:  cpu time    0.0413: real time    0.0441
    SETDIJ:  cpu time    0.0040: real time    0.0060
     EDDAV:  cpu time    1.2070: real time    1.2109
       DOS:  cpu time    0.0008: real time    0.0008
    CHARGE:  cpu time    0.0277: real time    0.0278
    MIXING:  cpu time    0.0026: real time    0.0026
    --------------------------------------------
      LOOP:  cpu time    1.2834: real time    1.2922

 eigenvalue-minimisations  :   968
 total energy-change (2. order) : 0.2165471E+00  (-0.1453875E-01)
 number of electron     594.0000168 magnetization 
 augmentation part      234.6177306 magnetization 

 Broyden mixing:
  rms(total) = 0.79797E+00    rms(broyden)= 0.79779E+00
  rms(prec ) = 0.93812E+00
  weight for this iteration     100.00

 eigenvalues of (default mixing * dielectric matrix)
  average eigenvalue GAMMA=   0.5486
  1.9722  1.5579  1.5579  0.7305  0.7305  0.4223  0.4223  0.3684  0.0688  0.0952
  0.0952  0.1918  0.1651  0.1424  0.1332  0.1236

 Free energy of the ion-electron system (eV)
  ---------------------------------------------------
  alpha Z        PSCENC =      1295.57565721
  Ewald energy   TEWEN  =    107484.98395086
  -Hartree energ DENC   =   -198459.31514906
  -exchange      EXHF   =         0.00000000
  -V(xc)+E(xc)   XCENC  =      2713.54900031
  PAW double counting   =     97659.64417412  -101390.62654822
  entropy T*S    EENTRO =        -0.74311114
  eigenvalues    EBANDS =    -11567.16152227
  atomic energy  EATOM  =    102001.95379032
  Solvation  Ediel_sol  =         0.00000000
  ---------------------------------------------------
  free energy    TOTEN  =      -262.13975787 eV

  energy without entropy =     -261.39664673  energy(sigma->0) =     -261.76820230


--------------------------------------------------------------------------------------------------------




--------------------------------------- Iteration      1(  22)  ---------------------------------------


    POTLOK:  cpu time    0.0362: real time    0.0382
    SETDIJ:  cpu time    0.0044: real time    0.0045
     EDDAV:  cpu time    1.2618: real time    1.2648
       DOS:  cpu time    0.0012: real time    0.0012
    CHARGE:  cpu time    0.0273: real time    0.0273
    MIXING:  cpu time    0.0027: real time    0.0027
    --------------------------------------------
      LOOP:  cpu time    1.3335: real time    1.3386

 eigenvalue-minimisations  :  1040
 total energy-change (2. order) : 0.1745959E+00  (-0.1731120E-01)
 number of electron     594.0000165 magnetization 
 augmentation part      234.4206689 magnetization 

 Broyden mixing:
  rms(total) = 0.61293E+00    rms(broyden)= 0.61253E+00
  rms(prec ) = 0.71360E+00
  weight for this iteration     100.00

 eigenvalues of (default mixing * dielectric matrix)
  average eigenvalue GAMMA=   0.5675
  2.0178  1.7155  1.7155  0.8353  0.8353  0.4260  0.4260  0.4156  0.2783  0.0688
  0.0952  0.0952  0.1736  0.1622  0.1408  0.1312  0.1148

 Free energy of the ion-electron system (eV)
  ---------------------------------------------------
  alpha Z        PSCENC =      1295.57565721
  Ewald energy   TEWEN  =    107484.98395086
  -Hartree energ DENC   =   -198470.72525076
  -exchange      EXHF   =         0.00000000
  -V(xc)+E(xc)   XCENC  =      2713.64006154
  PAW double counting   =     97546.44583727  -101275.57176272
  entropy T*S    EENTRO =        -0.76541502
  eigenvalues    EBANDS =    -11557.50203063
  atomic energy  EATOM  =    102001.95379032
  Solvation  Ediel_sol  =         0.00000000
  ---------------------------------------------------
  free energy    TOTEN  =      -261.96516194 eV

  energy without entropy =     -261.19974692  energy(sigma->0) =     -261.58245443


--------------------------------------------------------------------------------------------------------




--------------------------------------- Iteration      1(  23)  ---------------------------------------


    POTLOK:  cpu time    0.0366: real time    0.0367
    SETDIJ:  cpu time    0.0047: real time    0.0051
     EDDAV:  cpu time    1.2203: real time    1.2233
       DOS:  cpu time    0.0008: real time    0.0008
    CHARGE:  cpu time    0.0272: real time    0.0273
    MIXING:  cpu time    0.0026: real time    0.0026
    --------------------------------------------
      LOOP:  cpu time    1.2922: real time    1.2957

 eigenvalue-minimisations  :  1000
 total energy-change (2. order) : 0.1020550E+00  (-0.1724381E-01)
 number of electron     594.0000169 magnetization 
 augmentation part      234.5127879 magnetization 

 Broyden mixing:
  rms(total) = 0.45623E+00    rms(broyden)= 0.45582E+00
  rms(prec ) = 0.52248E+00
  weight for this iteration     100.00

 eigenvalues of (default mixing * dielectric matrix)
  average eigenvalue GAMMA=   0.5752
  2.0492  1.8267  1.8267  0.9232  0.9232  0.4305  0.4305  0.4328  0.3563  0.0688
  0.0952  0.0952  0.1808  0.1733  0.1535  0.1347  0.1347  0.1175

 Free energy of the ion-electron system (eV)
  ---------------------------------------------------
  alpha Z        PSCENC =      1295.57565721
  Ewald energy   TEWEN  =    107484.98395086
  -Hartree energ DENC   =   -198472.95396845
  -exchange      EXHF   =         0.00000000
  -V(xc)+E(xc)   XCENC  =      2713.62903740
  PAW double counting   =     97474.70883160  -101202.26288679
  entropy T*S    EENTRO =        -0.78513106
  eigenvalues    EBANDS =    -11556.71238806
  atomic energy  EATOM  =    102001.95379032
  Solvation  Ediel_sol  =         0.00000000
  ---------------------------------------------------
  free energy    TOTEN  =      -261.86310696 eV

  energy without entropy =     -261.07797591  energy(sigma->0) =     -261.47054144


--------------------------------------------------------------------------------------------------------




--------------------------------------- Iteration      1(  24)  ---------------------------------------


    POTLOK:  cpu time    0.0360: real time    0.0361
    SETDIJ:  cpu time    0.0045: real time    0.0045
     EDDAV:  cpu time    1.2180: real time    1.2208
       DOS:  cpu time    0.0006: real time    0.0006
    CHARGE:  cpu time    0.0271: real time    0.0272
    MIXING:  cpu time    0.0027: real time    0.0027
[...]
-64.864   0.066   0.022  11.829  -0.029  -0.008   0.036  -0.011
  0.066 -64.749   0.101  -0.029  11.777  -0.042   0.004   0.013
  0.022   0.101 -64.883  -0.008  -0.042  11.836   0.008   0.004
 11.829  -0.029  -0.008   4.994   0.007   0.003  -0.011   0.002
 -0.029  11.777  -0.042   0.007   5.007   0.013  -0.001  -0.004
 -0.008  -0.042  11.836   0.003   0.013   4.991  -0.002  -0.001
  0.036   0.004   0.008  -0.011  -0.001  -0.002 -10.130   0.076
 -0.011   0.013   0.004   0.002  -0.004  -0.001   0.076 -10.007
 -0.006  -0.007  -0.023   0.002   0.001   0.007  -0.031   0.021
  0.004   0.043  -0.002  -0.001  -0.013  -0.000   0.073  -0.005
 -0.016   0.004   0.047   0.005  -0.001  -0.015  -0.019  -0.018
  0.035   0.003   0.007  -0.011  -0.001  -0.002 -10.682   0.075
 -0.010   0.013   0.003   0.002  -0.004  -0.001   0.075 -10.560
 -0.006  -0.007  -0.023   0.002   0.001   0.007  -0.031   0.021
  0.003   0.043  -0.002  -0.001  -0.013   0.000   0.072  -0.005
 -0.016   0.004   0.047   0.005  -0.001  -0.014  -0.019  -0.018
 -0.004   0.003  -0.012   0.000   0.001   0.003  -0.004  -0.015
 -0.008   0.006  -0.026   0.001   0.003   0.006  -0.008  -0.031
 total augmentation occupancy for first ion, spin component:           1
  1.995   0.000   0.000  -0.018   0.001   0.000  -0.002  -0.004   0.002   0.001   0.002   0.002   0.004  -0.002  -0.001  -0.002
  0.000   1.996   0.000   0.001  -0.016   0.001   0.001  -0.000  -0.008  -0.011   0.000  -0.001   0.000   0.008   0.009  -0.000
  0.000   0.000   1.995   0.000   0.001  -0.018  -0.003   0.001   0.004  -0.004  -0.016   0.003  -0.001  -0.004   0.004   0.014
 -0.018   0.001   0.000   0.119  -0.013  -0.003   0.154   0.010   0.048  -0.002   0.024  -0.141  -0.004  -0.047  -0.001  -0.014
  0.001  -0.016   0.001  -0.013   0.072  -0.013   0.015   0.017  -0.129  -0.198  -0.013  -0.018  -0.019   0.126   0.194   0.007
  0.000   0.001  -0.018  -0.003  -0.013   0.115  -0.043  -0.035  -0.059  -0.034  -0.274   0.054   0.020   0.057   0.021   0.248
 -0.002   0.001  -0.003   0.154   0.015  -0.043   3.055   0.118  -0.231   0.131  -0.176  -1.642   0.121   0.037   0.238  -0.051
 -0.004  -0.000   0.001   0.010   0.017  -0.035   0.118   2.871   0.029  -0.115   0.407   0.119  -0.941  -0.026  -0.047  -0.210
  0.002  -0.008   0.004   0.048  -0.129  -0.059  -0.231   0.029   3.588   0.012   0.118   0.028  -0.026  -1.568  -0.261  -0.211
  0.001  -0.011  -0.004  -0.002  -0.198  -0.034   0.131  -0.115   0.012   3.556   0.362   0.235  -0.054  -0.266  -1.754  -0.172
  0.002   0.000  -0.016   0.024  -0.013  -0.274  -0.176   0.407   0.118   0.362   3.625  -0.047  -0.205  -0.203  -0.166  -1.663
  0.002  -0.001   0.003  -0.141  -0.018   0.054  -1.642   0.119   0.028   0.235  -0.047   1.844  -0.263   0.098  -0.459   0.201
  0.004   0.000  -0.001  -0.004  -0.019   0.020   0.121  -0.941  -0.026  -0.054  -0.205  -0.263   0.831   0.024   0.149   0.081
 -0.002   0.008  -0.004  -0.047   0.126   0.057   0.037  -0.026  -1.568  -0.266  -0.203   0.098   0.024   1.365   0.400   0.255
 -0.001   0.009   0.004  -0.001   0.194   0.021   0.238  -0.047  -0.261  -1.754  -0.166  -0.459   0.149   0.400   1.670   0.047
 -0.002  -0.000   0.014  -0.014   0.007   0.248  -0.051  -0.210  -0.211  -0.172  -1.663   0.201   0.081   0.255   0.047   1.524
  0.009  -0.011   0.027   0.017   0.002   0.045   0.056   0.445   0.641   0.338   0.090  -0.049  -0.292  -0.495  -0.229  -0.082
 -0.004   0.005  -0.013  -0.001  -0.002  -0.002  -0.022  -0.060  -0.054  -0.046   0.001   0.008   0.022   0.022   0.007   0.003


------------------------ aborting loop because EDIFF is reached ----------------------------------------


    CHARGE:  cpu time    0.0267: real time    0.0268
    FORLOC:  cpu time    0.0119: real time    0.0119
    FORNL :  cpu time    0.2121: real time    0.2129
    STRESS:  cpu time    0.6544: real time    0.6562
    FORCOR:  cpu time    0.0454: real time    0.0458
    FORHAR:  cpu time    0.0177: real time    0.0178
    MIXING:  cpu time    0.0043: real time    0.0043
    OFIELD:  cpu time    0.0001: real time    0.0001

  FORCE on cell =-STRESS in cart. coord.  units (eV):
  Direction    XX          YY          ZZ          XY          YZ          ZX
  --------------------------------------------------------------------------------------
  Alpha Z  1295.57566  1295.57566  1295.57566
  Ewald  143680.27555144625.26606************   737.47758  -152.84130  -247.27862
  Hartree171339.89417172220.41655************   640.54901    10.50827  -181.22168
  E(xc)   -3767.70631 -3768.06891 -3770.95507     0.17780    -0.71158    -0.26350
  Local  ************************316231.64447 -1374.21755   114.02682   419.16965
  n-local  -527.78495  -530.85015  -527.62675    -0.59378    -2.49649    -2.72831
  augment  4339.41641  4343.28480  4341.96694    -0.66240    11.47796     4.84849
  Kinetic  8214.19058  8225.19145  8241.01267    -4.60511    27.45131    10.51168
  Fock        0.00000     0.00000     0.00000     0.00000     0.00000     0.00000
  -------------------------------------------------------------------------------------
  Total     -29.43974   -26.33887   -30.89833    -1.87444     7.41499     3.03771
  in kB     -29.20476   -26.12864   -30.65170    -1.85948     7.35580     3.01346
  external pressure =      -28.66 kB  Pullay stress =        0.00 kB


 VOLUME and BASIS-vectors are now :
 -----------------------------------------------------------------------------
  energy-cutoff  :      450.00
  volume of cell :     1615.07
      direct lattice vectors                 reciprocal lattice vectors
     8.428181476 -4.551010342  0.000000000     0.118649557  0.000000000  0.000000000
     0.000000000 10.079732985  0.000000000     0.053570403  0.099208977  0.000000000
     0.000000000  0.000000000 19.011135740     0.000000000  0.000000000  0.052600750

  length of vectors
     9.578410000 10.079732985 19.011135740     0.118649557  0.112748434  0.052600750


 FORCES acting on ions
    electron-ion (+dipol)            ewald-force                    non-local-force                 convergence-correction
 -----------------------------------------------------------------------------------------------
   0.347E+03 -.296E+03 0.310E+04   -.344E+03 0.297E+03 -.310E+04   -.251E+01 -.923E+00 0.260E+01   -.896E-01 -.136E+00 -.396E+00
   0.220E+03 -.352E+03 -.664E+03   -.219E+03 0.354E+03 0.664E+03   -.333E+00 -.170E+01 -.656E-01   -.449E-02 0.743E-02 -.115E+00
   -.302E+03 -.169E+03 -.385E+04   0.299E+03 0.170E+03 0.385E+04   0.194E+01 -.636E+00 0.299E+01   0.117E-01 0.104E+00 0.203E+00
   0.226E+03 -.591E+03 0.384E+04   -.228E+03 0.592E+03 -.383E+04   0.124E+01 -.957E+00 -.161E+01   0.161E+00 -.313E+00 -.503E+00
   0.296E+03 -.415E+03 0.496E+03   -.295E+03 0.416E+03 -.496E+03   -.729E-01 -.115E+01 0.292E+00   -.137E-01 0.461E-01 -.314E+00
   0.368E+03 -.285E+03 -.297E+04   -.368E+03 0.284E+03 0.297E+04   0.127E+00 0.610E-01 -.342E+01   -.875E-01 0.221E-01 0.990E-01
   -.827E+02 -.817E+02 0.422E+04   0.832E+02 0.736E+02 -.421E+04   -.723E+00 0.691E+01 -.111E+02   0.561E-01 0.147E+00 -.374E+00
   0.221E+03 -.405E+03 0.168E+04   -.221E+03 0.406E+03 -.168E+04   0.280E-01 -.163E+01 0.201E+01   -.172E-01 0.166E+00 -.409E+00
   0.405E+03 -.485E+03 -.197E+04   -.407E+03 0.486E+03 0.197E+04   0.169E+01 -.126E+01 -.367E+00   0.358E-01 -.419E-02 0.168E-01
   0.306E+03 0.232E+03 0.405E+04   -.301E+03 -.225E+03 -.404E+04   -.471E+01 -.655E+01 -.940E+01   0.637E-01 -.115E+00 -.389E+00
   0.175E+03 0.398E+03 0.476E+03   -.175E+03 -.400E+03 -.475E+03   0.450E-01 0.183E+01 -.777E+00   0.395E-01 0.399E-02 -.334E+00
   -.244E+03 0.303E+03 -.301E+04   0.247E+03 -.305E+03 0.301E+04   -.201E+01 0.233E+01 -.329E+01   0.393E-01 0.591E-01 0.989E-01
   0.200E+03 0.495E+03 0.443E+04   -.195E+03 -.486E+03 -.442E+04   -.442E+01 -.866E+01 -.101E+02   -.294E-01 0.569E-02 -.411E+00
   0.243E+03 0.528E+03 0.170E+04   -.244E+03 -.529E+03 -.170E+04   0.990E+00 0.168E+01 0.148E+01   -.424E-01 -.494E-01 -.543E+00
   0.317E+03 0.385E+03 -.177E+04   -.318E+03 -.386E+03 0.178E+04   0.128E+01 0.932E+00 -.830E+00   -.282E-01 -.936E-01 -.148E-01
   0.189E+03 -.113E+03 -.423E+04   -.188E+03 0.116E+03 0.422E+04   -.661E+00 -.307E+01 0.124E+02   0.214E-01 -.365E-01 0.292E+00
   0.176E+03 0.399E+03 0.295E+04   -.176E+03 -.403E+03 -.296E+04   0.782E+00 0.301E+01 0.403E+01   0.146E-01 0.589E-01 -.341E+00
   0.289E+03 0.427E+03 -.649E+03   -.290E+03 -.428E+03 0.649E+03   0.149E+01 0.818E+00 0.930E-01   -.159E-02 0.763E-03 0.752E-02
   0.391E+03 0.298E+03 -.392E+04   -.389E+03 -.294E+03 0.391E+04   -.204E+01 -.371E+01 0.743E+01   0.390E-01 0.219E-01 0.218E+00
   -.379E+03 0.257E+01 0.302E+04   0.379E+03 0.519E+00 -.302E+04   0.601E+00 -.231E+01 0.281E+01   -.736E-02 -.252E+00 -.436E+00
   -.440E+03 0.995E+02 -.865E+03   0.441E+03 -.992E+02 0.865E+03   -.101E+01 -.258E+00 -.492E+00   0.460E-01 -.936E-02 -.153E+00
   -.520E+03 -.798E+02 0.381E+04   0.520E+03 0.794E+02 -.381E+04   0.459E+00 0.278E+00 -.944E+00   -.278E+00 -.167E-01 -.494E+00
   -.533E+03 0.245E+02 0.469E+03   0.534E+03 -.235E+02 -.469E+03   -.960E+00 -.693E+00 0.257E+00   0.890E-01 0.127E-01 -.309E+00
   -.574E+03 0.124E+02 -.302E+04   0.575E+03 -.113E+02 0.302E+04   -.119E+01 -.924E+00 -.290E+01   0.526E-01 -.753E-01 0.950E-01
   -.549E+03 -.661E+02 0.189E+04   0.550E+03 0.662E+02 -.189E+04   -.137E+01 -.218E+00 0.301E+01   0.101E+00 0.598E-01 -.302E+00
   -.439E+03 -.861E+01 -.171E+04   0.440E+03 0.947E+01 0.171E+04   -.142E+01 -.699E+00 0.164E+00   -.206E-01 0.370E-01 0.224E-01
   -.246E+01 0.629E+02 -.430E+04   0.417E+01 -.599E+02 0.429E+04   -.772E+00 -.213E+01 0.801E+01   -.941E-01 -.276E-01 0.222E+00
   -.887E+02 0.105E+03 0.746E+03   0.899E+02 -.107E+03 -.746E+03   -.113E+01 0.238E+01 -.394E+00   -.141E-01 0.281E-01 -.205E+00
   -.117E+03 0.271E+02 -.746E+03   0.118E+03 -.277E+02 0.747E+03   -.228E+01 0.561E+00 -.105E+01   0.405E-01 -.414E-02 -.888E-02
   -.990E+02 0.338E+02 -.156E+04   0.100E+03 -.343E+02 0.157E+04   -.277E+01 0.909E+00 -.281E+01   0.352E-01 -.838E-02 0.111E+00
   -.120E+03 0.194E+03 0.117E+04   0.120E+03 -.196E+03 -.118E+04   -.919E+00 0.159E+01 -.887E+00   -.712E-01 0.638E-01 -.280E+00
   -.105E+03 0.133E+03 -.112E+03   0.106E+03 -.135E+03 0.111E+03   -.138E+01 0.206E+01 0.112E+01   0.329E-02 -.290E-01 -.377E-01
   -.141E+03 0.851E+01 -.139E+04   0.143E+03 -.880E+01 0.140E+04   -.184E+01 0.305E+00 -.120E+01   0.354E-02 -.401E-01 0.836E-01
   -.848E+02 -.786E+02 0.164E+04   0.854E+02 0.800E+02 -.164E+04   -.967E-01 -.244E+01 0.450E+01   0.649E-01 0.202E-02 -.173E+00
   -.918E+02 0.112E+03 0.336E+03   0.929E+02 -.114E+03 -.336E+03   -.117E+01 0.193E+01 0.402E+00   0.966E-02 0.206E-01 -.523E-01
   -.440E+02 0.148E+03 -.940E+03   0.452E+02 -.150E+03 0.939E+03   -.172E+01 0.190E+01 0.144E+01   -.412E-01 0.291E-01 0.768E-01
   -.303E+02 -.716E+02 0.163E+04   0.305E+02 0.721E+02 -.164E+04   -.694E+00 -.136E+01 0.430E+01   -.157E-01 -.481E-01 -.156E+00
   -.695E+02 -.133E+03 0.233E+03   0.706E+02 0.135E+03 -.233E+03   -.130E+01 -.256E+01 -.192E+00   0.543E-02 -.253E-01 -.796E-01
   -.125E+03 0.461E+02 -.114E+04   0.126E+03 -.461E+02 0.114E+04   -.172E+01 0.147E-01 -.145E+01   0.635E-02 0.204E-01 0.747E-01
   -.924E+02 -.178E+03 0.654E+03   0.930E+02 0.180E+03 -.654E+03   -.668E+00 -.147E+01 -.126E+01   0.278E-01 0.886E-02 -.227E+00
   -.116E+03 -.151E+03 -.651E+03   0.118E+03 0.154E+03 0.653E+03   -.148E+01 -.266E+01 -.153E+01   0.140E-01 0.268E-02 0.196E-03
   -.743E+02 -.502E+02 -.173E+04   0.744E+02 0.507E+02 0.173E+04   -.944E-01 -.670E+00 -.502E+01   -.329E-02 -.734E-02 0.125E+00
   -.156E+03 -.409E+02 0.120E+04   0.158E+03 0.416E+02 -.120E+04   -.259E+01 -.347E+00 0.520E+00   -.392E-01 0.539E-01 -.281E+00
   -.606E+02 -.163E+03 -.198E+03   0.619E+02 0.166E+03 0.198E+03   -.128E+01 -.236E+01 -.769E+00   0.625E-02 -.168E-02 -.136E-01
   0.142E+03 -.132E+03 -.138E+04   -.143E+03 0.133E+03 0.138E+04   0.138E+01 -.826E+00 -.919E+00   0.509E-02 -.173E-01 0.725E-01
   0.167E+03 -.345E+02 0.820E+03   -.169E+03 0.345E+02 -.820E+03   0.213E+01 0.237E+00 -.366E+00   0.286E-01 -.204E-01 -.181E+00
   0.860E+02 -.552E+01 -.541E+03   -.884E+02 0.520E+01 0.539E+03   0.280E+01 -.778E-01 0.160E+01   -.306E-01 0.346E-01 0.890E-02
   -.889E+02 0.775E+02 -.163E+04   0.892E+02 -.780E+02 0.163E+04   0.475E+00 0.618E+00 -.319E+01   -.385E-01 0.333E-01 0.105E+00
   0.203E+03 -.204E+02 0.116E+04   -.205E+03 0.202E+02 -.116E+04   0.169E+01 0.414E-01 -.788E+00   0.598E-01 -.532E-01 -.305E+00
   0.190E+03 0.389E+01 -.137E+03   -.192E+03 -.394E+01 0.137E+03   0.243E+01 0.760E-02 0.991E+00   -.540E-01 -.263E-01 -.395E-01
   0.329E+03 -.668E+02 -.140E+04   -.333E+03 0.673E+02 0.140E+04   0.569E+01 -.684E+00 -.764E+00   -.143E-01 -.166E-01 0.790E-01
   0.401E+02 0.376E+02 0.156E+04   -.413E+02 -.387E+02 -.156E+04   0.614E+00 0.193E+01 0.165E+01   -.108E-01 0.133E+00 -.220E+00
   0.151E+03 -.170E+02 0.304E+03   -.154E+03 0.170E+02 -.304E+03   0.255E+01 -.247E-01 0.366E+00   -.177E-01 0.150E-01 -.555E-01
   0.109E+03 -.804E+02 -.111E+04   -.110E+03 0.810E+02 0.112E+04   0.129E+01 -.104E+01 -.126E+01   0.406E-01 -.206E-01 0.587E-01
 -----------------------------------------------------------------------------------------------
   0.156E+02 0.219E+02 0.108E+02   0.173E-11 -.172E-11 0.341E-11   -.156E+02 -.216E+02 -.466E+01   0.569E-01 -.249E+00 -.608E+01
 
 
 POSITION                                       TOTAL-FORCE (eV/Angst)
 -----------------------------------------------------------------------------------
      5.43845      6.28878      1.95737         0.561648      0.371085      0.221668
      4.91051      5.31106      4.89343         0.318325      0.071922      0.034417
      4.38257      4.33335      7.82949        -0.575093     -0.083281     -0.639712
      2.80504      1.41186      0.97869        -0.461903      0.205674      0.958843
      2.27710      0.43415      3.91474         0.180904      0.083113     -0.234710
      1.74916     -0.54356      6.85080         0.190954     -0.316415      0.797365
      0.17163      6.61468      0.00000        -0.157912     -1.052957      2.128181
      8.07187      1.08596      2.93606         0.103606     -0.068013     -0.121231
      7.54393      0.10824      5.87212        -0.065536     -0.083014      0.393703
      5.57794      3.88397      1.18165         0.121607     -0.216219      1.737816
      5.05000      2.90625      4.11771         0.225378     -0.015837     -0.280754
      4.52206      1.92854      7.05376         0.844344      0.384907      0.979711
      2.94453     -0.99295      0.20296         0.193649      0.362551      2.088745
      2.41659      8.10907      3.13902        -0.048107      0.100547     -0.285622
      1.88864      7.13136      6.07508        -0.113246      0.035877      0.466750
      1.36070      6.15365      9.01114         0.026176      0.194549     -2.197401
      8.21135     -1.31885      2.16033         0.241571     -0.156048     -0.324954
      7.68341     -2.29656      5.09639        -0.165756      0.020955      0.185288
      7.15547     -3.27428      8.03245         0.057069      0.323741     -1.890974
      7.66523      5.08637      1.95737         0.066013      0.527626      0.099285
      7.13729      4.10866      4.89343        -0.247171     -0.016723      0.244355
      5.03182      0.20946      0.97869         0.247365     -0.110248      0.973267
      4.50388     -0.76826      3.91474        -0.045062      0.248657     -0.276804
      3.97594     -1.74597      6.85080        -0.135871      0.128952      0.627357
      1.87046      4.43456      2.93606        -0.008053     -0.066100     -0.453611
      1.34252      3.45685      5.87212        -0.094433      0.195149      0.292310
      0.81458      2.47914      8.80817         0.844983      0.840604     -1.751537
      6.95478      3.04266      2.90890         0.046974      0.520395     -1.002040
      6.42684      2.06495      5.84496        -0.705426      0.035001     -0.166217
      5.89890      1.08724      8.78102        -1.278250      0.390710     -0.834457
      4.32137     -1.83425      1.93021        -0.117571     -0.129576     -1.567549
      3.79343      7.26777      4.86627        -0.052434     -0.055723      0.150123
      3.26549      6.29006      7.80233        -0.315575     -0.021708      0.802546
      1.68795      3.36857      0.95153         0.553801     -1.077161      0.007835
      1.16001      2.39086      3.88759        -0.148943      0.037586      0.216268
      0.63207      1.41314      6.82364        -0.504255      0.008441      1.027481
      7.30511     -2.99716      0.96062        -0.514246     -0.887047      0.621039
      6.77717      6.10486      3.89668        -0.214731     -0.431157      0.279290
      6.24923      5.12715      6.83274        -0.469610      0.024570      0.756417
      4.14375      1.22794      2.91799         0.021482      0.069558     -0.875187
      3.61581      0.25023      5.85405        -0.025000     -0.123969      0.119559
      3.08787     -0.72748      8.79011         0.035400     -0.156359     -1.371054
      1.51034      6.43076      1.93931        -0.602750      0.427494     -0.622403
      0.98240      5.45305      4.87536         0.031001     -0.095349     -0.115891
      0.45446      4.47534      7.81142        -0.044031     -0.490067      1.132130
      4.11929      4.57376      2.90890         0.254518      0.271272     -1.027263
      3.59135      3.59605      5.84496         0.318375     -0.356538      0.054031
      3.06341      2.61834      8.78102         0.759465      0.138425      0.024482
      1.48587     -0.30315      1.93021        -0.000889     -0.246227     -1.569163
      0.95793      8.79887      4.86627        -0.039600     -0.071167      0.173407
      0.42999      7.82115      7.80233         0.975591     -0.211986      0.202194
      7.28064      0.34865      0.95153        -0.584046      0.978518     -0.968878
      6.75270     -0.62906      3.88759         0.109420      0.014707      0.080886
      6.22476     -1.60677      6.82364         0.405886     -0.473696      0.700661
 -----------------------------------------------------------------------------------
    total drift:                                0.006090     -0.012865      0.039405


--------------------------------------------------------------------------------------------------------



  FREE ENERGIE OF THE ION-ELECTRON SYSTEM (eV)
  ---------------------------------------------------
  free  energy   TOTEN  =      -261.77023819 eV

  energy  without entropy=     -260.95265680  energy(sigma->0) =     -261.36144750
 


--------------------------------------------------------------------------------------------------------


    POTLOK:  cpu time    0.0405: real time    0.0416


--------------------------------------------------------------------------------------------------------


     LOOP+:  cpu time   44.8937: real time   45.0924
    4ORBIT:  cpu time    0.0000: real time    0.0000

 total amount of memory used by VASP MPI-rank0    42845. kBytes
=======================================================================

   base      :      30000. kBytes
   nonlr-proj:       1931. kBytes
   fftplans  :       3097. kBytes
   grid      :       5606. kBytes
   one-center:         69. kBytes
   wavefun   :       2142. kBytes
 
  
  
 General timing and accounting informations for this job:
 ========================================================
  
                  Total CPU time used (sec):       46.552
                            User time (sec):       45.938
                          System time (sec):        0.614
                         Elapsed time (sec):       47.212
  
                   Maximum memory used (kb):      203380.
                   Average memory used (kb):           0.
  
                          Minor page faults:        63420
                          Major page faults:            0
                 Voluntary context switches:          885
