LAMMPS (5 Jun 2019)
OMP_NUM_THREADS environment is not set. Defaulting to 1 thread. (../comm.cpp:88)
  using 1 OpenMP thread(s) per MPI task
Reading data file ...
  triclinic box = (0 0 0) to (16.8847 9.57841 16.1739) with tilt (0 0 0)
  1 by 1 by 1 MPI processor grid
  reading atoms ...
  72 atoms
  read_data CPU = 0.000792872 secs
30 atoms in group bulk
WARNING: Using 'neigh_modify every 1 delay 0 check yes' setting during minimization (../min.cpp:168)
Neighbor list info ...
  update every 1 steps, delay 0 steps, check yes
  max neighbors/atom: 2000, page size: 100000
  master list distance cutoff = 8.5
  ghost atom cutoff = 8.5
  binsize = 4.25, bins = 4 3 4
  1 neighbor lists, perpetual/occasional/extra = 1 0 0
  (1) pair eam/alloy, perpetual
      attributes: half, newton on
      pair build: half/bin/newton/tri
      stencil: half/bin/3d/newton/tri
      bin: standard
Setting up cg style minimization ...
  Unit style    : metal
  Current step  : 0
Per MPI rank memory allocation (min/avg/max) = 4.104 | 4.104 | 4.104 Mbytes
Step Temp E_pair E_mol TotEng Press 
       0            0   -293.98416            0   -293.98416   -102874.41 
      68            0   -327.04787            0   -327.04787   -11197.772 
Loop time of 0.0342086 on 1 procs for 68 steps with 72 atoms

99.8% CPU use with 1 MPI tasks x 1 OpenMP threads

Minimization stats:
  Stopping criterion = energy tolerance
  Energy initial, next-to-last, final = 
        -293.984162689     -327.044974727     -327.047871892
  Force two-norm initial, final = 14.8687 0.231889
  Force max component initial, final = 3.02484 0.091259
  Final line search alpha, max atom move = 0.311344 0.028413
  Iterations, force evaluations = 68 99

MPI task timing breakdown:
Section |  min time  |  avg time  |  max time  |%varavg| %total
---------------------------------------------------------------
Pair    | 0.030937   | 0.030937   | 0.030937   |   0.0 | 90.44
Neigh   | 0.0017477  | 0.0017477  | 0.0017477  |   0.0 |  5.11
Comm    | 0.00072763 | 0.00072763 | 0.00072763 |   0.0 |  2.13
Output  | 0          | 0          | 0          |   0.0 |  0.00
Modify  | 5.9422e-05 | 5.9422e-05 | 5.9422e-05 |   0.0 |  0.17
Other   |            | 0.0007373  |            |       |  2.16

Nlocal:    72 ave 72 max 72 min
Histogram: 1 0 0 0 0 0 0 0 0 0
Nghost:    708 ave 708 max 708 min
Histogram: 1 0 0 0 0 0 0 0 0 0
Neighs:    3364 ave 3364 max 3364 min
Histogram: 1 0 0 0 0 0 0 0 0 0

Total # of neighbors = 3364
Ave neighs/atom = 46.7222
Neighbor list builds = 4
Dangerous builds = 0
System init for write_data ...
Total wall time: 0:00:00
