 vasp.5.4.4.18Apr17-6-g9f103f2a35 (build Aug 13 2019 17:33:20) gamma-only       
  
 executed on             LinuxIFC date 2020.05.10  17:13:41
 running on   12 total cores
 distrk:  each k-point on   12 cores,    1 groups
 distr:  one band on NCORES_PER_BAND=   6 cores,    2 groups


--------------------------------------------------------------------------------------------------------


 INCAR:
 POTCAR:    PAW_PBE Ni_pv 06Sep2000               
 POTCAR:    PAW_PBE S 06Sep2000                   
 POTCAR:    PAW_PBE Ni_pv 06Sep2000               
   VRHFIN =Ni:                                                                  
   LEXCH  = PE                                                                  
   EATOM  =  3501.1230 eV,  257.3253 Ry                                         
                                                                                
   TITEL  = PAW_PBE Ni_pv 06Sep2000                                             
   LULTRA =        F    use ultrasoft PP ?                                      
   IUNSCR =        1    unscreen: 0-lin 1-nonlin 2-no                           
   RPACOR =    1.500    partial core radius                                     
   POMASS =   58.690; ZVAL   =   16.000    mass and valenz                      
   RCORE  =    2.000    outmost cutoff radius                                   
   RWIGS  =    2.000; RWIGS  =    1.058    wigner-seitz radius (au A)           
   ENMAX  =  367.986; ENMIN  =  275.989 eV                                      
   RCLOC  =    1.301    cutoff for local pot                                    
   LCOR   =        T    correct aug charges                                     
   LPAW   =        T    paw PP                                                  
   EAUG   =  703.443                                                            
   DEXC   =    0.000                                                            
   RMAX   =    2.041    core radius for proj-oper                               
   RAUG   =    1.300    factor for augmentation sphere                          
   RDEP   =    2.103    radius for radial grids                                 
   RDEPT  =    1.618    core radius for aug-charge                              
                                                                                
   Atomic configuration                                                         
    8 entries                                                                   
     n  l   j            E        occ.                                          
     1  0  0.50     -8206.4253   2.0000                                         
     2  0  0.50      -976.1748   2.0000                                         
     2  1  1.50      -839.0571   6.0000                                         
     3  0  0.50      -105.9991   2.0000                                         
     3  1  1.50       -66.4603   6.0000                                         
     3  2  2.50        -4.6458   9.0000                                         
     4  0  0.50        -4.4926   1.0000                                         
     4  3  2.50        -1.3606   0.0000                                         
   Description                                                                  
     l       E           TYP  RCUT    TYP  RCUT                                 
     1    -66.4602962     23  1.700                                             
     1     -1.3605826     23  1.700                                             
     2     -4.6457867     23  2.000                                             
     2     -6.0063693     23  2.000                                             
     0     -4.4925576     23  1.900                                             
     0     16.3626226     23  1.900                                             
  local pseudopotential read in
  partial core-charges read in
  partial kinetic energy density read in
  atomic valenz-charges read in
  non local Contribution for L=           1  read in
    real space projection operators read in
  non local Contribution for L=           1  read in
    real space projection operators read in
  non local Contribution for L=           2  read in
    real space projection operators read in
  non local Contribution for L=           2  read in
    real space projection operators read in
  non local Contribution for L=           0  read in
    real space projection operators read in
  non local Contribution for L=           0  read in
    real space projection operators read in
    PAW grid and wavefunctions read in
 
   number of l-projection  operators is LMAX  =           6
   number of lm-projection operators is LMMAX =          18
 
 POTCAR:    PAW_PBE S 06Sep2000                   
   VRHFIN =S : s2p4                                                             
   LEXCH  = PE                                                                  
   EATOM  =   276.8230 eV,   20.3459 Ry                                         
                                                                                
   TITEL  = PAW_PBE S 06Sep2000                                                 
   LULTRA =        F    use ultrasoft PP ?                                      
   IUNSCR =        1    unscreen: 0-lin 1-nonlin 2-no                           
   RPACOR =    1.500    partial core radius                                     
   POMASS =   32.066; ZVAL   =    6.000    mass and valenz                      
   RCORE  =    1.900    outmost cutoff radius                                   
   RWIGS  =    2.200; RWIGS  =    1.164    wigner-seitz radius (au A)           
   ENMAX  =  258.689; ENMIN  =  194.016 eV                                      
   ICORE  =        2    local potential                                         
   LCOR   =        T    correct aug charges                                     
   LPAW   =        T    paw PP                                                  
   EAUG   =  335.092                                                            
   DEXC   =    0.000                                                            
   RMAX   =    1.942    core radius for proj-oper                               
   RAUG   =    1.300    factor for augmentation sphere                          
   RDEP   =    1.954    radius for radial grids                                 
   RDEPT  =    1.744    core radius for aug-charge                              
                                                                                
   Atomic configuration                                                         
    6 entries                                                                   
     n  l   j            E        occ.                                          
     1  0  0.50     -2405.8406   2.0000                                         
     2  0  0.50      -211.7007   2.0000                                         
     2  1  1.50      -156.4958   6.0000                                         
     3  0  0.50       -17.2562   2.0000                                         
     3  1  0.50        -7.0085   4.0000                                         
     3  2  1.50        -6.8029   0.0000                                         
   Description                                                                  
     l       E           TYP  RCUT    TYP  RCUT                                 
     0    -17.2561641     23  1.900                                             
     0    -15.8743224     23  1.900                                             
     1     -7.0085400     23  1.900                                             
     1     -2.7779785     23  1.900                                             
     2     -6.8029130     23  1.900                                             
  local pseudopotential read in
  partial core-charges read in
  partial kinetic energy density read in
  atomic valenz-charges read in
  non local Contribution for L=           0  read in
    real space projection operators read in
  non local Contribution for L=           0  read in
    real space projection operators read in
  non local Contribution for L=           1  read in
    real space projection operators read in
  non local Contribution for L=           1  read in
    real space projection operators read in
    PAW grid and wavefunctions read in
 
   number of l-projection  operators is LMAX  =           4
   number of lm-projection operators is LMMAX =           8
 
 Optimization of the real space projectors (new method)

 maximal supplied QI-value         = 18.90
 optimisation between [QCUT,QGAM] = [ 10.77, 21.73] = [ 32.49,132.25] Ry 
 Optimized for a Real-space Cutoff    1.38 Angstroem

   l    n(q)    QCUT    max X(q) W(low)/X(q) W(high)/X(q)  e(spline) 
   1      8    10.771     2.836    0.40E-04    0.29E-04    0.12E-06
   1      8    10.771     4.023    0.10E-03    0.48E-04    0.29E-06
   2      8    10.771    73.368    0.42E-03    0.97E-04    0.44E-06
   2      8    10.771    69.010    0.42E-03    0.99E-04    0.45E-06
   0      9    10.771    54.797    0.10E-03    0.56E-04    0.74E-07
   0      9    10.771    24.266    0.89E-04    0.49E-04    0.67E-07
 Optimization of the real space projectors (new method)

 maximal supplied QI-value         = 19.84
 optimisation between [QCUT,QGAM] = [ 10.71, 21.63] = [ 32.15,130.99] Ry 
 Optimized for a Real-space Cutoff    1.19 Angstroem

   l    n(q)    QCUT    max X(q) W(low)/X(q) W(high)/X(q)  e(spline) 
   0      8    10.715   187.594    0.41E-03    0.53E-04    0.66E-07
   0      8    10.715   164.243    0.41E-03    0.53E-04    0.65E-07
   1      7    10.715    67.533    0.19E-03    0.59E-03    0.68E-07
   1      7    10.715    50.729    0.19E-03    0.58E-03    0.67E-07
  PAW_PBE Ni_pv 06Sep2000               :
 energy of atom  1       EATOM=-3501.1230
 kinetic energy error for atom=    0.0925 (will be added to EATOM!!)
  PAW_PBE S 06Sep2000                   :
 energy of atom  2       EATOM= -276.8230
 kinetic energy error for atom=    0.0033 (will be added to EATOM!!)
 
 
 POSCAR: Type_048 Type_148                       
  positions in cartesian coordinates
  No initial velocities read in
 exchange correlation table for  LEXCH =        8
   RHO(1)=    0.500       N(1)  =     2000
   RHO(2)=  100.500       N(2)  =     4000
 


--------------------------------------------------------------------------------------------------------


 ion  position               nearest neighbor table
   1  0.261  0.479  0.253-  75 2.25  59 2.26  81 2.26  55 2.36  60 2.36   7 2.53  21 2.53
   2  0.355  0.385  0.388-  76 2.25  55 2.26  60 2.26  61 2.36  67 2.36   3 2.39   8 2.53  22 2.53

   3  0.376  0.364  0.497-  53 2.04  61 2.08  67 2.08   2 2.39
   4  0.167  0.073  0.118-  82 2.06  56 2.09  65 2.25  57 2.36  83 2.36  30 2.39
   5  0.049  0.055  0.473-  50 2.05  78 2.08  74 2.10  79 2.15
   6  0.274  0.333  0.083-  58 2.05  51 2.07  56 2.13  52 2.36  59 2.36  28 2.44
   7  0.368  0.239  0.218-  57 2.25  59 2.26  52 2.26  60 2.36  62 2.36   1 2.53  21 2.53
   8  0.462  0.145  0.353-  80 2.25  60 2.26  62 2.26  61 2.36  63 2.36   2 2.53  22 2.53
   9  0.000  0.372  0.218-  59 2.25  65 2.26  92 2.26  24 2.34  49 2.36  68 2.36  13 2.53  19 2.53

  10  0.094  0.278  0.353-  60 2.25  49 2.26  68 2.26  54 2.36  50 2.36  20 2.53  14 2.53
  11  0.185  0.191  0.473-  50 2.05  78 2.08  54 2.10  61 2.15
  12  0.493  0.441  0.116-  71 2.02  51 2.07  52 2.14  81 2.17  72 2.34  21 2.34
  13  0.761  0.479  0.253-  86 2.25  72 2.26  92 2.26  68 2.36  73 2.36  19 2.53   9 2.53
  14  0.855  0.385  0.388-  87 2.25  68 2.26  73 2.26  74 2.36  54 2.36  15 2.39  20 2.53  10 2.53

  15  0.876  0.364  0.497-  66 2.04  74 2.08  54 2.08  14 2.39
  16  0.667  0.073  0.118-  93 2.06  69 2.09  52 2.25  70 2.36  94 2.36  42 2.39
  17  0.549  0.055  0.473-  63 2.05  89 2.08  61 2.10  90 2.15
  18  0.774  0.333  0.083-  71 2.05  64 2.07  69 2.13  65 2.36  72 2.36  40 2.44
  19  0.868  0.239  0.218-  70 2.25  72 2.26  65 2.26  73 2.36  49 2.36  13 2.53   9 2.53
  20  0.962  0.145  0.353-  91 2.25  73 2.26  49 2.26  74 2.36  50 2.36  14 2.53  10 2.53
  21  0.500  0.372  0.218-  72 2.25  52 2.26  81 2.26  12 2.34  62 2.36  55 2.36   1 2.53   7 2.53

  22  0.594  0.278  0.353-  73 2.25  62 2.26  55 2.26  67 2.36  63 2.36   8 2.53   2 2.53
  23  0.685  0.191  0.473-  63 2.05  89 2.08  67 2.10  74 2.15
  24  0.993  0.441  0.116-  58 2.02  64 2.07  65 2.14  92 2.17  59 2.34   9 2.34
  25  0.261  0.979  0.253-  49 2.25  83 2.26  57 2.26  80 2.36  84 2.36  31 2.53  45 2.53
  26  0.355  0.885  0.388-  50 2.25  80 2.26  84 2.26  85 2.36  90 2.36  27 2.39  32 2.53  46 2.53

  27  0.376  0.864  0.497-  78 2.04  85 2.08  90 2.08  26 2.39
  28  0.183  0.553  0.130-  59 2.11  58 2.11  51 2.11  81 2.16  88 2.43   6 2.44
  29  0.049  0.555  0.473-  76 2.05  53 2.08  96 2.10  54 2.15
  30  0.287  0.838  0.103-  83 2.04  77 2.05  82 2.08   4 2.39
  31  0.368  0.739  0.218-  81 2.25  83 2.26  77 2.26  84 2.36  86 2.36  25 2.53  45 2.53
  32  0.462  0.645  0.353-  55 2.25  84 2.26  86 2.26  85 2.36  87 2.36  26 2.53  46 2.53
  33  0.000  0.872  0.218-  83 2.25  88 2.26  70 2.26  75 2.36  91 2.36  37 2.53  43 2.53
  34  0.094  0.778  0.353-  84 2.25  75 2.26  91 2.26  79 2.36  76 2.36  44 2.53  38 2.53
  35  0.185  0.691  0.473-  76 2.05  53 2.08  79 2.10  85 2.15
  36  0.432  0.961  0.103-  57 2.05  93 2.10  56 2.13  77 2.19
  37  0.761  0.979  0.253-  62 2.25  94 2.26  70 2.26  91 2.36  95 2.36  43 2.53  33 2.53
  38  0.855  0.885  0.388-  63 2.25  91 2.26  95 2.26  96 2.36  79 2.36  39 2.39  44 2.53  34 2.53

  39  0.876  0.864  0.497-  89 2.04  96 2.08  79 2.08  38 2.39
  40  0.683  0.553  0.130-  72 2.11  71 2.11  64 2.11  92 2.16  77 2.43  18 2.44
  41  0.549  0.555  0.473-  87 2.05  66 2.08  85 2.10  67 2.15
  42  0.787  0.838  0.103-  94 2.04  88 2.05  93 2.08  16 2.39
  43  0.868  0.739  0.218-  92 2.25  94 2.26  88 2.26  95 2.36  75 2.36  37 2.53  33 2.53
  44  0.962  0.645  0.353-  68 2.25  95 2.26  75 2.26  96 2.36  76 2.36  38 2.53  34 2.53
  45  0.500  0.872  0.218-  94 2.25  77 2.26  57 2.26  86 2.36  80 2.36  25 2.53  31 2.53
  46  0.594  0.778  0.353-  95 2.25  86 2.26  80 2.26  90 2.36  87 2.36  32 2.53  26 2.53
  47  0.685  0.691  0.473-  87 2.05  66 2.08  90 2.10  96 2.15
  48  0.932  0.961  0.103-  70 2.05  82 2.10  69 2.13  88 2.19
  49  0.073  0.167  0.270-  25 2.25  10 2.26  20 2.26   9 2.36  19 2.36
  50  0.167  0.073  0.405-   5 2.05  11 2.05  26 2.25  10 2.36  20 2.36  78 2.69
  51  0.330  0.480  0.061-  12 2.07   6 2.07  28 2.11  58 2.52  52 2.79
  52  0.479  0.261  0.135-  12 2.14  16 2.25   7 2.26  21 2.26   6 2.36  51 2.79
  53  0.212  0.528  0.526-   3 2.04  29 2.08  35 2.08  76 2.69
  54  0.030  0.378  0.451-  15 2.08  11 2.10  29 2.15  10 2.36  14 2.36
  55  0.436  0.472  0.315-  32 2.25   2 2.26  22 2.26   1 2.36  21 2.36
  56  0.280  0.143  0.068-   4 2.09  36 2.13   6 2.13  57 2.59
  57  0.342  0.066  0.180-  36 2.05   7 2.25  25 2.26  45 2.26   4 2.36  56 2.59
  58  0.101  0.493  0.056-  24 2.02   6 2.05  28 2.11  51 2.52
  59  0.174  0.397  0.180-  28 2.11   9 2.25   7 2.26   1 2.26  24 2.34   6 2.36
  60  0.268  0.303  0.315-  10 2.25   2 2.26   8 2.26   7 2.36   1 2.36
  61  0.362  0.209  0.451-   3 2.08  17 2.10  11 2.15   8 2.36   2 2.36
  62  0.573  0.167  0.270-  37 2.25  22 2.26   8 2.26  21 2.36   7 2.36
  63  0.667  0.073  0.405-  17 2.05  23 2.05  38 2.25  22 2.36   8 2.36  89 2.69
  64  0.830  0.480  0.061-  24 2.07  18 2.07  40 2.11  71 2.52  65 2.79
  65  0.979  0.261  0.135-  24 2.14   4 2.25  19 2.26   9 2.26  18 2.36  64 2.79
  66  0.712  0.528  0.526-  15 2.04  41 2.08  47 2.08  87 2.69
  67  0.530  0.378  0.451-   3 2.08  23 2.10  41 2.15  22 2.36   2 2.36
  68  0.936  0.472  0.315-  44 2.25  14 2.26  10 2.26  13 2.36   9 2.36
  69  0.780  0.143  0.068-  16 2.09  48 2.13  18 2.13  70 2.59
  70  0.842  0.066  0.180-  48 2.05  19 2.25  37 2.26  33 2.26  16 2.36  69 2.59
  71  0.601  0.493  0.056-  12 2.02  18 2.05  40 2.11  64 2.52
  72  0.674  0.397  0.180-  40 2.11  21 2.25  19 2.26  13 2.26  12 2.34  18 2.36
  73  0.768  0.303  0.315-  22 2.25  14 2.26  20 2.26  19 2.36  13 2.36
  74  0.862  0.209  0.451-  15 2.08   5 2.10  23 2.15  20 2.36  14 2.36
  75  0.073  0.667  0.270-   1 2.25  34 2.26  44 2.26  33 2.36  43 2.36
  76  0.167  0.573  0.405-  35 2.05  29 2.05   2 2.25  34 2.36  44 2.36  53 2.69
  77  0.479  0.761  0.135-  30 2.05  36 2.19  31 2.26  45 2.26  40 2.43
  78  0.212  0.028  0.526-  27 2.04  11 2.08   5 2.08  50 2.69
  79  0.030  0.878  0.451-  39 2.08  35 2.10   5 2.15  34 2.36  38 2.36
  80  0.436  0.972  0.315-   8 2.25  26 2.26  46 2.26  25 2.36  45 2.36
  81  0.342  0.566  0.180-  28 2.16  12 2.17  31 2.25   1 2.26  21 2.26
  82  0.103  0.962  0.065-   4 2.06  30 2.08  48 2.10  83 2.64
  83  0.174  0.897  0.180-  30 2.04  33 2.25  31 2.26  25 2.26   4 2.36  82 2.64
  84  0.268  0.803  0.315-  34 2.25  26 2.26  32 2.26  31 2.36  25 2.36
  85  0.362  0.709  0.451-  27 2.08  41 2.10  35 2.15  32 2.36  26 2.36
  86  0.573  0.667  0.270-  13 2.25  46 2.26  32 2.26  45 2.36  31 2.36
  87  0.667  0.573  0.405-  47 2.05  41 2.05  14 2.25  46 2.36  32 2.36  66 2.69
  88  0.979  0.761  0.135-  42 2.05  48 2.19  43 2.26  33 2.26  28 2.43
  89  0.712  0.028  0.526-  39 2.04  23 2.08  17 2.08  63 2.69
  90  0.530  0.878  0.451-  27 2.08  47 2.10  17 2.15  46 2.36  26 2.36
  91  0.936  0.972  0.315-  20 2.25  38 2.26  34 2.26  37 2.36  33 2.36
  92  0.842  0.566  0.180-  40 2.16  24 2.17  43 2.25  13 2.26   9 2.26
  93  0.603  0.962  0.065-  16 2.06  42 2.08  36 2.10  94 2.64
  94  0.674  0.897  0.180-  42 2.04  45 2.25  43 2.26  37 2.26  16 2.36  93 2.64
  95  0.768  0.803  0.315-  46 2.25  38 2.26  44 2.26  43 2.36  37 2.36
  96  0.862  0.709  0.451-  39 2.08  29 2.10  47 2.15  44 2.36  38 2.36
 
  LATTYP: Found a base centered orthorhombic cell.
 ALAT       =    11.8257374459
 B/A-ratio  =     1.6199260857
 C/A-ratio  =     1.8387210052
  
  Lattice vectors:
  
 A1 = (  11.2564630382,   0.0000000000,   0.0000000000)
 A2 = (  -5.0445621212, -10.0628203371,   0.0000000000)
 A3 = (   0.0000000000,   0.0000000000, -21.7442318436)


Analysis of symmetry for initial positions (statically):
=====================================================================
 Subroutine PRICEL returns following result:
 
  LATTYP: Found a simple monoclinic cell.
 ALAT       =    11.2564630382
 B/A-ratio  =     1.9317108553
 C/A-ratio  =     1.3031301026
 COS(beta)  =    -0.9393337087
  
  Lattice vectors:
  
 A1 = (  -5.0445621212, -10.0628203371,   0.0000000000)
 A2 = (   0.0000000000,   0.0000000000, -21.7442318436)
 A3 = (  10.6727936403,  10.0628203371,   0.0000000000)
 
   2 primitive cells build up your supercell.
 

 Routine SETGRP: Setting up the symmetry group for a 
 base centered orthorhombic supercell.


 Subroutine GETGRP returns: Found  1 space group operations
 (whereof  1 operations were pure point group operations)
 out of a pool of  8 trial point group operations.


The static configuration has the point symmetry C_1 .


Analysis of symmetry for dynamics (positions and initial velocities):
=====================================================================
 Subroutine PRICEL returns following result:
 
  LATTYP: Found a simple monoclinic cell.
 ALAT       =    11.2564630382
 B/A-ratio  =     1.9317108553
 C/A-ratio  =     1.3031301026
 COS(beta)  =    -0.9393337087
  
  Lattice vectors:
  
 A1 = (  -5.0445621212, -10.0628203371,   0.0000000000)
 A2 = (   0.0000000000,   0.0000000000, -21.7442318436)
 A3 = (  10.6727936403,  10.0628203371,   0.0000000000)
 
   2 primitive cells build up your supercell.
 

 Routine SETGRP: Setting up the symmetry group for a 
 base centered orthorhombic supercell.


 Subroutine GETGRP returns: Found  1 space group operations
 (whereof  1 operations were pure point group operations)
 out of a pool of  8 trial point group operations.


The dynamic configuration has the point symmetry C_1 .


 Subroutine INISYM returns: Found  1 space group operations
 (whereof  1 operations are pure point group operations),
 and found     2 'primitive' translations

 
 
 KPOINTS: gamma-point-only calculation. no periodi

Automatic generation of k-mesh.
Space group operators:
 irot       det(A)        alpha          n_x          n_y          n_z        tau_x        tau_y        tau_z
    1     1.000000     0.000000     1.000000     0.000000     0.000000     0.000000     0.000000     0.000000
 
 Subroutine IBZKPT returns following result:
 ===========================================
 
 Found      1 irreducible k-points:
 
 Following reciprocal coordinates:
            Coordinates               Weight
  0.000000  0.000000  0.000000      1.000000
 
 Following cartesian coordinates:
            Coordinates               Weight
  0.000000  0.000000  0.000000      1.000000
 


--------------------------------------------------------------------------------------------------------




 Dimension of arrays:
   k-points           NKPTS =      1   k-points in BZ     NKDIM =      1   number of bands    NBANDS=    634
   number of dos      NEDOS =    301   number of ions     NIONS =     96
   non local maximal  LDIM  =      6   non local SUM 2l+1 LMDIM =     18
   total plane-waves  NPLWV = 432000
   max r-space proj   IRMAX =   1984   max aug-charges    IRDMAX=   5725
   dimension x,y,z NGX =    60 NGY =   60 NGZ =  120
   dimension x,y,z NGXF=   120 NGYF=  120 NGZF=  240
   support grid    NGXF=   120 NGYF=  120 NGZF=  240
   ions per type =              48  48
   NGX,Y,Z   is equivalent  to a cutoff of   8.86,  8.86,  9.17 a.u.
   NGXF,Y,Z  is equivalent  to a cutoff of  17.72, 17.72, 18.35 a.u.

 SYSTEM =  "Millerite NiS"                         
 POSCAR =  Type_048 Type_148                       

 Startparameter for this run:
   NWRITE =      2    write-flag & timer
   PREC   = normal    normal or accurate (medium, high low for compatibility)
   ISTART =      0    job   : 0-new  1-cont  2-samecut
   ICHARG =      2    charge: 1-file 2-atom 10-const
   ISPIN  =      1    spin polarized calculation?
   LNONCOLLINEAR =      F non collinear calculations
   LSORBIT =      F    spin-orbit coupling
   INIWAV =      1    electr: 0-lowe 1-rand  2-diag
   LASPH  =      F    aspherical Exc in radial PAW
   METAGGA=      F    non-selfconsistent MetaGGA calc.

 Electronic Relaxation 1
   ENCUT  =  450.0 eV  33.07 Ry    5.75 a.u.  19.47 19.47 37.61*2*pi/ulx,y,z
   ENINI  =  450.0     initial cutoff
   ENAUG  =  703.4 eV  augmentation charge cutoff
   NELM   =    100;   NELMIN=  2; NELMDL= -5     # of ELM steps 
   EDIFF  = 0.1E-03   stopping-criterion for ELM
   LREAL  =      T    real-space projection
   NLSPLINE    = F    spline interpolate recip. space projectors
   LCOMPAT=      F    compatible to vasp.4.4
   GGA_COMPAT  = T    GGA compatible to vasp.4.4-vasp.4.6
   LMAXPAW     = -100 max onsite density
   LMAXMIX     =    2 max onsite mixed and CHGCAR
   VOSKOWN=      0    Vosko Wilk Nusair interpolation
   ROPT   =   -0.00050  -0.00050
 Ionic relaxation
   EDIFFG = 0.1E-02   stopping-criterion for IOM
   NSW    =      0    number of steps for IOM
   NBLOCK =      1;   KBLOCK =      1    inner block; outer block 
   IBRION =     -1    ionic relax: 0-MD 1-quasi-New 2-CG
   NFREE  =      0    steps in history (QN), initial steepest desc. (CG)
   ISIF   =      2    stress and relaxation
   IWAVPR =     10    prediction:  0-non 1-charg 2-wave 3-comb
   ISYM   =      2    0-nonsym 1-usesym 2-fastsym
   LCORR  =      T    Harris-Foulkes like correction to forces

   POTIM  = 0.5000    time-step for ionic-motion
   TEIN   =    0.0    initial temperature
   TEBEG  =    0.0;   TEEND  =   0.0 temperature during run
   SMASS  =  -3.00    Nose mass-parameter (am)
   estimated Nose-frequenzy (Omega)   =  0.10E-29 period in steps =****** mass=  -0.290E-26a.u.
   SCALEE = 1.0000    scale energy and forces
   NPACO  =    256;   APACO  = 16.0  distance and # of slots for P.C.
   PSTRESS=    0.0 pullay stress

  Mass of Ions in am
   POMASS =  58.69 32.07
  Ionic Valenz
   ZVAL   =  16.00  6.00
  Atomic Wigner-Seitz radii
   RWIGS  =  -1.00 -1.00
  virtual crystal weights 
   VCA    =   1.00  1.00
   NELECT =    1056.0000    total number of electrons
   NUPDOWN=      -1.0000    fix difference up-down

 DOS related values:
   EMIN   =  10.00;   EMAX   =-10.00  energy-range for DOS
   EFERMI =   0.00
   ISMEAR =     0;   SIGMA  =   0.20  broadening in eV -4-tet -1-fermi 0-gaus

 Electronic relaxation 2 (details)
   IALGO  =     38    algorithm
   LDIAG  =      T    sub-space diagonalisation (order eigenvalues)
   LSUBROT=      F    optimize rotation matrix (better conditioning)
   TURBO    =      0    0=normal 1=particle mesh
   IRESTART =      0    0=no restart 2=restart with 2 vectors
   NREBOOT  =      0    no. of reboots
   NMIN     =      0    reboot dimension
   EREF     =   0.00    reference energy to select bands
   IMIX   =      4    mixing-type and parameters
     AMIX     =   0.40;   BMIX     =  1.00
     AMIX_MAG =   1.60;   BMIX_MAG =  1.00
     AMIN     =   0.10
     WC   =   100.;   INIMIX=   1;  MIXPRE=   1;  MAXMIX= -45

 Intra band minimization:
   WEIMIN = 0.0000     energy-eigenvalue tresh-hold
   EBREAK =  0.39E-07  absolut break condition
   DEPER  =   0.30     relativ break condition  

   TIME   =   0.40     timestep for ELM

  volume/ion in A,a.u.               =      25.66       173.14
  Fermi-wavevector in a.u.,A,eV,Ry     =   1.234452  2.332776 20.733535  1.523872
  Thomas-Fermi vector in A             =   2.369142
 
 Write flags
   LWAVE        =      F    write WAVECAR
   LDOWNSAMPLE  =      F    k-point downsampling of WAVECAR
   LCHARG       =      F    write CHGCAR
   LVTOT        =      F    write LOCPOT, total local potential
   LVHAR        =      F    write LOCPOT, Hartree potential only
   LELF         =      F    write electronic localiz. function (ELF)
   LORBIT       =      0    0 simple, 1 ext, 2 COOP (PROOUT), +10 PAW based schemes


 Dipole corrections
   LMONO  =      F    monopole corrections only (constant potential shift)
   LDIPOL =      F    correct potential (dipole corrections)
   IDIPOL =      0    1-x, 2-y, 3-z, 4-all directions 
   EPSILON=  1.0000000 bulk dielectric constant

 Exchange correlation treatment:
   GGA     =    --    GGA type
   LEXCH   =     8    internal setting for exchange type
   VOSKOWN=      0    Vosko Wilk Nusair interpolation
   LHFCALC =     F    Hartree Fock is set to
   LHFONE  =     F    Hartree Fock one center treatment
   AEXX    =    0.0000 exact exchange contribution

 Linear response parameters
   LEPSILON=     F    determine dielectric tensor
   LRPA    =     F    only Hartree local field effects (RPA)
   LNABLA  =     F    use nabla operator in PAW spheres
   LVEL    =     F    velocity operator in full k-point grid
   LINTERFAST=   F  fast interpolation
   KINTER  =     0    interpolate to denser k-point grid
   CSHIFT  =0.1000    complex shift for real part using Kramers Kronig
   OMEGAMAX=  -1.0    maximum frequency
   DEG_THRESHOLD= 0.2000000E-02 threshold for treating states as degnerate
   RTIME   =   -0.100 relaxation time in fs
  (WPLASMAI=    0.000 imaginary part of plasma frequency in eV, 0.658/RTIME)
   DFIELD  = 0.0000000 0.0000000 0.0000000 field for delta impulse in time
 
 Orbital magnetization related:
   ORBITALMAG=     F  switch on orbital magnetization
   LCHIMAG   =     F  perturbation theory with respect to B field
   DQ        =  0.001000  dq finite difference perturbation B field
   LLRAUG    =     F  two centre corrections for induced B field



--------------------------------------------------------------------------------------------------------


 Static calculation
 charge density and potential will be updated during run
 non-spin polarized calculation
 Variant of blocked Davidson
 Davidson routine will perform the subspace rotation
 perform sub-space diagonalisation
    after iterative eigenvector-optimisation
 modified Broyden-mixing scheme, WC =      100.0
 initial mixing is a Kerker type mixing with AMIX =  0.4000 and BMIX =      1.0000
 Hartree-type preconditioning will be used
 using additional bands          106
 real space projection scheme for non local part
 use partial core corrections
 calculate Harris-corrections to forces 
   (improved forces if not selfconsistent)
 use gradient corrections 
 use of overlap-Matrix (Vanderbilt PP)
 Gauss-broadening in eV      SIGMA  =   0.20


--------------------------------------------------------------------------------------------------------


  energy-cutoff  :      450.00
  volume of cell :     2463.01
      direct lattice vectors                 reciprocal lattice vectors
    11.256463038  0.000000000  0.000000000     0.088837852 -0.044535036  0.000000000
     5.044562121 10.062820337  0.000000000     0.000000000  0.099375718  0.000000000
     0.000000000  0.000000000 21.744231844     0.000000000  0.000000000  0.045989208

  length of vectors
    11.256463038 11.256463038 21.744231844     0.099375718  0.099375718  0.045989208


 
 k-points in units of 2pi/SCALE and weight: gamma-point-only calculation. no periodi
   0.00000000  0.00000000  0.00000000       1.000
 
 k-points in reciprocal lattice and weights: gamma-point-only calculation. no periodi
   0.00000000  0.00000000  0.00000000       1.000
 
 position of ions in fractional coordinates (direct lattice) 
   0.26092070  0.47878036  0.25332799
   0.35488056  0.38482049  0.38835497
   0.37617998  0.36352086  0.49749806
   0.16696083  0.07274024  0.11830101
   0.04902591  0.05466141  0.47250507
   0.27423906  0.33335899  0.08262607
   0.36819893  0.23939913  0.21765305
   0.46215880  0.14543926  0.35268003
   0.00030194  0.37150212  0.21765305
   0.09426181  0.27754226  0.35268003
   0.18503936  0.19067356  0.47250648
   0.49330780  0.44061509  0.11554512
   0.76092070  0.47878036  0.25332799
   0.85488056  0.38482049  0.38835497
   0.87617998  0.36352086  0.49749806
   0.66696083  0.07274024  0.11830101
   0.54902591  0.05466141  0.47250507
   0.77423906  0.33335899  0.08262607
   0.86819893  0.23939913  0.21765305
   0.96215880  0.14543926  0.35268003
   0.50030194  0.37150212  0.21765305
   0.59426181  0.27754226  0.35268003
   0.68503936  0.19067356  0.47250648
   0.99330780  0.44061509  0.11554512
   0.26092070  0.97878036  0.25332799
   0.35488056  0.88482049  0.38835497
   0.37617493  0.86352586  0.49749679
   0.18268697  0.55327833  0.13008248
   0.04902889  0.55466476  0.47251077
   0.28719029  0.83767427  0.10287453
   0.36819893  0.73939913  0.21765305
   0.46215880  0.64543926  0.35268003
   0.00030194  0.87150212  0.21765305
   0.09426181  0.77754226  0.35268003
   0.18503834  0.69067443  0.47250869
   0.43186712  0.96103868  0.10282420
   0.76092070  0.97878036  0.25332799
   0.85488056  0.88482049  0.38835497
   0.87617493  0.86352586  0.49749679
   0.68268697  0.55327833  0.13008248
   0.54902889  0.55466476  0.47251077
   0.78719029  0.83767427  0.10287453
   0.86819893  0.73939913  0.21765305
   0.96215880  0.64543926  0.35268003
   0.50030194  0.87150212  0.21765305
   0.59426181  0.77754226  0.35268003
   0.68503834  0.69067443  0.47250869
   0.93186712  0.96103868  0.10282420
   0.07287763  0.16682343  0.27005396
   0.16683750  0.07286357  0.40508094
   0.32953310  0.48034305  0.06100040
   0.47891775  0.26078330  0.13502698
   0.21182760  0.52787688  0.52631090
   0.03023343  0.37768264  0.45050807
   0.43627354  0.47164251  0.31548109
   0.28040132  0.14318846  0.06788339
   0.34231368  0.06560239  0.18045411
   0.10069985  0.49285409  0.05641365
   0.17409868  0.39738738  0.18045411
   0.26805855  0.30342751  0.31548109
   0.36201842  0.20946765  0.45050807
   0.57287763  0.16682343  0.27005396
   0.66683750  0.07286357  0.40508094
   0.82953310  0.48034305  0.06100040
   0.97891775  0.26078330  0.13502698
   0.71182760  0.52787688  0.52631090
   0.53023343  0.37768264  0.45050807
   0.93627354  0.47164251  0.31548109
   0.78040132  0.14318846  0.06788339
   0.84231368  0.06560239  0.18045411
   0.60069985  0.49285409  0.05641365
   0.67409868  0.39738738  0.18045411
   0.76805855  0.30342751  0.31548109
   0.86201842  0.20946765  0.45050807
   0.07287764  0.66682343  0.27005396
   0.16683750  0.57286357  0.40508094
   0.47891775  0.76078330  0.13502698
   0.21181999  0.02787895  0.52630945
   0.03023342  0.87768264  0.45050807
   0.43627354  0.97164251  0.31548109
   0.34231368  0.56560239  0.18045411
   0.10318787  0.96179621  0.06487359
   0.17409868  0.89738738  0.18045411
   0.26805855  0.80342751  0.31548109
   0.36201842  0.70946764  0.45050807
   0.57287764  0.66682343  0.27005396
   0.66683750  0.57286357  0.40508094
   0.97891775  0.76078330  0.13502698
   0.71181999  0.02787895  0.52630945
   0.53023342  0.87768264  0.45050807
   0.93627354  0.97164251  0.31548109
   0.84231368  0.56560239  0.18045411
   0.60318787  0.96179621  0.06487359
   0.67409868  0.89738738  0.18045411
   0.76805855  0.80342751  0.31548109
   0.86201842  0.70946764  0.45050807
 
 position of ions in cartesian coordinates  (Angst):
   5.35228144  4.81788074  5.50842250
   5.93595081  3.87237948  8.44448046
   6.06825956  3.65804512 10.81771310
   2.24633106  0.73197198  2.57236455
   0.82760125  0.55004793 10.27425978
   4.76861205  3.35453166  1.79664042
   5.35228143  2.40903041  4.73269838
   5.93595082  1.46352916  7.66875634
   1.87746434  3.73835913  4.73269838
   2.46113373  2.79285788  7.66875634
   3.04475335  1.91871381 10.27429047
   7.77561118  4.43383048  2.51243984
  10.98051296  4.81788074  5.50842250
  11.56418233  3.87237948  8.44448046
  11.69649108  3.65804512 10.81771310
   7.87456258  0.73197198  2.57236455
   6.45583277  0.55004793 10.27425978
  10.39684357  3.35453166  1.79664042
  10.98051295  2.40903041  4.73269838
  11.56418234  1.46352916  7.66875634
   7.50569586  3.73835913  4.73269838
   8.08936525  2.79285788  7.66875634
   8.67298487  1.91871381 10.27429047
  13.40384270  4.43383048  2.51243984
   7.87456250  9.84929091  5.50842250
   8.45823187  8.90378965  8.44448046
   8.59050906  8.68950560 10.81768564
   4.84745604  5.56754045  2.82854350
   3.34993276  5.58149180 10.27438371
   7.45844679  8.42936566  2.23692764
   7.87456249  7.44044058  4.73269838
   8.45823188  6.49493933  7.66875634
   4.39974540  8.76976930  4.73269838
   4.98341479  7.82426805  7.66875634
   5.56702734  6.95013269 10.27433860
   9.70931559  9.67075953  2.23583332
  13.50279402  9.84929091  5.50842250
  14.08646339  8.90378965  8.44448046
  14.21874058  8.68950560 10.81768564
  10.47568756  5.56754045  2.82854350
   8.97816428  5.58149180 10.27438371
  13.08667831  8.42936566  2.23692764
  13.50279401  7.44044058  4.73269838
  14.08646340  6.49493933  7.66875634
  10.02797692  8.76976930  4.73269838
  10.61164631  7.82426805  7.66875634
  11.19525886  6.95013269 10.27433860
  15.33754711  9.67075953  2.23583332
   1.66189559  1.67871425  5.87211592
   2.24556497  0.73321299  8.80817387
   6.13249755  4.83360583  1.32640681
   6.70645756  2.62421550  2.93605796
   5.04733730  5.31193024 11.44422627
   2.24556497  3.80055255  9.79595186
   7.29012694  4.74605381  6.85989390
   3.87865021  1.44087977  1.47607207
   4.18417657  0.66014504  3.92383594
   3.61975718  4.95950214  1.22667146
   3.96438069  3.99883779  3.92383594
   4.54805007  3.05333654  6.85989390
   5.13171946  2.10783528  9.79595186
   7.29012710  1.67871425  5.87211592
   7.87379649  0.73321299  8.80817387
  11.76072907  4.83360583  1.32640681
  12.33468908  2.62421550  2.93605796
  10.67556882  5.31193024 11.44422627
   7.87379649  3.80055255  9.79595186
  12.91835846  4.74605381  6.85989390
   9.50688173  1.44087977  1.47607207
   9.81240809  0.66014504  3.92383594
   9.24798870  4.95950214  1.22667146
   9.59261221  3.99883779  3.92383594
  10.17628159  3.05333654  6.85989390
  10.75995097  2.10783528  9.79595186
   4.18417665  6.71012442  5.87211592
   4.76784603  5.76462316  8.80817387
   9.22873862  7.65562567  2.93605796
   2.52498103  0.28054090 11.44419476
   4.76784603  8.83196272  9.79595186
   9.81240800  9.77746398  6.85989390
   6.70645763  5.69155521  3.92383594
   6.01337114  9.67838249  1.41062646
   6.48666175  9.03024796  3.92383594
   7.07033113  8.08474671  6.85989390
   7.65400052  7.13924545  9.79595186
   9.81240817  6.71012442  5.87211592
  10.39607755  5.76462316  8.80817387
  14.85697014  7.65562567  2.93605796
   8.15321255  0.28054090 11.44419476
  10.39607755  8.83196272  9.79595186
  15.44063952  9.77746398  6.85989390
  12.33468915  5.69155521  3.92383594
  11.64160266  9.67838249  1.41062646
  12.11489327  9.03024796  3.92383594
  12.69856265  8.08474671  6.85989390
  13.28223203  7.13924545  9.79595186
 


--------------------------------------------------------------------------------------------------------


 use parallel FFT for orbitals z direction half grid
 k-point  1 :   0.0000 0.0000 0.0000  plane waves:   26744

 maximum and minimum number of plane-waves per node :      4459     4455

 maximum number of plane-waves:     26744
 maximum index in each direction: 
   IXMAX=   19   IYMAX=   19   IZMAX=   37
   IXMIN=  -19   IYMIN=  -19   IZMIN=    0


 real space projection operators:
  total allocation   :      16265.25 KBytes
  max/ min on nodes  :       2767.84       2656.06


 parallel 3D FFT for wavefunctions:
    minimum data exchange during FFTs selected (reduces bandwidth)
 parallel 3D FFT for charge:
    minimum data exchange during FFTs selected (reduces bandwidth)


 total amount of memory used by VASP MPI-rank0    86987. kBytes
=======================================================================

   base      :      30000. kBytes
   nonlr-proj:       3331. kBytes
   fftplans  :      11271. kBytes
   grid      :      19113. kBytes
   one-center:        124. kBytes
   wavefun   :      23148. kBytes
 
     INWAV:  cpu time    0.0000: real time    0.0000
 Broyden mixing: mesh for mixing (old mesh)
   NGX = 39   NGY = 39   NGZ = 75
  (NGX  =120   NGY  =120   NGZ  =240)
  gives a total of 114075 points

 initial charge density was supplied:
 charge density of overlapping atoms calculated
 number of electron    1056.0000000 magnetization 
 keeping initial charge density in first step


--------------------------------------------------------------------------------------------------------


 Maximum index for non-local projection operator          330
 Maximum index for augmentation-charges          502 (set IRDMAX)


--------------------------------------------------------------------------------------------------------


 First call to EWALD:  gamma=   0.131
 Maximum number of real-space cells 4x 4x 2
 Maximum number of reciprocal cells 2x 2x 4

    FEWALD:  cpu time    0.0104: real time    0.0104


--------------------------------------- Iteration      1(   1)  ---------------------------------------


    POTLOK:  cpu time    0.3714: real time    0.3715
    SETDIJ:  cpu time    0.0251: real time    0.0251
     EDDAV:  cpu time   13.4411: real time   13.4469
       DOS:  cpu time    0.0015: real time    0.0015
    --------------------------------------------
      LOOP:  cpu time   13.8391: real time   13.8451

 eigenvalue-minimisations  :  1540
 total energy-change (2. order) : 0.1355334E+05  (-0.6843083E+05)
 number of electron    1056.0000000 magnetization 
 augmentation part     1056.0000000 magnetization 

 Free energy of the ion-electron system (eV)
  ---------------------------------------------------
  alpha Z        PSCENC =      2684.99175279
  Ewald energy   TEWEN  =    300037.67541452
  -Hartree energ DENC   =   -463659.26222876
  -exchange      EXHF   =         0.00000000
  -V(xc)+E(xc)   XCENC  =      4903.49715811
  PAW double counting   =    150306.04444553  -156855.34918313
  entropy T*S    EENTRO =        -0.52795496
  eigenvalues    EBANDS =     -5200.53428476
  atomic energy  EATOM  =    181336.80673834
  Solvation  Ediel_sol  =         0.00000000
  ---------------------------------------------------
  free energy    TOTEN  =     13553.34185769 eV

  energy without entropy =    13553.86981265  energy(sigma->0) =    13553.60583517


--------------------------------------------------------------------------------------------------------




--------------------------------------- Iteration      1(   2)  ---------------------------------------


     EDDAV:  cpu time   12.0568: real time   12.0593
       DOS:  cpu time    0.0015: real time    0.0015
    --------------------------------------------
      LOOP:  cpu time   12.0583: real time   12.0607

 eigenvalue-minimisations  :  1332
 total energy-change (2. order) :-0.1266580E+05  (-0.1222602E+05)
 number of electron    1056.0000000 magnetization 
 augmentation part     1056.0000000 magnetization 

 Free energy of the ion-electron system (eV)
  ---------------------------------------------------
  alpha Z        PSCENC =      2684.99175279
  Ewald energy   TEWEN  =    300037.67541452
  -Hartree energ DENC   =   -463659.26222876
  -exchange      EXHF   =         0.00000000
  -V(xc)+E(xc)   XCENC  =      4903.49715811
  PAW double counting   =    150306.04444553  -156855.34918313
  entropy T*S    EENTRO =        -0.86635869
  eigenvalues    EBANDS =    -17865.99350191
  atomic energy  EATOM  =    181336.80673834
  Solvation  Ediel_sol  =         0.00000000
  ---------------------------------------------------
  free energy    TOTEN  =       887.54423681 eV

  energy without entropy =      888.41059550  energy(sigma->0) =      887.97741615


--------------------------------------------------------------------------------------------------------




--------------------------------------- Iteration      1(   3)  ---------------------------------------


     EDDAV:  cpu time   13.0271: real time   13.0299
       DOS:  cpu time    0.0018: real time    0.0018
    --------------------------------------------
      LOOP:  cpu time   13.0289: real time   13.0317

 eigenvalue-minimisations  :  1440
 total energy-change (2. order) :-0.1340184E+04  (-0.1267197E+04)
 number of electron    1056.0000000 magnetization 
 augmentation part     1056.0000000 magnetization 

 Free energy of the ion-electron system (eV)
  ---------------------------------------------------
  alpha Z        PSCENC =      2684.99175279
  Ewald energy   TEWEN  =    300037.67541452
  -Hartree energ DENC   =   -463659.26222876
  -exchange      EXHF   =         0.00000000
  -V(xc)+E(xc)   XCENC  =      4903.49715811
  PAW double counting   =    150306.04444553  -156855.34918313
  entropy T*S    EENTRO =        -1.21286164
  eigenvalues    EBANDS =    -19205.83131137
  atomic energy  EATOM  =    181336.80673834
  Solvation  Ediel_sol  =         0.00000000
  ---------------------------------------------------
  free energy    TOTEN  =      -452.64007560 eV

  energy without entropy =     -451.42721396  energy(sigma->0) =     -452.03364478


--------------------------------------------------------------------------------------------------------




--------------------------------------- Iteration      1(   4)  ---------------------------------------


     EDDAV:  cpu time   12.8368: real time   12.8395
       DOS:  cpu time    0.0020: real time    0.0020
    --------------------------------------------
      LOOP:  cpu time   12.8389: real time   12.8415

 eigenvalue-minimisations  :  1456
 total energy-change (2. order) :-0.8569204E+02  (-0.8468720E+02)
 number of electron    1056.0000000 magnetization 
 augmentation part     1056.0000000 magnetization 

 Free energy of the ion-electron system (eV)
  ---------------------------------------------------
  alpha Z        PSCENC =      2684.99175279
  Ewald energy   TEWEN  =    300037.67541452
  -Hartree energ DENC   =   -463659.26222876
  -exchange      EXHF   =         0.00000000
  -V(xc)+E(xc)   XCENC  =      4903.49715811
  PAW double counting   =    150306.04444553  -156855.34918313
  entropy T*S    EENTRO =        -1.21600985
  eigenvalues    EBANDS =    -19291.52020725
  atomic energy  EATOM  =    181336.80673834
  Solvation  Ediel_sol  =         0.00000000
  ---------------------------------------------------
  free energy    TOTEN  =      -538.33211969 eV

  energy without entropy =     -537.11610984  energy(sigma->0) =     -537.72411476


--------------------------------------------------------------------------------------------------------




--------------------------------------- Iteration      1(   5)  ---------------------------------------


     EDDAV:  cpu time   14.6679: real time   14.6740
       DOS:  cpu time    0.0017: real time    0.0017
    CHARGE:  cpu time    0.4119: real time    0.4121
    MIXING:  cpu time    0.0125: real time    0.0125
    --------------------------------------------
      LOOP:  cpu time   15.0941: real time   15.1003

 eigenvalue-minimisations  :  1696
 total energy-change (2. order) :-0.3646565E+01  (-0.3642046E+01)
 number of electron    1055.9999081 magnetization 
 augmentation part      381.7804515 magnetization 

 Broyden mixing:
  rms(total) = 0.10770E+02    rms(broyden)= 0.10757E+02
  rms(prec ) = 0.11132E+02
  weight for this iteration     100.00

 Free energy of the ion-electron system (eV)
  ---------------------------------------------------
  alpha Z        PSCENC =      2684.99175279
  Ewald energy   TEWEN  =    300037.67541452
  -Hartree energ DENC   =   -463659.26222876
  -exchange      EXHF   =         0.00000000
  -V(xc)+E(xc)   XCENC  =      4903.49715811
  PAW double counting   =    150306.04444553  -156855.34918313
  entropy T*S    EENTRO =        -1.21631443
  eigenvalues    EBANDS =    -19295.16646727
  atomic energy  EATOM  =    181336.80673834
  Solvation  Ediel_sol  =         0.00000000
  ---------------------------------------------------
  free energy    TOTEN  =      -541.97868428 eV

  energy without entropy =     -540.76236986  energy(sigma->0) =     -541.37052707


--------------------------------------------------------------------------------------------------------




--------------------------------------- Iteration      1(   6)  ---------------------------------------


    POTLOK:  cpu time    0.3572: real time    0.3575
    SETDIJ:  cpu time    0.0236: real time    0.0236
     EDDAV:  cpu time   13.6181: real time   13.6203
       DOS:  cpu time    0.0016: real time    0.0017
    CHARGE:  cpu time    0.6470: real time    0.6471
    MIXING:  cpu time    0.0127: real time    0.0127
    --------------------------------------------
      LOOP:  cpu time   14.6603: real time   14.6630

 eigenvalue-minimisations  :  1568
 total energy-change (2. order) :-0.8701581E+02  (-0.1288407E+03)
 number of electron    1055.9998935 magnetization 
 augmentation part      461.1279885 magnetization 

 Broyden mixing:
  rms(total) = 0.17399E+02    rms(broyden)= 0.17395E+02
  rms(prec ) = 0.18049E+02
  weight for this iteration     100.00

 eigenvalues of (default mixing * dielectric matrix)
  average eigenvalue GAMMA=   0.2569
  0.2569

 Free energy of the ion-electron system (eV)
  ---------------------------------------------------
  alpha Z        PSCENC =      2684.99175279
  Ewald energy   TEWEN  =    300037.67541452
  -Hartree energ DENC   =   -459975.10445425
  -exchange      EXHF   =         0.00000000
  -V(xc)+E(xc)   XCENC  =      4802.78598724
  PAW double counting   =    155978.47857039  -162215.11513781
  entropy T*S    EENTRO =        -1.05432136
  eigenvalues    EBANDS =    -23278.45904233
  atomic energy  EATOM  =    181336.80673834
  Solvation  Ediel_sol  =         0.00000000
  ---------------------------------------------------
  free energy    TOTEN  =      -628.99449247 eV

  energy without entropy =     -627.94017111  energy(sigma->0) =     -628.46733179


--------------------------------------------------------------------------------------------------------




--------------------------------------- Iteration      1(   7)  ---------------------------------------


    POTLOK:  cpu time    0.3548: real time    0.3548
    SETDIJ:  cpu time    0.0235: real time    0.0235
     EDDAV:  cpu time   12.8121: real time   12.8143
       DOS:  cpu time    0.0016: real time    0.0016
    CHARGE:  cpu time    0.3924: real time    0.3924
    MIXING:  cpu time    0.0122: real time    0.0122
    --------------------------------------------
      LOOP:  cpu time   13.5966: real time   13.5988

 eigenvalue-minimisations  :  1432
 total energy-change (2. order) : 0.1248745E+03  (-0.2778536E+02)
 number of electron    1055.9998994 magnetization 
 augmentation part      439.9649561 magnetization 

 Broyden mixing:
  rms(total) = 0.80544E+01    rms(broyden)= 0.80517E+01
  rms(prec ) = 0.84147E+01
  weight for this iteration     100.00

 eigenvalues of (default mixing * dielectric matrix)
  average eigenvalue GAMMA=   0.4675
  0.4675  0.4675

 Free energy of the ion-electron system (eV)
  ---------------------------------------------------
  alpha Z        PSCENC =      2684.99175279
  Ewald energy   TEWEN  =    300037.67541452
  -Hartree energ DENC   =   -461603.94237644
  -exchange      EXHF   =         0.00000000
  -V(xc)+E(xc)   XCENC  =      4838.79433066
  PAW double counting   =    161991.96857127  -168421.19700208
  entropy T*S    EENTRO =        -0.91226404
  eigenvalues    EBANDS =    -21368.30511815
  atomic energy  EATOM  =    181336.80673834
  Solvation  Ediel_sol  =         0.00000000
  ---------------------------------------------------
  free energy    TOTEN  =      -504.11995311 eV

  energy without entropy =     -503.20768908  energy(sigma->0) =     -503.66382110


--------------------------------------------------------------------------------------------------------




--------------------------------------- Iteration      1(   8)  ---------------------------------------


    POTLOK:  cpu time    0.3625: real time    0.3626
    SETDIJ:  cpu time    0.0235: real time    0.0235
     EDDAV:  cpu time   14.6020: real time   14.6042
       DOS:  cpu time    0.0016: real time    0.0016
    CHARGE:  cpu time    0.3788: real time    0.3788
    MIXING:  cpu time    0.0136: real time    0.0136
    --------------------------------------------
      LOOP:  cpu time   15.3820: real time   15.3843

 eigenvalue-minimisations  :  1688
 total energy-change (2. order) :-0.1447278E+03  (-0.2437473E+02)
 number of electron    1055.9998895 magnetization 
 augmentation part      409.4623614 magnetization 

 Broyden mixing:
  rms(total) = 0.17908E+02    rms(broyden)= 0.17906E+02
  rms(prec ) = 0.22251E+02
  weight for this iteration     100.00

 eigenvalues of (default mixing * dielectric matrix)
  average eigenvalue GAMMA=   0.4702
  0.7932  0.4689  0.1485

 Free energy of the ion-electron system (eV)
  ---------------------------------------------------
  alpha Z        PSCENC =      2684.99175279
  Ewald energy   TEWEN  =    300037.67541452
  -Hartree energ DENC   =   -462281.02140316
  -exchange      EXHF   =         0.00000000
  -V(xc)+E(xc)   XCENC  =      4867.78962970
  PAW double counting   =    169721.44004803  -176310.00466237
  entropy T*S    EENTRO =        -1.03502442
  eigenvalues    EBANDS =    -20705.49021057
  atomic energy  EATOM  =    181336.80673834
  Solvation  Ediel_sol  =         0.00000000
  ---------------------------------------------------
  free energy    TOTEN  =      -648.84771714 eV

  energy without entropy =     -647.81269272  energy(sigma->0) =     -648.33020493


--------------------------------------------------------------------------------------------------------




--------------------------------------- Iteration      1(   9)  ---------------------------------------


    POTLOK:  cpu time    0.3625: real time    0.3627
    SETDIJ:  cpu time    0.0234: real time    0.0234
     EDDAV:  cpu time   14.7231: real time   14.7254
       DOS:  cpu time    0.0015: real time    0.0015
    CHARGE:  cpu time    0.3878: real time    0.3878
    MIXING:  cpu time    0.0129: real time    0.0129
    --------------------------------------------
      LOOP:  cpu time   15.5112: real time   15.5137

 eigenvalue-minimisations  :  1704
 total energy-change (2. order) : 0.8346814E+02  (-0.2472024E+02)
 number of electron    1055.9999030 magnetization 
 augmentation part      406.0858645 magnetization 

 Broyden mixing:
  rms(total) = 0.14455E+02    rms(broyden)= 0.14450E+02
  rms(prec ) = 0.18315E+02
  weight for this iteration     100.00

 eigenvalues of (default mixing * dielectric matrix)
  average eigenvalue GAMMA=   0.4689
  1.1422  0.4158  0.2322  0.0855

 Free energy of the ion-electron system (eV)
  ---------------------------------------------------
  alpha Z        PSCENC =      2684.99175279
  Ewald energy   TEWEN  =    300037.67541452
  -Hartree energ DENC   =   -462506.95700893
  -exchange      EXHF   =         0.00000000
  -V(xc)+E(xc)   XCENC  =      4869.48876767
  PAW double counting   =    174513.42137486  -181144.65344433
  entropy T*S    EENTRO =        -1.24988485
  eigenvalues    EBANDS =    -20354.90328586
  atomic energy  EATOM  =    181336.80673834
  Solvation  Ediel_sol  =         0.00000000
  ---------------------------------------------------
  free energy    TOTEN  =      -565.37957578 eV

  energy without entropy =     -564.12969094  energy(sigma->0) =     -564.75463336


--------------------------------------------------------------------------------------------------------




--------------------------------------- Iteration      1(  10)  ---------------------------------------


    POTLOK:  cpu time    0.3522: real time    0.3523
    SETDIJ:  cpu time    0.0236: real time    0.0236
     EDDAV:  cpu time   15.2108: real time   15.2139
       DOS:  cpu time    0.0016: real time    0.0016
    CHARGE:  cpu time    0.3950: real time    0.3950
    MIXING:  cpu time    0.0145: real time    0.0145
    --------------------------------------------
      LOOP:  cpu time   15.9977: real time   16.0009

 eigenvalue-minimisations  :  1792
 total energy-change (2. order) : 0.2196021E+02  (-0.1824976E+02)
 number of electron    1055.9999204 magnetization 
 augmentation part      403.9926246 magnetization 

 Broyden mixing:
  rms(total) = 0.10932E+02    rms(broyden)= 0.10926E+02
  rms(prec ) = 0.12363E+02
  weight for this iteration     100.00

 eigenvalues of (default mixing * dielectric matrix)
  average eigenvalue GAMMA=   0.5997
  2.0007  0.3961  0.3961  0.1172  0.0884

 Free energy of the ion-electron system (eV)
  ---------------------------------------------------
  alpha Z        PSCENC =      2684.99175279
  Ewald energy   TEWEN  =    300037.67541452
  -Hartree energ DENC   =   -462681.20117727
  -exchange      EXHF   =         0.00000000
  -V(xc)+E(xc)   XCENC  =      4866.79581116
  PAW double counting   =    178733.42515790  -185389.93293503
  entropy T*S    EENTRO =        -1.97450550
  eigenvalues    EBANDS =    -20130.00562601
  atomic energy  EATOM  =    181336.80673834
  Solvation  Ediel_sol  =         0.00000000
  ---------------------------------------------------
  free energy    TOTEN  =      -543.41936911 eV

  energy without entropy =     -541.44486360  energy(sigma->0) =     -542.43211635


--------------------------------------------------------------------------------------------------------




--------------------------------------- Iteration      1(  11)  ---------------------------------------


    POTLOK:  cpu time    0.3561: real time    0.3561
    SETDIJ:  cpu time    0.0235: real time    0.0235
     EDDAV:  cpu time   14.9789: real time   14.9819
       DOS:  cpu time    0.0016: real time    0.0016
    CHARGE:  cpu time    0.6298: real time    0.6299
    MIXING:  cpu time    0.0142: real time    0.0142
    --------------------------------------------
      LOOP:  cpu time   16.0041: real time   16.0072

 eigenvalue-minimisations  :  1760
 total energy-change (2. order) : 0.1220792E+02  (-0.1209177E+02)
 number of electron    1055.9998927 magnetization 
 augmentation part      414.2475550 magnetization 

 Broyden mixing:
  rms(total) = 0.77207E+01    rms(broyden)= 0.77140E+01
  rms(prec ) = 0.83086E+01
  weight for this iteration     100.00

 eigenvalues of (default mixing * dielectric matrix)
  average eigenvalue GAMMA=   0.6233
  2.4693  0.4367  0.4367  0.1794  0.1317  0.0861

 Free energy of the ion-electron system (eV)
  ---------------------------------------------------
  alpha Z        PSCENC =      2684.99175279
  Ewald energy   TEWEN  =    300037.67541452
  -Hartree energ DENC   =   -462249.27165289
  -exchange      EXHF   =         0.00000000
  -V(xc)+E(xc)   XCENC  =      4860.10880773
  PAW double counting   =    187361.87339228  -194069.42668013
  entropy T*S    EENTRO =        -0.91164531
  eigenvalues    EBANDS =    -20493.05757653
  atomic energy  EATOM  =    181336.80673834
  Solvation  Ediel_sol  =         0.00000000
  ---------------------------------------------------
  free energy    TOTEN  =      -531.21144918 eV

  energy without entropy =     -530.29980387  energy(sigma->0) =     -530.75562652


--------------------------------------------------------------------------------------------------------




--------------------------------------- Iteration      1(  12)  ---------------------------------------


    POTLOK:  cpu time    0.3568: real time    0.3568
    SETDIJ:  cpu time    0.0235: real time    0.0235
     EDDAV:  cpu time   14.2906: real time   14.2937
       DOS:  cpu time    0.0015: real time    0.0015
    CHARGE:  cpu time    0.3857: real time    0.3857
    MIXING:  cpu time    0.0152: real time    0.0152
    --------------------------------------------
      LOOP:  cpu time   15.0733: real time   15.0765

 eigenvalue-minimisations  :  1672
 total energy-change (2. order) : 0.2685309E+02  (-0.6359660E+01)
 number of electron    1055.9999018 magnetization 
 augmentation part      420.5433501 magnetization 

 Broyden mixing:
  rms(total) = 0.50229E+01    rms(broyden)= 0.50172E+01
  rms(prec ) = 0.54988E+01
  weight for this iteration     100.00

 eigenvalues of (default mixing * dielectric matrix)
  average eigenvalue GAMMA=   0.5817
  2.4501  0.4378  0.4378  0.2703  0.2703  0.1192  0.0863

 Free energy of the ion-electron system (eV)
  ---------------------------------------------------
  alpha Z        PSCENC =      2684.99175279
  Ewald energy   TEWEN  =    300037.67541452
  -Hartree energ DENC   =   -462182.68756540
  -exchange      EXHF   =         0.00000000
  -V(xc)+E(xc)   XCENC  =      4857.18510418
  PAW double counting   =    191941.90190814  -198677.23837537
  entropy T*S    EENTRO =        -0.98338160
  eigenvalues    EBANDS =    -20502.00995342
  atomic energy  EATOM  =    181336.80673834
  Solvation  Ediel_sol  =         0.00000000
  ---------------------------------------------------
  free energy    TOTEN  =      -504.35835781 eV

  energy without entropy =     -503.37497621  energy(sigma->0) =     -503.86666701


--------------------------------------------------------------------------------------------------------




--------------------------------------- Iteration      1(  13)  ---------------------------------------


    POTLOK:  cpu time    0.3544: real time    0.3545
    SETDIJ:  cpu time    0.0235: real time    0.0235
     EDDAV:  cpu time   14.2510: real time   14.2543
       DOS:  cpu time    0.0016: real time    0.0016
    CHARGE:  cpu time    0.3856: real time    0.3856
    MIXING:  cpu time    0.0156: real time    0.0156
    --------------------------------------------
      LOOP:  cpu time   15.0318: real time   15.0351

 eigenvalue-minimisations  :  1624
 total energy-change (2. order) : 0.8162935E+01  (-0.3313127E+01)
 number of electron    1055.9999012 magnetization 
 augmentation part      418.9555510 magnetization 

 Broyden mixing:
  rms(total) = 0.50879E+01    rms(broyden)= 0.50849E+01
  rms(prec ) = 0.58552E+01
  weight for this iteration     100.00

 eigenvalues of (default mixing * dielectric matrix)
  average eigenvalue GAMMA=   0.5414
  2.2008  0.5567  0.4576  0.4576  0.2980  0.0862  0.1252  0.1489

 Free energy of the ion-electron system (eV)
  ---------------------------------------------------
  alpha Z        PSCENC =      2684.99175279
  Ewald energy   TEWEN  =    300037.67541452
  -Hartree energ DENC   =   -462314.58704830
  -exchange      EXHF   =         0.00000000
  -V(xc)+E(xc)   XCENC  =      4858.76007442
  PAW double counting   =    191550.82275590  -198286.25721222
  entropy T*S    EENTRO =        -1.12810501
  eigenvalues    EBANDS =    -20363.27979345
  atomic energy  EATOM  =    181336.80673834
  Solvation  Ediel_sol  =         0.00000000
  ---------------------------------------------------
  free energy    TOTEN  =      -496.19542301 eV

  energy without entropy =     -495.06731800  energy(sigma->0) =     -495.63137050


--------------------------------------------------------------------------------------------------------




--------------------------------------- Iteration      1(  14)  ---------------------------------------


    POTLOK:  cpu time    0.3575: real time    0.3575
    SETDIJ:  cpu time    0.0233: real time    0.0233
     EDDAV:  cpu time   15.0011: real time   15.0041
       DOS:  cpu time    0.0018: real time    0.0018
    CHARGE:  cpu time    0.3887: real time    0.3889
    MIXING:  cpu time    0.0157: real time    0.0157
    --------------------------------------------
      LOOP:  cpu time   15.7880: real time   15.7912

 eigenvalue-minimisations  :  1744
 total energy-change (2. order) : 0.1058262E+02  (-0.2275215E+01)
 number of electron    1055.9999027 magnetization 
 augmentation part      417.6094809 magnetization 

 Broyden mixing:
  rms(total) = 0.32397E+01    rms(broyden)= 0.32369E+01
  rms(prec ) = 0.35668E+01
  weight for this iteration     100.00

 eigenvalues of (default mixing * dielectric matrix)
  average eigenvalue GAMMA=   0.5023
  2.1608  0.5115  0.5115  0.4042  0.4042  0.0861  0.1220  0.1686  0.1522

 Free energy of the ion-electron system (eV)
  ---------------------------------------------------
  alpha Z        PSCENC =      2684.99175279
  Ewald energy   TEWEN  =    300037.67541452
  -Hartree energ DENC   =   -462363.66972106
  -exchange      EXHF   =         0.00000000
  -V(xc)+E(xc)   XCENC  =      4861.18165090
  PAW double counting   =    189684.75821297  -196409.68740096
  entropy T*S    EENTRO =        -0.95744527
  eigenvalues    EBANDS =    -20316.71200486
  atomic energy  EATOM  =    181336.80673834
  Solvation  Ediel_sol  =         0.00000000
  ---------------------------------------------------
  free energy    TOTEN  =      -485.61280262 eV

  energy without entropy =     -484.65535735  energy(sigma->0) =     -485.13407999


--------------------------------------------------------------------------------------------------------




--------------------------------------- Iteration      1(  15)  ---------------------------------------


    POTLOK:  cpu time    0.3600: real time    0.3600
    SETDIJ:  cpu time    0.0234: real time    0.0234
     EDDAV:  cpu time   14.7275: real time   14.7299
       DOS:  cpu time    0.0014: real time    0.0014
    CHARGE:  cpu time    0.4200: real time    0.4201
    MIXING:  cpu time    0.0163: real time    0.0163
    --------------------------------------------
      LOOP:  cpu time   15.5486: real time   15.5511

 eigenvalue-minimisations  :  1696
 total energy-change (2. order) : 0.2997170E+01  (-0.7234161E+00)
 number of electron    1055.9999024 magnetization 
 augmentation part      417.2800290 magnetization 

 Broyden mixing:
  rms(total) = 0.25416E+01    rms(broyden)= 0.25409E+01
  rms(prec ) = 0.28083E+01
  weight for this iteration     100.00

 eigenvalues of (default mixing * dielectric matrix)
  average eigenvalue GAMMA=   0.4993
  2.1309  0.6351  0.6351  0.4188  0.4188  0.2029  0.2029  0.0861  0.1292  0.1334

 Free energy of the ion-electron system (eV)
  ---------------------------------------------------
  alpha Z        PSCENC =      2684.99175279
  Ewald energy   TEWEN  =    300037.67541452
  -Hartree energ DENC   =   -462376.70778407
  -exchange      EXHF   =         0.00000000
  -V(xc)+E(xc)   XCENC  =      4861.50827331
  PAW double counting   =    189246.06054601  -195966.29123145
  entropy T*S    EENTRO =        -0.99622125
  eigenvalues    EBANDS =    -20305.66312084
  atomic energy  EATOM  =    181336.80673834
  Solvation  Ediel_sol  =         0.00000000
  ---------------------------------------------------
  free energy    TOTEN  =      -482.61563264 eV

  energy without entropy =     -481.61941139  energy(sigma->0) =     -482.11752201


--------------------------------------------------------------------------------------------------------




--------------------------------------- Iteration      1(  16)  ---------------------------------------


    POTLOK:  cpu time    0.3590: real time    0.3590
    SETDIJ:  cpu time    0.0241: real time    0.0241
     EDDAV:  cpu time   14.9147: real time   14.9171
       DOS:  cpu time    0.0029: real time    0.0029
    CHARGE:  cpu time    0.3885: real time    0.3885
    MIXING:  cpu time    0.0163: real time    0.0163
    --------------------------------------------
      LOOP:  cpu time   15.7055: real time   15.7079

 eigenvalue-minimisations  :  1736
 total energy-change (2. order) : 0.1295705E+01  (-0.2116409E+00)
 number of electron    1055.9999022 magnetization 
 augmentation part      416.8776461 magnetization 

 Broyden mixing:
  rms(total) = 0.23004E+01    rms(broyden)= 0.23002E+01
  rms(prec ) = 0.25740E+01
  weight for this iteration     100.00

 eigenvalues of (default mixing * dielectric matrix)
  average eigenvalue GAMMA=   0.4805
  2.0985  0.6958  0.6958  0.4112  0.4112  0.2328  0.2328  0.0861  0.1224  0.1493
  0.1493

 Free energy of the ion-electron system (eV)
  ---------------------------------------------------
  alpha Z        PSCENC =      2684.99175279
  Ewald energy   TEWEN  =    300037.67541452
  -Hartree energ DENC   =   -462398.85971693
  -exchange      EXHF   =         0.00000000
  -V(xc)+E(xc)   XCENC  =      4861.86572333
  PAW double counting   =    188633.88705398  -195347.81270376
  entropy T*S    EENTRO =        -1.04474680
  eigenvalues    EBANDS =    -20288.82944278
  atomic energy  EATOM  =    181336.80673834
  Solvation  Ediel_sol  =         0.00000000
  ---------------------------------------------------
  free energy    TOTEN  =      -481.31992729 eV

  energy without entropy =     -480.27518049  energy(sigma->0) =     -480.79755389


--------------------------------------------------------------------------------------------------------




--------------------------------------- Iteration      1(  17)  ---------------------------------------


    POTLOK:  cpu time    0.3596: real time    0.3596
    SETDIJ:  cpu time    0.0245: real time    0.0245
     EDDAV:  cpu time   13.8674: real time   13.8698
       DOS:  cpu time    0.0055: real time    0.0055
    CHARGE:  cpu time    0.3970: real time    0.3970
    MIXING:  cpu time    0.0201: real time    0.0201
    --------------------------------------------
      LOOP:  cpu time   14.6740: real time   14.6765

 eigenvalue-minimisations  :  1616
 total energy-change (2. order) : 0.6451791E+00  (-0.7609892E-01)
 number of electron    1055.9999024 magnetization 
 augmentation part      416.6031591 magnetization 

 Broyden mixing:
  rms(total) = 0.21011E+01    rms(broyden)= 0.21010E+01
  rms(prec ) = 0.23717E+01
  weight for this iteration     100.00

 eigenvalues of (default mixing * dielectric matrix)
  average eigenvalue GAMMA=   0.5198
  2.0428  0.9407  0.9407  0.4407  0.4407  0.4243  0.3049  0.0861  0.1905  0.1631
  0.1252  0.1384

 Free energy of the ion-electron system (eV)
  ---------------------------------------------------
  alpha Z        PSCENC =      2684.99175279
  Ewald energy   TEWEN  =    300037.67541452
  -Hartree energ DENC   =   -462413.64198526
  -exchange      EXHF   =         0.00000000
  -V(xc)+E(xc)   XCENC  =      4862.09714410
  PAW double counting   =    188176.25328491  -194885.67649500
  entropy T*S    EENTRO =        -1.07066879
  eigenvalues    EBANDS =    -20278.10993376
  atomic energy  EATOM  =    181336.80673834
  Solvation  Ediel_sol  =         0.00000000
  ---------------------------------------------------
  free energy    TOTEN  =      -480.67474814 eV

  energy without entropy =     -479.60407935  energy(sigma->0) =     -480.13941375


--------------------------------------------------------------------------------------------------------




--------------------------------------- Iteration      1(  18)  ---------------------------------------


    POTLOK:  cpu time    0.4827: real time    0.4828
    SETDIJ:  cpu time    0.0245: real time    0.0245
     EDDAV:  cpu time   14.8054: real time   14.8077
       DOS:  cpu time    0.0039: real time    0.0039
    CHARGE:  cpu time    0.3866: real time    0.3867
    MIXING:  cpu time    0.0182: real time    0.0182
    --------------------------------------------
      LOOP:  cpu time   15.7213: real time   15.7238

 eigenvalue-minimisations  :  1744
 total energy-change (2. order) : 0.1024429E+01  (-0.6207274E-01)
 number of electron    1055.9999026 magnetization 
 augmentation part      416.1724945 magnetization 

 Broyden mixing:
  rms(total) = 0.18347E+01    rms(broyden)= 0.18345E+01
  rms(prec ) = 0.20565E+01
  weight for this iteration     100.00

 eigenvalues of (default mixing * dielectric matrix)
  average eigenvalue GAMMA=   0.5612
  2.0545  1.2920  1.2920  0.4623  0.4623  0.4076  0.4076  0.2074  0.2074  0.0861
  0.1244  0.1459  0.1459

 Free energy of the ion-electron system (eV)
  ---------------------------------------------------
  alpha Z        PSCENC =      2684.99175279
  Ewald energy   TEWEN  =    300037.67541452
  -Hartree energ DENC   =   -462446.46333308
  -exchange      EXHF   =         0.00000000
  -V(xc)+E(xc)   XCENC  =      4862.39765223
  PAW double counting   =    187130.13067455  -193828.12029194
  entropy T*S    EENTRO =        -1.05873150
  eigenvalues    EBANDS =    -20256.01019465
  atomic energy  EATOM  =    181336.80673834
  Solvation  Ediel_sol  =         0.00000000
  ---------------------------------------------------
  free energy    TOTEN  =      -479.65031873 eV

  energy without entropy =     -478.59158723  energy(sigma->0) =     -479.12095298


--------------------------------------------------------------------------------------------------------




--------------------------------------- Iteration      1(  19)  ---------------------------------------


    POTLOK:  cpu time    0.3633: real time    0.3632
    SETDIJ:  cpu time    0.0244: real time    0.0244
     EDDAV:  cpu time   15.2444: real time   15.2475
       DOS:  cpu time    0.0043: real time    0.0043
    CHARGE:  cpu time    0.3927: real time    0.3927
    MIXING:  cpu time    0.0187: real time    0.0186
    --------------------------------------------
      LOOP:  cpu time   16.0477: real time   16.0508

 eigenvalue-minimisations  :  1784
 total energy-change (2. order) : 0.1372569E+01  (-0.1068193E+00)
 number of electron    1055.9999020 magnetization 
 augmentation part      416.1211887 magnetization 

 Broyden mixing:
  rms(total) = 0.13891E+01    rms(broyden)= 0.13888E+01
  rms(prec ) = 0.15788E+01
  weight for this iteration     100.00

 eigenvalues of (default mixing * dielectric matrix)
  average eigenvalue GAMMA=   0.5863
  2.0507  1.5428  1.5428  0.5471  0.5471  0.4242  0.4242  0.2300  0.2300  0.0861
  0.1247  0.1594  0.1594  0.1398

 Free energy of the ion-electron system (eV)
  ---------------------------------------------------
  alpha Z        PSCENC =      2684.99175279
  Ewald energy   TEWEN  =    300037.67541452
  -Hartree energ DENC   =   -462474.91514624
  -exchange      EXHF   =         0.00000000
  -V(xc)+E(xc)   XCENC  =      4862.35303895
  PAW double counting   =    185877.59879401  -192558.74695880
  entropy T*S    EENTRO =        -1.08884972
  eigenvalues    EBANDS =    -20242.95253352
  atomic energy  EATOM  =    181336.80673834
  Solvation  Ediel_sol  =         0.00000000
  ---------------------------------------------------
  free energy    TOTEN  =      -478.27774967 eV

  energy without entropy =     -477.18889995  energy(sigma->0) =     -477.73332481


--------------------------------------------------------------------------------------------------------




--------------------------------------- Iteration      1(  20)  ---------------------------------------


    POTLOK:  cpu time    0.3646: real time    0.3649
    SETDIJ:  cpu time    0.0244: real time    0.0244
     EDDAV:  cpu time   15.1700: real time   15.1724
       DOS:  cpu time    0.0048: real time    0.0048
    CHARGE:  cpu time    0.3919: real time    0.3919
    MIXING:  cpu time    0.0212: real time    0.0212
    --------------------------------------------
      LOOP:  cpu time   15.9768: real time   15.9795

 eigenvalue-minimisations  :  1752
 total energy-change (2. order) : 0.8678819E+00  (-0.9130881E-01)
 number of electron    1055.9999015 magnetization 
 augmentation part      415.9646942 magnetization 

 Broyden mixing:
  rms(total) = 0.90722E+00    rms(broyden)= 0.90673E+00
  rms(prec ) = 0.10375E+01
  weight for this iteration     100.00

 eigenvalues of (default mixing * dielectric matrix)
  average eigenvalue GAMMA=   0.5884
  1.9977  1.7139  1.7139  0.6218  0.6218  0.4240  0.4240  0.2485  0.0861  0.2231
  0.1245  0.1683  0.1683  0.1451  0.1451

 Free energy of the ion-electron system (eV)
  ---------------------------------------------------
  alpha Z        PSCENC =      2684.99175279
  Ewald energy   TEWEN  =    300037.67541452
  -Hartree energ DENC   =   -462499.81769576
  -exchange      EXHF   =         0.00000000
  -V(xc)+E(xc)   XCENC  =      4862.45730477
  PAW double counting   =    184881.46972672  -191549.00056941
  entropy T*S    EENTRO =        -1.09641837
  eigenvalues    EBANDS =    -20230.89612142
  atomic energy  EATOM  =    181336.80673834
  Solvation  Ediel_sol  =         0.00000000
  ---------------------------------------------------
  free energy    TOTEN  =      -477.40986782 eV

  energy without entropy =     -476.31344944  energy(sigma->0) =     -476.86165863


--------------------------------------------------------------------------------------------------------




--------------------------------------- Iteration      1(  21)  ---------------------------------------


    POTLOK:  cpu time    0.3674: real time    0.3678
    SETDIJ:  cpu time    0.0245: real time    0.0245
     EDDAV:  cpu time   15.1139: real time   15.1169
       DOS:  cpu time    0.0030: real time    0.0030
    CHARGE:  cpu time    0.3874: real time    0.3874
    MIXING:  cpu time    0.0218: real time    0.0218
    --------------------------------------------
      LOOP:  cpu time   15.9180: real time   15.9215

 eigenvalue-minimisations  :  1736
 total energy-change (2. order) : 0.4007951E+00  (-0.6893316E-01)
 number of electron    1055.9999020 magnetization 
 augmentation part      415.6114193 magnetization 

 Broyden mixing:
  rms(total) = 0.47592E+00    rms(broyden)= 0.47530E+00
  rms(prec ) = 0.52485E+00
  weight for this iteration     100.00

 eigenvalues of (default mixing * dielectric matrix)
  average eigenvalue GAMMA=   0.5522
  1.9987  1.7133  1.7133  0.6220  0.6220  0.4242  0.4242  0.2487  0.2234  0.0861
  0.1245  0.1686  0.1686  0.1451  0.1451  0.0068

 Free energy of the ion-electron system (eV)
  ---------------------------------------------------
  alpha Z        PSCENC =      2684.99175279
  Ewald energy   TEWEN  =    300037.67541452
  -Hartree energ DENC   =   -462532.52620364
  -exchange      EXHF   =         0.00000000
  -V(xc)+E(xc)   XCENC  =      4862.71667321
  PAW double counting   =    183870.73654722  -190525.16252508
  entropy T*S    EENTRO =        -1.13124617
  eigenvalues    EBANDS =    -20211.11622389
  atomic energy  EATOM  =    181336.80673834
  Solvation  Ediel_sol  =         0.00000000
  ---------------------------------------------------
  free energy    TOTEN  =      -477.00907270 eV

  energy without entropy =     -475.87782653  energy(sigma->0) =     -476.44344961


--------------------------------------------------------------------------------------------------------




--------------------------------------- Iteration      1(  22)  ---------------------------------------


    POTLOK:  cpu time    0.3633: real time    0.3634
    SETDIJ:  cpu time    0.0252: real time    0.0252
     EDDAV:  cpu time   12.4152: real time   12.4174
       DOS:  cpu time    0.0044: real time    0.0044
    CHARGE:  cpu time    0.6326: real time    0.6327
    MIXING:  cpu time    0.0217: real time    0.0217
    --------------------------------------------
      LOOP:  cpu time   13.4625: real time   13.4648

 eigenvalue-minimisations  :  1368
 total energy-change (2. order) :-0.4801228E-02  (-0.2802386E-01)
 number of electron    1055.9999019 magnetization 
 augmentation part      415.5882077 magnetization 

 Broyden mixing:
  rms(total) = 0.44974E+00    rms(broyden)= 0.44972E+00
  rms(prec ) = 0.49172E+00
  weight for this iteration     100.00

 eigenvalues of (default mixing * dielectric matrix)
  average eigenvalue GAMMA=   0.5406
  1.9864  1.7255  1.7255  0.6190  0.6190  0.4228  0.4228  0.1784  0.1784  0.2463
  0.0861  0.2271  0.1246  0.1681  0.1681  0.1433  0.1483

 Free energy of the ion-electron system (eV)
  ---------------------------------------------------
  alpha Z        PSCENC =      2684.99175279
  Ewald energy   TEWEN  =    300037.67541452
  -Hartree energ DENC   =   -462536.40579634
  -exchange      EXHF   =         0.00000000
  -V(xc)+E(xc)   XCENC  =      4862.74080328
  PAW double counting   =    183784.17349177  -190437.53962378
  entropy T*S    EENTRO =        -1.12866679
  eigenvalues    EBANDS =    -20208.32798772
  atomic energy  EATOM  =    181336.80673834
  Solvation  Ediel_sol  =         0.00000000
  ---------------------------------------------------
  free energy    TOTEN  =      -477.01387393 eV

  energy without entropy =     -475.88520714  energy(sigma->0) =     -476.44954053


--------------------------------------------------------------------------------------------------------




--------------------------------------- Iteration      1(  23)  ---------------------------------------


    POTLOK:  cpu time    0.3748: real time    0.3748
    SETDIJ:  cpu time    0.0253: real time    0.0253
     EDDAV:  cpu time   13.2683: real time   13.2705
       DOS:  cpu time    0.0033: real time    0.0033
    CHARGE:  cpu time    0.3873: real time    0.3873
    MIXING:  cpu time    0.0229: real time    0.0229
    --------------------------------------------
      LOOP:  cpu time   14.0818: real time   14.0841

 eigenvalue-minimisations  :  1512
 total energy-change (2. order) : 0.7386734E-02  (-0.1270567E-02)
 number of electron    1055.9999019 magnetization 
 augmentation part      415.5778678 magnetization 

 Broyden mixing:
  rms(total) = 0.44460E+00    rms(broyden)= 0.44459E+00
  rms(prec ) = 0.47984E+00
  weight for this iteration     100.00

 eigenvalues of (default mixing * dielectric matrix)
  average eigenvalue GAMMA=   0.5750
  1.9658  1.7737  1.7737  0.5978  0.5978  0.6386  0.6386  0.4294  0.4294  0.2593
  0.0861  0.2228  0.1980  0.1246  0.1712  0.1407  0.1516  0.1516

 Free energy of the ion-electron system (eV)
  ---------------------------------------------------
  alpha Z        PSCENC =      2684.99175279
  Ewald energy   TEWEN  =    300037.67541452
  -Hartree energ DENC   =   -462539.98318447
  -exchange      EXHF   =         0.00000000
  -V(xc)+E(xc)   XCENC  =      4862.76630454
[...]
   -.345E+03 -.163E+03 -.485E+04   0.350E+03 0.165E+03 0.485E+04   -.461E+01 -.161E+01 -.216E+01   0.156E-02 0.510E-02 -.289E-01
   -.381E+02 -.194E+03 0.474E+04   0.387E+02 0.195E+03 -.475E+04   0.547E-01 -.120E+01 0.523E+01   -.502E-03 -.325E-02 0.396E-01
   0.257E+03 -.395E+03 0.691E+03   -.257E+03 0.396E+03 -.691E+03   0.563E+00 -.780E+00 -.398E+00   0.711E-02 -.115E-01 0.187E-01
   0.234E+03 -.378E+03 -.233E+04   -.234E+03 0.379E+03 0.233E+04   0.681E+00 -.989E+00 0.100E-01   0.102E-02 -.865E-02 -.470E-01
   -.961E+01 0.152E+02 -.558E+04   0.691E+01 -.110E+02 0.558E+04   0.308E+01 -.488E+01 0.860E+00   -.721E-03 -.387E-02 -.225E-01
   0.196E+01 -.788E+03 0.409E+04   -.119E+01 0.796E+03 -.409E+04   -.935E+00 -.524E+01 -.298E+00   0.367E-03 0.127E-02 0.431E-01
   0.302E+03 0.232E+03 -.485E+04   -.306E+03 -.236E+03 0.485E+04   0.347E+01 0.343E+01 -.212E+01   0.170E-02 0.973E-03 -.330E-01
   0.231E+03 0.651E+03 0.521E+04   -.230E+03 -.651E+03 -.521E+04   -.900E+00 -.966E+00 0.193E+01   -.284E-02 0.121E-02 0.470E-01
   0.251E+03 0.463E+03 0.182E+04   -.252E+03 -.463E+03 -.182E+04   0.358E+00 0.658E+00 -.620E+00   0.814E-02 -.488E-02 0.512E-01
   0.256E+03 0.424E+03 -.134E+04   -.257E+03 -.424E+03 0.134E+04   0.920E+00 0.152E+00 0.193E+01   0.149E-02 0.129E-02 -.332E-01
   -.542E+03 0.580E+02 0.177E+04   0.542E+03 -.582E+02 -.177E+04   -.377E+00 0.296E+00 -.508E+00   -.286E-02 -.739E-02 0.409E-01
   -.505E+03 -.389E+02 -.133E+04   0.506E+03 0.396E+02 0.133E+04   -.866E+00 -.751E+00 0.212E+01   -.261E-02 -.630E-02 -.335E-01
   -.345E+03 -.167E+03 -.485E+04   0.350E+03 0.169E+03 0.485E+04   -.458E+01 -.161E+01 -.226E+01   0.237E-03 -.359E-02 -.320E-01
   -.358E+03 0.118E+03 0.507E+04   0.362E+03 -.120E+03 -.507E+04   -.443E+01 0.151E+01 0.461E+01   0.132E-01 0.978E-02 0.381E-01
   0.257E+03 -.395E+03 0.691E+03   -.257E+03 0.396E+03 -.691E+03   0.563E+00 -.780E+00 -.398E+00   0.719E-02 -.114E-01 0.187E-01
   0.234E+03 -.378E+03 -.233E+04   -.234E+03 0.379E+03 0.233E+04   0.681E+00 -.989E+00 0.100E-01   0.104E-02 -.865E-02 -.471E-01
   -.961E+01 0.152E+02 -.558E+04   0.691E+01 -.110E+02 0.558E+04   0.308E+01 -.488E+01 0.860E+00   -.731E-03 -.388E-02 -.226E-01
   0.196E+01 -.788E+03 0.409E+04   -.119E+01 0.796E+03 -.409E+04   -.935E+00 -.524E+01 -.298E+00   0.406E-03 0.126E-02 0.432E-01
   0.302E+03 0.232E+03 -.485E+04   -.306E+03 -.236E+03 0.485E+04   0.347E+01 0.343E+01 -.212E+01   0.172E-02 0.979E-03 -.330E-01
   0.231E+03 0.651E+03 0.521E+04   -.230E+03 -.651E+03 -.521E+04   -.900E+00 -.966E+00 0.193E+01   -.267E-02 0.119E-02 0.471E-01
   0.251E+03 0.463E+03 0.182E+04   -.252E+03 -.463E+03 -.182E+04   0.358E+00 0.658E+00 -.620E+00   0.826E-02 -.495E-02 0.512E-01
   0.256E+03 0.424E+03 -.134E+04   -.257E+03 -.424E+03 0.134E+04   0.920E+00 0.152E+00 0.193E+01   0.151E-02 0.130E-02 -.333E-01
   -.542E+03 0.580E+02 0.177E+04   0.542E+03 -.582E+02 -.177E+04   -.377E+00 0.296E+00 -.508E+00   -.295E-02 -.735E-02 0.409E-01
   -.505E+03 -.389E+02 -.133E+04   0.506E+03 0.396E+02 0.133E+04   -.866E+00 -.751E+00 0.212E+01   -.261E-02 -.631E-02 -.333E-01
   -.345E+03 -.167E+03 -.485E+04   0.350E+03 0.169E+03 0.485E+04   -.458E+01 -.161E+01 -.226E+01   0.118E-03 -.364E-02 -.320E-01
   -.358E+03 0.118E+03 0.507E+04   0.362E+03 -.120E+03 -.507E+04   -.443E+01 0.151E+01 0.461E+01   0.132E-01 0.976E-02 0.381E-01
   -.718E+02 0.131E+03 0.292E+03   0.730E+02 -.133E+03 -.294E+03   -.105E+01 0.227E+01 0.231E+01   -.166E-02 0.267E-02 0.128E-02
   -.779E+02 0.128E+03 -.887E+03   0.791E+02 -.130E+03 0.882E+03   -.699E+00 0.120E+01 0.102E+01   0.154E-02 -.349E-03 -.166E-01
   -.124E+03 -.202E+03 0.232E+04   0.126E+03 0.205E+03 -.232E+04   -.123E+01 -.139E+01 0.478E+01   -.744E-03 0.360E-03 0.459E-02
   -.399E+01 0.198E+03 0.161E+04   0.391E+01 -.201E+03 -.161E+04   -.226E+00 0.163E+01 0.143E+01   -.204E-02 -.372E-03 0.185E-01
   -.583E+01 0.893E+01 -.233E+04   0.634E+01 -.985E+01 0.233E+04   -.319E+00 0.593E+00 -.214E+01   0.323E-03 0.112E-02 -.455E-02
   -.127E+03 -.113E+03 -.156E+04   0.129E+03 0.115E+03 0.156E+04   -.146E+01 -.500E+00 -.184E+01   -.494E-04 0.222E-02 -.142E-01
   -.728E+02 -.157E+03 -.201E+03   0.742E+02 0.160E+03 0.202E+03   -.131E+01 -.295E+01 -.445E+00   0.559E-03 0.196E-02 -.534E-02
   -.120E+02 -.493E+02 0.218E+04   0.114E+02 0.505E+02 -.219E+04   0.100E+01 -.706E+00 0.349E+01   0.147E-02 0.165E-02 0.578E-02
   -.416E+02 -.195E+03 0.964E+03   0.423E+02 0.198E+03 -.962E+03   -.104E+01 -.127E+01 0.148E+00   0.456E-02 0.790E-03 0.187E-01
   0.107E+03 -.246E+03 0.235E+04   -.109E+03 0.249E+03 -.236E+04   0.129E+01 -.116E+01 0.273E+01   0.937E-03 0.689E-03 0.358E-02
   0.992E+02 0.554E+02 0.934E+03   -.100E+03 -.571E+02 -.932E+03   0.902E-01 0.401E+00 0.647E-01   0.136E-02 -.177E-02 0.186E-01
   0.169E+03 0.379E+01 -.198E+03   -.172E+03 -.346E+01 0.197E+03   0.291E+01 -.350E+00 0.504E+00   0.464E-03 0.187E-02 -.719E-02
   0.159E+03 0.642E+02 -.155E+04   -.161E+03 -.648E+02 0.156E+04   0.118E+01 0.938E+00 -.162E+01   -.107E-02 0.290E-02 -.134E-01
   -.718E+02 0.131E+03 0.292E+03   0.730E+02 -.133E+03 -.294E+03   -.105E+01 0.227E+01 0.231E+01   -.164E-02 0.267E-02 0.127E-02
   -.779E+02 0.128E+03 -.887E+03   0.791E+02 -.130E+03 0.882E+03   -.699E+00 0.120E+01 0.102E+01   0.154E-02 -.357E-03 -.166E-01
   -.124E+03 -.202E+03 0.232E+04   0.126E+03 0.205E+03 -.232E+04   -.123E+01 -.139E+01 0.478E+01   -.733E-03 0.366E-03 0.458E-02
   -.399E+01 0.198E+03 0.161E+04   0.391E+01 -.201E+03 -.161E+04   -.226E+00 0.163E+01 0.143E+01   -.203E-02 -.388E-03 0.185E-01
   -.583E+01 0.893E+01 -.233E+04   0.634E+01 -.985E+01 0.233E+04   -.319E+00 0.593E+00 -.214E+01   0.302E-03 0.115E-02 -.455E-02
   -.127E+03 -.113E+03 -.156E+04   0.129E+03 0.115E+03 0.156E+04   -.146E+01 -.500E+00 -.184E+01   -.540E-04 0.224E-02 -.142E-01
   -.728E+02 -.157E+03 -.201E+03   0.742E+02 0.160E+03 0.202E+03   -.131E+01 -.295E+01 -.445E+00   0.577E-03 0.196E-02 -.535E-02
   -.120E+02 -.493E+02 0.218E+04   0.114E+02 0.505E+02 -.219E+04   0.100E+01 -.706E+00 0.349E+01   0.146E-02 0.163E-02 0.578E-02
   -.416E+02 -.195E+03 0.964E+03   0.423E+02 0.198E+03 -.962E+03   -.104E+01 -.127E+01 0.148E+00   0.457E-02 0.771E-03 0.187E-01
   0.107E+03 -.246E+03 0.235E+04   -.109E+03 0.249E+03 -.236E+04   0.129E+01 -.116E+01 0.273E+01   0.925E-03 0.698E-03 0.356E-02
   0.992E+02 0.554E+02 0.934E+03   -.100E+03 -.571E+02 -.932E+03   0.902E-01 0.401E+00 0.647E-01   0.136E-02 -.177E-02 0.186E-01
   0.169E+03 0.379E+01 -.198E+03   -.172E+03 -.346E+01 0.197E+03   0.291E+01 -.350E+00 0.504E+00   0.468E-03 0.185E-02 -.718E-02
   0.159E+03 0.642E+02 -.155E+04   -.161E+03 -.648E+02 0.156E+04   0.118E+01 0.938E+00 -.162E+01   -.106E-02 0.289E-02 -.134E-01
   -.771E+02 0.104E+03 0.295E+03   0.781E+02 -.106E+03 -.297E+03   -.103E+01 0.200E+01 0.221E+01   -.235E-02 0.403E-02 0.342E-02
   -.782E+02 0.125E+03 -.888E+03   0.793E+02 -.126E+03 0.884E+03   -.656E+00 0.113E+01 0.101E+01   -.117E-03 0.199E-02 -.157E-01
   -.158E+03 0.237E+03 0.165E+04   0.159E+03 -.239E+03 -.166E+04   0.619E+00 0.131E+01 0.292E+01   0.752E-02 -.334E-02 0.251E-01
   -.574E+01 0.977E+01 -.233E+04   0.631E+01 -.106E+02 0.233E+04   -.360E+00 0.566E+00 -.218E+01   0.411E-03 0.843E-03 -.168E-02
   -.128E+03 -.114E+03 -.155E+04   0.129E+03 0.115E+03 0.156E+04   -.132E+01 -.628E+00 -.161E+01   0.142E-02 -.464E-02 -.161E-01
   -.756E+02 -.151E+03 -.190E+03   0.769E+02 0.153E+03 0.190E+03   -.133E+01 -.257E+01 -.286E+00   0.173E-03 -.491E-02 -.857E-02
   -.280E+02 -.256E+03 0.105E+04   0.293E+02 0.260E+03 -.105E+04   -.862E+00 -.252E+01 0.146E+01   0.442E-03 0.105E-02 0.202E-01
   0.108E+03 0.370E+02 0.227E+04   -.108E+03 -.370E+02 -.227E+04   -.644E+00 -.803E+00 0.295E+01   -.731E-02 0.617E-02 0.218E-02
   0.206E+03 0.542E+00 0.981E+03   -.209E+03 -.611E+00 -.979E+03   0.272E+01 0.334E+00 0.260E+00   -.667E-02 -.133E-02 0.262E-01
   0.172E+03 -.333E+01 -.187E+03   -.175E+03 0.332E+01 0.188E+03   0.282E+01 0.817E-01 -.384E+00   0.803E-03 -.370E-02 -.686E-02
   0.159E+03 0.622E+02 -.155E+04   -.161E+03 -.629E+02 0.156E+04   0.111E+01 0.976E+00 -.170E+01   -.142E-02 -.319E-02 -.163E-01
   -.771E+02 0.105E+03 0.295E+03   0.781E+02 -.106E+03 -.297E+03   -.103E+01 0.200E+01 0.221E+01   -.236E-02 0.401E-02 0.343E-02
   -.782E+02 0.125E+03 -.888E+03   0.793E+02 -.126E+03 0.884E+03   -.656E+00 0.113E+01 0.101E+01   -.150E-03 0.199E-02 -.157E-01
   -.158E+03 0.237E+03 0.165E+04   0.159E+03 -.239E+03 -.166E+04   0.619E+00 0.131E+01 0.292E+01   0.755E-02 -.333E-02 0.251E-01
   -.574E+01 0.977E+01 -.233E+04   0.631E+01 -.106E+02 0.233E+04   -.360E+00 0.566E+00 -.218E+01   0.391E-03 0.858E-03 -.168E-02
   -.128E+03 -.114E+03 -.155E+04   0.129E+03 0.115E+03 0.156E+04   -.132E+01 -.628E+00 -.161E+01   0.140E-02 -.465E-02 -.161E-01
   -.756E+02 -.151E+03 -.190E+03   0.769E+02 0.153E+03 0.190E+03   -.133E+01 -.257E+01 -.286E+00   0.187E-03 -.493E-02 -.858E-02
   -.280E+02 -.256E+03 0.105E+04   0.293E+02 0.260E+03 -.105E+04   -.862E+00 -.252E+01 0.146E+01   0.458E-03 0.105E-02 0.202E-01
   0.108E+03 0.370E+02 0.227E+04   -.108E+03 -.370E+02 -.227E+04   -.644E+00 -.803E+00 0.295E+01   -.730E-02 0.618E-02 0.216E-02
   0.206E+03 0.542E+00 0.981E+03   -.209E+03 -.611E+00 -.979E+03   0.272E+01 0.334E+00 0.260E+00   -.663E-02 -.132E-02 0.262E-01
   0.172E+03 -.333E+01 -.187E+03   -.175E+03 0.332E+01 0.188E+03   0.282E+01 0.817E-01 -.384E+00   0.845E-03 -.371E-02 -.685E-02
   0.159E+03 0.622E+02 -.155E+04   -.161E+03 -.629E+02 0.156E+04   0.111E+01 0.976E+00 -.170E+01   -.144E-02 -.318E-02 -.163E-01
 -----------------------------------------------------------------------------------------------
   -.565E+01 0.251E+02 -.597E+02   -.279E-11 0.277E-12 0.955E-11   0.528E+01 -.251E+02 0.597E+02   0.473E-01 0.334E-01 0.128E+00
 
 
 POSITION                                       TOTAL-FORCE (eV/Angst)
 -----------------------------------------------------------------------------------
      5.35228      4.81788      5.50842        -0.100782      0.225154      0.003157
      5.93595      3.87238      8.44448        -0.132896      0.085267     -0.998643
      6.06826      3.65805     10.81771         0.407367     -0.669218      0.849773
      2.24633      0.73197      2.57236         0.171141      1.305129      1.647575
      0.82760      0.55005     10.27426        -0.563105      0.000421      0.475642
      4.76861      3.35453      1.79664         0.766953     -2.437656      0.752166
      5.35228      2.40903      4.73270        -0.048561     -0.154670      0.126981
      5.93595      1.46353      7.66876         0.033179     -0.003005     -0.032249
      1.87746      3.73836      4.73270        -0.194234     -0.382333      1.288118
      2.46113      2.79286      7.66876        -0.008079     -0.060975      0.048067
      3.04475      1.91871     10.27429         0.220040      0.478949      0.533568
      7.77561      4.43383      2.51244         0.660384     -0.125865      0.655292
     10.98051      4.81788      5.50842        -0.100782      0.225154      0.003157
     11.56418      3.87238      8.44448        -0.132896      0.085267     -0.998643
     11.69649      3.65805     10.81771         0.407367     -0.669218      0.849773
      7.87456      0.73197      2.57236         0.171141      1.305129      1.647575
      6.45583      0.55005     10.27426        -0.563105      0.000421      0.475642
     10.39684      3.35453      1.79664         0.766953     -2.437656      0.752166
     10.98051      2.40903      4.73270        -0.048561     -0.154670      0.126981
     11.56418      1.46353      7.66876         0.033179     -0.003005     -0.032249
      7.50570      3.73836      4.73270        -0.194234     -0.382333      1.288118
      8.08937      2.79286      7.66876        -0.008079     -0.060975      0.048067
      8.67298      1.91871     10.27429         0.220040      0.478949      0.533568
     13.40384      4.43383      2.51244         0.660384     -0.125865      0.655292
      7.87456      9.84929      5.50842        -0.035094     -0.064359      0.073011
      8.45823      8.90379      8.44448        -0.069351      0.098232     -0.926116
      8.59051      8.68951     10.81769         0.390336     -0.666967      0.845144
      4.84746      5.56754      2.82854        -0.158728      2.223311      0.133165
      3.34993      5.58149     10.27438        -0.538519     -0.000157      0.514130
      7.45845      8.42937      2.23693        -0.351678     -0.997521     -1.274909
      7.87456      7.44044      4.73270        -0.147170      0.124003      0.215619
      8.45823      6.49494      7.66876         0.063190     -0.070894     -0.086863
      4.39975      8.76977      4.73270        -0.145311      0.053175      0.241971
      4.98341      7.82427      7.66876        -0.045843     -0.117501     -0.034822
      5.56703      6.95013     10.27434         0.264472      0.505531      0.479831
      9.70932      9.67076      2.23583        -0.342172     -0.495337     -1.085905
     13.50279      9.84929      5.50842        -0.035094     -0.064359      0.073011
     14.08646      8.90379      8.44448        -0.069351      0.098232     -0.926116
     14.21874      8.68951     10.81769         0.390336     -0.666967      0.845144
     10.47569      5.56754      2.82854        -0.158728      2.223311      0.133165
      8.97816      5.58149     10.27438        -0.538519     -0.000157      0.514130
     13.08668      8.42937      2.23693        -0.351678     -0.997521     -1.274909
     13.50279      7.44044      4.73270        -0.147170      0.124003      0.215619
     14.08646      6.49494      7.66876         0.063190     -0.070894     -0.086863
     10.02798      8.76977      4.73270        -0.145311      0.053175      0.241971
     10.61165      7.82427      7.66876        -0.045843     -0.117501     -0.034822
     11.19526      6.95013     10.27434         0.264472      0.505531      0.479831
     15.33755      9.67076      2.23583        -0.342172     -0.495337     -1.085905
      1.66190      1.67871      5.87212         0.133242      0.011390      0.043063
      2.24556      0.73321      8.80817         0.482254     -0.761538     -3.134376
      6.13250      4.83361      1.32641         0.697023      1.329680     -2.798981
      6.70646      2.62422      2.93606        -0.306618     -1.872757      0.048717
      5.04734      5.31193     11.44423         0.193971     -0.332600      2.697750
      2.24556      3.80055      9.79595         0.261827      1.034126     -0.168760
      7.29013      4.74605      6.85989         0.116527     -0.149840     -0.078542
      3.87865      1.44088      1.47607         0.377307      0.449908     -2.051415
      4.18418      0.66015      3.92384        -0.362359      0.952400      2.301657
      3.61976      4.95950      1.22667        -1.166760      1.371237     -3.267225
      3.96438      3.99884      3.92384        -0.774241     -1.310861      1.691493
      4.54805      3.05334      6.85989        -0.040617     -0.015586      0.071685
      5.13172      2.10784      9.79595        -1.003485      0.301899     -0.135360
      7.29013      1.67871      5.87212         0.133242      0.011390      0.043063
      7.87380      0.73321      8.80817         0.482254     -0.761538     -3.134376
     11.76073      4.83361      1.32641         0.697023      1.329680     -2.798981
     12.33469      2.62422      2.93606        -0.306618     -1.872757      0.048717
     10.67557      5.31193     11.44423         0.193971     -0.332600      2.697750
      7.87380      3.80055      9.79595         0.261827      1.034126     -0.168760
     12.91836      4.74605      6.85989         0.116527     -0.149840     -0.078542
      9.50688      1.44088      1.47607         0.377307      0.449908     -2.051415
      9.81241      0.66015      3.92384        -0.362359      0.952400      2.301657
      9.24799      4.95950      1.22667        -1.166760      1.371237     -3.267225
      9.59261      3.99884      3.92384        -0.774241     -1.310861      1.691493
     10.17628      3.05334      6.85989        -0.040617     -0.015586      0.071685
     10.75995      2.10784      9.79595        -1.003485      0.301899     -0.135360
      4.18418      6.71012      5.87212         0.014487      0.082860      0.120047
      4.76785      5.76462      8.80817         0.438882     -0.690856     -3.107452
      9.22874      7.65563      2.93606         1.838223     -1.177211     -0.046212
      2.52498      0.28054     11.44419         0.216930     -0.284068      2.713112
      4.76785      8.83196      9.79595         0.183442      1.045351     -0.164931
      9.81241      9.77746      6.85989         0.053454      0.025233     -0.085571
      6.70646      5.69156      3.92384         0.495822      1.331732      1.443204
      6.01337      9.67838      1.41063        -0.601365     -0.795513     -2.549090
      6.48666      9.03025      3.92384        -0.296294      0.263206      2.190739
      7.07033      8.08475      6.85989        -0.007383      0.067974     -0.014648
      7.65400      7.13925      9.79595        -1.039808      0.271120     -0.162605
      9.81241      6.71012      5.87212         0.014487      0.082860      0.120047
     10.39608      5.76462      8.80817         0.438882     -0.690856     -3.107452
     14.85697      7.65563      2.93606         1.838223     -1.177211     -0.046212
      8.15321      0.28054     11.44419         0.216930     -0.284068      2.713112
     10.39608      8.83196      9.79595         0.183442      1.045351     -0.164931
     15.44064      9.77746      6.85989         0.053454      0.025233     -0.085571
     12.33469      5.69156      3.92384         0.495822      1.331732      1.443204
     11.64160      9.67838      1.41063        -0.601365     -0.795513     -2.549090
     12.11489      9.03025      3.92384        -0.296294      0.263206      2.190739
     12.69856      8.08475      6.85989        -0.007383      0.067974     -0.014648
     13.28223      7.13925      9.79595        -1.039808      0.271120     -0.162605
 -----------------------------------------------------------------------------------
    total drift:                               -0.319697      0.010944      0.143895


--------------------------------------------------------------------------------------------------------



  FREE ENERGIE OF THE ION-ELECTRON SYSTEM (eV)
  ---------------------------------------------------
  free  energy   TOTEN  =      -476.92810713 eV

  energy  without entropy=     -475.82046509  energy(sigma->0) =     -476.37428611
 


--------------------------------------------------------------------------------------------------------


    POTLOK:  cpu time    0.3888: real time    0.3891


--------------------------------------------------------------------------------------------------------


     LOOP+:  cpu time  666.5308: real time  666.6815
    4ORBIT:  cpu time    0.0000: real time    0.0000

 total amount of memory used by VASP MPI-rank0    86987. kBytes
=======================================================================

   base      :      30000. kBytes
   nonlr-proj:       3331. kBytes
   fftplans  :      11271. kBytes
   grid      :      19113. kBytes
   one-center:        124. kBytes
   wavefun   :      23148. kBytes
 
  
  
 General timing and accounting informations for this job:
 ========================================================
  
                  Total CPU time used (sec):      670.917
                            User time (sec):      670.484
                          System time (sec):        0.433
                         Elapsed time (sec):      671.311
  
                   Maximum memory used (kb):      249492.
                   Average memory used (kb):           0.
  
                          Minor page faults:       151028
                          Major page faults:            0
                 Voluntary context switches:          244
