<?xml version="1.0" encoding="ISO-8859-1"?>
<modeling>
 <generator>
  <i name="program" type="string">vasp </i>
  <i name="version" type="string">6.1.0  </i>
  <i name="subversion" type="string">28Jan20 (build Mar 31 2020 17:42:31) gamma-only                       parallel </i>
  <i name="platform" type="string">LinuxIFC </i>
  <i name="date" type="string">2020 04 12 </i>
  <i name="time" type="string">05:43:03 </i>
 </generator>
 <incar>
  <i type="string" name="SYSTEM">"Millerite NiS"</i>
  <i type="int" name="NSIM">     4</i>
  <i type="int" name="NELM">   100</i>
  <i name="ENCUT">    450.00000000</i>
  <i type="string" name="LREAL">A</i>
  <i type="int" name="ISMEAR">     0</i>
  <i type="int" name="NWRITE">     2</i>
  <i type="logical" name="LWAVE"> F  </i>
  <i type="logical" name="LCHARG"> F  </i>
  <i type="int" name="NCORE">     6</i>
  <i type="int" name="NELM">   100</i>
 </incar>
 <structure name="primitive_cell" >
  <crystal>
   <varray name="basis" >
    <v>      10.06282034       5.04456212       0.00000000 </v>
    <v>       0.00000000      11.25646304       0.00000000 </v>
    <v>       0.00000000       0.00000000      22.51995597 </v>
   </varray>
   <i name="volume">   2550.87516496 </i>
   <varray name="rec_basis" >
    <v>       0.09937572       0.00000000       0.00000000 </v>
    <v>      -0.04453504       0.08883785       0.00000000 </v>
    <v>       0.00000000       0.00000000       0.04440506 </v>
   </varray>
  </crystal>
  <varray name="positions" >
   <v>       0.26092069       0.47878037       0.29519774 </v>
   <v>       0.35488056       0.38482051       0.42557357 </v>
   <v>       0.16696082       0.07274025       0.16482191 </v>
   <v>       0.05611868       0.05147941       0.52150332 </v>
   <v>       0.18027919       0.42731887       0.00000000 </v>
   <v>       0.27423906       0.33335901       0.13037583 </v>
   <v>       0.36819893       0.23939914       0.26075166 </v>
   <v>       0.46215879       0.14543927       0.39112749 </v>
   <v>       0.00030194       0.37150214       0.26075166 </v>
   <v>       0.09426180       0.27754227       0.39112749 </v>
   <v>       0.18822167       0.18358240       0.52150332 </v>
   <v>       0.40634206       0.46546200       0.13037583 </v>
   <v>       0.31238219       0.05942188       0.00000000 </v>
   <v>       0.76092069       0.47878037       0.29519774 </v>
   <v>       0.85488056       0.38482051       0.42557357 </v>
   <v>       0.66696082       0.07274025       0.16482191 </v>
   <v>       0.68027919       0.42731887       0.00000000 </v>
   <v>       0.77423906       0.33335901       0.13037583 </v>
   <v>       0.86819893       0.23939914       0.26075166 </v>
   <v>       0.96215879       0.14543927       0.39112749 </v>
   <v>       0.50030194       0.37150214       0.26075166 </v>
   <v>       0.59426180       0.27754227       0.39112749 </v>
   <v>       0.68822167       0.18358240       0.52150332 </v>
   <v>       0.90634206       0.46546200       0.13037583 </v>
   <v>       0.81238219       0.05942188       0.00000000 </v>
   <v>       0.26092069       0.97878037       0.29519774 </v>
   <v>       0.35488056       0.88482051       0.42557357 </v>
   <v>       0.44884042       0.79086064       0.55594940 </v>
   <v>       0.16696082       0.57274025       0.16482191 </v>
   <v>       0.18027919       0.92731887       0.00000000 </v>
   <v>       0.27423906       0.83335901       0.13037583 </v>
   <v>       0.36819893       0.73939914       0.26075166 </v>
   <v>       0.46215879       0.64543927       0.39112749 </v>
   <v>       0.00030194       0.87150214       0.26075166 </v>
   <v>       0.09426180       0.77754227       0.39112749 </v>
   <v>       0.18822167       0.68358240       0.52150332 </v>
   <v>       0.40634206       0.96546200       0.13037583 </v>
   <v>       0.31238219       0.55942188       0.00000000 </v>
   <v>       0.76092069       0.97878037       0.29519774 </v>
   <v>       0.85488056       0.88482051       0.42557357 </v>
   <v>       0.66696082       0.57274025       0.16482191 </v>
   <v>       0.77423906       0.83335901       0.13037583 </v>
   <v>       0.86819893       0.73939914       0.26075166 </v>
   <v>       0.96215879       0.64543927       0.39112749 </v>
   <v>       0.50030194       0.87150214       0.26075166 </v>
   <v>       0.59426180       0.77754227       0.39112749 </v>
   <v>       0.68822167       0.68358240       0.52150332 </v>
   <v>       0.90634206       0.96546200       0.13037583 </v>
   <v>       0.07287763       0.16682345       0.31134756 </v>
   <v>       0.16683750       0.07286358       0.44172340 </v>
   <v>       0.38495788       0.35474318       0.05059591 </v>
   <v>       0.47891775       0.26078331       0.18097173 </v>
   <v>       0.03023342       0.37768265       0.48558574 </v>
   <v>       0.43627354       0.47164252       0.35520991 </v>
   <v>       0.24835381       0.15956227       0.09445824 </v>
   <v>       0.34231367       0.06560240       0.22483408 </v>
   <v>       0.08013881       0.49134726       0.09445824 </v>
   <v>       0.17409868       0.39738739       0.22483408 </v>
   <v>       0.26805854       0.30342752       0.35520991 </v>
   <v>       0.36201841       0.20946766       0.48558574 </v>
   <v>       0.57287763       0.16682345       0.31134756 </v>
   <v>       0.66683750       0.07286358       0.44172340 </v>
   <v>       0.88495788       0.35474318       0.05059591 </v>
   <v>       0.97891775       0.26078331       0.18097173 </v>
   <v>       0.53023342       0.37768265       0.48558574 </v>
   <v>       0.93627354       0.47164252       0.35520991 </v>
   <v>       0.74835381       0.15956227       0.09445824 </v>
   <v>       0.84231367       0.06560240       0.22483408 </v>
   <v>       0.58013881       0.49134726       0.09445824 </v>
   <v>       0.67409868       0.39738739       0.22483408 </v>
   <v>       0.76805854       0.30342752       0.35520991 </v>
   <v>       0.86201841       0.20946766       0.48558574 </v>
   <v>       0.07287763       0.66682345       0.31134756 </v>
   <v>       0.16683750       0.57286358       0.44172340 </v>
   <v>       0.38495788       0.85474318       0.05059591 </v>
   <v>       0.47891775       0.76078331       0.18097173 </v>
   <v>       0.03023342       0.87768265       0.48558574 </v>
   <v>       0.43627354       0.97164252       0.35520991 </v>
   <v>       0.24835381       0.65956227       0.09445824 </v>
   <v>       0.34231367       0.56560240       0.22483408 </v>
   <v>       0.08013881       0.99134726       0.09445824 </v>
   <v>       0.17409868       0.89738739       0.22483408 </v>
   <v>       0.26805854       0.80342752       0.35520991 </v>
   <v>       0.36201841       0.70946766       0.48558574 </v>
   <v>       0.57287763       0.66682345       0.31134756 </v>
   <v>       0.66683750       0.57286358       0.44172340 </v>
   <v>       0.88495788       0.85474318       0.05059591 </v>
   <v>       0.97891775       0.76078331       0.18097173 </v>
   <v>       0.53023342       0.87768265       0.48558574 </v>
   <v>       0.93627354       0.97164252       0.35520991 </v>
   <v>       0.74835381       0.65956227       0.09445824 </v>
   <v>       0.84231367       0.56560240       0.22483408 </v>
   <v>       0.58013881       0.99134726       0.09445824 </v>
   <v>       0.67409868       0.89738739       0.22483408 </v>
   <v>       0.76805854       0.80342752       0.35520991 </v>
   <v>       0.86201841       0.70946766       0.48558574 </v>
  </varray>
 </structure>
 <varray name="primitive_index" >
  <v type="int" >        1 </v>
  <v type="int" >        2 </v>
  <v type="int" >        3 </v>
  <v type="int" >        4 </v>
  <v type="int" >        5 </v>
  <v type="int" >        6 </v>
  <v type="int" >        7 </v>
  <v type="int" >        8 </v>
  <v type="int" >        9 </v>
  <v type="int" >       10 </v>
  <v type="int" >       11 </v>
  <v type="int" >       12 </v>
  <v type="int" >       13 </v>
  <v type="int" >       14 </v>
  <v type="int" >       15 </v>
  <v type="int" >       16 </v>
  <v type="int" >       17 </v>
  <v type="int" >       18 </v>
  <v type="int" >       19 </v>
  <v type="int" >       20 </v>
  <v type="int" >       21 </v>
  <v type="int" >       22 </v>
  <v type="int" >       23 </v>
  <v type="int" >       24 </v>
  <v type="int" >       25 </v>
  <v type="int" >       26 </v>
  <v type="int" >       27 </v>
  <v type="int" >       28 </v>
  <v type="int" >       29 </v>
  <v type="int" >       30 </v>
  <v type="int" >       31 </v>
  <v type="int" >       32 </v>
  <v type="int" >       33 </v>
  <v type="int" >       34 </v>
  <v type="int" >       35 </v>
  <v type="int" >       36 </v>
  <v type="int" >       37 </v>
  <v type="int" >       38 </v>
  <v type="int" >       39 </v>
  <v type="int" >       40 </v>
  <v type="int" >       41 </v>
  <v type="int" >       42 </v>
  <v type="int" >       43 </v>
  <v type="int" >       44 </v>
  <v type="int" >       45 </v>
  <v type="int" >       46 </v>
  <v type="int" >       47 </v>
  <v type="int" >       48 </v>
  <v type="int" >       49 </v>
  <v type="int" >       50 </v>
  <v type="int" >       51 </v>
  <v type="int" >       52 </v>
  <v type="int" >       53 </v>
  <v type="int" >       54 </v>
  <v type="int" >       55 </v>
  <v type="int" >       56 </v>
  <v type="int" >       57 </v>
  <v type="int" >       58 </v>
  <v type="int" >       59 </v>
  <v type="int" >       60 </v>
  <v type="int" >       61 </v>
  <v type="int" >       62 </v>
  <v type="int" >       63 </v>
  <v type="int" >       64 </v>
  <v type="int" >       65 </v>
  <v type="int" >       66 </v>
  <v type="int" >       67 </v>
  <v type="int" >       68 </v>
  <v type="int" >       69 </v>
  <v type="int" >       70 </v>
  <v type="int" >       71 </v>
  <v type="int" >       72 </v>
  <v type="int" >       73 </v>
  <v type="int" >       74 </v>
  <v type="int" >       75 </v>
  <v type="int" >       76 </v>
  <v type="int" >       77 </v>
  <v type="int" >       78 </v>
  <v type="int" >       79 </v>
  <v type="int" >       80 </v>
  <v type="int" >       81 </v>
  <v type="int" >       82 </v>
  <v type="int" >       83 </v>
  <v type="int" >       84 </v>
  <v type="int" >       85 </v>
  <v type="int" >       86 </v>
  <v type="int" >       87 </v>
  <v type="int" >       88 </v>
  <v type="int" >       89 </v>
  <v type="int" >       90 </v>
  <v type="int" >       91 </v>
  <v type="int" >       92 </v>
  <v type="int" >       93 </v>
  <v type="int" >       94 </v>
  <v type="int" >       95 </v>
  <v type="int" >       96 </v>
 </varray>
 <kpoints>
  <generation param="Gamma">
   <v type="int" name="divisions">       1        1        1 </v>
   <v name="usershift">      0.00000000       0.00000000       0.00000000 </v>
   <v name="genvec1">      1.00000000       0.00000000       0.00000000 </v>
   <v name="genvec2">     -0.00000000       1.00000000       0.00000000 </v>
   <v name="genvec3">      0.00000000       0.00000000       1.00000000 </v>
   <v name="shift">      0.00000000       0.00000000       0.00000000 </v>
  </generation>
  <varray name="kpointlist" >
   <v>       0.00000000       0.00000000       0.00000000 </v>
  </varray>
  <varray name="weights" >
   <v>       1.00000000 </v>
  </varray>
 </kpoints>
 <parameters>
  <separator name="general" >
   <i type="string" name="SYSTEM">"Millerite NiS"</i>
   <i type="logical" name="LCOMPAT"> F  </i>
  </separator>
  <separator name="electronic" >
   <i type="string" name="PREC">normal</i>
   <i name="ENMAX">    450.00000000</i>
   <i name="ENAUG">    703.44300000</i>
   <i name="EDIFF">      0.00010000</i>
   <i type="int" name="IALGO">    38</i>
   <i type="int" name="IWAVPR">    10</i>
   <i type="int" name="NBANDS">   640</i>
   <i type="int" name="NBANDSLOW">    -1</i>
   <i type="int" name="NBANDSHIGH">    -1</i>
   <i name="NELECT">   1056.00000000</i>
   <i type="int" name="TURBO">     0</i>
   <i type="int" name="IRESTART">     0</i>
   <i type="int" name="NREBOOT">     0</i>
   <i type="int" name="NMIN">     0</i>
   <i name="EREF">      0.00000000</i>
   <separator name="electronic smearing" >
    <i type="int" name="ISMEAR">     0</i>
    <i name="SIGMA">      0.20000000</i>
    <i name="KSPACING">      0.50000000</i>
    <i type="logical" name="KGAMMA"> T  </i>
    <i type="logical" name="KBLOWUP"> T  </i>
   </separator>
   <separator name="electronic projectors" >
    <i type="logical" name="LREAL"> T  </i>
    <v name="ROPT">     -0.00050000     -0.00050000</v>
    <i type="int" name="LMAXPAW">  -100</i>
    <i type="int" name="LMAXMIX">     2</i>
    <i type="logical" name="NLSPLINE"> F  </i>
   </separator>
   <separator name="electronic startup" >
    <i type="int" name="ISTART">     0</i>
    <i type="int" name="ICHARG">     2</i>
    <i type="int" name="INIWAV">     1</i>
   </separator>
   <separator name="electronic spin" >
    <i type="int" name="ISPIN">     1</i>
    <i type="logical" name="LNONCOLLINEAR"> F  </i>
    <v name="MAGMOM">      1.00000000      1.00000000      1.00000000      1.00000000      1.00000000      1.00000000      1.00000000      1.00000000      1.00000000      1.00000000      1.00000000      1.00000000      1.00000000      1.00000000      1.00000000      1.00000000      1.00000000      1.00000000      1.00000000      1.00000000
      1.00000000      1.00000000      1.00000000      1.00000000      1.00000000      1.00000000      1.00000000      1.00000000      1.00000000      1.00000000      1.00000000      1.00000000      1.00000000      1.00000000      1.00000000      1.00000000      1.00000000      1.00000000      1.00000000      1.00000000
      1.00000000      1.00000000      1.00000000      1.00000000      1.00000000      1.00000000      1.00000000      1.00000000      1.00000000      1.00000000      1.00000000      1.00000000      1.00000000      1.00000000      1.00000000      1.00000000      1.00000000      1.00000000      1.00000000      1.00000000
      1.00000000      1.00000000      1.00000000      1.00000000      1.00000000      1.00000000      1.00000000      1.00000000      1.00000000      1.00000000      1.00000000      1.00000000      1.00000000      1.00000000      1.00000000      1.00000000      1.00000000      1.00000000      1.00000000      1.00000000
      1.00000000      1.00000000      1.00000000      1.00000000      1.00000000      1.00000000      1.00000000      1.00000000      1.00000000      1.00000000      1.00000000      1.00000000      1.00000000      1.00000000      1.00000000      1.00000000</v>
    <i name="NUPDOWN">     -1.00000000</i>
    <i type="logical" name="LSORBIT"> F  </i>
    <v name="SAXIS">      0.00000000      0.00000000      1.00000000</v>
    <i type="logical" name="LSPIRAL"> F  </i>
    <v name="QSPIRAL">      0.00000000      0.00000000      0.00000000</v>
    <i type="logical" name="LZEROZ"> F  </i>
   </separator>
   <separator name="electronic exchange-correlation" >
    <i type="logical" name="LASPH"> F  </i>
    <i type="logical" name="LMETAGGA"> F  </i>
   </separator>
   <separator name="electronic convergence" >
    <i type="int" name="NELM">   100</i>
    <i type="int" name="NELMDL">    -5</i>
    <i type="int" name="NELMIN">     2</i>
    <i name="ENINI">    450.00000000</i>
    <separator name="electronic convergence detail" >
     <i type="logical" name="LDIAG"> T  </i>
     <i type="logical" name="LSUBROT"> F  </i>
     <i name="WEIMIN">      0.00000000</i>
     <i name="EBREAK">      0.00000004</i>
     <i name="DEPER">      0.30000000</i>
     <i type="int" name="NRMM">     4</i>
     <i name="TIME">      0.40000000</i>
    </separator>
   </separator>
   <separator name="electronic mixer" >
    <i name="AMIX">      0.40000000</i>
    <i name="BMIX">      1.00000000</i>
    <i name="AMIN">      0.10000000</i>
    <i name="AMIX_MAG">      1.60000000</i>
    <i name="BMIX_MAG">      1.00000000</i>
    <separator name="electronic mixer details" >
     <i type="int" name="IMIX">     4</i>
     <i type="logical" name="MIXFIRST"> F  </i>
     <i type="int" name="MAXMIX">   -45</i>
     <i name="WC">    100.00000000</i>
     <i type="int" name="INIMIX">     1</i>
     <i type="int" name="MIXPRE">     1</i>
     <i type="int" name="MREMOVE">     5</i>
    </separator>
   </separator>
   <separator name="electronic dipolcorrection" >
    <i type="logical" name="LDIPOL"> F  </i>
    <i type="logical" name="LMONO"> F  </i>
    <i type="int" name="IDIPOL">     0</i>
    <i name="EPSILON">      1.00000000</i>
    <v name="DIPOL">   -100.00000000   -100.00000000   -100.00000000</v>
    <i name="EFIELD">      0.00000000</i>
   </separator>
  </separator>
  <separator name="grids" >
   <i type="int" name="NGX">    60</i>
   <i type="int" name="NGY">    60</i>
   <i type="int" name="NGZ">   120</i>
   <i type="int" name="NGXF">   120</i>
   <i type="int" name="NGYF">   120</i>
   <i type="int" name="NGZF">   240</i>
   <i type="logical" name="ADDGRID"> F  </i>
  </separator>
  <separator name="ionic" >
   <i type="int" name="NSW">     0</i>
   <i type="int" name="IBRION">    -1</i>
   <i type="int" name="MDALGO">     0</i>
   <i type="int" name="ISIF">     2</i>
   <i name="PSTRESS">      0.00000000</i>
   <i name="EDIFFG">      0.00100000</i>
   <i type="int" name="NFREE">     0</i>
   <i name="POTIM">      0.50000000</i>
   <i name="SMASS">     -3.00000000</i>
   <i name="SCALEE">      1.00000000</i>
  </separator>
  <separator name="ionic md" >
   <i name="TEBEG">      0.00010000</i>
   <i name="TEEND">      0.00010000</i>
   <i type="int" name="NBLOCK">     1</i>
   <i type="int" name="KBLOCK">     1</i>
   <i type="int" name="NPACO">   256</i>
   <i name="APACO">     16.00000000</i>
  </separator>
  <separator name="symmetry" >
   <i type="int" name="ISYM">     2</i>
   <i name="SYMPREC">      0.00001000</i>
  </separator>
  <separator name="dos" >
   <i type="int" name="LORBIT">     0</i>
   <v name="RWIGS">     -1.00000000     -1.00000000</v>
   <i type="int" name="NEDOS">   301</i>
   <i name="EMIN">     10.00000000</i>
   <i name="EMAX">    -10.00000000</i>
   <i name="EFERMI">      0.00000000</i>
  </separator>
  <separator name="writing" >
   <i type="int" name="NWRITE">     2</i>
   <i type="logical" name="LWAVE"> F  </i>
   <i type="logical" name="LDOWNSAMPLE"> F  </i>
   <i type="logical" name="LCHARG"> F  </i>
   <i type="logical" name="LPARD"> F  </i>
   <i type="logical" name="LVTOT"> F  </i>
   <i type="logical" name="LVHAR"> F  </i>
   <i type="logical" name="LELF"> F  </i>
   <i type="logical" name="LOPTICS"> F  </i>
   <v name="STM">      0.00000000      0.00000000      0.00000000      0.00000000      0.00000000      0.00000000      0.00000000</v>
  </separator>
  <separator name="performance" >
   <i type="int" name="NPAR">     8</i>
   <i type="int" name="NSIM">     4</i>
   <i type="int" name="NBLK">    -1</i>
   <i type="logical" name="LPLANE"> T  </i>
   <i type="logical" name="LSCALAPACK"> T  </i>
   <i type="logical" name="LSCAAWARE"> F  </i>
   <i type="logical" name="LSCALU"> F  </i>
   <i type="logical" name="LASYNC"> F  </i>
   <i type="logical" name="LORBITALREAL"> F  </i>
  </separator>
  <separator name="miscellaneous" >
   <i type="int" name="IDIOT">     3</i>
   <i type="int" name="PHON_NSTRUCT">    -1</i>
   <i type="logical" name="LMUSIC"> F  </i>
   <v name="POMASS">     58.69000000     32.06600000</v>
   <v name="DARWINR">      0.00000000      0.00000000</v>
   <v name="DARWINV">      1.00000000      1.00000000</v>
   <i type="logical" name="LCORR"> T  </i>
  </separator>
  <i type="logical" name="GGA_COMPAT"> T  </i>
  <i type="logical" name="LBERRY"> F  </i>
  <i type="int" name="ICORELEVEL">     0</i>
  <i type="logical" name="LDAU"> F  </i>
  <i type="int" name="I_CONSTRAINED_M">     0</i>
  <separator name="electronic exchange-correlation" >
   <i type="string" name="GGA">--</i>
   <i type="int" name="VOSKOWN">     0</i>
   <i type="logical" name="LHFCALC"> F  </i>
   <i type="string" name="PRECFOCK"></i>
   <i type="logical" name="LSYMGRAD"> F  </i>
   <i type="logical" name="LHFONE"> F  </i>
   <i type="logical" name="LRHFCALC"> F  </i>
   <i type="logical" name="LTHOMAS"> F  </i>
   <i type="logical" name="LMODELHF"> F  </i>
   <i type="logical" name="LFOCKACE"> F  </i>
   <i name="ENCUT4O">     -1.00000000</i>
   <i type="int" name="EXXOEP">     0</i>
   <i type="int" name="FOURORBIT">     0</i>
   <i name="AEXX">      0.00000000</i>
   <i name="HFALPHA">      0.00000000</i>
   <i name="MCALPHA">      0.00000000</i>
   <i name="ALDAX">      1.00000000</i>
   <i name="AGGAX">      1.00000000</i>
   <i name="ALDAC">      1.00000000</i>
   <i name="AGGAC">      1.00000000</i>
   <i type="int" name="NKREDX">     1</i>
   <i type="int" name="NKREDY">     1</i>
   <i type="int" name="NKREDZ">     1</i>
   <i type="logical" name="SHIFTRED"> F  </i>
   <i type="logical" name="ODDONLY"> F  </i>
   <i type="logical" name="EVENONLY"> F  </i>
   <i type="int" name="LMAXFOCK">     0</i>
   <i type="int" name="NMAXFOCKAE">     0</i>
   <i type="logical" name="LFOCKAEDFT"> F  </i>
   <i name="HFSCREEN">      0.00000000</i>
   <i name="HFSCREENC">      0.00000000</i>
   <i type="int" name="NBANDSGWLOW">     0</i>
  </separator>
  <separator name="vdW DFT" >
   <i type="logical" name="LUSE_VDW"> F  </i>
   <i name="Zab_VDW">     -0.84910000</i>
   <i name="PARAM1">      0.12340000</i>
   <i name="PARAM2">      1.00000000</i>
   <i name="PARAM3">      0.00000000</i>
  </separator>
  <separator name="model GW" >
   <i type="int" name="MODEL_GW">     0</i>
   <i name="MODEL_EPS0">     15.94296978</i>
   <i name="MODEL_ALPHA">      1.00000000</i>
  </separator>
  <separator name="linear response parameters" >
   <i type="logical" name="LEPSILON"> F  </i>
   <i type="logical" name="LRPA"> F  </i>
   <i type="logical" name="LNABLA"> F  </i>
   <i type="logical" name="LVEL"> F  </i>
   <i type="int" name="KINTER">     0</i>
   <i name="CSHIFT">      0.10000000</i>
   <i name="OMEGAMAX">     -1.00000000</i>
   <i name="DEG_THRESHOLD">      0.00200000</i>
   <i name="RTIME">     -0.10000000</i>
   <i name="WPLASMAI">      0.00000000</i>
   <v name="DFIELD">      0.00000000      0.00000000      0.00000000</v>
   <v name="WPLASMA">      0.00000000      0.00000000      0.00000000      0.00000000      0.00000000      0.00000000      0.00000000      0.00000000      0.00000000</v>
  </separator>
  <separator name="orbital magnetization" >
   <i type="logical" name="NUCIND"> F  </i>
   <v name="MAGPOS">      0.00000000      0.00000000      0.00000000</v>
   <i type="logical" name="LNICSALL"> T  </i>
   <i type="logical" name="ORBITALMAG"> F  </i>
   <i type="logical" name="LMAGBLOCH"> F  </i>
   <i type="logical" name="LCHIMAG"> F  </i>
   <i type="logical" name="LGAUGE"> T  </i>
   <i type="int" name="MAGATOM">     0</i>
   <v name="MAGDIPOL">      0.00000000      0.00000000      0.00000000</v>
   <v name="AVECCONST">      0.00000000      0.00000000      0.00000000</v>
  </separator>
  <separator name="response functions" >
   <i type="logical" name="LFINITE_TEMPERATURE"> F  </i>
   <i type="logical" name="LADDER"> F  </i>
   <i type="logical" name="LRPAFORCE"> F  </i>
   <i type="logical" name="LFXC"> F  </i>
   <i type="logical" name="LHARTREE"> T  </i>
   <i type="int" name="IBSE">     0</i>
   <v type="int" name="KPOINT">    -1     0     0     0</v>
   <i type="logical" name="LTCTC"> F  </i>
   <i type="logical" name="LTCTE"> F  </i>
   <i type="logical" name="LTETE"> F  </i>
   <i type="logical" name="LTRIPLET"> F  </i>
   <i type="logical" name="LFXCEPS"> F  </i>
   <i type="logical" name="LFXHEG"> F  </i>
   <i type="int" name="NATURALO">     2</i>
   <i type="logical" name="LHOLEGF"> F  </i>
   <i type="logical" name="L2ORDER"> F  </i>
   <i type="logical" name="LDMP1"> F  </i>
   <i type="logical" name="LMP2LT"> F  </i>
   <i type="logical" name="LSMP2LT"> F  </i>
   <i type="logical" name="LGWLF"> F  </i>
   <i name="ENCUTGW">     -2.00000000</i>
   <i name="ENCUTGWSOFT">     -2.00000000</i>
   <i name="ENCUTLF">     -1.00000000</i>
   <i type="logical" name="LESF_SPLINES"> F  </i>
   <i type="int" name="LMAXMP2">    -1</i>
   <i name="SCISSOR">      0.00000000</i>
   <i type="int" name="NOMEGA">     0</i>
   <i type="int" name="NOMEGAR">     0</i>
   <i type="int" name="NBANDSGW">    -1</i>
   <i type="int" name="NBANDSO">    -1</i>
   <i type="int" name="NBANDSV">    -1</i>
   <i type="int" name="NELM">   100</i>
   <i type="int" name="NELMHF">     1</i>
   <i type="int" name="DIM">     3</i>
   <i type="int" name="IESPILON">     4</i>
   <i type="int" name="ANTIRES">     0</i>
   <i name="OMEGAMAX">    -30.00000000</i>
   <i name="OMEGAMIN">    -30.00000000</i>
   <i name="OMEGATL">   -200.00000000</i>
   <i type="int" name="OMEGAGRID">     0</i>
   <i name="CSHIFT">     -0.10000000</i>
   <i type="logical" name="LSELFENERGY"> F  </i>
   <i type="logical" name="LSPECTRAL"> F  </i>
   <i type="logical" name="LSPECTRALGW"> F  </i>
   <i type="logical" name="LSINGLES"> F  </i>
   <i type="logical" name="LFERMIGW"> F  </i>
   <i type="logical" name="ODDONLYGW"> F  </i>
   <i type="logical" name="EVENONLYGW"> F  </i>
   <i type="int" name="NKREDLFX">     1</i>
   <i type="int" name="NKREDLFY">     1</i>
   <i type="int" name="NKREDLFZ">     1</i>
   <i type="int" name="MAXMEM">  2800</i>
   <i type="int" name="TELESCOPE">     0</i>
   <i type="int" name="NTAUPAR">    -1</i>
   <i type="int" name="NOMEGAPAR">    -1</i>
   <i name="LAMBDA">      1.00000000</i>
  </separator>
  <separator name="External order field" >
   <i name="OFIELD_KAPPA">      0.00000000</i>
   <v name="OFIELD_K">      0.00000000      0.00000000      0.00000000</v>
   <i name="OFIELD_Q6_NEAR">      0.00000000</i>
   <i name="OFIELD_Q6_FAR">      0.00000000</i>
   <i name="OFIELD_A">      0.00000000</i>
  </separator>
 </parameters>
 <atominfo>
  <atoms>      96 </atoms>
  <types>       2 </types>
  <array name="atoms" >
   <dimension dim="1">ion</dimension>
   <field type="string">element</field>
   <field type="int">atomtype</field>
   <set>
    <rc><c>Ni</c><c>   1</c></rc>
    <rc><c>Ni</c><c>   1</c></rc>
    <rc><c>Ni</c><c>   1</c></rc>
    <rc><c>Ni</c><c>   1</c></rc>
    <rc><c>Ni</c><c>   1</c></rc>
    <rc><c>Ni</c><c>   1</c></rc>
    <rc><c>Ni</c><c>   1</c></rc>
    <rc><c>Ni</c><c>   1</c></rc>
    <rc><c>Ni</c><c>   1</c></rc>
    <rc><c>Ni</c><c>   1</c></rc>
    <rc><c>Ni</c><c>   1</c></rc>
    <rc><c>Ni</c><c>   1</c></rc>
    <rc><c>Ni</c><c>   1</c></rc>
    <rc><c>Ni</c><c>   1</c></rc>
    <rc><c>Ni</c><c>   1</c></rc>
    <rc><c>Ni</c><c>   1</c></rc>
    <rc><c>Ni</c><c>   1</c></rc>
    <rc><c>Ni</c><c>   1</c></rc>
    <rc><c>Ni</c><c>   1</c></rc>
    <rc><c>Ni</c><c>   1</c></rc>
    <rc><c>Ni</c><c>   1</c></rc>
    <rc><c>Ni</c><c>   1</c></rc>
    <rc><c>Ni</c><c>   1</c></rc>
    <rc><c>Ni</c><c>   1</c></rc>
    <rc><c>Ni</c><c>   1</c></rc>
    <rc><c>Ni</c><c>   1</c></rc>
    <rc><c>Ni</c><c>   1</c></rc>
    <rc><c>Ni</c><c>   1</c></rc>
    <rc><c>Ni</c><c>   1</c></rc>
    <rc><c>Ni</c><c>   1</c></rc>
    <rc><c>Ni</c><c>   1</c></rc>
    <rc><c>Ni</c><c>   1</c></rc>
    <rc><c>Ni</c><c>   1</c></rc>
    <rc><c>Ni</c><c>   1</c></rc>
    <rc><c>Ni</c><c>   1</c></rc>
    <rc><c>Ni</c><c>   1</c></rc>
    <rc><c>Ni</c><c>   1</c></rc>
    <rc><c>Ni</c><c>   1</c></rc>
    <rc><c>Ni</c><c>   1</c></rc>
    <rc><c>Ni</c><c>   1</c></rc>
    <rc><c>Ni</c><c>   1</c></rc>
    <rc><c>Ni</c><c>   1</c></rc>
    <rc><c>Ni</c><c>   1</c></rc>
    <rc><c>Ni</c><c>   1</c></rc>
    <rc><c>Ni</c><c>   1</c></rc>
    <rc><c>Ni</c><c>   1</c></rc>
    <rc><c>Ni</c><c>   1</c></rc>
    <rc><c>Ni</c><c>   1</c></rc>
    <rc><c>S </c><c>   2</c></rc>
    <rc><c>S </c><c>   2</c></rc>
    <rc><c>S </c><c>   2</c></rc>
    <rc><c>S </c><c>   2</c></rc>
    <rc><c>S </c><c>   2</c></rc>
    <rc><c>S </c><c>   2</c></rc>
    <rc><c>S </c><c>   2</c></rc>
    <rc><c>S </c><c>   2</c></rc>
    <rc><c>S </c><c>   2</c></rc>
    <rc><c>S </c><c>   2</c></rc>
    <rc><c>S </c><c>   2</c></rc>
    <rc><c>S </c><c>   2</c></rc>
    <rc><c>S </c><c>   2</c></rc>
    <rc><c>S </c><c>   2</c></rc>
    <rc><c>S </c><c>   2</c></rc>
    <rc><c>S </c><c>   2</c></rc>
    <rc><c>S </c><c>   2</c></rc>
    <rc><c>S </c><c>   2</c></rc>
    <rc><c>S </c><c>   2</c></rc>
    <rc><c>S </c><c>   2</c></rc>
    <rc><c>S </c><c>   2</c></rc>
    <rc><c>S </c><c>   2</c></rc>
    <rc><c>S </c><c>   2</c></rc>
    <rc><c>S </c><c>   2</c></rc>
    <rc><c>S </c><c>   2</c></rc>
    <rc><c>S </c><c>   2</c></rc>
    <rc><c>S </c><c>   2</c></rc>
    <rc><c>S </c><c>   2</c></rc>
    <rc><c>S </c><c>   2</c></rc>
    <rc><c>S </c><c>   2</c></rc>
    <rc><c>S </c><c>   2</c></rc>
    <rc><c>S </c><c>   2</c></rc>
    <rc><c>S </c><c>   2</c></rc>
    <rc><c>S </c><c>   2</c></rc>
    <rc><c>S </c><c>   2</c></rc>
    <rc><c>S </c><c>   2</c></rc>
    <rc><c>S </c><c>   2</c></rc>
    <rc><c>S </c><c>   2</c></rc>
    <rc><c>S </c><c>   2</c></rc>
    <rc><c>S </c><c>   2</c></rc>
    <rc><c>S </c><c>   2</c></rc>
    <rc><c>S </c><c>   2</c></rc>
    <rc><c>S </c><c>   2</c></rc>
    <rc><c>S </c><c>   2</c></rc>
    <rc><c>S </c><c>   2</c></rc>
    <rc><c>S </c><c>   2</c></rc>
    <rc><c>S </c><c>   2</c></rc>
    <rc><c>S </c><c>   2</c></rc>
   </set>
  </array>
  <array name="atomtypes" >
   <dimension dim="1">type</dimension>
   <field type="int">atomspertype</field>
   <field type="string">element</field>
   <field>mass</field>
   <field>valence</field>
   <field type="string">pseudopotential</field>
   <set>
    <rc><c>  48</c><c>Ni</c><c>     58.69000000</c><c>     16.00000000</c><c>  PAW_PBE Ni_pv 06Sep2000               </c></rc>
    <rc><c>  48</c><c>S </c><c>     32.06600000</c><c>      6.00000000</c><c>  PAW_PBE S 06Sep2000                   </c></rc>
   </set>
  </array>
 </atominfo>
 <structure name="initialpos" >
  <crystal>
   <varray name="basis" >
    <v>      10.06282034       5.04456212       0.00000000 </v>
    <v>       0.00000000      11.25646304       0.00000000 </v>
    <v>       0.00000000       0.00000000      22.51995597 </v>
   </varray>
   <i name="volume">   2550.87516496 </i>
   <varray name="rec_basis" >
    <v>       0.09937572       0.00000000       0.00000000 </v>
    <v>      -0.04453504       0.08883785       0.00000000 </v>
    <v>       0.00000000       0.00000000       0.04440506 </v>
   </varray>
  </crystal>
  <varray name="positions" >
   <v>       0.26092069       0.47878037       0.29519774 </v>
   <v>       0.35488056       0.38482051       0.42557357 </v>
   <v>       0.16696082       0.07274025       0.16482191 </v>
   <v>       0.05611868       0.05147941       0.52150332 </v>
   <v>       0.18027919       0.42731887       0.00000000 </v>
   <v>       0.27423906       0.33335901       0.13037583 </v>
   <v>       0.36819893       0.23939914       0.26075166 </v>
   <v>       0.46215879       0.14543927       0.39112749 </v>
   <v>       0.00030194       0.37150214       0.26075166 </v>
   <v>       0.09426180       0.27754227       0.39112749 </v>
   <v>       0.18822167       0.18358240       0.52150332 </v>
   <v>       0.40634206       0.46546200       0.13037583 </v>
   <v>       0.31238219       0.05942188       0.00000000 </v>
   <v>       0.76092069       0.47878037       0.29519774 </v>
   <v>       0.85488056       0.38482051       0.42557357 </v>
   <v>       0.66696082       0.07274025       0.16482191 </v>
   <v>       0.68027919       0.42731887       0.00000000 </v>
   <v>       0.77423906       0.33335901       0.13037583 </v>
   <v>       0.86819893       0.23939914       0.26075166 </v>
   <v>       0.96215879       0.14543927       0.39112749 </v>
   <v>       0.50030194       0.37150214       0.26075166 </v>
   <v>       0.59426180       0.27754227       0.39112749 </v>
   <v>       0.68822167       0.18358240       0.52150332 </v>
   <v>       0.90634206       0.46546200       0.13037583 </v>
   <v>       0.81238219       0.05942188       0.00000000 </v>
   <v>       0.26092069       0.97878037       0.29519774 </v>
   <v>       0.35488056       0.88482051       0.42557357 </v>
   <v>       0.44884042       0.79086064       0.55594940 </v>
   <v>       0.16696082       0.57274025       0.16482191 </v>
   <v>       0.18027919       0.92731887       0.00000000 </v>
   <v>       0.27423906       0.83335901       0.13037583 </v>
   <v>       0.36819893       0.73939914       0.26075166 </v>
   <v>       0.46215879       0.64543927       0.39112749 </v>
   <v>       0.00030194       0.87150214       0.26075166 </v>
   <v>       0.09426180       0.77754227       0.39112749 </v>
   <v>       0.18822167       0.68358240       0.52150332 </v>
   <v>       0.40634206       0.96546200       0.13037583 </v>
   <v>       0.31238219       0.55942188       0.00000000 </v>
   <v>       0.76092069       0.97878037       0.29519774 </v>
   <v>       0.85488056       0.88482051       0.42557357 </v>
   <v>       0.66696082       0.57274025       0.16482191 </v>
   <v>       0.77423906       0.83335901       0.13037583 </v>
   <v>       0.86819893       0.73939914       0.26075166 </v>
   <v>       0.96215879       0.64543927       0.39112749 </v>
   <v>       0.50030194       0.87150214       0.26075166 </v>
   <v>       0.59426180       0.77754227       0.39112749 </v>
   <v>       0.68822167       0.68358240       0.52150332 </v>
   <v>       0.90634206       0.96546200       0.13037583 </v>
   <v>       0.07287763       0.16682345       0.31134756 </v>
   <v>       0.16683750       0.07286358       0.44172340 </v>
   <v>       0.38495788       0.35474318       0.05059591 </v>
   <v>       0.47891775       0.26078331       0.18097173 </v>
   <v>       0.03023342       0.37768265       0.48558574 </v>
   <v>       0.43627354       0.47164252       0.35520991 </v>
   <v>       0.24835381       0.15956227       0.09445824 </v>
   <v>       0.34231367       0.06560240       0.22483408 </v>
   <v>       0.08013881       0.49134726       0.09445824 </v>
   <v>       0.17409868       0.39738739       0.22483408 </v>
   <v>       0.26805854       0.30342752       0.35520991 </v>
   <v>       0.36201841       0.20946766       0.48558574 </v>
   <v>       0.57287763       0.16682345       0.31134756 </v>
   <v>       0.66683750       0.07286358       0.44172340 </v>
   <v>       0.88495788       0.35474318       0.05059591 </v>
   <v>       0.97891775       0.26078331       0.18097173 </v>
   <v>       0.53023342       0.37768265       0.48558574 </v>
   <v>       0.93627354       0.47164252       0.35520991 </v>
   <v>       0.74835381       0.15956227       0.09445824 </v>
   <v>       0.84231367       0.06560240       0.22483408 </v>
   <v>       0.58013881       0.49134726       0.09445824 </v>
   <v>       0.67409868       0.39738739       0.22483408 </v>
   <v>       0.76805854       0.30342752       0.35520991 </v>
   <v>       0.86201841       0.20946766       0.48558574 </v>
   <v>       0.07287763       0.66682345       0.31134756 </v>
   <v>       0.16683750       0.57286358       0.44172340 </v>
   <v>       0.38495788       0.85474318       0.05059591 </v>
   <v>       0.47891775       0.76078331       0.18097173 </v>
   <v>       0.03023342       0.87768265       0.48558574 </v>
   <v>       0.43627354       0.97164252       0.35520991 </v>
   <v>       0.24835381       0.65956227       0.09445824 </v>
   <v>       0.34231367       0.56560240       0.22483408 </v>
   <v>       0.08013881       0.99134726       0.09445824 </v>
   <v>       0.17409868       0.89738739       0.22483408 </v>
   <v>       0.26805854       0.80342752       0.35520991 </v>
   <v>       0.36201841       0.70946766       0.48558574 </v>
   <v>       0.57287763       0.66682345       0.31134756 </v>
   <v>       0.66683750       0.57286358       0.44172340 </v>
   <v>       0.88495788       0.85474318       0.05059591 </v>
   <v>       0.97891775       0.76078331       0.18097173 </v>
   <v>       0.53023342       0.87768265       0.48558574 </v>
   <v>       0.93627354       0.97164252       0.35520991 </v>
   <v>       0.74835381       0.65956227       0.09445824 </v>
   <v>       0.84231367       0.56560240       0.22483408 </v>
   <v>       0.58013881       0.99134726       0.09445824 </v>
   <v>       0.67409868       0.89738739       0.22483408 </v>
   <v>       0.76805854       0.80342752       0.35520991 </v>
   <v>       0.86201841       0.70946766       0.48558574 </v>
  </varray>
 </structure>
 <calculation>
  <scstep>
   <time name="dav">    4.54    4.56</time>
   <time name="total">    4.63    4.65</time>
   <energy>
    <i name="alphaZ">   2592.50432107 </i>
    <i name="ewald"> 248276.00469170 </i>
    <i name="hartreedc">-411995.80515107 </i>
    <i name="XCdc">   4867.68112555 </i>
    <i name="pawpsdc"> 150306.04444553 </i>
    <i name="pawaedc">-156855.34918313 </i>
    <i name="eentropy">     -0.54818680 </i>
    <i name="bandstr">  -5376.55063526 </i>
    <i name="atom"> 181336.80673834 </i>
    <i name="e_fr_energy">  13150.78816595 </i>
    <i name="e_wo_entrp">  13151.33635274 </i>
    <i name="e_0_energy">  13151.06225934 </i>
   </energy>
  </scstep>
  <scstep>
   <time name="dav">    3.75    3.76</time>
   <time name="total">    3.76    3.77</time>
   <energy>
    <i name="e_fr_energy">    839.86132031 </i>
    <i name="e_wo_entrp">    840.93392356 </i>
    <i name="e_0_energy">    840.39762194 </i>
   </energy>
  </scstep>
  <scstep>
   <time name="dav">    3.95    3.96</time>
   <time name="total">    3.95    3.96</time>
   <energy>
    <i name="e_fr_energy">   -446.41630361 </i>
    <i name="e_wo_entrp">   -444.76998544 </i>
    <i name="e_0_energy">   -445.59314453 </i>
   </energy>
  </scstep>
  <scstep>
   <time name="dav">    4.10    4.11</time>
   <time name="total">    4.11    4.12</time>
   <energy>
    <i name="e_fr_energy">   -533.24120142 </i>
    <i name="e_wo_entrp">   -531.43733972 </i>
    <i name="e_0_energy">   -532.33927057 </i>
   </energy>
  </scstep>
  <scstep>
   <time name="dav">    4.35    4.36</time>
   <time name="total">    4.45    4.46</time>
   <energy>
    <i name="e_fr_energy">   -536.49243941 </i>
    <i name="e_wo_entrp">   -534.68378554 </i>
    <i name="e_0_energy">   -535.58811247 </i>
   </energy>
  </scstep>
  <scstep>
   <time name="dav">    4.13    4.14</time>
   <time name="total">    4.29    4.31</time>
   <energy>
    <i name="e_fr_energy">   -638.44817175 </i>
    <i name="e_wo_entrp">   -636.94388025 </i>
    <i name="e_0_energy">   -637.69602600 </i>
   </energy>
  </scstep>
  <scstep>
   <time name="dav">    4.06    4.07</time>
   <time name="total">    4.22    4.24</time>
   <energy>
    <i name="e_fr_energy">   -499.03979042 </i>
    <i name="e_wo_entrp">   -497.91802651 </i>
    <i name="e_0_energy">   -498.47890846 </i>
   </energy>
  </scstep>
  <scstep>
   <time name="dav">    4.26    4.27</time>
   <time name="total">    4.42    4.44</time>
   <energy>
    <i name="e_fr_energy">   -786.65574774 </i>
    <i name="e_wo_entrp">   -786.17765784 </i>
    <i name="e_0_energy">   -786.41670279 </i>
   </energy>
  </scstep>
  <scstep>
   <time name="dav">    4.33    4.34</time>
   <time name="total">    4.50    4.51</time>
   <energy>
    <i name="e_fr_energy">   -505.90641168 </i>
    <i name="e_wo_entrp">   -504.01047459 </i>
    <i name="e_0_energy">   -504.95844314 </i>
   </energy>
  </scstep>
  <scstep>
   <time name="dav">    4.58    4.59</time>
   <time name="total">    4.74    4.75</time>
   <energy>
    <i name="e_fr_energy">   -498.35507811 </i>
    <i name="e_wo_entrp">   -497.03352413 </i>
    <i name="e_0_energy">   -497.69430112 </i>
   </energy>
  </scstep>
  <scstep>
   <time name="dav">    4.62    4.63</time>
   <time name="total">    4.79    4.80</time>
   <energy>
    <i name="e_fr_energy">   -502.87228819 </i>
    <i name="e_wo_entrp">   -501.04621211 </i>
    <i name="e_0_energy">   -501.95925015 </i>
   </energy>
  </scstep>
  <scstep>
   <time name="dav">    4.51    4.53</time>
   <time name="total">    4.68    4.69</time>
   <energy>
    <i name="e_fr_energy">   -494.98317407 </i>
    <i name="e_wo_entrp">   -493.69440843 </i>
    <i name="e_0_energy">   -494.33879125 </i>
   </energy>
  </scstep>
  <scstep>
   <time name="dav">    4.66    4.67</time>
   <time name="total">    4.82    4.83</time>
   <energy>
    <i name="e_fr_energy">   -488.89393659 </i>
    <i name="e_wo_entrp">   -487.77506047 </i>
    <i name="e_0_energy">   -488.33449853 </i>
   </energy>
  </scstep>
  <scstep>
   <time name="dav">    4.37    4.38</time>
   <time name="total">    4.54    4.55</time>
   <energy>
    <i name="e_fr_energy">   -480.53916445 </i>
    <i name="e_wo_entrp">   -479.33249834 </i>
    <i name="e_0_energy">   -479.93583139 </i>
   </energy>
  </scstep>
  <scstep>
   <time name="dav">    4.52    4.54</time>
   <time name="total">    4.69    4.70</time>
   <energy>
    <i name="e_fr_energy">   -476.71616352 </i>
    <i name="e_wo_entrp">   -475.55198646 </i>
    <i name="e_0_energy">   -476.13407499 </i>
   </energy>
  </scstep>
  <scstep>
   <time name="dav">    4.43    4.44</time>
   <time name="total">    4.60    4.61</time>
   <energy>
    <i name="e_fr_energy">   -473.50702511 </i>
    <i name="e_wo_entrp">   -472.25006872 </i>
    <i name="e_0_energy">   -472.87854692 </i>
   </energy>
  </scstep>
  <scstep>
   <time name="dav">    4.50    4.51</time>
   <time name="total">    4.67    4.68</time>
   <energy>
    <i name="e_fr_energy">   -472.80553513 </i>
    <i name="e_wo_entrp">   -471.54514053 </i>
    <i name="e_0_energy">   -472.17533783 </i>
   </energy>
  </scstep>
  <scstep>
   <time name="dav">    4.41    4.43</time>
   <time name="total">    4.57    4.58</time>
   <energy>
    <i name="e_fr_energy">   -471.66138410 </i>
    <i name="e_wo_entrp">   -470.44310462 </i>
    <i name="e_0_energy">   -471.05224436 </i>
   </energy>
  </scstep>
  <scstep>
   <time name="dav">    4.48    4.49</time>
   <time name="total">    4.65    4.66</time>
   <energy>
    <i name="e_fr_energy">   -471.38695986 </i>
    <i name="e_wo_entrp">   -470.15523623 </i>
    <i name="e_0_energy">   -470.77109804 </i>
   </energy>
  </scstep>
  <scstep>
   <time name="dav">    4.59    4.60</time>
   <time name="total">    4.75    4.77</time>
   <energy>
    <i name="e_fr_energy">   -470.89722697 </i>
    <i name="e_wo_entrp">   -469.58412130 </i>
    <i name="e_0_energy">   -470.24067413 </i>
   </energy>
  </scstep>
  <scstep>
   <time name="dav">    4.52    4.53</time>
   <time name="total">    4.69    4.71</time>
   <energy>
    <i name="e_fr_energy">   -470.48565474 </i>
    <i name="e_wo_entrp">   -469.16233112 </i>
    <i name="e_0_energy">   -469.82399293 </i>
   </energy>
  </scstep>
  <scstep>
   <time name="dav">    4.88    4.89</time>
   <time name="total">    5.05    5.06</time>
   <energy>
    <i name="e_fr_energy">   -470.08792849 </i>
    <i name="e_wo_entrp">   -468.68982213 </i>
    <i name="e_0_energy">   -469.38887531 </i>
   </energy>
  </scstep>
  <scstep>
   <time name="dav">    4.53    4.54</time>
   <time name="total">    4.69    4.70</time>
   <energy>
    <i name="e_fr_energy">   -470.06638558 </i>
    <i name="e_wo_entrp">   -468.65428783 </i>
    <i name="e_0_energy">   -469.36033671 </i>
   </energy>
  </scstep>
  <scstep>
   <time name="dav">    4.21    4.22</time>
   <time name="total">    4.38    4.39</time>
   <energy>
    <i name="e_fr_energy">   -469.96816205 </i>
    <i name="e_wo_entrp">   -468.49182383 </i>
    <i name="e_0_energy">   -469.22999294 </i>
   </energy>
  </scstep>
  <scstep>
   <time name="dav">    4.22    4.23</time>
   <time name="total">    4.39    4.40</time>
   <energy>
    <i name="e_fr_energy">   -469.97908903 </i>
    <i name="e_wo_entrp">   -468.54344624 </i>
    <i name="e_0_energy">   -469.26126764 </i>
   </energy>
  </scstep>
  <scstep>
   <time name="dav">    4.52    4.53</time>
   <time name="total">    4.69    4.70</time>
   <energy>
    <i name="e_fr_energy">   -469.98776467 </i>
    <i name="e_wo_entrp">   -468.52429801 </i>
    <i name="e_0_energy">   -469.25603134 </i>
   </energy>
  </scstep>
  <scstep>
   <time name="dav">    4.38    4.39</time>
   <time name="total">    4.55    4.57</time>
   <energy>
    <i name="e_fr_energy">   -469.98417431 </i>
    <i name="e_wo_entrp">   -468.53601476 </i>
    <i name="e_0_energy">   -469.26009453 </i>
   </energy>
  </scstep>
  <scstep>
   <time name="dav">    4.26    4.27</time>
   <time name="total">    4.43    4.44</time>
   <energy>
    <i name="e_fr_energy">   -469.94439468 </i>
    <i name="e_wo_entrp">   -468.48259368 </i>
    <i name="e_0_energy">   -469.21349418 </i>
   </energy>
  </scstep>
  <scstep>
   <time name="dav">    4.30    4.31</time>
   <time name="total">    4.46    4.48</time>
   <energy>
    <i name="e_fr_energy">   -469.93717328 </i>
    <i name="e_wo_entrp">   -468.44797836 </i>
    <i name="e_0_energy">   -469.19257582 </i>
   </energy>
  </scstep>
  <scstep>
   <time name="dav">    4.40    4.41</time>
   <time name="total">    4.57    4.58</time>
   <energy>
    <i name="e_fr_energy">   -469.91360637 </i>
    <i name="e_wo_entrp">   -468.42910530 </i>
    <i name="e_0_energy">   -469.17135584 </i>
   </energy>
  </scstep>
  <scstep>
   <time name="dav">    4.30    4.31</time>
   <time name="total">    4.48    4.49</time>
   <energy>
    <i name="e_fr_energy">   -469.91321240 </i>
    <i name="e_wo_entrp">   -468.43281908 </i>
    <i name="e_0_energy">   -469.17301574 </i>
   </energy>
  </scstep>
  <scstep>
   <time name="dav">    4.38    4.39</time>
   <time name="total">    4.56    4.57</time>
   <energy>
    <i name="e_fr_energy">   -469.91137306 </i>
    <i name="e_wo_entrp">   -468.43587377 </i>
    <i name="e_0_energy">   -469.17362342 </i>
   </energy>
  </scstep>
  <scstep>
   <time name="dav">    4.29    4.30</time>
   <time name="total">    4.45    4.46</time>
   <energy>
    <i name="e_fr_energy">   -469.90502711 </i>
    <i name="e_wo_entrp">   -468.43183394 </i>
    <i name="e_0_energy">   -469.16843052 </i>
   </energy>
  </scstep>
  <scstep>
   <time name="dav">    4.18    4.19</time>
   <time name="total">    4.35    4.36</time>
   <energy>
    <i name="e_fr_energy">   -469.90115013 </i>
    <i name="e_wo_entrp">   -468.41746736 </i>
    <i name="e_0_energy">   -469.15930875 </i>
   </energy>
  </scstep>
  <scstep>
   <time name="dav">    4.30    4.32</time>
   <time name="total">    4.48    4.49</time>
   <energy>
    <i name="e_fr_energy">   -469.90069829 </i>
    <i name="e_wo_entrp">   -468.41315673 </i>
    <i name="e_0_energy">   -469.15692751 </i>
   </energy>
  </scstep>
  <scstep>
   <time name="dav">    3.98    3.99</time>
   <time name="total">    4.15    4.16</time>
   <energy>
    <i name="e_fr_energy">   -469.90054021 </i>
    <i name="e_wo_entrp">   -468.42518015 </i>
    <i name="e_0_energy">   -469.16286018 </i>
   </energy>
  </scstep>
  <scstep>
   <time name="dav">    3.39    3.40</time>
   <time name="total">    3.57    3.58</time>
   <energy>
    <i name="e_fr_energy">   -469.90024562 </i>
    <i name="e_wo_entrp">   -468.42693677 </i>
    <i name="e_0_energy">   -469.16359120 </i>
   </energy>
  </scstep>
  <scstep>
   <time name="dav">    3.34    3.35</time>
   <time name="total">    3.51    3.52</time>
   <energy>
    <i name="e_fr_energy">   -469.90034576 </i>
    <i name="e_wo_entrp">   -468.42562809 </i>
    <i name="e_0_energy">   -469.16298692 </i>
   </energy>
  </scstep>
  <scstep>
   <time name="dav">    3.09    3.09</time>
   <time name="total">    3.17    3.18</time>
   <energy>
    <i name="alphaZ">   2592.50432107 </i>
    <i name="ewald"> 248276.00469170 </i>
    <i name="hartreedc">-411270.53538823 </i>
    <i name="XCdc">   4828.94361466 </i>
    <i name="pawpsdc"> 174170.87955053 </i>
    <i name="pawaedc">-180796.79134871 </i>
    <i name="eentropy">     -1.47522541 </i>
    <i name="bandstr"> -19606.23735624 </i>
    <i name="atom"> 181336.80673834 </i>
    <i name="e_fr_energy">   -469.90040229 </i>
    <i name="e_wo_entrp">   -468.42517688 </i>
    <i name="e_0_energy">   -469.16278959 </i>
   </energy>
  </scstep>
  <structure>
   <crystal>
    <varray name="basis" >
     <v>      10.06282034       5.04456212       0.00000000 </v>
     <v>       0.00000000      11.25646304       0.00000000 </v>
     <v>       0.00000000       0.00000000      22.51995597 </v>
    </varray>
    <i name="volume">   2550.87516496 </i>
    <varray name="rec_basis" >
     <v>       0.09937572       0.00000000       0.00000000 </v>
     <v>      -0.04453504       0.08883785       0.00000000 </v>
     <v>       0.00000000       0.00000000       0.04440506 </v>
    </varray>
   </crystal>
   <varray name="positions" >
    <v>       0.26092069       0.47878037       0.29519774 </v>
    <v>       0.35488056       0.38482051       0.42557357 </v>
    <v>       0.16696082       0.07274025       0.16482191 </v>
    <v>       0.05611868       0.05147941       0.52150332 </v>
    <v>       0.18027919       0.42731887       0.00000000 </v>
    <v>       0.27423906       0.33335901       0.13037583 </v>
    <v>       0.36819893       0.23939914       0.26075166 </v>
    <v>       0.46215879       0.14543927       0.39112749 </v>
    <v>       0.00030194       0.37150214       0.26075166 </v>
    <v>       0.09426180       0.27754227       0.39112749 </v>
    <v>       0.18822167       0.18358240       0.52150332 </v>
    <v>       0.40634206       0.46546200       0.13037583 </v>
    <v>       0.31238219       0.05942188       0.00000000 </v>
    <v>       0.76092069       0.47878037       0.29519774 </v>
    <v>       0.85488056       0.38482051       0.42557357 </v>
    <v>       0.66696082       0.07274025       0.16482191 </v>
    <v>       0.68027919       0.42731887       0.00000000 </v>
    <v>       0.77423906       0.33335901       0.13037583 </v>
    <v>       0.86819893       0.23939914       0.26075166 </v>
    <v>       0.96215879       0.14543927       0.39112749 </v>
    <v>       0.50030194       0.37150214       0.26075166 </v>
    <v>       0.59426180       0.27754227       0.39112749 </v>
    <v>       0.68822167       0.18358240       0.52150332 </v>
    <v>       0.90634206       0.46546200       0.13037583 </v>
    <v>       0.81238219       0.05942188       0.00000000 </v>
    <v>       0.26092069       0.97878037       0.29519774 </v>
    <v>       0.35488056       0.88482051       0.42557357 </v>
    <v>       0.44884042       0.79086064       0.55594940 </v>
    <v>       0.16696082       0.57274025       0.16482191 </v>
    <v>       0.18027919       0.92731887       0.00000000 </v>
    <v>       0.27423906       0.83335901       0.13037583 </v>
    <v>       0.36819893       0.73939914       0.26075166 </v>
    <v>       0.46215879       0.64543927       0.39112749 </v>
    <v>       0.00030194       0.87150214       0.26075166 </v>
    <v>       0.09426180       0.77754227       0.39112749 </v>
    <v>       0.18822167       0.68358240       0.52150332 </v>
    <v>       0.40634206       0.96546200       0.13037583 </v>
    <v>       0.31238219       0.55942188       0.00000000 </v>
    <v>       0.76092069       0.97878037       0.29519774 </v>
    <v>       0.85488056       0.88482051       0.42557357 </v>
    <v>       0.66696082       0.57274025       0.16482191 </v>
    <v>       0.77423906       0.83335901       0.13037583 </v>
    <v>       0.86819893       0.73939914       0.26075166 </v>
    <v>       0.96215879       0.64543927       0.39112749 </v>
    <v>       0.50030194       0.87150214       0.26075166 </v>
    <v>       0.59426180       0.77754227       0.39112749 </v>
    <v>       0.68822167       0.68358240       0.52150332 </v>
    <v>       0.90634206       0.96546200       0.13037583 </v>
    <v>       0.07287763       0.16682345       0.31134756 </v>
    <v>       0.16683750       0.07286358       0.44172340 </v>
    <v>       0.38495788       0.35474318       0.05059591 </v>
    <v>       0.47891775       0.26078331       0.18097173 </v>
    <v>       0.03023342       0.37768265       0.48558574 </v>
    <v>       0.43627354       0.47164252       0.35520991 </v>
    <v>       0.24835381       0.15956227       0.09445824 </v>
    <v>       0.34231367       0.06560240       0.22483408 </v>
    <v>       0.08013881       0.49134726       0.09445824 </v>
    <v>       0.17409868       0.39738739       0.22483408 </v>
    <v>       0.26805854       0.30342752       0.35520991 </v>
    <v>       0.36201841       0.20946766       0.48558574 </v>
    <v>       0.57287763       0.16682345       0.31134756 </v>
    <v>       0.66683750       0.07286358       0.44172340 </v>
    <v>       0.88495788       0.35474318       0.05059591 </v>
    <v>       0.97891775       0.26078331       0.18097173 </v>
    <v>       0.53023342       0.37768265       0.48558574 </v>
    <v>       0.93627354       0.47164252       0.35520991 </v>
    <v>       0.74835381       0.15956227       0.09445824 </v>
    <v>       0.84231367       0.06560240       0.22483408 </v>
    <v>       0.58013881       0.49134726       0.09445824 </v>
    <v>       0.67409868       0.39738739       0.22483408 </v>
    <v>       0.76805854       0.30342752       0.35520991 </v>
    <v>       0.86201841       0.20946766       0.48558574 </v>
    <v>       0.07287763       0.66682345       0.31134756 </v>
    <v>       0.16683750       0.57286358       0.44172340 </v>
    <v>       0.38495788       0.85474318       0.05059591 </v>
    <v>       0.47891775       0.76078331       0.18097173 </v>
    <v>       0.03023342       0.87768265       0.48558574 </v>
    <v>       0.43627354       0.97164252       0.35520991 </v>
    <v>       0.24835381       0.65956227       0.09445824 </v>
    <v>       0.34231367       0.56560240       0.22483408 </v>
    <v>       0.08013881       0.99134726       0.09445824 </v>
    <v>       0.17409868       0.89738739       0.22483408 </v>
    <v>       0.26805854       0.80342752       0.35520991 </v>
    <v>       0.36201841       0.70946766       0.48558574 </v>
    <v>       0.57287763       0.66682345       0.31134756 </v>
    <v>       0.66683750       0.57286358       0.44172340 </v>
    <v>       0.88495788       0.85474318       0.05059591 </v>
    <v>       0.97891775       0.76078331       0.18097173 </v>
    <v>       0.53023342       0.87768265       0.48558574 </v>
    <v>       0.93627354       0.97164252       0.35520991 </v>
    <v>       0.74835381       0.65956227       0.09445824 </v>
    <v>       0.84231367       0.56560240       0.22483408 </v>
    <v>       0.58013881       0.99134726       0.09445824 </v>
    <v>       0.67409868       0.89738739       0.22483408 </v>
    <v>       0.76805854       0.80342752       0.35520991 </v>
    <v>       0.86201841       0.70946766       0.48558574 </v>
   </varray>
  </structure>
  <varray name="forces" >
   <v>       0.13281828      -0.14658651      -0.09133486 </v>
   <v>       0.03294799      -0.14864391       0.53345504 </v>
   <v>      -0.18293003       0.09105028      -0.33444448 </v>
   <v>      -0.60334564       0.10083842      -1.66941702 </v>
   <v>       1.07304926       0.56482253       2.01575236 </v>
   <v>      -0.18926900      -0.06787683      -0.22117855 </v>
   <v>      -0.03567354       0.10929396       0.03562772 </v>
   <v>      -0.06612417      -0.02315189       0.39096091 </v>
   <v>      -0.12924999      -0.03329717       0.05381971 </v>
   <v>      -0.05994183      -0.03874699       0.40683278 </v>
   <v>      -0.40476057       0.74760149      -2.04603552 </v>
   <v>       0.03660492       0.21801407      -0.27987758 </v>
   <v>      -0.30212870      -0.99974518       2.03739824 </v>
   <v>       0.16380231      -0.11813244      -0.11514155 </v>
   <v>       0.14065183       0.01220651       0.46568494 </v>
   <v>      -0.32156743      -0.07706702      -0.34695319 </v>
   <v>       0.80365895       0.20187188       2.27074404 </v>
   <v>       0.02477964      -0.17973036      -0.24519887 </v>
   <v>       0.00740427       0.15011859       0.04816918 </v>
   <v>      -0.00189218      -0.08877813       0.16630522 </v>
   <v>      -0.14568710      -0.04795747       0.01765388 </v>
   <v>       0.05248166      -0.15140841       0.36873450 </v>
   <v>      -0.23669512       0.83472226      -2.24857709 </v>
   <v>      -0.13233511       0.35294954      -0.45069154 </v>
   <v>       0.14220628      -0.79262882       2.34553563 </v>
   <v>       0.07075071      -0.09150485      -0.12150241 </v>
   <v>      -0.02672161      -0.09114046       0.31844226 </v>
   <v>       0.20845141      -0.23551588      -2.34372068 </v>
   <v>      -0.18870696       0.09300525      -0.32906619 </v>
   <v>       0.81429029       0.54495012       1.97865379 </v>
   <v>      -0.18956839      -0.08584275      -0.24647116 </v>
   <v>      -0.00445427       0.14684120       0.02015092 </v>
   <v>       0.31731123      -0.06405141       0.24517254 </v>
   <v>      -0.13312561      -0.08776515       0.03390485 </v>
   <v>       0.10297158      -0.16304982       0.16084329 </v>
   <v>      -0.10888147       0.84486638      -2.11959287 </v>
   <v>       0.15717581       0.38331724      -0.29123067 </v>
   <v>      -0.13449135      -1.00638873       1.96841037 </v>
   <v>       0.16251748      -0.19074295      -0.10328300 </v>
   <v>      -0.21370938      -0.16086519       0.37783697 </v>
   <v>      -0.06101592       0.34723404      -0.34653673 </v>
   <v>      -0.41905815      -0.28532163      -0.53310016 </v>
   <v>      -0.01712984       0.16566150       0.06927431 </v>
   <v>       0.02260655       0.00593262       0.41798794 </v>
   <v>      -0.06912867      -0.04274028       0.00931003 </v>
   <v>       0.04735308      -0.39026158       0.28595593 </v>
   <v>      -0.35268696       0.77810988      -2.01812841 </v>
   <v>       0.13726186       0.04779919      -0.27100846 </v>
   <v>       0.01537591      -0.00005322       0.17990390 </v>
   <v>       0.08090685       0.02281055       1.08909966 </v>
   <v>      -0.87101325       0.51002888      -1.67176742 </v>
   <v>       0.00532288       0.01292695      -0.27042536 </v>
   <v>       0.31420010      -0.58798961      -0.31163773 </v>
   <v>       0.06243877      -0.03665566       0.25954865 </v>
   <v>       0.44984479       0.08871467      -0.69062416 </v>
   <v>       0.02516356       0.01203256       0.07141981 </v>
   <v>       0.06824544      -0.43860596      -0.60813834 </v>
   <v>       0.00643785      -0.05537936      -0.00294285 </v>
   <v>       0.13123084       0.02749160       0.05145388 </v>
   <v>      -0.06749984       0.05334507       0.17644043 </v>
   <v>      -0.02562616      -0.01946501       0.23603732 </v>
   <v>       0.00198295       0.38939933       0.73959101 </v>
   <v>      -1.10140540      -0.41629081      -0.76706079 </v>
   <v>       0.01940743       0.00278498      -0.25492298 </v>
   <v>       0.26384850      -0.77803012      -0.27721812 </v>
   <v>      -0.05853420      -0.04742231       0.15321675 </v>
   <v>       0.44476958      -0.06311801      -0.71579835 </v>
   <v>      -0.02789135       0.03178896      -0.19644127 </v>
   <v>       0.22277860      -0.40607896      -0.75071795 </v>
   <v>      -0.01918717      -0.00965572      -0.19527673 </v>
   <v>       0.01578424       0.10455661      -0.00987469 </v>
   <v>       0.14955937      -0.46972766       0.91326923 </v>
   <v>      -0.01999532      -0.01166765       0.20046357 </v>
   <v>      -0.13805134       0.25911165       0.73337264 </v>
   <v>      -0.88036227       0.49212996      -1.60860211 </v>
   <v>      -0.03919093      -0.02653329      -0.21328715 </v>
   <v>       0.44975830      -0.37347096       0.61153597 </v>
   <v>       0.07799023      -0.02713793       0.20846516 </v>
   <v>       0.35577441       0.13864971      -0.65749760 </v>
   <v>       0.03707739       0.02920060      -0.00495203 </v>
   <v>       0.07609085      -0.37040589      -0.55549852 </v>
   <v>       0.03274724      -0.02054129      -0.03296753 </v>
   <v>       0.04882432      -0.01470520      -0.03633027 </v>
   <v>      -0.15362742       0.43559740       1.60363049 </v>
   <v>      -0.09563510       0.00376352       0.08064310 </v>
   <v>       0.07807965       0.19385911       0.68530626 </v>
   <v>      -0.10922070       1.29934715      -0.67759774 </v>
   <v>      -0.00951152      -0.02413404      -0.24834724 </v>
   <v>      -0.21257751      -0.63533380       0.89629685 </v>
   <v>       0.02760827      -0.05435826       0.22362205 </v>
   <v>       0.30383104       0.11651816       0.64783031 </v>
   <v>       0.05907973      -0.03283715      -0.06471925 </v>
   <v>       0.03843602      -0.30595055       0.53868065 </v>
   <v>       0.04953819      -0.03742371       0.00628117 </v>
   <v>       0.10007436       0.05348251       0.07344930 </v>
   <v>      -0.10369456       0.05316708       0.17296163 </v>
  </varray>
  <varray name="stress" >
   <v>     -15.11264196       0.11722711      -4.63018209 </v>
   <v>       0.11722663     -12.84722661       4.90274879 </v>
   <v>      -4.63018201       4.90274850     -35.64504811 </v>
  </varray>
  <energy>
   <i name="e_fr_energy">   -469.90040229 </i>
   <i name="e_wo_entrp">   -468.42517688 </i>
   <i name="e_0_energy">   -469.16278959 </i>
  </energy>
  <time name="totalsc">  175.30  175.82</time>
  <eigenvalues>
   <array>
    <dimension dim="1">band</dimension>
    <dimension dim="2">kpoint</dimension>
    <dimension dim="3">spin</dimension>
    <field>eigene</field>
    <field>occ</field>
    <set>
     <set comment="spin 1">
      <set comment="kpoint 1">
       <r>  -62.3278    1.0000 </r>
       <r>  -62.3148    1.0000 </r>
       <r>  -62.2980    1.0000 </r>
       <r>  -62.2948    1.0000 </r>
       <r>  -62.2948    1.0000 </r>
       <r>  -62.2927    1.0000 </r>
       <r>  -62.2857    1.0000 </r>
       <r>  -62.2833    1.0000 </r>
       <r>  -62.2823    1.0000 </r>
       <r>  -62.2803    1.0000 </r>
       <r>  -62.2802    1.0000 </r>
       <r>  -62.2801    1.0000 </r>
       <r>  -62.2784    1.0000 </r>
       <r>  -62.2757    1.0000 </r>
       <r>  -62.2693    1.0000 </r>
       <r>  -62.2683    1.0000 </r>
       <r>  -62.2671    1.0000 </r>
       <r>  -62.2616    1.0000 </r>
       <r>  -62.2616    1.0000 </r>
       <r>  -62.2610    1.0000 </r>
       <r>  -62.2610    1.0000 </r>
       <r>  -62.2585    1.0000 </r>
       <r>  -62.2582    1.0000 </r>
       <r>  -62.2579    1.0000 </r>
       <r>  -62.2551    1.0000 </r>
       <r>  -62.2536    1.0000 </r>
       <r>  -62.2523    1.0000 </r>
       <r>  -62.2494    1.0000 </r>
       <r>  -62.2472    1.0000 </r>
       <r>  -62.2461    1.0000 </r>
       <r>  -62.2460    1.0000 </r>
       <r>  -62.2449    1.0000 </r>
       <r>  -62.2442    1.0000 </r>
       <r>  -62.2425    1.0000 </r>
       <r>  -62.2399    1.0000 </r>
       <r>  -62.2348    1.0000 </r>
       <r>  -62.2309    1.0000 </r>
       <r>  -62.2290    1.0000 </r>
       <r>  -62.2283    1.0000 </r>
       <r>  -62.2264    1.0000 </r>
       <r>  -62.2260    1.0000 </r>
       <r>  -62.2255    1.0000 </r>
       <r>  -62.2244    1.0000 </r>
       <r>  -62.2233    1.0000 </r>
       <r>  -62.2199    1.0000 </r>
       <r>  -62.2176    1.0000 </r>
       <r>  -62.2156    1.0000 </r>
       <r>  -62.2134    1.0000 </r>
       <r>  -62.2102    1.0000 </r>
       <r>  -62.2086    1.0000 </r>
       <r>  -62.2062    1.0000 </r>
       <r>  -62.2058    1.0000 </r>
       <r>  -62.2033    1.0000 </r>
       <r>  -62.2010    1.0000 </r>
       <r>  -62.2006    1.0000 </r>
       <r>  -62.1965    1.0000 </r>
       <r>  -62.1946    1.0000 </r>
       <r>  -62.1945    1.0000 </r>
       <r>  -62.1942    1.0000 </r>
       <r>  -62.1927    1.0000 </r>
       <r>  -62.1926    1.0000 </r>
       <r>  -62.1918    1.0000 </r>
       <r>  -62.1904    1.0000 </r>
       <r>  -62.1900    1.0000 </r>
       <r>  -62.1900    1.0000 </r>
       <r>  -62.1888    1.0000 </r>
       <r>  -62.1869    1.0000 </r>
       <r>  -62.1764    1.0000 </r>
       <r>  -62.1671    1.0000 </r>
       <r>  -62.1666    1.0000 </r>
       <r>  -62.1660    1.0000 </r>
       <r>  -62.1635    1.0000 </r>
       <r>  -62.1567    1.0000 </r>
       <r>  -62.1288    1.0000 </r>
       <r>  -62.1125    1.0000 </r>
       <r>  -62.1116    1.0000 </r>
       <r>  -62.1060    1.0000 </r>
       <r>  -62.1028    1.0000 </r>
       <r>  -62.0921    1.0000 </r>
       <r>  -62.0898    1.0000 </r>
       <r>  -62.0734    1.0000 </r>
       <r>  -62.0702    1.0000 </r>
       <r>  -62.0654    1.0000 </r>
       <r>  -62.0615    1.0000 </r>
       <r>  -62.0591    1.0000 </r>
       <r>  -62.0581    1.0000 </r>
       <r>  -62.0490    1.0000 </r>
       <r>  -62.0457    1.0000 </r>
       <r>  -62.0445    1.0000 </r>
       <r>  -62.0415    1.0000 </r>
       <r>  -62.0407    1.0000 </r>
       <r>  -62.0373    1.0000 </r>
       <r>  -62.0364    1.0000 </r>
       <r>  -62.0363    1.0000 </r>
       <r>  -62.0330    1.0000 </r>
       <r>  -62.0262    1.0000 </r>
       <r>  -62.0261    1.0000 </r>
       <r>  -62.0215    1.0000 </r>
       <r>  -62.0135    1.0000 </r>
       <r>  -61.9922    1.0000 </r>
       <r>  -61.9873    1.0000 </r>
       <r>  -61.9827    1.0000 </r>
       <r>  -61.9819    1.0000 </r>
       <r>  -61.9790    1.0000 </r>
       <r>  -61.9775    1.0000 </r>
       <r>  -61.9750    1.0000 </r>
       <r>  -61.9698    1.0000 </r>
       <r>  -61.9659    1.0000 </r>
       <r>  -61.7401    1.0000 </r>
       <r>  -61.7078    1.0000 </r>
       <r>  -61.6835    1.0000 </r>
       <r>  -61.6301    1.0000 </r>
       <r>  -61.6131    1.0000 </r>
       <r>  -61.5841    1.0000 </r>
       <r>  -61.5727    1.0000 </r>
       <r>  -61.5411    1.0000 </r>
       <r>  -61.5197    1.0000 </r>
       <r>  -61.5078    1.0000 </r>
       <r>  -61.4942    1.0000 </r>
       <r>  -61.4829    1.0000 </r>
       <r>  -61.4402    1.0000 </r>
       <r>  -61.4358    1.0000 </r>
       <r>  -61.4298    1.0000 </r>
       <r>  -61.3481    1.0000 </r>
       <r>  -61.2561    1.0000 </r>
       <r>  -61.0171    1.0000 </r>
       <r>  -61.0138    1.0000 </r>
       <r>  -60.9886    1.0000 </r>
       <r>  -60.9835    1.0000 </r>
       <r>  -60.9813    1.0000 </r>
       <r>  -60.9372    1.0000 </r>
       <r>  -60.9211    1.0000 </r>
       <r>  -60.9159    1.0000 </r>
       <r>  -60.9098    1.0000 </r>
       <r>  -60.9092    1.0000 </r>
       <r>  -60.8992    1.0000 </r>
       <r>  -60.8710    1.0000 </r>
       <r>  -60.8696    1.0000 </r>
       <r>  -60.7765    1.0000 </r>
       <r>  -60.7760    1.0000 </r>
       <r>  -60.7489    1.0000 </r>
       <r>  -60.7134    1.0000 </r>
       <r>  -60.5059    1.0000 </r>
       <r>  -60.4959    1.0000 </r>
       <r>  -13.6049    1.0000 </r>
       <r>  -12.9763    1.0000 </r>
       <r>  -12.8850    1.0000 </r>
       <r>  -12.8762    1.0000 </r>
       <r>  -12.8188    1.0000 </r>
       <r>  -12.6413    1.0000 </r>
       <r>  -12.6072    1.0000 </r>
       <r>  -12.5176    1.0000 </r>
       <r>  -12.3569    1.0000 </r>
       <r>  -12.3228    1.0000 </r>
       <r>  -12.2755    1.0000 </r>
       <r>  -12.1686    1.0000 </r>
       <r>  -12.1278    1.0000 </r>
       <r>  -12.0345    1.0000 </r>
       <r>  -12.0255    1.0000 </r>
       <r>  -11.9228    1.0000 </r>
       <r>  -11.8923    1.0000 </r>
       <r>  -11.8781    1.0000 </r>
       <r>  -11.8596    1.0000 </r>
       <r>  -11.7991    1.0000 </r>
       <r>  -11.7150    1.0000 </r>
       <r>  -11.6741    1.0000 </r>
       <r>  -11.6678    1.0000 </r>
       <r>  -11.6591    1.0000 </r>
       <r>  -11.6448    1.0000 </r>
       <r>  -11.5591    1.0000 </r>
       <r>  -11.5090    1.0000 </r>
       <r>  -11.4734    1.0000 </r>
       <r>  -11.4496    1.0000 </r>
       <r>  -11.4117    1.0000 </r>
       <r>  -11.3766    1.0000 </r>
       <r>  -11.3530    1.0000 </r>
       <r>  -11.3137    1.0000 </r>
       <r>  -11.1945    1.0000 </r>
       <r>  -11.1558    1.0000 </r>
       <r>  -11.1470    1.0000 </r>
       <r>  -11.0983    1.0000 </r>
       <r>  -11.0535    1.0000 </r>
       <r>  -11.0041    1.0000 </r>
       <r>  -10.9807    1.0000 </r>
       <r>  -10.9475    1.0000 </r>
       <r>  -10.7137    1.0000 </r>
       <r>  -10.6893    1.0000 </r>
       <r>  -10.6228    1.0000 </r>
       <r>  -10.5822    1.0000 </r>
       <r>  -10.5196    1.0000 </r>
       <r>  -10.4350    1.0000 </r>
       <r>  -10.2844    1.0000 </r>
       <r>   -5.4023    1.0000 </r>
       <r>   -5.3870    1.0000 </r>
       <r>   -5.3519    1.0000 </r>
       <r>   -5.3355    1.0000 </r>
       <r>   -5.3175    1.0000 </r>
       <r>   -5.2853    1.0000 </r>
       <r>   -4.9506    1.0000 </r>
       <r>   -4.8433    1.0000 </r>
       <r>   -4.8230    1.0000 </r>
       <r>   -4.6732    1.0000 </r>
       <r>   -4.6437    1.0000 </r>
       <r>   -4.6174    1.0000 </r>
       <r>   -4.5277    1.0000 </r>
       <r>   -4.5053    1.0000 </r>
       <r>   -4.4569    1.0000 </r>
       <r>   -4.4311    1.0000 </r>
       <r>   -4.4139    1.0000 </r>
       <r>   -4.3968    1.0000 </r>
       <r>   -4.3643    1.0000 </r>
       <r>   -4.3463    1.0000 </r>
       <r>   -4.2767    1.0000 </r>
       <r>   -4.2645    1.0000 </r>
       <r>   -4.2631    1.0000 </r>
       <r>   -4.2265    1.0000 </r>
       <r>   -4.2062    1.0000 </r>
       <r>   -4.1477    1.0000 </r>
       <r>   -4.1159    1.0000 </r>
       <r>   -4.0785    1.0000 </r>
       <r>   -4.0332    1.0000 </r>
       <r>   -3.9752    1.0000 </r>
       <r>   -3.9361    1.0000 </r>
       <r>   -3.8997    1.0000 </r>
       <r>   -3.8814    1.0000 </r>
       <r>   -3.8459    1.0000 </r>
       <r>   -3.8103    1.0000 </r>
       <r>   -3.7879    1.0000 </r>
       <r>   -3.7589    1.0000 </r>
       <r>   -3.6775    1.0000 </r>
       <r>   -3.6600    1.0000 </r>
       <r>   -3.5542    1.0000 </r>
       <r>   -3.5491    1.0000 </r>
       <r>   -3.5250    1.0000 </r>
       <r>   -3.5102    1.0000 </r>
       <r>   -3.4413    1.0000 </r>
       <r>   -3.4310    1.0000 </r>
       <r>   -3.3540    1.0000 </r>
       <r>   -3.2997    1.0000 </r>
       <r>   -3.2728    1.0000 </r>
       <r>   -3.2422    1.0000 </r>
       <r>   -3.2327    1.0000 </r>
       <r>   -3.2093    1.0000 </r>
       <r>   -3.1773    1.0000 </r>
       <r>   -3.1553    1.0000 </r>
       <r>   -3.1328    1.0000 </r>
       <r>   -3.0752    1.0000 </r>
       <r>   -3.0560    1.0000 </r>
       <r>   -3.0110    1.0000 </r>
       <r>   -2.9916    1.0000 </r>
       <r>   -2.9569    1.0000 </r>
       <r>   -2.9126    1.0000 </r>
       <r>   -2.8964    1.0000 </r>
       <r>   -2.8761    1.0000 </r>
       <r>   -2.8576    1.0000 </r>
       <r>   -2.8527    1.0000 </r>
       <r>   -2.8449    1.0000 </r>
       <r>   -2.8353    1.0000 </r>
       <r>   -2.7961    1.0000 </r>
       <r>   -2.7899    1.0000 </r>
       <r>   -2.7407    1.0000 </r>
       <r>   -2.7266    1.0000 </r>
       <r>   -2.7163    1.0000 </r>
       <r>   -2.6589    1.0000 </r>
       <r>   -2.6403    1.0000 </r>
       <r>   -2.6154    1.0000 </r>
       <r>   -2.5963    1.0000 </r>
       <r>   -2.5733    1.0000 </r>
       <r>   -2.5426    1.0000 </r>
       <r>   -2.5356    1.0000 </r>
       <r>   -2.5173    1.0000 </r>
       <r>   -2.4909    1.0000 </r>
       <r>   -2.4676    1.0000 </r>
       <r>   -2.4434    1.0000 </r>
       <r>   -2.4185    1.0000 </r>
       <r>   -2.3653    1.0000 </r>
       <r>   -2.3640    1.0000 </r>
       <r>   -2.3355    1.0000 </r>
       <r>   -2.3216    1.0000 </r>
       <r>   -2.2937    1.0000 </r>
       <r>   -2.2837    1.0000 </r>
       <r>   -2.2652    1.0000 </r>
       <r>   -2.2624    1.0000 </r>
       <r>   -2.2227    1.0000 </r>
       <r>   -2.2194    1.0000 </r>
       <r>   -2.2029    1.0000 </r>
       <r>   -2.1733    1.0000 </r>
       <r>   -2.1537    1.0000 </r>
       <r>   -2.1509    1.0000 </r>
       <r>   -2.1388    1.0000 </r>
       <r>   -2.1353    1.0000 </r>
       <r>   -2.0984    1.0000 </r>
       <r>   -2.0716    1.0000 </r>
       <r>   -2.0612    1.0000 </r>
       <r>   -2.0556    1.0000 </r>
       <r>   -2.0328    1.0000 </r>
       <r>   -2.0237    1.0000 </r>
       <r>   -2.0041    1.0000 </r>
       <r>   -1.9736    1.0000 </r>
       <r>   -1.9661    1.0000 </r>
       <r>   -1.9564    1.0000 </r>
       <r>   -1.9382    1.0000 </r>
       <r>   -1.9083    1.0000 </r>
       <r>   -1.8582    1.0000 </r>
       <r>   -1.8264    1.0000 </r>
       <r>   -1.7854    1.0000 </r>
       <r>   -1.7439    1.0000 </r>
       <r>   -1.7077    1.0000 </r>
       <r>   -1.6943    1.0000 </r>
       <r>   -1.6596    1.0000 </r>
       <r>   -1.6389    1.0000 </r>
       <r>   -1.5797    1.0000 </r>
       <r>   -1.5669    1.0000 </r>
       <r>   -1.5226    1.0000 </r>
       <r>   -1.4996    1.0000 </r>
       <r>   -1.4906    1.0000 </r>
       <r>   -1.4594    1.0000 </r>
       <r>   -1.4502    1.0000 </r>
       <r>   -1.4245    1.0000 </r>
       <r>   -1.3920    1.0000 </r>
       <r>   -1.3558    1.0000 </r>
       <r>   -1.3486    1.0000 </r>
       <r>   -1.2698    1.0000 </r>
       <r>   -1.2454    1.0000 </r>
       <r>   -1.2154    1.0000 </r>
       <r>   -1.1781    1.0000 </r>
       <r>   -1.1563    1.0000 </r>
       <r>   -1.1003    1.0000 </r>
       <r>   -1.0697    1.0000 </r>
       <r>   -1.0450    1.0000 </r>
       <r>   -1.0287    1.0000 </r>
       <r>   -0.9687    1.0000 </r>
       <r>   -0.9542    1.0000 </r>
       <r>   -0.9524    1.0000 </r>
       <r>   -0.9383    1.0000 </r>
       <r>   -0.9214    1.0000 </r>
       <r>   -0.9062    1.0000 </r>
       <r>   -0.8678    1.0000 </r>
       <r>   -0.8187    1.0000 </r>
       <r>   -0.8020    1.0000 </r>
       <r>   -0.7481    1.0000 </r>
       <r>   -0.7358    1.0000 </r>
       <r>   -0.6951    1.0000 </r>
       <r>   -0.6654    1.0000 </r>
       <r>   -0.6530    1.0000 </r>
       <r>   -0.6293    1.0000 </r>
       <r>   -0.5808    1.0000 </r>
       <r>   -0.5680    1.0000 </r>
       <r>   -0.5658    1.0000 </r>
       <r>   -0.5612    1.0000 </r>
       <r>   -0.5258    1.0000 </r>
       <r>   -0.5071    1.0000 </r>
       <r>   -0.5039    1.0000 </r>
       <r>   -0.4823    1.0000 </r>
       <r>   -0.4675    1.0000 </r>
       <r>   -0.4618    1.0000 </r>
       <r>   -0.4378    1.0000 </r>
       <r>   -0.4324    1.0000 </r>
       <r>   -0.4194    1.0000 </r>
       <r>   -0.4042    1.0000 </r>
       <r>   -0.3967    1.0000 </r>
       <r>   -0.3867    1.0000 </r>
       <r>   -0.3708    1.0000 </r>
       <r>   -0.3616    1.0000 </r>
       <r>   -0.3429    1.0000 </r>
       <r>   -0.3322    1.0000 </r>
       <r>   -0.3123    1.0000 </r>
       <r>   -0.2935    1.0000 </r>
       <r>   -0.2825    1.0000 </r>
       <r>   -0.2811    1.0000 </r>
       <r>   -0.2646    1.0000 </r>
       <r>   -0.2608    1.0000 </r>
       <r>   -0.2511    1.0000 </r>
       <r>   -0.2440    1.0000 </r>
       <r>   -0.2120    1.0000 </r>
       <r>   -0.1969    1.0000 </r>
       <r>   -0.1772    1.0000 </r>
       <r>   -0.1552    1.0000 </r>
       <r>   -0.1450    1.0000 </r>
       <r>   -0.1225    1.0000 </r>
       <r>   -0.1054    1.0000 </r>
       <r>   -0.1034    1.0000 </r>
       <r>   -0.0740    1.0000 </r>
       <r>   -0.0676    1.0000 </r>
       <r>   -0.0484    1.0000 </r>
       <r>   -0.0438    1.0000 </r>
       <r>   -0.0174    1.0000 </r>
       <r>   -0.0095    1.0000 </r>
       <r>    0.0083    1.0000 </r>
       <r>    0.0141    1.0000 </r>
       <r>    0.0188    1.0000 </r>
       <r>    0.0249    1.0000 </r>
       <r>    0.0341    1.0000 </r>
       <r>    0.0419    1.0000 </r>
       <r>    0.0523    1.0000 </r>
       <r>    0.0573    1.0000 </r>
       <r>    0.0735    1.0000 </r>
       <r>    0.0774    1.0000 </r>
       <r>    0.0850    1.0000 </r>
       <r>    0.0930    1.0000 </r>
       <r>    0.0963    1.0000 </r>
       <r>    0.0998    1.0000 </r>
       <r>    0.1084    1.0000 </r>
       <r>    0.1128    1.0000 </r>
       <r>    0.1269    1.0000 </r>
       <r>    0.1326    1.0000 </r>
       <r>    0.1431    1.0000 </r>
       <r>    0.1521    1.0000 </r>
       <r>    0.1590    1.0000 </r>
       <r>    0.1672    1.0000 </r>
       <r>    0.1713    1.0000 </r>
       <r>    0.1794    1.0000 </r>
       <r>    0.1823    1.0000 </r>
       <r>    0.1912    1.0000 </r>
       <r>    0.2031    1.0000 </r>
       <r>    0.2149    1.0000 </r>
       <r>    0.2175    1.0000 </r>
       <r>    0.2252    1.0000 </r>
       <r>    0.2326    1.0000 </r>
       <r>    0.2413    1.0000 </r>
       <r>    0.2423    1.0000 </r>
       <r>    0.2558    1.0000 </r>
       <r>    0.2644    1.0000 </r>
       <r>    0.2700    1.0000 </r>
       <r>    0.2813    1.0000 </r>
       <r>    0.2820    1.0000 </r>
       <r>    0.2931    1.0000 </r>
       <r>    0.3038    1.0000 </r>
       <r>    0.3095    1.0000 </r>
       <r>    0.3160    1.0000 </r>
       <r>    0.3283    1.0000 </r>
       <r>    0.3346    1.0000 </r>
       <r>    0.3428    1.0000 </r>
       <r>    0.3553    1.0000 </r>
       <r>    0.3610    1.0000 </r>
       <r>    0.3684    1.0000 </r>
       <r>    0.3745    1.0000 </r>
       <r>    0.3905    1.0000 </r>
       <r>    0.4050    1.0000 </r>
       <r>    0.4122    1.0000 </r>
       <r>    0.4240    1.0000 </r>
       <r>    0.4302    1.0000 </r>
       <r>    0.4401    1.0000 </r>
       <r>    0.4441    1.0000 </r>
       <r>    0.4690    1.0000 </r>
       <r>    0.4773    1.0000 </r>
       <r>    0.4801    1.0000 </r>
       <r>    0.4962    1.0000 </r>
       <r>    0.5047    1.0000 </r>
       <r>    0.5142    1.0000 </r>
       <r>    0.5199    1.0000 </r>
       <r>    0.5261    1.0000 </r>
       <r>    0.5402    1.0000 </r>
       <r>    0.5667    1.0000 </r>
       <r>    0.5753    1.0000 </r>
       <r>    0.5911    1.0000 </r>
       <r>    0.6048    1.0000 </r>
       <r>    0.6169    1.0000 </r>
       <r>    0.6277    1.0000 </r>
       <r>    0.6413    1.0000 </r>
       <r>    0.6518    1.0000 </r>
       <r>    0.6641    1.0000 </r>
       <r>    0.6756    1.0000 </r>
       <r>    0.6863    1.0000 </r>
       <r>    0.7117    1.0000 </r>
       <r>    0.7215    1.0000 </r>
       <r>    0.7282    1.0000 </r>
       <r>    0.7518    1.0000 </r>
       <r>    0.7582    1.0000 </r>
       <r>    0.7645    1.0000 </r>
       <r>    0.7950    1.0000 </r>
       <r>    0.8060    1.0000 </r>
       <r>    0.8182    1.0000 </r>
       <r>    0.8252    1.0000 </r>
       <r>    0.8497    1.0000 </r>
       <r>    0.8602    1.0000 </r>
       <r>    0.8670    1.0000 </r>
       <r>    0.8812    1.0000 </r>
       <r>    0.9119    1.0000 </r>
       <r>    0.9186    1.0000 </r>
       <r>    0.9321    1.0000 </r>
       <r>    0.9446    1.0000 </r>
       <r>    0.9630    1.0000 </r>
       <r>    0.9734    1.0000 </r>
       <r>    0.9969    1.0000 </r>
       <r>    1.0156    1.0000 </r>
       <r>    1.0328    1.0000 </r>
       <r>    1.0432    1.0000 </r>
       <r>    1.0502    1.0000 </r>
       <r>    1.0757    1.0000 </r>
       <r>    1.0999    1.0000 </r>
       <r>    1.1323    1.0000 </r>
       <r>    1.1410    1.0000 </r>
       <r>    1.1495    1.0000 </r>
       <r>    1.1571    1.0000 </r>
       <r>    1.1733    1.0000 </r>
       <r>    1.1978    1.0000 </r>
       <r>    1.2009    1.0000 </r>
       <r>    1.2336    1.0000 </r>
[...]
       <r>   -57.8564     0.0000   288.0000 </r>
       <r>   -57.5989     0.0000   288.0000 </r>
       <r>   -57.3414     0.0000   288.0000 </r>
       <r>   -57.0839     0.0000   288.0000 </r>
       <r>   -56.8264     0.0000   288.0000 </r>
       <r>   -56.5689     0.0000   288.0000 </r>
       <r>   -56.3114     0.0000   288.0000 </r>
       <r>   -56.0539     0.0000   288.0000 </r>
       <r>   -55.7964     0.0000   288.0000 </r>
       <r>   -55.5388     0.0000   288.0000 </r>
       <r>   -55.2813     0.0000   288.0000 </r>
       <r>   -55.0238     0.0000   288.0000 </r>
       <r>   -54.7663     0.0000   288.0000 </r>
       <r>   -54.5088     0.0000   288.0000 </r>
       <r>   -54.2513     0.0000   288.0000 </r>
       <r>   -53.9938     0.0000   288.0000 </r>
       <r>   -53.7363     0.0000   288.0000 </r>
       <r>   -53.4787     0.0000   288.0000 </r>
       <r>   -53.2212     0.0000   288.0000 </r>
       <r>   -52.9637     0.0000   288.0000 </r>
       <r>   -52.7062     0.0000   288.0000 </r>
       <r>   -52.4487     0.0000   288.0000 </r>
       <r>   -52.1912     0.0000   288.0000 </r>
       <r>   -51.9337     0.0000   288.0000 </r>
       <r>   -51.6762     0.0000   288.0000 </r>
       <r>   -51.4187     0.0000   288.0000 </r>
       <r>   -51.1611     0.0000   288.0000 </r>
       <r>   -50.9036     0.0000   288.0000 </r>
       <r>   -50.6461     0.0000   288.0000 </r>
       <r>   -50.3886     0.0000   288.0000 </r>
       <r>   -50.1311     0.0000   288.0000 </r>
       <r>   -49.8736     0.0000   288.0000 </r>
       <r>   -49.6161     0.0000   288.0000 </r>
       <r>   -49.3586     0.0000   288.0000 </r>
       <r>   -49.1011     0.0000   288.0000 </r>
       <r>   -48.8435     0.0000   288.0000 </r>
       <r>   -48.5860     0.0000   288.0000 </r>
       <r>   -48.3285     0.0000   288.0000 </r>
       <r>   -48.0710     0.0000   288.0000 </r>
       <r>   -47.8135     0.0000   288.0000 </r>
       <r>   -47.5560     0.0000   288.0000 </r>
       <r>   -47.2985     0.0000   288.0000 </r>
       <r>   -47.0410     0.0000   288.0000 </r>
       <r>   -46.7835     0.0000   288.0000 </r>
       <r>   -46.5259     0.0000   288.0000 </r>
       <r>   -46.2684     0.0000   288.0000 </r>
       <r>   -46.0109     0.0000   288.0000 </r>
       <r>   -45.7534     0.0000   288.0000 </r>
       <r>   -45.4959     0.0000   288.0000 </r>
       <r>   -45.2384     0.0000   288.0000 </r>
       <r>   -44.9809     0.0000   288.0000 </r>
       <r>   -44.7234     0.0000   288.0000 </r>
       <r>   -44.4658     0.0000   288.0000 </r>
       <r>   -44.2083     0.0000   288.0000 </r>
       <r>   -43.9508     0.0000   288.0000 </r>
       <r>   -43.6933     0.0000   288.0000 </r>
       <r>   -43.4358     0.0000   288.0000 </r>
       <r>   -43.1783     0.0000   288.0000 </r>
       <r>   -42.9208     0.0000   288.0000 </r>
       <r>   -42.6633     0.0000   288.0000 </r>
       <r>   -42.4058     0.0000   288.0000 </r>
       <r>   -42.1482     0.0000   288.0000 </r>
       <r>   -41.8907     0.0000   288.0000 </r>
       <r>   -41.6332     0.0000   288.0000 </r>
       <r>   -41.3757     0.0000   288.0000 </r>
       <r>   -41.1182     0.0000   288.0000 </r>
       <r>   -40.8607     0.0000   288.0000 </r>
       <r>   -40.6032     0.0000   288.0000 </r>
       <r>   -40.3457     0.0000   288.0000 </r>
       <r>   -40.0882     0.0000   288.0000 </r>
       <r>   -39.8306     0.0000   288.0000 </r>
       <r>   -39.5731     0.0000   288.0000 </r>
       <r>   -39.3156     0.0000   288.0000 </r>
       <r>   -39.0581     0.0000   288.0000 </r>
       <r>   -38.8006     0.0000   288.0000 </r>
       <r>   -38.5431     0.0000   288.0000 </r>
       <r>   -38.2856     0.0000   288.0000 </r>
       <r>   -38.0281     0.0000   288.0000 </r>
       <r>   -37.7705     0.0000   288.0000 </r>
       <r>   -37.5130     0.0000   288.0000 </r>
       <r>   -37.2555     0.0000   288.0000 </r>
       <r>   -36.9980     0.0000   288.0000 </r>
       <r>   -36.7405     0.0000   288.0000 </r>
       <r>   -36.4830     0.0000   288.0000 </r>
       <r>   -36.2255     0.0000   288.0000 </r>
       <r>   -35.9680     0.0000   288.0000 </r>
       <r>   -35.7105     0.0000   288.0000 </r>
       <r>   -35.4529     0.0000   288.0000 </r>
       <r>   -35.1954     0.0000   288.0000 </r>
       <r>   -34.9379     0.0000   288.0000 </r>
       <r>   -34.6804     0.0000   288.0000 </r>
       <r>   -34.4229     0.0000   288.0000 </r>
       <r>   -34.1654     0.0000   288.0000 </r>
       <r>   -33.9079     0.0000   288.0000 </r>
       <r>   -33.6504     0.0000   288.0000 </r>
       <r>   -33.3929     0.0000   288.0000 </r>
       <r>   -33.1353     0.0000   288.0000 </r>
       <r>   -32.8778     0.0000   288.0000 </r>
       <r>   -32.6203     0.0000   288.0000 </r>
       <r>   -32.3628     0.0000   288.0000 </r>
       <r>   -32.1053     0.0000   288.0000 </r>
       <r>   -31.8478     0.0000   288.0000 </r>
       <r>   -31.5903     0.0000   288.0000 </r>
       <r>   -31.3328     0.0000   288.0000 </r>
       <r>   -31.0752     0.0000   288.0000 </r>
       <r>   -30.8177     0.0000   288.0000 </r>
       <r>   -30.5602     0.0000   288.0000 </r>
       <r>   -30.3027     0.0000   288.0000 </r>
       <r>   -30.0452     0.0000   288.0000 </r>
       <r>   -29.7877     0.0000   288.0000 </r>
       <r>   -29.5302     0.0000   288.0000 </r>
       <r>   -29.2727     0.0000   288.0000 </r>
       <r>   -29.0152     0.0000   288.0000 </r>
       <r>   -28.7576     0.0000   288.0000 </r>
       <r>   -28.5001     0.0000   288.0000 </r>
       <r>   -28.2426     0.0000   288.0000 </r>
       <r>   -27.9851     0.0000   288.0000 </r>
       <r>   -27.7276     0.0000   288.0000 </r>
       <r>   -27.4701     0.0000   288.0000 </r>
       <r>   -27.2126     0.0000   288.0000 </r>
       <r>   -26.9551     0.0000   288.0000 </r>
       <r>   -26.6976     0.0000   288.0000 </r>
       <r>   -26.4400     0.0000   288.0000 </r>
       <r>   -26.1825     0.0000   288.0000 </r>
       <r>   -25.9250     0.0000   288.0000 </r>
       <r>   -25.6675     0.0000   288.0000 </r>
       <r>   -25.4100     0.0000   288.0000 </r>
       <r>   -25.1525     0.0000   288.0000 </r>
       <r>   -24.8950     0.0000   288.0000 </r>
       <r>   -24.6375     0.0000   288.0000 </r>
       <r>   -24.3800     0.0000   288.0000 </r>
       <r>   -24.1224     0.0000   288.0000 </r>
       <r>   -23.8649     0.0000   288.0000 </r>
       <r>   -23.6074     0.0000   288.0000 </r>
       <r>   -23.3499     0.0000   288.0000 </r>
       <r>   -23.0924     0.0000   288.0000 </r>
       <r>   -22.8349     0.0000   288.0000 </r>
       <r>   -22.5774     0.0000   288.0000 </r>
       <r>   -22.3199     0.0000   288.0000 </r>
       <r>   -22.0623     0.0000   288.0000 </r>
       <r>   -21.8048     0.0000   288.0000 </r>
       <r>   -21.5473     0.0000   288.0000 </r>
       <r>   -21.2898     0.0000   288.0000 </r>
       <r>   -21.0323     0.0000   288.0000 </r>
       <r>   -20.7748     0.0000   288.0000 </r>
       <r>   -20.5173     0.0000   288.0000 </r>
       <r>   -20.2598     0.0000   288.0000 </r>
       <r>   -20.0023     0.0000   288.0000 </r>
       <r>   -19.7447     0.0000   288.0000 </r>
       <r>   -19.4872     0.0000   288.0000 </r>
       <r>   -19.2297     0.0000   288.0000 </r>
       <r>   -18.9722     0.0000   288.0000 </r>
       <r>   -18.7147     0.0000   288.0000 </r>
       <r>   -18.4572     0.0000   288.0000 </r>
       <r>   -18.1997     0.0000   288.0000 </r>
       <r>   -17.9422     0.0000   288.0000 </r>
       <r>   -17.6847     0.0000   288.0000 </r>
       <r>   -17.4271     0.0000   288.0000 </r>
       <r>   -17.1696     0.0000   288.0000 </r>
       <r>   -16.9121     0.0000   288.0000 </r>
       <r>   -16.6546     0.0000   288.0000 </r>
       <r>   -16.3971     0.0000   288.0000 </r>
       <r>   -16.1396     0.0000   288.0000 </r>
       <r>   -15.8821     0.0000   288.0000 </r>
       <r>   -15.6246     0.0000   288.0000 </r>
       <r>   -15.3670     0.0000   288.0000 </r>
       <r>   -15.1095     0.0000   288.0000 </r>
       <r>   -14.8520     0.0000   288.0000 </r>
       <r>   -14.5945     0.0000   288.0000 </r>
       <r>   -14.3370     0.0000   288.0000 </r>
       <r>   -14.0795     0.0031   288.0008 </r>
       <r>   -13.8220     0.4817   288.1248 </r>
       <r>   -13.5645     4.2731   289.2252 </r>
       <r>   -13.3070     2.9700   289.9900 </r>
       <r>   -13.0494     4.6188   291.1794 </r>
       <r>   -12.7919    20.3930   296.4308 </r>
       <r>   -12.5344    22.4006   302.1992 </r>
       <r>   -12.2769    24.3949   308.4812 </r>
       <r>   -12.0194    32.7049   316.9031 </r>
       <r>   -11.7619    45.1878   328.5395 </r>
       <r>   -11.5044    52.1823   341.9770 </r>
       <r>   -11.2469    47.8435   354.2972 </r>
       <r>   -10.9894    42.0119   365.1158 </r>
       <r>   -10.7318    27.7560   372.2633 </r>
       <r>   -10.4743    27.1383   379.2517 </r>
       <r>   -10.2168    15.3205   383.1969 </r>
       <r>    -9.9593     3.0317   383.9776 </r>
       <r>    -9.7018     0.0868   384.0000 </r>
       <r>    -9.4443     0.0001   384.0000 </r>
       <r>    -9.1868     0.0000   384.0000 </r>
       <r>    -8.9293     0.0000   384.0000 </r>
       <r>    -8.6717     0.0000   384.0000 </r>
       <r>    -8.4142     0.0000   384.0000 </r>
       <r>    -8.1567     0.0000   384.0000 </r>
       <r>    -7.8992     0.0000   384.0000 </r>
       <r>    -7.6417     0.0000   384.0000 </r>
       <r>    -7.3842     0.0000   384.0000 </r>
       <r>    -7.1267     0.0000   384.0000 </r>
       <r>    -6.8692     0.0000   384.0000 </r>
       <r>    -6.6117     0.0000   384.0000 </r>
       <r>    -6.3541     0.0000   384.0000 </r>
       <r>    -6.0966     0.0000   384.0000 </r>
       <r>    -5.8391     0.0181   384.0047 </r>
       <r>    -5.5816     2.5363   384.6578 </r>
       <r>    -5.3241    23.6169   390.7394 </r>
       <r>    -5.0666    21.5217   396.2815 </r>
       <r>    -4.8091    17.6091   400.8160 </r>
       <r>    -4.5516    35.5795   409.9782 </r>
       <r>    -4.2941    59.9805   425.4238 </r>
       <r>    -4.0365    58.9310   440.5992 </r>
       <r>    -3.7790    53.1871   454.2955 </r>
       <r>    -3.5215    49.8438   467.1309 </r>
       <r>    -3.2640    55.0147   481.2978 </r>
       <r>    -3.0065    67.7554   498.7456 </r>
       <r>    -2.7490    83.6578   520.2884 </r>
       <r>    -2.4915    86.3992   542.5372 </r>
       <r>    -2.2340    97.6812   567.6913 </r>
       <r>    -1.9765   108.0165   595.5068 </r>
       <r>    -1.7189    76.7197   615.2630 </r>
       <r>    -1.4614    68.5674   632.9199 </r>
       <r>    -1.2039    65.4719   649.7796 </r>
       <r>    -0.9464    68.8057   667.4979 </r>
       <r>    -0.6889    77.5784   687.4752 </r>
       <r>    -0.4314   112.5692   716.4631 </r>
       <r>    -0.1739   144.5338   753.6822 </r>
       <r>     0.0836   182.7731   800.7483 </r>
       <r>     0.3412   235.2169   861.3194 </r>
       <r>     0.5987   193.6203   911.1788 </r>
       <r>     0.8562   150.0662   949.8226 </r>
       <r>     1.1137   130.0151   983.3030 </r>
       <r>     1.3712   125.3538  1015.5830 </r>
       <r>     1.6287   106.3066  1042.9582 </r>
       <r>     1.8862    77.5369  1062.9249 </r>
       <r>     2.1437    61.8440  1078.8504 </r>
       <r>     2.4012    67.4907  1096.2301 </r>
       <r>     2.6588    91.3091  1119.7432 </r>
       <r>     2.9163    86.0210  1141.8946 </r>
       <r>     3.1738    46.2973  1153.8167 </r>
       <r>     3.4313    22.3814  1159.5801 </r>
       <r>     3.6888    10.0220  1162.1609 </r>
       <r>     3.9463    10.3753  1164.8327 </r>
       <r>     4.2038     8.9984  1167.1499 </r>
       <r>     4.4613    10.2738  1169.7955 </r>
       <r>     4.7188     9.8732  1172.3379 </r>
       <r>     4.9764     7.7645  1174.3374 </r>
       <r>     5.2339    13.6260  1177.8462 </r>
       <r>     5.4914    19.1024  1182.7653 </r>
       <r>     5.7489    19.1701  1187.7018 </r>
       <r>     6.0064    24.8326  1194.0965 </r>
       <r>     6.2639    37.1533  1203.6639 </r>
       <r>     6.5214    37.6658  1213.3633 </r>
       <r>     6.7789    42.9642  1224.4271 </r>
       <r>     7.0365    38.3859  1234.3119 </r>
       <r>     7.2940    44.5272  1245.7782 </r>
       <r>     7.5515    53.7248  1259.6129 </r>
       <r>     7.8090    51.8959  1272.9767 </r>
       <r>     8.0665    24.9799  1279.4093 </r>
       <r>     8.3240     2.2756  1279.9953 </r>
       <r>     8.5815     0.0182  1280.0000 </r>
       <r>     8.8390     0.0000  1280.0000 </r>
       <r>     9.0965     0.0000  1280.0000 </r>
       <r>     9.3541     0.0000  1280.0000 </r>
       <r>     9.6116     0.0000  1280.0000 </r>
       <r>     9.8691     0.0000  1280.0000 </r>
       <r>    10.1266     0.0000  1280.0000 </r>
       <r>    10.3841     0.0000  1280.0000 </r>
       <r>    10.6416     0.0000  1280.0000 </r>
       <r>    10.8991     0.0000  1280.0000 </r>
       <r>    11.1566     0.0000  1280.0000 </r>
       <r>    11.4141     0.0000  1280.0000 </r>
      </set>
     </set>
    </array>
   </total>
  </dos>
 </calculation>
 <structure name="finalpos" >
  <crystal>
   <varray name="basis" >
    <v>      10.06282034       5.04456212       0.00000000 </v>
    <v>       0.00000000      11.25646304       0.00000000 </v>
    <v>       0.00000000       0.00000000      22.51995597 </v>
   </varray>
   <i name="volume">   2550.87516496 </i>
   <varray name="rec_basis" >
    <v>       0.09937572       0.00000000       0.00000000 </v>
    <v>      -0.04453504       0.08883785       0.00000000 </v>
    <v>       0.00000000       0.00000000       0.04440506 </v>
   </varray>
  </crystal>
  <varray name="positions" >
   <v>       0.26092069       0.47878037       0.29519774 </v>
   <v>       0.35488056       0.38482051       0.42557357 </v>
   <v>       0.16696082       0.07274025       0.16482191 </v>
   <v>       0.05611868       0.05147941       0.52150332 </v>
   <v>       0.18027919       0.42731887       0.00000000 </v>
   <v>       0.27423906       0.33335901       0.13037583 </v>
   <v>       0.36819893       0.23939914       0.26075166 </v>
   <v>       0.46215879       0.14543927       0.39112749 </v>
   <v>       0.00030194       0.37150214       0.26075166 </v>
   <v>       0.09426180       0.27754227       0.39112749 </v>
   <v>       0.18822167       0.18358240       0.52150332 </v>
   <v>       0.40634206       0.46546200       0.13037583 </v>
   <v>       0.31238219       0.05942188       0.00000000 </v>
   <v>       0.76092069       0.47878037       0.29519774 </v>
   <v>       0.85488056       0.38482051       0.42557357 </v>
   <v>       0.66696082       0.07274025       0.16482191 </v>
   <v>       0.68027919       0.42731887       0.00000000 </v>
   <v>       0.77423906       0.33335901       0.13037583 </v>
   <v>       0.86819893       0.23939914       0.26075166 </v>
   <v>       0.96215879       0.14543927       0.39112749 </v>
   <v>       0.50030194       0.37150214       0.26075166 </v>
   <v>       0.59426180       0.27754227       0.39112749 </v>
   <v>       0.68822167       0.18358240       0.52150332 </v>
   <v>       0.90634206       0.46546200       0.13037583 </v>
   <v>       0.81238219       0.05942188       0.00000000 </v>
   <v>       0.26092069       0.97878037       0.29519774 </v>
   <v>       0.35488056       0.88482051       0.42557357 </v>
   <v>       0.44884042       0.79086064       0.55594940 </v>
   <v>       0.16696082       0.57274025       0.16482191 </v>
   <v>       0.18027919       0.92731887       0.00000000 </v>
   <v>       0.27423906       0.83335901       0.13037583 </v>
   <v>       0.36819893       0.73939914       0.26075166 </v>
   <v>       0.46215879       0.64543927       0.39112749 </v>
   <v>       0.00030194       0.87150214       0.26075166 </v>
   <v>       0.09426180       0.77754227       0.39112749 </v>
   <v>       0.18822167       0.68358240       0.52150332 </v>
   <v>       0.40634206       0.96546200       0.13037583 </v>
   <v>       0.31238219       0.55942188       0.00000000 </v>
   <v>       0.76092069       0.97878037       0.29519774 </v>
   <v>       0.85488056       0.88482051       0.42557357 </v>
   <v>       0.66696082       0.57274025       0.16482191 </v>
   <v>       0.77423906       0.83335901       0.13037583 </v>
   <v>       0.86819893       0.73939914       0.26075166 </v>
   <v>       0.96215879       0.64543927       0.39112749 </v>
   <v>       0.50030194       0.87150214       0.26075166 </v>
   <v>       0.59426180       0.77754227       0.39112749 </v>
   <v>       0.68822167       0.68358240       0.52150332 </v>
   <v>       0.90634206       0.96546200       0.13037583 </v>
   <v>       0.07287763       0.16682345       0.31134756 </v>
   <v>       0.16683750       0.07286358       0.44172340 </v>
   <v>       0.38495788       0.35474318       0.05059591 </v>
   <v>       0.47891775       0.26078331       0.18097173 </v>
   <v>       0.03023342       0.37768265       0.48558574 </v>
   <v>       0.43627354       0.47164252       0.35520991 </v>
   <v>       0.24835381       0.15956227       0.09445824 </v>
   <v>       0.34231367       0.06560240       0.22483408 </v>
   <v>       0.08013881       0.49134726       0.09445824 </v>
   <v>       0.17409868       0.39738739       0.22483408 </v>
   <v>       0.26805854       0.30342752       0.35520991 </v>
   <v>       0.36201841       0.20946766       0.48558574 </v>
   <v>       0.57287763       0.16682345       0.31134756 </v>
   <v>       0.66683750       0.07286358       0.44172340 </v>
   <v>       0.88495788       0.35474318       0.05059591 </v>
   <v>       0.97891775       0.26078331       0.18097173 </v>
   <v>       0.53023342       0.37768265       0.48558574 </v>
   <v>       0.93627354       0.47164252       0.35520991 </v>
   <v>       0.74835381       0.15956227       0.09445824 </v>
   <v>       0.84231367       0.06560240       0.22483408 </v>
   <v>       0.58013881       0.49134726       0.09445824 </v>
   <v>       0.67409868       0.39738739       0.22483408 </v>
   <v>       0.76805854       0.30342752       0.35520991 </v>
   <v>       0.86201841       0.20946766       0.48558574 </v>
   <v>       0.07287763       0.66682345       0.31134756 </v>
   <v>       0.16683750       0.57286358       0.44172340 </v>
   <v>       0.38495788       0.85474318       0.05059591 </v>
   <v>       0.47891775       0.76078331       0.18097173 </v>
   <v>       0.03023342       0.87768265       0.48558574 </v>
   <v>       0.43627354       0.97164252       0.35520991 </v>
   <v>       0.24835381       0.65956227       0.09445824 </v>
   <v>       0.34231367       0.56560240       0.22483408 </v>
   <v>       0.08013881       0.99134726       0.09445824 </v>
   <v>       0.17409868       0.89738739       0.22483408 </v>
   <v>       0.26805854       0.80342752       0.35520991 </v>
   <v>       0.36201841       0.70946766       0.48558574 </v>
   <v>       0.57287763       0.66682345       0.31134756 </v>
   <v>       0.66683750       0.57286358       0.44172340 </v>
   <v>       0.88495788       0.85474318       0.05059591 </v>
   <v>       0.97891775       0.76078331       0.18097173 </v>
   <v>       0.53023342       0.87768265       0.48558574 </v>
   <v>       0.93627354       0.97164252       0.35520991 </v>
   <v>       0.74835381       0.65956227       0.09445824 </v>
   <v>       0.84231367       0.56560240       0.22483408 </v>
   <v>       0.58013881       0.99134726       0.09445824 </v>
   <v>       0.67409868       0.89738739       0.22483408 </v>
   <v>       0.76805854       0.80342752       0.35520991 </v>
   <v>       0.86201841       0.70946766       0.48558574 </v>
  </varray>
 </structure>
</modeling>
