<?xml version="1.0" encoding="ISO-8859-1"?>
<modeling>
 <generator>
  <i name="program" type="string">vasp </i>
  <i name="version" type="string">5.4.4.18Apr17-6-g9f103f2a35  </i>
  <i name="subversion" type="string">(build Aug 13 2019 17:33:20) gamma-only         parallel </i>
  <i name="platform" type="string">LinuxIFC </i>
  <i name="date" type="string">2020 05 11 </i>
  <i name="time" type="string">15:25:48 </i>
 </generator>
 <incar>
  <i type="string" name="SYSTEM">"Millerite NiS"</i>
  <i type="string" name="PREC">normal</i>
  <i type="int" name="NSIM">     4</i>
  <i type="int" name="NELM">   100</i>
  <i name="ENCUT">    450.00000000</i>
  <i type="string" name="LREAL">A</i>
  <i type="int" name="ISMEAR">     0</i>
  <i type="int" name="NWRITE">     2</i>
  <i type="logical" name="LWAVE"> F  </i>
  <i type="logical" name="LCHARG"> F  </i>
  <v type="int" name="KPOINT_BSE">    -1     0     0     0</v>
  <i type="int" name="NELM">   100</i>
 </incar>
 <structure name="primitive_cell" >
  <crystal>
   <varray name="basis" >
    <v>      11.25646304       0.00000000       0.00000000 </v>
    <v>       5.04456212      10.06282034       0.00000000 </v>
    <v>       0.00000000       0.00000000      22.51995597 </v>
   </varray>
   <i name="volume">   2550.87516496 </i>
   <varray name="rec_basis" >
    <v>       0.08883785      -0.04453504       0.00000000 </v>
    <v>       0.00000000       0.09937572       0.00000000 </v>
    <v>       0.00000000       0.00000000       0.04440506 </v>
   </varray>
  </crystal>
  <varray name="positions" >
   <v>       0.26092069       0.47878037       0.29519774 </v>
   <v>       0.07287763      -0.33317655       0.31134757 </v>
   <v>       0.17409868       0.39738739       0.22483408 </v>
   <v>       0.34231367      -0.43439760       0.22483408 </v>
   <v>       0.26805854       0.30342752       0.35520991 </v>
   <v>       0.43627354       0.47164252       0.35520991 </v>
   <v>       0.36819893       0.23939914       0.26075166 </v>
   <v>      -0.49969806       0.37150214       0.26075166 </v>
   <v>       0.35488056       0.38482050       0.42557357 </v>
   <v>       0.16696083      -0.42725975       0.16482191 </v>
   <v>       0.16683750      -0.42713642       0.44172340 </v>
   <v>       0.47891775       0.26078331       0.18097174 </v>
   <v>      -0.42712237       0.16682345       0.31134757 </v>
   <v>       0.00030194       0.37150214       0.26075166 </v>
   <v>       0.09426180      -0.22245773       0.39112749 </v>
   <v>      -0.03784121      -0.35456073       0.39112749 </v>
   <v>       0.36819893      -0.26060086       0.26075166 </v>
   <v>      -0.06372646       0.47164252       0.35520991 </v>
   <v>       0.26805854      -0.19657248       0.35520991 </v>
   <v>       0.40634206       0.46546200       0.13037583 </v>
   <v>       0.27423906       0.33335901       0.13037583 </v>
   <v>       0.46215879       0.14543927       0.39112749 </v>
   <v>      -0.40573820       0.27754227       0.39112749 </v>
   <v>       0.09426180       0.27754227       0.39112749 </v>
   <v>       0.46215879      -0.35456073       0.39112749 </v>
   <v>       0.00030194      -0.12849786       0.26075166 </v>
   <v>      -0.13180107      -0.26060086       0.26075166 </v>
   <v>      -0.02108225      -0.23921669       0.18097174 </v>
   <v>       0.08030836       0.47886472       0.11387517 </v>
   <v>       0.25955712      -0.34326130       0.11228535 </v>
   <v>       0.34231367       0.06560240       0.22483408 </v>
   <v>      -0.32590132       0.39738739       0.22483408 </v>
   <v>      -0.15768633      -0.43439760       0.22483408 </v>
   <v>       0.17409868      -0.10261261       0.22483408 </v>
   <v>      -0.48151947       0.40271851       0.46799083 </v>
   <v>       0.07287763       0.16682345       0.31134757 </v>
   <v>      -0.42712237      -0.33317655       0.31134757 </v>
   <v>       0.41783463       0.21831679       0.48184382 </v>
   <v>       0.23724878       0.22126854       0.47204771 </v>
   <v>       0.18895458      -0.29124948       0.49301789 </v>
   <v>       0.03008646      -0.44064022       0.49521932 </v>
   <v>       0.36328786      -0.28323525       0.47314750 </v>
   <v>      -0.06372646      -0.02835748       0.35520991 </v>
   <v>      -0.23194146      -0.19657248       0.35520991 </v>
   <v>      -0.23194146       0.30342752       0.35520991 </v>
   <v>       0.43627354      -0.02835748       0.35520991 </v>
   <v>       0.34952947       0.39038564       0.06206088 </v>
   <v>       0.03023342       0.37768265       0.48558574 </v>
   <v>      -0.02108225       0.26078331       0.18097174 </v>
   <v>       0.47891775      -0.23921669       0.18097174 </v>
   <v>       0.27423906      -0.16664099       0.13037583 </v>
   <v>      -0.09365794       0.46546200       0.13037583 </v>
   <v>       0.25803709       0.15836060       0.10797316 </v>
   <v>      -0.33303918       0.07274025       0.16482191 </v>
   <v>      -0.14511944      -0.11517949       0.42557357 </v>
   <v>       0.26092069      -0.02121963       0.29519774 </v>
   <v>      -0.23907931       0.47878037       0.29519774 </v>
   <v>       0.01964388      -0.13001034       0.47152888 </v>
   <v>      -0.13573475      -0.27905387       0.47047521 </v>
   <v>      -0.45047679      -0.43495756       0.48820620 </v>
   <v>       0.17928676       0.08310766       0.43080985 </v>
   <v>      -0.41986119       0.49134726       0.09445824 </v>
   <v>      -0.33316250       0.07286358       0.44172340 </v>
   <v>      -0.33145298      -0.42724202       0.42195243 </v>
   <v>       0.16696082       0.07274025       0.16482191 </v>
   <v>      -0.14511944       0.38482050       0.42557357 </v>
   <v>       0.35488056      -0.11517949       0.42557357 </v>
   <v>      -0.23907931      -0.02121963       0.29519774 </v>
   <v>      -0.33303917      -0.42725975       0.16482191 </v>
   <v>      -0.33686741       0.22222854       0.49335963 </v>
   <v>      -0.49969806      -0.12849786       0.26075166 </v>
   <v>      -0.13180107       0.23939914       0.26075166 </v>
   <v>      -0.46826380       0.01424393       0.47829854 </v>
   <v>      -0.15768633       0.06560240       0.22483408 </v>
   <v>      -0.32590132      -0.10261261       0.22483408 </v>
   <v>      -0.09365794      -0.03453800       0.13037583 </v>
   <v>      -0.22576094      -0.16664099       0.13037583 </v>
   <v>      -0.22576094       0.33335901       0.13037583 </v>
   <v>       0.40634206      -0.03453800       0.13037583 </v>
   <v>      -0.03784121       0.14543927       0.39112749 </v>
   <v>      -0.40573820      -0.22245773       0.39112749 </v>
   <v>       0.02931581       0.19775381       0.48864676 </v>
   <v>       0.08178406      -0.01857863       0.10792925 </v>
   <v>      -0.41660617      -0.01813052       0.10727501 </v>
   <v>      -0.24890131       0.16198695       0.10320705 </v>
   <v>      -0.46601342      -0.29012950       0.09022253 </v>
   <v>      -0.11474641      -0.14527086       0.06247688 </v>
   <v>      -0.25164619      -0.34043773       0.09445824 </v>
   <v>      -0.15891042       0.22367265       0.46902129 </v>
   <v>      -0.31584534       0.31774683       0.04003319 </v>
   <v>      -0.47477733      -0.16163979       0.47573949 </v>
   <v>       0.37210933      -0.13294212       0.05654039 </v>
   <v>       0.20249243       0.03758088       0.05936600 </v>
   <v>      -0.28537410       0.02366117       0.05775021 </v>
   <v>      -0.26985759      -0.48757544       0.04986709 </v>
   <v>      -0.13238429       0.32013858       0.04985730 </v>
  </varray>
 </structure>
 <varray name="primitive_index" >
  <v type="int" >        1 </v>
  <v type="int" >       73 </v>
  <v type="int" >       58 </v>
  <v type="int" >       80 </v>
  <v type="int" >       59 </v>
  <v type="int" >       54 </v>
  <v type="int" >        5 </v>
  <v type="int" >       20 </v>
  <v type="int" >        2 </v>
  <v type="int" >       27 </v>
  <v type="int" >       74 </v>
  <v type="int" >       52 </v>
  <v type="int" >       61 </v>
  <v type="int" >        7 </v>
  <v type="int" >       34 </v>
  <v type="int" >       44 </v>
  <v type="int" >       31 </v>
  <v type="int" >       66 </v>
  <v type="int" >       83 </v>
  <v type="int" >       10 </v>
  <v type="int" >        4 </v>
  <v type="int" >        6 </v>
  <v type="int" >       21 </v>
  <v type="int" >        8 </v>
  <v type="int" >       32 </v>
  <v type="int" >       33 </v>
  <v type="int" >       43 </v>
  <v type="int" >       88 </v>
  <v type="int" >       57 </v>
  <v type="int" >       79 </v>
  <v type="int" >       56 </v>
  <v type="int" >       70 </v>
  <v type="int" >       92 </v>
  <v type="int" >       82 </v>
  <v type="int" >       65 </v>
  <v type="int" >       49 </v>
  <v type="int" >       85 </v>
  <v type="int" >       60 </v>
  <v type="int" >        9 </v>
  <v type="int" >       35 </v>
  <v type="int" >       28 </v>
  <v type="int" >       84 </v>
  <v type="int" >       90 </v>
  <v type="int" >       95 </v>
  <v type="int" >       71 </v>
  <v type="int" >       78 </v>
  <v type="int" >       51 </v>
  <v type="int" >       53 </v>
  <v type="int" >       64 </v>
  <v type="int" >       76 </v>
  <v type="int" >       30 </v>
  <v type="int" >       23 </v>
  <v type="int" >       55 </v>
  <v type="int" >       14 </v>
  <v type="int" >       38 </v>
  <v type="int" >       25 </v>
  <v type="int" >       11 </v>
  <v type="int" >       77 </v>
  <v type="int" >       96 </v>
  <v type="int" >       41 </v>
  <v type="int" >       50 </v>
  <v type="int" >       69 </v>
  <v type="int" >       62 </v>
  <v type="int" >       86 </v>
  <v type="int" >        3 </v>
  <v type="int" >       12 </v>
  <v type="int" >       26 </v>
  <v type="int" >       37 </v>
  <v type="int" >       40 </v>
  <v type="int" >       22 </v>
  <v type="int" >       45 </v>
  <v type="int" >       18 </v>
  <v type="int" >       15 </v>
  <v type="int" >       68 </v>
  <v type="int" >       94 </v>
  <v type="int" >       47 </v>
  <v type="int" >       42 </v>
  <v type="int" >       17 </v>
  <v type="int" >       36 </v>
  <v type="int" >       19 </v>
  <v type="int" >       46 </v>
  <v type="int" >       13 </v>
  <v type="int" >       81 </v>
  <v type="int" >       93 </v>
  <v type="int" >       67 </v>
  <v type="int" >       39 </v>
  <v type="int" >       87 </v>
  <v type="int" >       91 </v>
  <v type="int" >       72 </v>
  <v type="int" >       16 </v>
  <v type="int" >       89 </v>
  <v type="int" >       75 </v>
  <v type="int" >       29 </v>
  <v type="int" >       24 </v>
  <v type="int" >       48 </v>
  <v type="int" >       63 </v>
 </varray>
 <kpoints>
  <generation param="Gamma">
   <v type="int" name="divisions">       1        1        1 </v>
   <v name="usershift">      0.00000000       0.00000000       0.00000000 </v>
   <v name="genvec1">      1.00000000       0.00000000       0.00000000 </v>
   <v name="genvec2">      0.00000000       1.00000000       0.00000000 </v>
   <v name="genvec3">      0.00000000       0.00000000       1.00000000 </v>
   <v name="shift">      0.00000000       0.00000000       0.00000000 </v>
  </generation>
  <varray name="kpointlist" >
   <v>       0.00000000       0.00000000       0.00000000 </v>
  </varray>
  <varray name="weights" >
   <v>       1.00000000 </v>
  </varray>
 </kpoints>
 <parameters>
  <separator name="general" >
   <i type="string" name="SYSTEM">"Millerite NiS"</i>
   <i type="logical" name="LCOMPAT"> F  </i>
  </separator>
  <separator name="electronic" >
   <i type="string" name="PREC">normal</i>
   <i name="ENMAX">    450.00000000</i>
   <i name="ENAUG">    703.44300000</i>
   <i name="EDIFF">      0.00010000</i>
   <i type="int" name="IALGO">    38</i>
   <i type="int" name="IWAVPR">    10</i>
   <i type="int" name="NBANDS">   634</i>
   <i name="NELECT">   1056.00000000</i>
   <i type="int" name="TURBO">     0</i>
   <i type="int" name="IRESTART">     0</i>
   <i type="int" name="NREBOOT">     0</i>
   <i type="int" name="NMIN">     0</i>
   <i name="EREF">      0.00000000</i>
   <separator name="electronic smearing" >
    <i type="int" name="ISMEAR">     0</i>
    <i name="SIGMA">      0.20000000</i>
    <i name="KSPACING">      0.50000000</i>
    <i type="logical" name="KGAMMA"> T  </i>
   </separator>
   <separator name="electronic projectors" >
    <i type="logical" name="LREAL"> T  </i>
    <v name="ROPT">     -0.00050000     -0.00050000</v>
    <i type="int" name="LMAXPAW">  -100</i>
    <i type="int" name="LMAXMIX">     2</i>
    <i type="logical" name="NLSPLINE"> F  </i>
   </separator>
   <separator name="electronic startup" >
    <i type="int" name="ISTART">     0</i>
    <i type="int" name="ICHARG">     2</i>
    <i type="int" name="INIWAV">     1</i>
   </separator>
   <separator name="electronic spin" >
    <i type="int" name="ISPIN">     1</i>
    <i type="logical" name="LNONCOLLINEAR"> F  </i>
    <v name="MAGMOM">      1.00000000      1.00000000      1.00000000      1.00000000      1.00000000      1.00000000      1.00000000      1.00000000      1.00000000      1.00000000      1.00000000      1.00000000      1.00000000      1.00000000      1.00000000      1.00000000      1.00000000      1.00000000      1.00000000      1.00000000
      1.00000000      1.00000000      1.00000000      1.00000000      1.00000000      1.00000000      1.00000000      1.00000000      1.00000000      1.00000000      1.00000000      1.00000000      1.00000000      1.00000000      1.00000000      1.00000000      1.00000000      1.00000000      1.00000000      1.00000000
      1.00000000      1.00000000      1.00000000      1.00000000      1.00000000      1.00000000      1.00000000      1.00000000      1.00000000      1.00000000      1.00000000      1.00000000      1.00000000      1.00000000      1.00000000      1.00000000      1.00000000      1.00000000      1.00000000      1.00000000
      1.00000000      1.00000000      1.00000000      1.00000000      1.00000000      1.00000000      1.00000000      1.00000000      1.00000000      1.00000000      1.00000000      1.00000000      1.00000000      1.00000000      1.00000000      1.00000000      1.00000000      1.00000000      1.00000000      1.00000000
      1.00000000      1.00000000      1.00000000      1.00000000      1.00000000      1.00000000      1.00000000      1.00000000      1.00000000      1.00000000      1.00000000      1.00000000      1.00000000      1.00000000      1.00000000      1.00000000</v>
    <i name="NUPDOWN">     -1.00000000</i>
    <i type="logical" name="LSORBIT"> F  </i>
    <v name="SAXIS">      0.00000000      0.00000000      1.00000000</v>
    <i type="logical" name="LSPIRAL"> F  </i>
    <v name="QSPIRAL">      0.00000000      0.00000000      0.00000000</v>
    <i type="logical" name="LZEROZ"> F  </i>
   </separator>
   <separator name="electronic exchange-correlation" >
    <i type="logical" name="LASPH"> F  </i>
    <i type="logical" name="LMETAGGA"> F  </i>
   </separator>
   <separator name="electronic convergence" >
    <i type="int" name="NELM">   100</i>
    <i type="int" name="NELMDL">    -5</i>
    <i type="int" name="NELMIN">     2</i>
    <i name="ENINI">    450.00000000</i>
    <separator name="electronic convergence detail" >
     <i type="logical" name="LDIAG"> T  </i>
     <i type="logical" name="LSUBROT"> F  </i>
     <i name="WEIMIN">      0.00000000</i>
     <i name="EBREAK">      0.00000004</i>
     <i name="DEPER">      0.30000000</i>
     <i type="int" name="NRMM">     4</i>
     <i name="TIME">      0.40000000</i>
    </separator>
   </separator>
   <separator name="electronic mixer" >
    <i name="AMIX">      0.40000000</i>
    <i name="BMIX">      1.00000000</i>
    <i name="AMIN">      0.10000000</i>
    <i name="AMIX_MAG">      1.60000000</i>
    <i name="BMIX_MAG">      1.00000000</i>
    <separator name="electronic mixer details" >
     <i type="int" name="IMIX">     4</i>
     <i type="logical" name="MIXFIRST"> F  </i>
     <i type="int" name="MAXMIX">   -45</i>
     <i name="WC">    100.00000000</i>
     <i type="int" name="INIMIX">     1</i>
     <i type="int" name="MIXPRE">     1</i>
     <i type="int" name="MREMOVE">     5</i>
    </separator>
   </separator>
   <separator name="electronic dipolcorrection" >
    <i type="logical" name="LDIPOL"> F  </i>
    <i type="logical" name="LMONO"> F  </i>
    <i type="int" name="IDIPOL">     0</i>
    <i name="EPSILON">      1.00000000</i>
    <v name="DIPOL">   -100.00000000   -100.00000000   -100.00000000</v>
    <i name="EFIELD">      0.00000000</i>
   </separator>
  </separator>
  <separator name="grids" >
   <i type="int" name="NGX">    60</i>
   <i type="int" name="NGY">    60</i>
   <i type="int" name="NGZ">   120</i>
   <i type="int" name="NGXF">   120</i>
   <i type="int" name="NGYF">   120</i>
   <i type="int" name="NGZF">   240</i>
   <i type="logical" name="ADDGRID"> F  </i>
  </separator>
  <separator name="ionic" >
   <i type="int" name="NSW">     0</i>
   <i type="int" name="IBRION">    -1</i>
   <i type="int" name="MDALGO">     0</i>
   <i type="int" name="ISIF">     2</i>
   <i name="PSTRESS">      0.00000000</i>
   <i name="EDIFFG">      0.00100000</i>
   <i type="int" name="NFREE">     0</i>
   <i name="POTIM">      0.50000000</i>
   <i name="SMASS">     -3.00000000</i>
   <i name="SCALEE">      1.00000000</i>
  </separator>
  <separator name="ionic md" >
   <i name="TEBEG">      0.00010000</i>
   <i name="TEEND">      0.00010000</i>
   <i type="int" name="NBLOCK">     1</i>
   <i type="int" name="KBLOCK">     1</i>
   <i type="int" name="NPACO">   256</i>
   <i name="APACO">     16.00000000</i>
  </separator>
  <separator name="symmetry" >
   <i type="int" name="ISYM">     2</i>
   <i name="SYMPREC">      0.00001000</i>
  </separator>
  <separator name="dos" >
   <i type="int" name="LORBIT">     0</i>
   <v name="RWIGS">     -1.00000000     -1.00000000</v>
   <i type="int" name="NEDOS">   301</i>
   <i name="EMIN">     10.00000000</i>
   <i name="EMAX">    -10.00000000</i>
   <i name="EFERMI">      0.00000000</i>
  </separator>
  <separator name="writing" >
   <i type="int" name="NWRITE">     2</i>
   <i type="logical" name="LWAVE"> F  </i>
   <i type="logical" name="LDOWNSAMPLE"> F  </i>
   <i type="logical" name="LCHARG"> F  </i>
   <i type="logical" name="LPARD"> F  </i>
   <i type="logical" name="LVTOT"> F  </i>
   <i type="logical" name="LVHAR"> F  </i>
   <i type="logical" name="LELF"> F  </i>
   <i type="logical" name="LOPTICS"> F  </i>
   <v name="STM">      0.00000000      0.00000000      0.00000000      0.00000000      0.00000000      0.00000000      0.00000000</v>
  </separator>
  <separator name="performance" >
   <i type="int" name="NPAR">     2</i>
   <i type="int" name="NSIM">     4</i>
   <i type="int" name="NBLK">    -1</i>
   <i type="logical" name="LPLANE"> T  </i>
   <i type="logical" name="LSCALAPACK"> T  </i>
   <i type="logical" name="LSCAAWARE"> F  </i>
   <i type="logical" name="LSCALU"> F  </i>
   <i type="logical" name="LASYNC"> F  </i>
   <i type="logical" name="LORBITALREAL"> F  </i>
  </separator>
  <separator name="miscellaneous" >
   <i type="int" name="IDIOT">     3</i>
   <i type="int" name="ISPECIAL">     0</i>
   <i type="logical" name="LMUSIC"> F  </i>
   <v name="POMASS">     58.69000000     32.06600000</v>
   <v name="DARWINR">      0.00000000      0.00000000</v>
   <v name="DARWINV">      1.00000000      1.00000000</v>
   <i type="logical" name="LCORR"> T  </i>
  </separator>
  <i type="logical" name="GGA_COMPAT"> T  </i>
  <i type="logical" name="LBERRY"> F  </i>
  <i type="int" name="ICORELEVEL">     0</i>
  <i type="logical" name="LDAU"> F  </i>
  <i type="int" name="I_CONSTRAINED_M">     0</i>
  <separator name="electronic exchange-correlation" >
   <i type="string" name="GGA">--</i>
   <i type="int" name="VOSKOWN">     0</i>
   <i type="logical" name="LHFCALC"> F  </i>
   <i type="string" name="PRECFOCK"></i>
   <i type="logical" name="LSYMGRAD"> F  </i>
   <i type="logical" name="LHFONE"> F  </i>
   <i type="logical" name="LRHFCALC"> F  </i>
   <i type="logical" name="LTHOMAS"> F  </i>
   <i type="logical" name="LMODELHF"> F  </i>
   <i name="ENCUT4O">     -1.00000000</i>
   <i type="int" name="EXXOEP">     0</i>
   <i type="int" name="FOURORBIT">     0</i>
   <i name="AEXX">      0.00000000</i>
   <i name="HFALPHA">      0.00000000</i>
   <i name="MCALPHA">      0.00000000</i>
   <i name="ALDAX">      1.00000000</i>
   <i name="AGGAX">      1.00000000</i>
   <i name="ALDAC">      1.00000000</i>
   <i name="AGGAC">      1.00000000</i>
   <i type="int" name="NKREDX">     1</i>
   <i type="int" name="NKREDY">     1</i>
   <i type="int" name="NKREDZ">     1</i>
   <i type="logical" name="SHIFTRED"> F  </i>
   <i type="logical" name="ODDONLY"> F  </i>
   <i type="logical" name="EVENONLY"> F  </i>
   <i type="int" name="LMAXFOCK">     0</i>
   <i type="int" name="NMAXFOCKAE">     0</i>
   <i type="logical" name="LFOCKAEDFT"> F  </i>
   <i name="HFSCREEN">      0.00000000</i>
   <i name="HFSCREENC">      0.00000000</i>
   <i type="int" name="NBANDSGWLOW">     0</i>
  </separator>
  <separator name="vdW DFT" >
   <i type="logical" name="LUSE_VDW"> F  </i>
   <i name="Zab_VDW">     -0.84910000</i>
   <i name="PARAM1">      0.12340000</i>
   <i name="PARAM2">      1.00000000</i>
   <i name="PARAM3">      0.00000000</i>
  </separator>
  <separator name="model GW" >
   <i type="int" name="MODEL_GW">     0</i>
   <i name="MODEL_EPS0">     15.94296978</i>
   <i name="MODEL_ALPHA">      1.00000000</i>
  </separator>
  <separator name="linear response parameters" >
   <i type="logical" name="LEPSILON"> F  </i>
   <i type="logical" name="LRPA"> F  </i>
   <i type="logical" name="LNABLA"> F  </i>
   <i type="logical" name="LVEL"> F  </i>
   <i type="int" name="KINTER">     0</i>
   <i name="CSHIFT">      0.10000000</i>
   <i name="OMEGAMAX">     -1.00000000</i>
   <i name="DEG_THRESHOLD">      0.00200000</i>
   <i name="RTIME">     -0.10000000</i>
   <i name="WPLASMAI">      0.00000000</i>
   <v name="DFIELD">      0.00000000      0.00000000      0.00000000</v>
   <v name="WPLASMA">      0.00000000      0.00000000      0.00000000      0.00000000      0.00000000      0.00000000      0.00000000      0.00000000      0.00000000</v>
  </separator>
  <separator name="orbital magnetization" >
   <i type="logical" name="NUCIND"> F  </i>
   <v name="MAGPOS">      0.00000000      0.00000000      0.00000000</v>
   <i type="logical" name="LNICSALL"> T  </i>
   <i type="logical" name="ORBITALMAG"> F  </i>
   <i type="logical" name="LMAGBLOCH"> F  </i>
   <i type="logical" name="LCHIMAG"> F  </i>
   <i type="logical" name="LGAUGE"> T  </i>
   <i type="int" name="MAGATOM">     0</i>
   <v name="MAGDIPOL">      0.00000000      0.00000000      0.00000000</v>
   <v name="AVECCONST">      0.00000000      0.00000000      0.00000000</v>
  </separator>
  <separator name="response functions" >
   <i type="logical" name="LADDER"> F  </i>
   <i type="logical" name="LRPAFORCE"> F  </i>
   <i type="logical" name="LFXC"> F  </i>
   <i type="logical" name="LHARTREE"> T  </i>
   <i type="int" name="IBSE">     0</i>
   <v type="int" name="KPOINT">    -1     0     0     0</v>
   <i type="logical" name="LTCTE"> F  </i>
   <i type="logical" name="LTETE"> F  </i>
   <i type="logical" name="LTRIPLET"> F  </i>
   <i type="logical" name="LFXCEPS"> F  </i>
   <i type="logical" name="LFXHEG"> F  </i>
   <i type="int" name="NATURALO">     2</i>
   <i type="logical" name="L2ORDER"> F  </i>
   <i type="logical" name="LMP2LT"> F  </i>
   <i type="logical" name="LUSEW"> F  </i>
   <i name="ENCUTGW">     -2.00000000</i>
   <i name="ENCUTGWSOFT">     -2.00000000</i>
   <i name="ENCUTLF">     -1.00000000</i>
   <i type="int" name="LMAXMP2">    -1</i>
   <i name="SCISSOR">      0.00000000</i>
   <i type="int" name="NOMEGA">     0</i>
   <i type="int" name="NOMEGAR">     0</i>
   <i type="int" name="NBANDSGW">    -1</i>
   <i type="int" name="NBANDSO">    -1</i>
   <i type="int" name="NBANDSV">    -1</i>
   <i type="int" name="NELM">   100</i>
   <i type="int" name="NELMHF">     1</i>
   <i type="int" name="DIM">     3</i>
   <i type="int" name="ANTIRES">     0</i>
   <i name="OMEGAMAX">    -30.00000000</i>
   <i name="OMEGAMIN">    -30.00000000</i>
   <i name="OMEGATL">   -200.00000000</i>
   <i type="int" name="OMEGAGRID">   140</i>
   <i name="CSHIFT">     -0.10000000</i>
   <i type="logical" name="SELFENERGY"> F  </i>
   <i type="logical" name="LSPECTRAL"> F  </i>
   <i type="logical" name="LSPECTRALGW"> F  </i>
   <i type="logical" name="LSINGLES"> F  </i>
   <i type="logical" name="LFERMIGW"> F  </i>
   <i type="logical" name="ODDONLYGW"> F  </i>
   <i type="logical" name="EVENONLYGW"> F  </i>
   <i type="int" name="NKREDLFX">     1</i>
   <i type="int" name="NKREDLFY">     1</i>
   <i type="int" name="NKREDLFZ">     1</i>
   <i type="int" name="MAXMEM">  2800</i>
   <i type="int" name="TELESCOPE">     0</i>
   <i type="int" name="TAUPAR">     1</i>
   <i type="int" name="OMEGAPAR">    -1</i>
   <i name="LAMBDA">      1.00000000</i>
  </separator>
  <separator name="External order field" >
   <i name="OFIELD_KAPPA">      0.00000000</i>
   <v name="OFIELD_K">      0.00000000      0.00000000      0.00000000</v>
   <i name="OFIELD_Q6_NEAR">      0.00000000</i>
   <i name="OFIELD_Q6_FAR">      0.00000000</i>
   <i name="OFIELD_A">      0.00000000</i>
  </separator>
 </parameters>
 <atominfo>
  <atoms>      96 </atoms>
  <types>       2 </types>
  <array name="atoms" >
   <dimension dim="1">ion</dimension>
   <field type="string">element</field>
   <field type="int">atomtype</field>
   <set>
    <rc><c>Ni</c><c>   1</c></rc>
    <rc><c>Ni</c><c>   1</c></rc>
    <rc><c>Ni</c><c>   1</c></rc>
    <rc><c>Ni</c><c>   1</c></rc>
    <rc><c>Ni</c><c>   1</c></rc>
    <rc><c>Ni</c><c>   1</c></rc>
    <rc><c>Ni</c><c>   1</c></rc>
    <rc><c>Ni</c><c>   1</c></rc>
    <rc><c>Ni</c><c>   1</c></rc>
    <rc><c>Ni</c><c>   1</c></rc>
    <rc><c>Ni</c><c>   1</c></rc>
    <rc><c>Ni</c><c>   1</c></rc>
    <rc><c>Ni</c><c>   1</c></rc>
    <rc><c>Ni</c><c>   1</c></rc>
    <rc><c>Ni</c><c>   1</c></rc>
    <rc><c>Ni</c><c>   1</c></rc>
    <rc><c>Ni</c><c>   1</c></rc>
    <rc><c>Ni</c><c>   1</c></rc>
    <rc><c>Ni</c><c>   1</c></rc>
    <rc><c>Ni</c><c>   1</c></rc>
    <rc><c>Ni</c><c>   1</c></rc>
    <rc><c>Ni</c><c>   1</c></rc>
    <rc><c>Ni</c><c>   1</c></rc>
    <rc><c>Ni</c><c>   1</c></rc>
    <rc><c>Ni</c><c>   1</c></rc>
    <rc><c>Ni</c><c>   1</c></rc>
    <rc><c>Ni</c><c>   1</c></rc>
    <rc><c>Ni</c><c>   1</c></rc>
    <rc><c>Ni</c><c>   1</c></rc>
    <rc><c>Ni</c><c>   1</c></rc>
    <rc><c>Ni</c><c>   1</c></rc>
    <rc><c>Ni</c><c>   1</c></rc>
    <rc><c>Ni</c><c>   1</c></rc>
    <rc><c>Ni</c><c>   1</c></rc>
    <rc><c>Ni</c><c>   1</c></rc>
    <rc><c>Ni</c><c>   1</c></rc>
    <rc><c>Ni</c><c>   1</c></rc>
    <rc><c>Ni</c><c>   1</c></rc>
    <rc><c>Ni</c><c>   1</c></rc>
    <rc><c>Ni</c><c>   1</c></rc>
    <rc><c>Ni</c><c>   1</c></rc>
    <rc><c>Ni</c><c>   1</c></rc>
    <rc><c>Ni</c><c>   1</c></rc>
    <rc><c>Ni</c><c>   1</c></rc>
    <rc><c>Ni</c><c>   1</c></rc>
    <rc><c>Ni</c><c>   1</c></rc>
    <rc><c>Ni</c><c>   1</c></rc>
    <rc><c>Ni</c><c>   1</c></rc>
    <rc><c>S </c><c>   2</c></rc>
    <rc><c>S </c><c>   2</c></rc>
    <rc><c>S </c><c>   2</c></rc>
    <rc><c>S </c><c>   2</c></rc>
    <rc><c>S </c><c>   2</c></rc>
    <rc><c>S </c><c>   2</c></rc>
    <rc><c>S </c><c>   2</c></rc>
    <rc><c>S </c><c>   2</c></rc>
    <rc><c>S </c><c>   2</c></rc>
    <rc><c>S </c><c>   2</c></rc>
    <rc><c>S </c><c>   2</c></rc>
    <rc><c>S </c><c>   2</c></rc>
    <rc><c>S </c><c>   2</c></rc>
    <rc><c>S </c><c>   2</c></rc>
    <rc><c>S </c><c>   2</c></rc>
    <rc><c>S </c><c>   2</c></rc>
    <rc><c>S </c><c>   2</c></rc>
    <rc><c>S </c><c>   2</c></rc>
    <rc><c>S </c><c>   2</c></rc>
    <rc><c>S </c><c>   2</c></rc>
    <rc><c>S </c><c>   2</c></rc>
    <rc><c>S </c><c>   2</c></rc>
    <rc><c>S </c><c>   2</c></rc>
    <rc><c>S </c><c>   2</c></rc>
    <rc><c>S </c><c>   2</c></rc>
    <rc><c>S </c><c>   2</c></rc>
    <rc><c>S </c><c>   2</c></rc>
    <rc><c>S </c><c>   2</c></rc>
    <rc><c>S </c><c>   2</c></rc>
    <rc><c>S </c><c>   2</c></rc>
    <rc><c>S </c><c>   2</c></rc>
    <rc><c>S </c><c>   2</c></rc>
    <rc><c>S </c><c>   2</c></rc>
    <rc><c>S </c><c>   2</c></rc>
    <rc><c>S </c><c>   2</c></rc>
    <rc><c>S </c><c>   2</c></rc>
    <rc><c>S </c><c>   2</c></rc>
    <rc><c>S </c><c>   2</c></rc>
    <rc><c>S </c><c>   2</c></rc>
    <rc><c>S </c><c>   2</c></rc>
    <rc><c>S </c><c>   2</c></rc>
    <rc><c>S </c><c>   2</c></rc>
    <rc><c>S </c><c>   2</c></rc>
    <rc><c>S </c><c>   2</c></rc>
    <rc><c>S </c><c>   2</c></rc>
    <rc><c>S </c><c>   2</c></rc>
    <rc><c>S </c><c>   2</c></rc>
    <rc><c>S </c><c>   2</c></rc>
   </set>
  </array>
  <array name="atomtypes" >
   <dimension dim="1">type</dimension>
   <field type="int">atomspertype</field>
   <field type="string">element</field>
   <field>mass</field>
   <field>valence</field>
   <field type="string">pseudopotential</field>
   <set>
    <rc><c>  48</c><c>Ni</c><c>     58.69000000</c><c>     16.00000000</c><c>  PAW_PBE Ni_pv 06Sep2000               </c></rc>
    <rc><c>  48</c><c>S </c><c>     32.06600000</c><c>      6.00000000</c><c>  PAW_PBE S 06Sep2000                   </c></rc>
   </set>
  </array>
 </atominfo>
 <structure name="initialpos" >
  <crystal>
   <varray name="basis" >
    <v>      11.25646304       0.00000000       0.00000000 </v>
    <v>       5.04456212      10.06282034       0.00000000 </v>
    <v>       0.00000000       0.00000000      22.51995597 </v>
   </varray>
   <i name="volume">   2550.87516496 </i>
   <varray name="rec_basis" >
    <v>       0.08883785      -0.04453504       0.00000000 </v>
    <v>       0.00000000       0.09937572       0.00000000 </v>
    <v>       0.00000000       0.00000000       0.04440506 </v>
   </varray>
  </crystal>
  <varray name="positions" >
   <v>       0.26092069       0.47878037       0.29519774 </v>
   <v>       0.35488056       0.38482050       0.42557357 </v>
   <v>       0.16696082       0.07274025       0.16482191 </v>
   <v>       0.27423906       0.33335901       0.13037583 </v>
   <v>       0.36819893       0.23939914       0.26075166 </v>
   <v>       0.46215879       0.14543927       0.39112749 </v>
   <v>       0.00030194       0.37150214       0.26075166 </v>
   <v>       0.09426180       0.27754227       0.39112749 </v>
   <v>       0.23724878       0.22126854       0.47204771 </v>
   <v>       0.40634206       0.46546200       0.13037583 </v>
   <v>       0.76092069       0.47878037       0.29519774 </v>
   <v>       0.85488056       0.38482050       0.42557357 </v>
   <v>       0.02931581       0.19775381       0.48864676 </v>
   <v>       0.66696082       0.07274025       0.16482191 </v>
   <v>       0.53173620       0.01424393       0.47829854 </v>
   <v>       0.68415466       0.31774683       0.04003319 </v>
   <v>       0.77423906       0.33335901       0.13037583 </v>
   <v>       0.86819893       0.23939914       0.26075166 </v>
   <v>       0.96215879       0.14543927       0.39112749 </v>
   <v>       0.50030194       0.37150214       0.26075166 </v>
   <v>       0.59426180       0.27754227       0.39112749 </v>
   <v>       0.66313259       0.22222854       0.49335963 </v>
   <v>       0.90634206       0.46546200       0.13037583 </v>
   <v>       0.71462590       0.02366117       0.05775021 </v>
   <v>       0.26092069       0.97878037       0.29519774 </v>
   <v>       0.35488056       0.88482051       0.42557357 </v>
   <v>       0.16696083       0.57274025       0.16482191 </v>
   <v>       0.03008646       0.55935978       0.49521932 </v>
   <v>       0.20249243       0.03758088       0.05936600 </v>
   <v>       0.27423906       0.83335901       0.13037583 </v>
   <v>       0.36819893       0.73939914       0.26075166 </v>
   <v>       0.46215879       0.64543927       0.39112749 </v>
   <v>       0.00030194       0.87150214       0.26075166 </v>
   <v>       0.09426180       0.77754227       0.39112749 </v>
   <v>       0.18895458       0.70875052       0.49301789 </v>
   <v>       0.40634206       0.96546200       0.13037583 </v>
   <v>       0.76092069       0.97878037       0.29519774 </v>
   <v>       0.85488056       0.88482051       0.42557357 </v>
   <v>       0.53398658       0.70987050       0.09022253 </v>
   <v>       0.66696083       0.57274025       0.16482191 </v>
   <v>       0.54952321       0.56504244       0.48820620 </v>
   <v>       0.77423906       0.83335901       0.13037583 </v>
   <v>       0.86819893       0.73939914       0.26075166 </v>
   <v>       0.96215879       0.64543927       0.39112749 </v>
   <v>       0.50030194       0.87150214       0.26075166 </v>
   <v>       0.59426180       0.77754227       0.39112749 </v>
   <v>       0.90634206       0.96546200       0.13037583 </v>
   <v>       0.73014241       0.51242456       0.04986709 </v>
   <v>       0.07287763       0.16682345       0.31134757 </v>
   <v>       0.17928676       0.08310766       0.43080985 </v>
   <v>       0.34952947       0.39038564       0.06206088 </v>
   <v>       0.47891775       0.26078331       0.18097174 </v>
   <v>       0.03023342       0.37768265       0.48558574 </v>
   <v>       0.43627354       0.47164252       0.35520991 </v>
   <v>       0.25803709       0.15836060       0.10797316 </v>
   <v>       0.34231367       0.06560240       0.22483408 </v>
   <v>       0.08030836       0.47886472       0.11387517 </v>
   <v>       0.17409868       0.39738739       0.22483408 </v>
   <v>       0.26805854       0.30342752       0.35520991 </v>
   <v>       0.41783463       0.21831679       0.48184382 </v>
   <v>       0.57287763       0.16682345       0.31134757 </v>
   <v>       0.66683750       0.07286358       0.44172340 </v>
   <v>       0.86761571       0.32013858       0.04985730 </v>
   <v>       0.97891775       0.26078331       0.18097174 </v>
   <v>       0.51848053       0.40271851       0.46799083 </v>
   <v>       0.93627354       0.47164252       0.35520991 </v>
   <v>       0.75109869       0.16198695       0.10320705 </v>
   <v>       0.84231367       0.06560240       0.22483408 </v>
   <v>       0.58013881       0.49134726       0.09445824 </v>
   <v>       0.67409868       0.39738739       0.22483408 </v>
   <v>       0.76805854       0.30342752       0.35520991 </v>
   <v>       0.84108958       0.22367265       0.46902129 </v>
   <v>       0.07287763       0.66682345       0.31134757 </v>
   <v>       0.16683750       0.57286358       0.44172340 </v>
   <v>       0.37210933       0.86705788       0.05654039 </v>
   <v>       0.47891775       0.76078331       0.18097174 </v>
   <v>       0.01964388       0.86998966       0.47152888 </v>
   <v>       0.43627354       0.97164252       0.35520991 </v>
   <v>       0.25955712       0.65673870       0.11228535 </v>
   <v>       0.34231367       0.56560240       0.22483408 </v>
   <v>       0.08178406       0.98142137       0.10792925 </v>
   <v>       0.17409868       0.89738739       0.22483408 </v>
   <v>       0.26805854       0.80342752       0.35520991 </v>
   <v>       0.36328786       0.71676475       0.47314750 </v>
   <v>       0.57287763       0.66682345       0.31134757 </v>
   <v>       0.66854702       0.57275798       0.42195243 </v>
   <v>       0.88525359       0.85472914       0.06247688 </v>
   <v>       0.97891775       0.76078331       0.18097174 </v>
   <v>       0.52522267       0.83836021       0.47573949 </v>
   <v>       0.93627354       0.97164252       0.35520991 </v>
   <v>       0.74835381       0.65956227       0.09445824 </v>
   <v>       0.84231367       0.56560240       0.22483408 </v>
   <v>       0.58339383       0.98186948       0.10727501 </v>
   <v>       0.67409868       0.89738739       0.22483408 </v>
   <v>       0.76805854       0.80342752       0.35520991 </v>
   <v>       0.86426525       0.72094613       0.47047521 </v>
  </varray>
 </structure>
 <calculation>
  <scstep>
   <time name="dav">   13.70   13.70</time>
   <time name="total">   14.09   14.10</time>
   <energy>
    <i name="alphaZ">   2592.50432107 </i>
    <i name="ewald"> 332545.25100939 </i>
    <i name="hartreedc">-495776.16819997 </i>
    <i name="XCdc">   4904.83483662 </i>
    <i name="pawpsdc"> 150306.04444553 </i>
    <i name="pawaedc">-156855.34918313 </i>
    <i name="eentropy">     -0.48030169 </i>
    <i name="bandstr">  -5632.56898990 </i>
    <i name="atom"> 181336.80673834 </i>
    <i name="e_fr_energy">  13420.87467628 </i>
    <i name="e_wo_entrp">  13421.35497797 </i>
    <i name="e_0_energy">  13421.11482712 </i>
   </energy>
  </scstep>
  <scstep>
   <time name="dav">   12.09   12.10</time>
   <time name="total">   12.09   12.10</time>
   <energy>
    <i name="e_fr_energy">    858.12937464 </i>
    <i name="e_wo_entrp">    859.16223246 </i>
    <i name="e_0_energy">    858.64580355 </i>
   </energy>
  </scstep>
  <scstep>
   <time name="dav">   12.71   12.72</time>
   <time name="total">   12.71   12.72</time>
   <energy>
    <i name="e_fr_energy">   -449.95139855 </i>
    <i name="e_wo_entrp">   -448.57263624 </i>
    <i name="e_0_energy">   -449.26201739 </i>
   </energy>
  </scstep>
  <scstep>
   <time name="dav">   13.14   13.14</time>
   <time name="total">   13.14   13.14</time>
   <energy>
    <i name="e_fr_energy">   -533.43216823 </i>
    <i name="e_wo_entrp">   -531.98477496 </i>
    <i name="e_0_energy">   -532.70847159 </i>
   </energy>
  </scstep>
  <scstep>
   <time name="dav">   14.57   14.58</time>
   <time name="total">   15.02   15.02</time>
   <energy>
    <i name="e_fr_energy">   -536.73319562 </i>
    <i name="e_wo_entrp">   -535.29427790 </i>
    <i name="e_0_energy">   -536.01373676 </i>
   </energy>
  </scstep>
  <scstep>
   <time name="dav">   13.92   13.92</time>
   <time name="total">   14.73   14.73</time>
   <energy>
    <i name="e_fr_energy">   -632.16604039 </i>
    <i name="e_wo_entrp">   -631.00574361 </i>
    <i name="e_0_energy">   -631.58589200 </i>
   </energy>
  </scstep>
  <scstep>
   <time name="dav">   13.00   13.01</time>
   <time name="total">   13.79   13.79</time>
   <energy>
    <i name="e_fr_energy">   -507.66373912 </i>
    <i name="e_wo_entrp">   -506.56415759 </i>
    <i name="e_0_energy">   -507.11394835 </i>
   </energy>
  </scstep>
  <scstep>
   <time name="dav">   14.77   14.77</time>
   <time name="total">   15.57   15.57</time>
   <energy>
    <i name="e_fr_energy">   -574.65089077 </i>
    <i name="e_wo_entrp">   -573.38694679 </i>
    <i name="e_0_energy">   -574.01891878 </i>
   </energy>
  </scstep>
  <scstep>
   <time name="dav">   14.39   14.39</time>
   <time name="total">   15.44   15.45</time>
   <energy>
    <i name="e_fr_energy">   -554.56195366 </i>
    <i name="e_wo_entrp">   -552.94558092 </i>
    <i name="e_0_energy">   -553.75376729 </i>
   </energy>
  </scstep>
  <scstep>
   <time name="dav">   15.28   15.28</time>
   <time name="total">   16.34   16.34</time>
   <energy>
    <i name="e_fr_energy">   -550.72904994 </i>
    <i name="e_wo_entrp">   -549.23277514 </i>
    <i name="e_0_energy">   -549.98091254 </i>
   </energy>
  </scstep>
  <scstep>
   <time name="dav">   15.00   15.00</time>
   <time name="total">   15.80   15.80</time>
   <energy>
    <i name="e_fr_energy">   -551.16626328 </i>
    <i name="e_wo_entrp">   -549.62083608 </i>
    <i name="e_0_energy">   -550.39354968 </i>
   </energy>
  </scstep>
  <scstep>
   <time name="dav">   14.79   14.80</time>
   <time name="total">   15.70   15.71</time>
   <energy>
    <i name="e_fr_energy">   -510.36265346 </i>
    <i name="e_wo_entrp">   -509.24862893 </i>
    <i name="e_0_energy">   -509.80564119 </i>
   </energy>
  </scstep>
  <scstep>
   <time name="dav">   14.84   14.85</time>
   <time name="total">   15.64   15.64</time>
   <energy>
    <i name="e_fr_energy">   -513.17060443 </i>
    <i name="e_wo_entrp">   -511.99012668 </i>
    <i name="e_0_energy">   -512.58036556 </i>
   </energy>
  </scstep>
  <scstep>
   <time name="dav">   15.06   15.07</time>
   <time name="total">   15.86   15.86</time>
   <energy>
    <i name="e_fr_energy">   -493.74146432 </i>
    <i name="e_wo_entrp">   -492.55454198 </i>
    <i name="e_0_energy">   -493.14800315 </i>
   </energy>
  </scstep>
  <scstep>
   <time name="dav">   15.08   15.08</time>
   <time name="total">   15.87   15.87</time>
   <energy>
    <i name="e_fr_energy">   -482.46394131 </i>
    <i name="e_wo_entrp">   -481.22315140 </i>
    <i name="e_0_energy">   -481.84354635 </i>
   </energy>
  </scstep>
  <scstep>
   <time name="dav">   15.15   15.15</time>
   <time name="total">   15.94   15.95</time>
   <energy>
    <i name="e_fr_energy">   -480.04962219 </i>
    <i name="e_wo_entrp">   -478.83723362 </i>
    <i name="e_0_energy">   -479.44342791 </i>
   </energy>
  </scstep>
  <scstep>
   <time name="dav">   15.07   15.07</time>
   <time name="total">   15.87   15.88</time>
   <energy>
    <i name="e_fr_energy">   -477.23708097 </i>
    <i name="e_wo_entrp">   -476.02894212 </i>
    <i name="e_0_energy">   -476.63301154 </i>
   </energy>
  </scstep>
  <scstep>
   <time name="dav">   13.58   13.58</time>
   <time name="total">   14.64   14.65</time>
   <energy>
    <i name="e_fr_energy">   -476.71495294 </i>
    <i name="e_wo_entrp">   -475.48646660 </i>
    <i name="e_0_energy">   -476.10070977 </i>
   </energy>
  </scstep>
  <scstep>
   <time name="dav">   14.52   14.53</time>
   <time name="total">   15.33   15.34</time>
   <energy>
    <i name="e_fr_energy">   -475.90162091 </i>
    <i name="e_wo_entrp">   -474.66908613 </i>
    <i name="e_0_energy">   -475.28535352 </i>
   </energy>
  </scstep>
  <scstep>
   <time name="dav">   15.77   15.78</time>
   <time name="total">   16.58   16.58</time>
   <energy>
    <i name="e_fr_energy">   -475.16960867 </i>
    <i name="e_wo_entrp">   -473.91751410 </i>
    <i name="e_0_energy">   -474.54356138 </i>
   </energy>
  </scstep>
  <scstep>
   <time name="dav">   15.18   15.18</time>
   <time name="total">   16.00   16.00</time>
   <energy>
    <i name="e_fr_energy">   -473.74542841 </i>
    <i name="e_wo_entrp">   -472.48522699 </i>
    <i name="e_0_energy">   -473.11532770 </i>
   </energy>
  </scstep>
  <scstep>
   <time name="dav">   15.58   15.59</time>
   <time name="total">   16.39   16.40</time>
   <energy>
    <i name="e_fr_energy">   -472.07317666 </i>
    <i name="e_wo_entrp">   -470.78853155 </i>
    <i name="e_0_energy">   -471.43085411 </i>
   </energy>
  </scstep>
  <scstep>
   <time name="dav">   15.02   15.02</time>
   <time name="total">   15.83   15.84</time>
   <energy>
    <i name="e_fr_energy">   -471.45437775 </i>
    <i name="e_wo_entrp">   -470.13846230 </i>
    <i name="e_0_energy">   -470.79642002 </i>
   </energy>
  </scstep>
  <scstep>
   <time name="dav">   14.64   14.65</time>
   <time name="total">   15.47   15.49</time>
   <energy>
    <i name="e_fr_energy">   -471.48239998 </i>
    <i name="e_wo_entrp">   -470.18715539 </i>
    <i name="e_0_energy">   -470.83477768 </i>
   </energy>
  </scstep>
  <scstep>
   <time name="dav">   15.06   15.07</time>
   <time name="total">   15.87   15.88</time>
   <energy>
    <i name="e_fr_energy">   -471.19145311 </i>
    <i name="e_wo_entrp">   -469.84959706 </i>
    <i name="e_0_energy">   -470.52052509 </i>
   </energy>
  </scstep>
  <scstep>
   <time name="dav">   14.66   14.66</time>
   <time name="total">   15.47   15.48</time>
   <energy>
    <i name="e_fr_energy">   -471.00123929 </i>
    <i name="e_wo_entrp">   -469.65631437 </i>
    <i name="e_0_energy">   -470.32877683 </i>
   </energy>
  </scstep>
  <scstep>
   <time name="dav">   15.33   15.34</time>
   <time name="total">   16.15   16.16</time>
   <energy>
    <i name="e_fr_energy">   -470.94648146 </i>
    <i name="e_wo_entrp">   -469.59078612 </i>
    <i name="e_0_energy">   -470.26863379 </i>
   </energy>
  </scstep>
  <scstep>
   <time name="dav">   14.74   14.75</time>
   <time name="total">   15.58   15.59</time>
   <energy>
    <i name="e_fr_energy">   -470.97449363 </i>
    <i name="e_wo_entrp">   -469.60878875 </i>
    <i name="e_0_energy">   -470.29164119 </i>
   </energy>
  </scstep>
  <scstep>
   <time name="dav">   13.55   13.56</time>
   <time name="total">   14.37   14.38</time>
   <energy>
    <i name="e_fr_energy">   -470.93475840 </i>
    <i name="e_wo_entrp">   -469.57935586 </i>
    <i name="e_0_energy">   -470.25705713 </i>
   </energy>
  </scstep>
  <scstep>
   <time name="dav">   13.95   13.96</time>
   <time name="total">   14.80   14.81</time>
   <energy>
    <i name="e_fr_energy">   -470.92404805 </i>
    <i name="e_wo_entrp">   -469.55967372 </i>
    <i name="e_0_energy">   -470.24186088 </i>
   </energy>
  </scstep>
  <scstep>
   <time name="dav">   14.79   14.80</time>
   <time name="total">   15.62   15.62</time>
   <energy>
    <i name="e_fr_energy">   -470.91659768 </i>
    <i name="e_wo_entrp">   -469.56669465 </i>
    <i name="e_0_energy">   -470.24164616 </i>
   </energy>
  </scstep>
  <scstep>
   <time name="dav">   15.08   15.08</time>
   <time name="total">   15.92   15.92</time>
   <energy>
    <i name="e_fr_energy">   -470.90796186 </i>
    <i name="e_wo_entrp">   -469.55662378 </i>
    <i name="e_0_energy">   -470.23229282 </i>
   </energy>
  </scstep>
  <scstep>
   <time name="dav">   14.04   14.04</time>
   <time name="total">   15.14   15.14</time>
   <energy>
    <i name="e_fr_energy">   -470.90769892 </i>
    <i name="e_wo_entrp">   -469.55306067 </i>
    <i name="e_0_energy">   -470.23037979 </i>
   </energy>
  </scstep>
  <scstep>
   <time name="dav">   13.32   13.32</time>
   <time name="total">   14.16   14.17</time>
   <energy>
    <i name="e_fr_energy">   -470.90575353 </i>
    <i name="e_wo_entrp">   -469.55350896 </i>
    <i name="e_0_energy">   -470.22963124 </i>
   </energy>
  </scstep>
  <scstep>
   <time name="dav">   13.66   13.67</time>
   <time name="total">   14.51   14.52</time>
   <energy>
    <i name="e_fr_energy">   -470.90566730 </i>
    <i name="e_wo_entrp">   -469.55282007 </i>
    <i name="e_0_energy">   -470.22924369 </i>
   </energy>
  </scstep>
  <scstep>
   <time name="dav">   14.34   14.35</time>
   <time name="total">   15.35   15.35</time>
   <energy>
    <i name="e_fr_energy">   -470.90580250 </i>
    <i name="e_wo_entrp">   -469.55571711 </i>
    <i name="e_0_energy">   -470.23075980 </i>
   </energy>
  </scstep>
  <scstep>
   <time name="dav">   12.97   12.98</time>
   <time name="total">   13.82   13.83</time>
   <energy>
    <i name="e_fr_energy">   -470.90500011 </i>
    <i name="e_wo_entrp">   -469.55410870 </i>
    <i name="e_0_energy">   -470.22955440 </i>
   </energy>
  </scstep>
  <scstep>
   <time name="dav">   12.10   12.11</time>
   <time name="total">   13.19   13.19</time>
   <energy>
    <i name="e_fr_energy">   -470.90511353 </i>
    <i name="e_wo_entrp">   -469.55348673 </i>
    <i name="e_0_energy">   -470.22930013 </i>
   </energy>
  </scstep>
  <scstep>
   <time name="dav">   12.09   12.09</time>
   <time name="total">   12.95   12.95</time>
   <energy>
    <i name="e_fr_energy">   -470.90551091 </i>
    <i name="e_wo_entrp">   -469.55437938 </i>
    <i name="e_0_energy">   -470.22994515 </i>
   </energy>
  </scstep>
  <scstep>
   <time name="dav">    9.32    9.32</time>
   <time name="total">   10.18   10.19</time>
   <energy>
    <i name="e_fr_energy">   -470.90567413 </i>
    <i name="e_wo_entrp">   -469.55439866 </i>
    <i name="e_0_energy">   -470.23003639 </i>
   </energy>
  </scstep>
  <scstep>
   <time name="dav">    8.21    8.21</time>
   <time name="total">    9.33    9.33</time>
   <energy>
    <i name="e_fr_energy">   -470.90584787 </i>
    <i name="e_wo_entrp">   -469.55479215 </i>
    <i name="e_0_energy">   -470.23032001 </i>
   </energy>
  </scstep>
  <scstep>
   <time name="dav">    8.26    8.26</time>
   <time name="total">    8.65    8.65</time>
   <energy>
    <i name="alphaZ">   2592.50432107 </i>
    <i name="ewald"> 332545.25100939 </i>
    <i name="hartreedc">-494840.77981017 </i>
    <i name="XCdc">   4863.87861434 </i>
    <i name="pawpsdc"> 184240.11418951 </i>
    <i name="pawaedc">-190888.80603869 </i>
    <i name="eentropy">     -1.35084035 </i>
    <i name="bandstr"> -20318.52412577 </i>
    <i name="atom"> 181336.80673834 </i>
    <i name="e_fr_energy">   -470.90594233 </i>
    <i name="e_wo_entrp">   -469.55510197 </i>
    <i name="e_0_energy">   -470.23052215 </i>
   </energy>
  </scstep>
  <structure>
   <crystal>
    <varray name="basis" >
     <v>      11.25646304       0.00000000       0.00000000 </v>
     <v>       5.04456212      10.06282034       0.00000000 </v>
     <v>       0.00000000       0.00000000      22.51995597 </v>
    </varray>
    <i name="volume">   2550.87516496 </i>
    <varray name="rec_basis" >
     <v>       0.08883785      -0.04453504       0.00000000 </v>
     <v>       0.00000000       0.09937572       0.00000000 </v>
     <v>       0.00000000       0.00000000       0.04440506 </v>
    </varray>
   </crystal>
   <varray name="positions" >
    <v>       0.26092069       0.47878037       0.29519774 </v>
    <v>       0.35488056       0.38482050       0.42557357 </v>
    <v>       0.16696082       0.07274025       0.16482191 </v>
    <v>       0.27423906       0.33335901       0.13037583 </v>
    <v>       0.36819893       0.23939914       0.26075166 </v>
    <v>       0.46215879       0.14543927       0.39112749 </v>
    <v>       0.00030194       0.37150214       0.26075166 </v>
    <v>       0.09426180       0.27754227       0.39112749 </v>
    <v>       0.23724878       0.22126854       0.47204771 </v>
    <v>       0.40634206       0.46546200       0.13037583 </v>
    <v>       0.76092069       0.47878037       0.29519774 </v>
    <v>       0.85488056       0.38482050       0.42557357 </v>
    <v>       0.02931581       0.19775381       0.48864676 </v>
    <v>       0.66696082       0.07274025       0.16482191 </v>
    <v>       0.53173620       0.01424393       0.47829854 </v>
    <v>       0.68415466       0.31774683       0.04003319 </v>
    <v>       0.77423906       0.33335901       0.13037583 </v>
    <v>       0.86819893       0.23939914       0.26075166 </v>
    <v>       0.96215879       0.14543927       0.39112749 </v>
    <v>       0.50030194       0.37150214       0.26075166 </v>
    <v>       0.59426180       0.27754227       0.39112749 </v>
    <v>       0.66313259       0.22222854       0.49335963 </v>
    <v>       0.90634206       0.46546200       0.13037583 </v>
    <v>       0.71462590       0.02366117       0.05775021 </v>
    <v>       0.26092069       0.97878037       0.29519774 </v>
    <v>       0.35488056       0.88482051       0.42557357 </v>
    <v>       0.16696083       0.57274025       0.16482191 </v>
    <v>       0.03008646       0.55935978       0.49521932 </v>
    <v>       0.20249243       0.03758088       0.05936600 </v>
    <v>       0.27423906       0.83335901       0.13037583 </v>
    <v>       0.36819893       0.73939914       0.26075166 </v>
    <v>       0.46215879       0.64543927       0.39112749 </v>
    <v>       0.00030194       0.87150214       0.26075166 </v>
    <v>       0.09426180       0.77754227       0.39112749 </v>
    <v>       0.18895458       0.70875052       0.49301789 </v>
    <v>       0.40634206       0.96546200       0.13037583 </v>
    <v>       0.76092069       0.97878037       0.29519774 </v>
    <v>       0.85488056       0.88482051       0.42557357 </v>
    <v>       0.53398658       0.70987050       0.09022253 </v>
    <v>       0.66696083       0.57274025       0.16482191 </v>
    <v>       0.54952321       0.56504244       0.48820620 </v>
    <v>       0.77423906       0.83335901       0.13037583 </v>
    <v>       0.86819893       0.73939914       0.26075166 </v>
    <v>       0.96215879       0.64543927       0.39112749 </v>
    <v>       0.50030194       0.87150214       0.26075166 </v>
    <v>       0.59426180       0.77754227       0.39112749 </v>
    <v>       0.90634206       0.96546200       0.13037583 </v>
    <v>       0.73014241       0.51242456       0.04986709 </v>
    <v>       0.07287763       0.16682345       0.31134757 </v>
    <v>       0.17928676       0.08310766       0.43080985 </v>
    <v>       0.34952947       0.39038564       0.06206088 </v>
    <v>       0.47891775       0.26078331       0.18097174 </v>
    <v>       0.03023342       0.37768265       0.48558574 </v>
    <v>       0.43627354       0.47164252       0.35520991 </v>
    <v>       0.25803709       0.15836060       0.10797316 </v>
    <v>       0.34231367       0.06560240       0.22483408 </v>
    <v>       0.08030836       0.47886472       0.11387517 </v>
    <v>       0.17409868       0.39738739       0.22483408 </v>
    <v>       0.26805854       0.30342752       0.35520991 </v>
    <v>       0.41783463       0.21831679       0.48184382 </v>
    <v>       0.57287763       0.16682345       0.31134757 </v>
    <v>       0.66683750       0.07286358       0.44172340 </v>
    <v>       0.86761571       0.32013858       0.04985730 </v>
    <v>       0.97891775       0.26078331       0.18097174 </v>
    <v>       0.51848053       0.40271851       0.46799083 </v>
    <v>       0.93627354       0.47164252       0.35520991 </v>
    <v>       0.75109869       0.16198695       0.10320705 </v>
    <v>       0.84231367       0.06560240       0.22483408 </v>
    <v>       0.58013881       0.49134726       0.09445824 </v>
    <v>       0.67409868       0.39738739       0.22483408 </v>
    <v>       0.76805854       0.30342752       0.35520991 </v>
    <v>       0.84108958       0.22367265       0.46902129 </v>
    <v>       0.07287763       0.66682345       0.31134757 </v>
    <v>       0.16683750       0.57286358       0.44172340 </v>
    <v>       0.37210933       0.86705788       0.05654039 </v>
    <v>       0.47891775       0.76078331       0.18097174 </v>
    <v>       0.01964388       0.86998966       0.47152888 </v>
    <v>       0.43627354       0.97164252       0.35520991 </v>
    <v>       0.25955712       0.65673870       0.11228535 </v>
    <v>       0.34231367       0.56560240       0.22483408 </v>
    <v>       0.08178406       0.98142137       0.10792925 </v>
    <v>       0.17409868       0.89738739       0.22483408 </v>
    <v>       0.26805854       0.80342752       0.35520991 </v>
    <v>       0.36328786       0.71676475       0.47314750 </v>
    <v>       0.57287763       0.66682345       0.31134757 </v>
    <v>       0.66854702       0.57275798       0.42195243 </v>
    <v>       0.88525359       0.85472914       0.06247688 </v>
    <v>       0.97891775       0.76078331       0.18097174 </v>
    <v>       0.52522267       0.83836021       0.47573949 </v>
    <v>       0.93627354       0.97164252       0.35520991 </v>
    <v>       0.74835381       0.65956227       0.09445824 </v>
    <v>       0.84231367       0.56560240       0.22483408 </v>
    <v>       0.58339383       0.98186948       0.10727501 </v>
    <v>       0.67409868       0.89738739       0.22483408 </v>
    <v>       0.76805854       0.80342752       0.35520991 </v>
    <v>       0.86426525       0.72094613       0.47047521 </v>
   </varray>
  </structure>
  <varray name="forces" >
   <v>       0.07367158      -0.23385631      -0.13168237 </v>
   <v>      -0.56509890       0.99702594      -1.24696751 </v>
   <v>      -0.40605428       0.64995072       2.34365204 </v>
   <v>      -0.53409818      -1.01180895       2.44198966 </v>
   <v>      -0.03817676       0.09834786      -0.01316371 </v>
   <v>      -0.04339438       0.10326090      -1.37106894 </v>
   <v>      -0.15245057      -0.00119239       0.03831004 </v>
   <v>      -0.24331313       1.07020261      -2.03174688 </v>
   <v>      -0.39926267       0.17799830       0.54329833 </v>
   <v>       1.51026732      -0.13257082       2.52035068 </v>
   <v>       0.16740604      -0.16353741      -0.11036181 </v>
   <v>       0.11776752       0.79606019      -0.92819844 </v>
   <v>      -0.15704092      -1.01775179       1.53945235 </v>
   <v>      -0.43440787       0.69567417       1.85547009 </v>
   <v>       0.02071093       0.16372118       0.98938194 </v>
   <v>      -1.22968780      -0.52923092      -1.20972736 </v>
   <v>       0.39869092      -0.13491307       3.58886739 </v>
   <v>      -0.00818272      -0.06950726       0.00272840 </v>
   <v>      -0.22981487      -0.38311631      -1.23793609 </v>
   <v>      -0.17571641      -0.03684627      -0.03005428 </v>
   <v>      -0.15506984       0.15897840      -1.78254456 </v>
   <v>       0.60785786      -0.24326967       1.62390218 </v>
   <v>      -0.31446082      -0.29144147       0.66943612 </v>
   <v>      -0.77390605       1.09318916      -1.86962324 </v>
   <v>       0.16009540      -0.27951733      -0.21886425 </v>
   <v>      -0.78136480       0.64758594      -1.23951721 </v>
   <v>      -0.43371354       0.45046437       2.18994528 </v>
   <v>      -0.06150453      -0.63759076       1.55319984 </v>
   <v>      -0.76037713       1.07826236      -1.86696004 </v>
   <v>      -0.05569672      -1.00347204       1.82245502 </v>
   <v>      -0.00111777       0.11841210       0.09816318 </v>
   <v>      -0.38693108       0.31839422      -2.46916409 </v>
   <v>      -0.09610173       0.02324886       0.01301256 </v>
   <v>       0.01176177      -0.21186521      -1.94511701 </v>
   <v>       0.49569941      -0.07396289       1.16664616 </v>
   <v>       1.03123699      -0.36288709       1.50446508 </v>
   <v>       0.15069701      -0.17784653      -0.08988909 </v>
   <v>      -0.40986453       0.95095610      -1.26692735 </v>
   <v>       0.24378783      -0.27365972      -0.86661791 </v>
   <v>       0.49401124      -0.42774663       1.52817340 </v>
   <v>       0.25105143      -0.69317121       1.62276005 </v>
   <v>      -0.54042071      -1.69709264       1.89271981 </v>
   <v>      -0.04432409       0.04993242      -0.06122452 </v>
   <v>       0.32317397      -0.25402046      -1.85626313 </v>
   <v>      -0.00200055       0.13391675       0.02142325 </v>
   <v>       0.27792571      -0.39662080      -2.03900737 </v>
   <v>       1.05541971       0.13801851       1.69990725 </v>
   <v>       0.14930270       0.61823480      -1.83462173 </v>
   <v>      -0.10617878       0.10051789      -0.29574781 </v>
   <v>       0.07907234      -1.79774249       0.67052315 </v>
   <v>       0.32591988      -0.49634072      -4.39417567 </v>
   <v>       0.33761869      -0.02694406      -0.12325093 </v>
   <v>       0.50334692       0.74448691       0.96423385 </v>
   <v>      -0.20570708       0.19553516      -1.17389215 </v>
   <v>       0.53275145       1.65310639      -1.28569821 </v>
   <v>       0.07593397      -0.11314342       0.61853808 </v>
   <v>      -1.12387260       0.62981649      -2.37343719 </v>
   <v>      -0.14913389      -0.27527971       0.68779454 </v>
   <v>      -0.14446864       0.15501882      -0.25845316 </v>
   <v>      -0.42605296       0.46368151       2.86135676 </v>
   <v>       0.18640584      -0.16088405      -0.03559457 </v>
   <v>       0.83096431      -2.13896512      -0.66564534 </v>
   <v>       2.64529669      -1.36791620      -2.30279224 </v>
   <v>      -0.01026057       0.23321141      -0.00444893 </v>
   <v>       0.10112095       0.71964812       1.85949117 </v>
   <v>       0.25487642      -0.08462032      -0.23229422 </v>
   <v>       0.23976787       0.87688124      -0.32416588 </v>
   <v>       0.09431805      -0.00963456       0.39127772 </v>
   <v>      -2.21728780       0.37707671       0.03816002 </v>
   <v>       0.00356472      -0.02886159       0.09184682 </v>
   <v>      -0.03938335       0.06507622      -0.97367707 </v>
   <v>      -0.46738180      -0.47987499       1.96396185 </v>
   <v>       0.19067215      -0.26642607      -0.15109840 </v>
   <v>       0.95669920      -1.25277791      -0.96553797 </v>
   <v>       0.61273382      -0.94116035      -3.55748102 </v>
   <v>      -0.05248099      -0.03948497       1.10871583 </v>
   <v>       0.69157038       2.13911935       2.48200847 </v>
   <v>       0.15739184       0.10910065      -0.39600778 </v>
   <v>      -0.21383593       1.22572590      -2.41513752 </v>
   <v>       0.37857278      -0.04091327       0.50331960 </v>
   <v>      -1.74724656       0.33214509      -1.29670499 </v>
   <v>       0.07320645      -0.13422506       0.73731952 </v>
   <v>      -0.19469068       0.07835458      -0.62297398 </v>
   <v>      -1.08680987       0.24676252       2.29758436 </v>
   <v>      -0.09118109       0.26118833      -0.98540384 </v>
   <v>       1.52322972      -0.52201606       1.12303527 </v>
   <v>       1.39295341      -2.17072194      -3.38080802 </v>
   <v>      -0.12866435       0.04200943       0.21659271 </v>
   <v>       0.95473177      -0.30115289       3.01118811 </v>
   <v>       0.13087954       0.22090843      -0.50081473 </v>
   <v>       1.34548489       1.36731656       0.41850184 </v>
   <v>      -0.03293085      -0.10596337       0.22892019 </v>
   <v>      -1.79076302       0.59243637      -1.33539448 </v>
   <v>       0.05628721      -0.29618806       0.55343868 </v>
   <v>      -0.14212215       0.17762425      -0.51041478 </v>
   <v>      -2.41190028       0.25114893       2.18078114 </v>
  </varray>
  <varray name="stress" >
   <v>      63.78567135       1.26789454      -0.65599690 </v>
   <v>       1.26789407      64.38785322      -1.00629200 </v>
   <v>      -0.65599664      -1.00629184      69.77997481 </v>
  </varray>
  <energy>
   <i name="e_fr_energy">   -470.90594233 </i>
   <i name="e_wo_entrp">   -470.23052215 </i>
   <i name="e_0_energy">     -1.35084035 </i>
  </energy>
  <time name="totalsc">  626.67  626.87</time>
  <eigenvalues>
   <array>
    <dimension dim="1">band</dimension>
    <dimension dim="2">kpoint</dimension>
    <dimension dim="3">spin</dimension>
    <field>eigene</field>
    <field>occ</field>
    <set>
     <set comment="spin 1">
      <set comment="kpoint 1">
       <r>  -63.0963    1.0000 </r>
       <r>  -63.0812    1.0000 </r>
       <r>  -62.9958    1.0000 </r>
       <r>  -62.9957    1.0000 </r>
       <r>  -62.9893    1.0000 </r>
       <r>  -62.9641    1.0000 </r>
       <r>  -62.9500    1.0000 </r>
       <r>  -62.9473    1.0000 </r>
       <r>  -62.9381    1.0000 </r>
       <r>  -62.9222    1.0000 </r>
       <r>  -62.9217    1.0000 </r>
       <r>  -62.9022    1.0000 </r>
       <r>  -62.8821    1.0000 </r>
       <r>  -62.8765    1.0000 </r>
       <r>  -62.8643    1.0000 </r>
       <r>  -62.8590    1.0000 </r>
       <r>  -62.8378    1.0000 </r>
       <r>  -62.8334    1.0000 </r>
       <r>  -62.8292    1.0000 </r>
       <r>  -62.8070    1.0000 </r>
       <r>  -62.7972    1.0000 </r>
       <r>  -62.7961    1.0000 </r>
       <r>  -62.7888    1.0000 </r>
       <r>  -62.7850    1.0000 </r>
       <r>  -62.7771    1.0000 </r>
       <r>  -62.7643    1.0000 </r>
       <r>  -62.7627    1.0000 </r>
       <r>  -62.7602    1.0000 </r>
       <r>  -62.7584    1.0000 </r>
       <r>  -62.7563    1.0000 </r>
       <r>  -62.7438    1.0000 </r>
       <r>  -62.7420    1.0000 </r>
       <r>  -62.7406    1.0000 </r>
       <r>  -62.7358    1.0000 </r>
       <r>  -62.7244    1.0000 </r>
       <r>  -62.7176    1.0000 </r>
       <r>  -62.7166    1.0000 </r>
       <r>  -62.7075    1.0000 </r>
       <r>  -62.6642    1.0000 </r>
       <r>  -62.6569    1.0000 </r>
       <r>  -62.6539    1.0000 </r>
       <r>  -62.6339    1.0000 </r>
       <r>  -62.6246    1.0000 </r>
       <r>  -62.6222    1.0000 </r>
       <r>  -62.5967    1.0000 </r>
       <r>  -62.5865    1.0000 </r>
       <r>  -62.5742    1.0000 </r>
       <r>  -62.5724    1.0000 </r>
       <r>  -62.5687    1.0000 </r>
       <r>  -62.5603    1.0000 </r>
       <r>  -62.5564    1.0000 </r>
       <r>  -62.5476    1.0000 </r>
       <r>  -62.5418    1.0000 </r>
       <r>  -62.5372    1.0000 </r>
       <r>  -62.5346    1.0000 </r>
       <r>  -62.5269    1.0000 </r>
       <r>  -62.5175    1.0000 </r>
       <r>  -62.5169    1.0000 </r>
       <r>  -62.5156    1.0000 </r>
       <r>  -62.5127    1.0000 </r>
       <r>  -62.5041    1.0000 </r>
       <r>  -62.5029    1.0000 </r>
       <r>  -62.4926    1.0000 </r>
       <r>  -62.4904    1.0000 </r>
       <r>  -62.4883    1.0000 </r>
       <r>  -62.4880    1.0000 </r>
       <r>  -62.4813    1.0000 </r>
       <r>  -62.4746    1.0000 </r>
       <r>  -62.4734    1.0000 </r>
       <r>  -62.4620    1.0000 </r>
       <r>  -62.4593    1.0000 </r>
       <r>  -62.4588    1.0000 </r>
       <r>  -62.4540    1.0000 </r>
       <r>  -62.4515    1.0000 </r>
       <r>  -62.4484    1.0000 </r>
       <r>  -62.4480    1.0000 </r>
       <r>  -62.4439    1.0000 </r>
       <r>  -62.4412    1.0000 </r>
       <r>  -62.4405    1.0000 </r>
       <r>  -62.4393    1.0000 </r>
       <r>  -62.4346    1.0000 </r>
       <r>  -62.4309    1.0000 </r>
       <r>  -62.4279    1.0000 </r>
       <r>  -62.4224    1.0000 </r>
       <r>  -62.4211    1.0000 </r>
       <r>  -62.4202    1.0000 </r>
       <r>  -62.4198    1.0000 </r>
       <r>  -62.4151    1.0000 </r>
       <r>  -62.4135    1.0000 </r>
       <r>  -62.4112    1.0000 </r>
       <r>  -62.4086    1.0000 </r>
       <r>  -62.4037    1.0000 </r>
       <r>  -62.4019    1.0000 </r>
       <r>  -62.3997    1.0000 </r>
       <r>  -62.3982    1.0000 </r>
       <r>  -62.3956    1.0000 </r>
       <r>  -62.3879    1.0000 </r>
       <r>  -62.3873    1.0000 </r>
       <r>  -62.3867    1.0000 </r>
       <r>  -62.3830    1.0000 </r>
       <r>  -62.3758    1.0000 </r>
       <r>  -62.3757    1.0000 </r>
       <r>  -62.3676    1.0000 </r>
       <r>  -62.3630    1.0000 </r>
       <r>  -62.3620    1.0000 </r>
       <r>  -62.3609    1.0000 </r>
       <r>  -62.3560    1.0000 </r>
       <r>  -62.3535    1.0000 </r>
       <r>  -62.3531    1.0000 </r>
       <r>  -62.3504    1.0000 </r>
       <r>  -62.3379    1.0000 </r>
       <r>  -62.3120    1.0000 </r>
       <r>  -62.3113    1.0000 </r>
       <r>  -62.2999    1.0000 </r>
       <r>  -62.2912    1.0000 </r>
       <r>  -62.2858    1.0000 </r>
       <r>  -62.2841    1.0000 </r>
       <r>  -62.2752    1.0000 </r>
       <r>  -62.2747    1.0000 </r>
       <r>  -62.2406    1.0000 </r>
       <r>  -62.2299    1.0000 </r>
       <r>  -62.2253    1.0000 </r>
       <r>  -62.2230    1.0000 </r>
       <r>  -62.2190    1.0000 </r>
       <r>  -62.2179    1.0000 </r>
       <r>  -62.2146    1.0000 </r>
       <r>  -62.2099    1.0000 </r>
       <r>  -62.1867    1.0000 </r>
       <r>  -62.1860    1.0000 </r>
       <r>  -62.1785    1.0000 </r>
       <r>  -62.1711    1.0000 </r>
       <r>  -62.1523    1.0000 </r>
       <r>  -62.0736    1.0000 </r>
       <r>  -62.0500    1.0000 </r>
       <r>  -62.0362    1.0000 </r>
       <r>  -61.9928    1.0000 </r>
       <r>  -61.9735    1.0000 </r>
       <r>  -61.9608    1.0000 </r>
       <r>  -61.9416    1.0000 </r>
       <r>  -61.9185    1.0000 </r>
       <r>  -61.8781    1.0000 </r>
       <r>  -61.8484    1.0000 </r>
       <r>  -61.6202    1.0000 </r>
       <r>  -61.5561    1.0000 </r>
       <r>  -14.4514    1.0000 </r>
       <r>  -14.2590    1.0000 </r>
       <r>  -13.8368    1.0000 </r>
       <r>  -13.7576    1.0000 </r>
       <r>  -13.6733    1.0000 </r>
       <r>  -13.6300    1.0000 </r>
       <r>  -13.5428    1.0000 </r>
       <r>  -13.5154    1.0000 </r>
       <r>  -13.3849    1.0000 </r>
       <r>  -13.3322    1.0000 </r>
       <r>  -13.2196    1.0000 </r>
       <r>  -13.1667    1.0000 </r>
       <r>  -13.0900    1.0000 </r>
       <r>  -13.0673    1.0000 </r>
       <r>  -13.0175    1.0000 </r>
       <r>  -12.8328    1.0000 </r>
       <r>  -12.7745    1.0000 </r>
       <r>  -12.7159    1.0000 </r>
       <r>  -12.6734    1.0000 </r>
       <r>  -12.6141    1.0000 </r>
       <r>  -12.5836    1.0000 </r>
       <r>  -12.5087    1.0000 </r>
       <r>  -12.4935    1.0000 </r>
       <r>  -12.4663    1.0000 </r>
       <r>  -12.4292    1.0000 </r>
       <r>  -12.3637    1.0000 </r>
       <r>  -12.3337    1.0000 </r>
       <r>  -12.2757    1.0000 </r>
       <r>  -12.2605    1.0000 </r>
       <r>  -12.1843    1.0000 </r>
       <r>  -12.1801    1.0000 </r>
       <r>  -12.1463    1.0000 </r>
       <r>  -12.0987    1.0000 </r>
       <r>  -12.0393    1.0000 </r>
       <r>  -11.9910    1.0000 </r>
       <r>  -11.9046    1.0000 </r>
       <r>  -11.8918    1.0000 </r>
       <r>  -11.8615    1.0000 </r>
       <r>  -11.8374    1.0000 </r>
       <r>  -11.7588    1.0000 </r>
       <r>  -11.7271    1.0000 </r>
       <r>  -11.6891    1.0000 </r>
       <r>  -11.6426    1.0000 </r>
       <r>  -11.5768    1.0000 </r>
       <r>  -11.4946    1.0000 </r>
       <r>  -11.4309    1.0000 </r>
       <r>  -11.3751    1.0000 </r>
       <r>  -11.1265    1.0000 </r>
       <r>   -6.4262    1.0000 </r>
       <r>   -6.2734    1.0000 </r>
       <r>   -6.1990    1.0000 </r>
       <r>   -6.1401    1.0000 </r>
       <r>   -6.0195    1.0000 </r>
       <r>   -6.0027    1.0000 </r>
       <r>   -5.9431    1.0000 </r>
       <r>   -5.9073    1.0000 </r>
       <r>   -5.7877    1.0000 </r>
       <r>   -5.7448    1.0000 </r>
       <r>   -5.6392    1.0000 </r>
       <r>   -5.5455    1.0000 </r>
       <r>   -5.4958    1.0000 </r>
       <r>   -5.4463    1.0000 </r>
       <r>   -5.4044    1.0000 </r>
       <r>   -5.3566    1.0000 </r>
       <r>   -5.3228    1.0000 </r>
       <r>   -5.2562    1.0000 </r>
       <r>   -5.2423    1.0000 </r>
       <r>   -5.1926    1.0000 </r>
       <r>   -5.1639    1.0000 </r>
       <r>   -5.1439    1.0000 </r>
       <r>   -5.1246    1.0000 </r>
       <r>   -5.0991    1.0000 </r>
       <r>   -5.0595    1.0000 </r>
       <r>   -5.0505    1.0000 </r>
       <r>   -5.0351    1.0000 </r>
       <r>   -4.9992    1.0000 </r>
       <r>   -4.9673    1.0000 </r>
       <r>   -4.9216    1.0000 </r>
       <r>   -4.9019    1.0000 </r>
       <r>   -4.8502    1.0000 </r>
       <r>   -4.8259    1.0000 </r>
       <r>   -4.7970    1.0000 </r>
       <r>   -4.7452    1.0000 </r>
       <r>   -4.7198    1.0000 </r>
       <r>   -4.6872    1.0000 </r>
       <r>   -4.6207    1.0000 </r>
       <r>   -4.6001    1.0000 </r>
       <r>   -4.5655    1.0000 </r>
       <r>   -4.5348    1.0000 </r>
       <r>   -4.4804    1.0000 </r>
       <r>   -4.4423    1.0000 </r>
       <r>   -4.4136    1.0000 </r>
       <r>   -4.3862    1.0000 </r>
       <r>   -4.3470    1.0000 </r>
       <r>   -4.3123    1.0000 </r>
       <r>   -4.2741    1.0000 </r>
       <r>   -4.2593    1.0000 </r>
       <r>   -4.2256    1.0000 </r>
       <r>   -4.2207    1.0000 </r>
       <r>   -4.2068    1.0000 </r>
       <r>   -4.1455    1.0000 </r>
       <r>   -4.1157    1.0000 </r>
       <r>   -4.0531    1.0000 </r>
       <r>   -4.0269    1.0000 </r>
       <r>   -4.0104    1.0000 </r>
       <r>   -3.9833    1.0000 </r>
       <r>   -3.9497    1.0000 </r>
       <r>   -3.9305    1.0000 </r>
       <r>   -3.9069    1.0000 </r>
       <r>   -3.8774    1.0000 </r>
       <r>   -3.8349    1.0000 </r>
       <r>   -3.8271    1.0000 </r>
       <r>   -3.7618    1.0000 </r>
       <r>   -3.7533    1.0000 </r>
       <r>   -3.7278    1.0000 </r>
       <r>   -3.6968    1.0000 </r>
       <r>   -3.6749    1.0000 </r>
       <r>   -3.6444    1.0000 </r>
       <r>   -3.5918    1.0000 </r>
       <r>   -3.5789    1.0000 </r>
       <r>   -3.5468    1.0000 </r>
       <r>   -3.5265    1.0000 </r>
       <r>   -3.4865    1.0000 </r>
       <r>   -3.4341    1.0000 </r>
       <r>   -3.4113    1.0000 </r>
       <r>   -3.4017    1.0000 </r>
       <r>   -3.3939    1.0000 </r>
       <r>   -3.3691    1.0000 </r>
       <r>   -3.3589    1.0000 </r>
       <r>   -3.3349    1.0000 </r>
       <r>   -3.3194    1.0000 </r>
       <r>   -3.2739    1.0000 </r>
       <r>   -3.2701    1.0000 </r>
       <r>   -3.2526    1.0000 </r>
       <r>   -3.2480    1.0000 </r>
       <r>   -3.2252    1.0000 </r>
       <r>   -3.1809    1.0000 </r>
       <r>   -3.1516    1.0000 </r>
       <r>   -3.1434    1.0000 </r>
       <r>   -3.1197    1.0000 </r>
       <r>   -3.0768    1.0000 </r>
       <r>   -3.0687    1.0000 </r>
       <r>   -3.0582    1.0000 </r>
       <r>   -3.0290    1.0000 </r>
       <r>   -3.0088    1.0000 </r>
       <r>   -2.9766    1.0000 </r>
       <r>   -2.9589    1.0000 </r>
       <r>   -2.9468    1.0000 </r>
       <r>   -2.8969    1.0000 </r>
       <r>   -2.8760    1.0000 </r>
       <r>   -2.8604    1.0000 </r>
       <r>   -2.8089    1.0000 </r>
       <r>   -2.7952    1.0000 </r>
       <r>   -2.7472    1.0000 </r>
       <r>   -2.7323    1.0000 </r>
       <r>   -2.7110    1.0000 </r>
       <r>   -2.6608    1.0000 </r>
       <r>   -2.6469    1.0000 </r>
       <r>   -2.6415    1.0000 </r>
       <r>   -2.6018    1.0000 </r>
       <r>   -2.5958    1.0000 </r>
       <r>   -2.5772    1.0000 </r>
       <r>   -2.5468    1.0000 </r>
       <r>   -2.5216    1.0000 </r>
       <r>   -2.5023    1.0000 </r>
       <r>   -2.4834    1.0000 </r>
       <r>   -2.4525    1.0000 </r>
       <r>   -2.4397    1.0000 </r>
       <r>   -2.4285    1.0000 </r>
       <r>   -2.4043    1.0000 </r>
       <r>   -2.3869    1.0000 </r>
       <r>   -2.3619    1.0000 </r>
       <r>   -2.3488    1.0000 </r>
       <r>   -2.3100    1.0000 </r>
       <r>   -2.2984    1.0000 </r>
       <r>   -2.2841    1.0000 </r>
       <r>   -2.2647    1.0000 </r>
       <r>   -2.2109    1.0000 </r>
       <r>   -2.1969    1.0000 </r>
       <r>   -2.1629    1.0000 </r>
       <r>   -2.1357    1.0000 </r>
       <r>   -2.0649    1.0000 </r>
       <r>   -1.9782    1.0000 </r>
       <r>   -1.9330    1.0000 </r>
       <r>   -1.8898    1.0000 </r>
       <r>   -1.8447    1.0000 </r>
       <r>   -1.8023    1.0000 </r>
       <r>   -1.7593    1.0000 </r>
       <r>   -1.7228    1.0000 </r>
       <r>   -1.6895    1.0000 </r>
       <r>   -1.6572    1.0000 </r>
       <r>   -1.6510    1.0000 </r>
       <r>   -1.6289    1.0000 </r>
       <r>   -1.5688    1.0000 </r>
       <r>   -1.5654    1.0000 </r>
       <r>   -1.5421    1.0000 </r>
       <r>   -1.5097    1.0000 </r>
       <r>   -1.5080    1.0000 </r>
       <r>   -1.4709    1.0000 </r>
       <r>   -1.4689    1.0000 </r>
       <r>   -1.4441    1.0000 </r>
       <r>   -1.4109    1.0000 </r>
       <r>   -1.3868    1.0000 </r>
       <r>   -1.3827    1.0000 </r>
       <r>   -1.3543    1.0000 </r>
       <r>   -1.3509    1.0000 </r>
       <r>   -1.3268    1.0000 </r>
       <r>   -1.3096    1.0000 </r>
       <r>   -1.2998    1.0000 </r>
       <r>   -1.2783    1.0000 </r>
       <r>   -1.2559    1.0000 </r>
       <r>   -1.2423    1.0000 </r>
       <r>   -1.2102    1.0000 </r>
       <r>   -1.1762    1.0000 </r>
       <r>   -1.1453    1.0000 </r>
       <r>   -1.1227    1.0000 </r>
       <r>   -1.1024    1.0000 </r>
       <r>   -1.0803    1.0000 </r>
       <r>   -1.0744    1.0000 </r>
       <r>   -1.0639    1.0000 </r>
       <r>   -1.0378    1.0000 </r>
       <r>   -1.0310    1.0000 </r>
       <r>   -1.0178    1.0000 </r>
       <r>   -0.9765    1.0000 </r>
       <r>   -0.9726    1.0000 </r>
       <r>   -0.9607    1.0000 </r>
       <r>   -0.9485    1.0000 </r>
       <r>   -0.9437    1.0000 </r>
       <r>   -0.9385    1.0000 </r>
       <r>   -0.9156    1.0000 </r>
       <r>   -0.8974    1.0000 </r>
       <r>   -0.8827    1.0000 </r>
       <r>   -0.8564    1.0000 </r>
       <r>   -0.8397    1.0000 </r>
       <r>   -0.8249    1.0000 </r>
       <r>   -0.8049    1.0000 </r>
       <r>   -0.7840    1.0000 </r>
       <r>   -0.7561    1.0000 </r>
       <r>   -0.7506    1.0000 </r>
       <r>   -0.7402    1.0000 </r>
       <r>   -0.7260    1.0000 </r>
       <r>   -0.7020    1.0000 </r>
       <r>   -0.6984    1.0000 </r>
       <r>   -0.6943    1.0000 </r>
       <r>   -0.6787    1.0000 </r>
       <r>   -0.6615    1.0000 </r>
       <r>   -0.6547    1.0000 </r>
       <r>   -0.6484    1.0000 </r>
       <r>   -0.6364    1.0000 </r>
       <r>   -0.6250    1.0000 </r>
       <r>   -0.6174    1.0000 </r>
       <r>   -0.5945    1.0000 </r>
       <r>   -0.5777    1.0000 </r>
       <r>   -0.5687    1.0000 </r>
       <r>   -0.5622    1.0000 </r>
       <r>   -0.5486    1.0000 </r>
       <r>   -0.5316    1.0000 </r>
       <r>   -0.5248    1.0000 </r>
       <r>   -0.4991    1.0000 </r>
       <r>   -0.4755    1.0000 </r>
       <r>   -0.4716    1.0000 </r>
       <r>   -0.4513    1.0000 </r>
       <r>   -0.4422    1.0000 </r>
       <r>   -0.4259    1.0000 </r>
       <r>   -0.4178    1.0000 </r>
       <r>   -0.4017    1.0000 </r>
       <r>   -0.3944    1.0000 </r>
       <r>   -0.3763    1.0000 </r>
       <r>   -0.3601    1.0000 </r>
       <r>   -0.3556    1.0000 </r>
       <r>   -0.3443    1.0000 </r>
       <r>   -0.3346    1.0000 </r>
       <r>   -0.3251    1.0000 </r>
       <r>   -0.3152    1.0000 </r>
       <r>   -0.3029    1.0000 </r>
       <r>   -0.2968    1.0000 </r>
       <r>   -0.2896    1.0000 </r>
       <r>   -0.2665    1.0000 </r>
       <r>   -0.2659    1.0000 </r>
       <r>   -0.2574    1.0000 </r>
       <r>   -0.2414    1.0000 </r>
       <r>   -0.2364    1.0000 </r>
       <r>   -0.2177    1.0000 </r>
       <r>   -0.2063    1.0000 </r>
       <r>   -0.1863    1.0000 </r>
       <r>   -0.1806    1.0000 </r>
       <r>   -0.1709    1.0000 </r>
       <r>   -0.1507    1.0000 </r>
       <r>   -0.1471    1.0000 </r>
       <r>   -0.1345    1.0000 </r>
       <r>   -0.1312    1.0000 </r>
       <r>   -0.1100    1.0000 </r>
       <r>   -0.1058    1.0000 </r>
       <r>   -0.0892    1.0000 </r>
       <r>   -0.0861    1.0000 </r>
       <r>   -0.0802    1.0000 </r>
       <r>   -0.0643    1.0000 </r>
       <r>   -0.0589    1.0000 </r>
       <r>   -0.0462    1.0000 </r>
       <r>   -0.0356    1.0000 </r>
       <r>   -0.0312    1.0000 </r>
       <r>   -0.0192    1.0000 </r>
       <r>   -0.0090    1.0000 </r>
       <r>   -0.0081    1.0000 </r>
       <r>    0.0097    1.0000 </r>
       <r>    0.0185    1.0000 </r>
       <r>    0.0257    1.0000 </r>
       <r>    0.0387    1.0000 </r>
       <r>    0.0539    1.0000 </r>
       <r>    0.0600    1.0000 </r>
       <r>    0.0717    1.0000 </r>
       <r>    0.0764    1.0000 </r>
       <r>    0.0887    1.0000 </r>
       <r>    0.1152    1.0000 </r>
       <r>    0.1288    1.0000 </r>
       <r>    0.1314    1.0000 </r>
       <r>    0.1485    1.0000 </r>
       <r>    0.1744    1.0000 </r>
       <r>    0.1800    1.0000 </r>
       <r>    0.1952    1.0000 </r>
       <r>    0.1975    1.0000 </r>
       <r>    0.2002    1.0000 </r>
       <r>    0.2281    1.0000 </r>
       <r>    0.2320    1.0000 </r>
       <r>    0.2482    1.0000 </r>
       <r>    0.2794    1.0000 </r>
       <r>    0.2983    1.0000 </r>
       <r>    0.3026    1.0000 </r>
       <r>    0.3179    1.0000 </r>
       <r>    0.3338    1.0000 </r>
       <r>    0.3440    1.0000 </r>
       <r>    0.3691    1.0000 </r>
       <r>    0.3767    1.0000 </r>
       <r>    0.3881    1.0000 </r>
       <r>    0.4050    1.0000 </r>
       <r>    0.4150    1.0000 </r>
       <r>    0.4318    1.0000 </r>
       <r>    0.4502    1.0000 </r>
       <r>    0.4747    1.0000 </r>
       <r>    0.4782    1.0000 </r>
       <r>    0.4869    1.0000 </r>
       <r>    0.5327    1.0000 </r>
       <r>    0.5562    1.0000 </r>
       <r>    0.5622    1.0000 </r>
[...]
       <r>   -58.5854     0.0000   288.0000 </r>
       <r>   -58.3256     0.0000   288.0000 </r>
       <r>   -58.0658     0.0000   288.0000 </r>
       <r>   -57.8060     0.0000   288.0000 </r>
       <r>   -57.5462     0.0000   288.0000 </r>
       <r>   -57.2864     0.0000   288.0000 </r>
       <r>   -57.0266     0.0000   288.0000 </r>
       <r>   -56.7668     0.0000   288.0000 </r>
       <r>   -56.5071     0.0000   288.0000 </r>
       <r>   -56.2473     0.0000   288.0000 </r>
       <r>   -55.9875     0.0000   288.0000 </r>
       <r>   -55.7277     0.0000   288.0000 </r>
       <r>   -55.4679     0.0000   288.0000 </r>
       <r>   -55.2081     0.0000   288.0000 </r>
       <r>   -54.9483     0.0000   288.0000 </r>
       <r>   -54.6885     0.0000   288.0000 </r>
       <r>   -54.4287     0.0000   288.0000 </r>
       <r>   -54.1689     0.0000   288.0000 </r>
       <r>   -53.9091     0.0000   288.0000 </r>
       <r>   -53.6493     0.0000   288.0000 </r>
       <r>   -53.3896     0.0000   288.0000 </r>
       <r>   -53.1298     0.0000   288.0000 </r>
       <r>   -52.8700     0.0000   288.0000 </r>
       <r>   -52.6102     0.0000   288.0000 </r>
       <r>   -52.3504     0.0000   288.0000 </r>
       <r>   -52.0906     0.0000   288.0000 </r>
       <r>   -51.8308     0.0000   288.0000 </r>
       <r>   -51.5710     0.0000   288.0000 </r>
       <r>   -51.3112     0.0000   288.0000 </r>
       <r>   -51.0514     0.0000   288.0000 </r>
       <r>   -50.7916     0.0000   288.0000 </r>
       <r>   -50.5318     0.0000   288.0000 </r>
       <r>   -50.2720     0.0000   288.0000 </r>
       <r>   -50.0123     0.0000   288.0000 </r>
       <r>   -49.7525     0.0000   288.0000 </r>
       <r>   -49.4927     0.0000   288.0000 </r>
       <r>   -49.2329     0.0000   288.0000 </r>
       <r>   -48.9731     0.0000   288.0000 </r>
       <r>   -48.7133     0.0000   288.0000 </r>
       <r>   -48.4535     0.0000   288.0000 </r>
       <r>   -48.1937     0.0000   288.0000 </r>
       <r>   -47.9339     0.0000   288.0000 </r>
       <r>   -47.6741     0.0000   288.0000 </r>
       <r>   -47.4143     0.0000   288.0000 </r>
       <r>   -47.1545     0.0000   288.0000 </r>
       <r>   -46.8948     0.0000   288.0000 </r>
       <r>   -46.6350     0.0000   288.0000 </r>
       <r>   -46.3752     0.0000   288.0000 </r>
       <r>   -46.1154     0.0000   288.0000 </r>
       <r>   -45.8556     0.0000   288.0000 </r>
       <r>   -45.5958     0.0000   288.0000 </r>
       <r>   -45.3360     0.0000   288.0000 </r>
       <r>   -45.0762     0.0000   288.0000 </r>
       <r>   -44.8164     0.0000   288.0000 </r>
       <r>   -44.5566     0.0000   288.0000 </r>
       <r>   -44.2968     0.0000   288.0000 </r>
       <r>   -44.0370     0.0000   288.0000 </r>
       <r>   -43.7773     0.0000   288.0000 </r>
       <r>   -43.5175     0.0000   288.0000 </r>
       <r>   -43.2577     0.0000   288.0000 </r>
       <r>   -42.9979     0.0000   288.0000 </r>
       <r>   -42.7381     0.0000   288.0000 </r>
       <r>   -42.4783     0.0000   288.0000 </r>
       <r>   -42.2185     0.0000   288.0000 </r>
       <r>   -41.9587     0.0000   288.0000 </r>
       <r>   -41.6989     0.0000   288.0000 </r>
       <r>   -41.4391     0.0000   288.0000 </r>
       <r>   -41.1793     0.0000   288.0000 </r>
       <r>   -40.9195     0.0000   288.0000 </r>
       <r>   -40.6597     0.0000   288.0000 </r>
       <r>   -40.4000     0.0000   288.0000 </r>
       <r>   -40.1402     0.0000   288.0000 </r>
       <r>   -39.8804     0.0000   288.0000 </r>
       <r>   -39.6206     0.0000   288.0000 </r>
       <r>   -39.3608     0.0000   288.0000 </r>
       <r>   -39.1010     0.0000   288.0000 </r>
       <r>   -38.8412     0.0000   288.0000 </r>
       <r>   -38.5814     0.0000   288.0000 </r>
       <r>   -38.3216     0.0000   288.0000 </r>
       <r>   -38.0618     0.0000   288.0000 </r>
       <r>   -37.8020     0.0000   288.0000 </r>
       <r>   -37.5422     0.0000   288.0000 </r>
       <r>   -37.2825     0.0000   288.0000 </r>
       <r>   -37.0227     0.0000   288.0000 </r>
       <r>   -36.7629     0.0000   288.0000 </r>
       <r>   -36.5031     0.0000   288.0000 </r>
       <r>   -36.2433     0.0000   288.0000 </r>
       <r>   -35.9835     0.0000   288.0000 </r>
       <r>   -35.7237     0.0000   288.0000 </r>
       <r>   -35.4639     0.0000   288.0000 </r>
       <r>   -35.2041     0.0000   288.0000 </r>
       <r>   -34.9443     0.0000   288.0000 </r>
       <r>   -34.6845     0.0000   288.0000 </r>
       <r>   -34.4247     0.0000   288.0000 </r>
       <r>   -34.1649     0.0000   288.0000 </r>
       <r>   -33.9052     0.0000   288.0000 </r>
       <r>   -33.6454     0.0000   288.0000 </r>
       <r>   -33.3856     0.0000   288.0000 </r>
       <r>   -33.1258     0.0000   288.0000 </r>
       <r>   -32.8660     0.0000   288.0000 </r>
       <r>   -32.6062     0.0000   288.0000 </r>
       <r>   -32.3464     0.0000   288.0000 </r>
       <r>   -32.0866     0.0000   288.0000 </r>
       <r>   -31.8268     0.0000   288.0000 </r>
       <r>   -31.5670     0.0000   288.0000 </r>
       <r>   -31.3072     0.0000   288.0000 </r>
       <r>   -31.0474     0.0000   288.0000 </r>
       <r>   -30.7877     0.0000   288.0000 </r>
       <r>   -30.5279     0.0000   288.0000 </r>
       <r>   -30.2681     0.0000   288.0000 </r>
       <r>   -30.0083     0.0000   288.0000 </r>
       <r>   -29.7485     0.0000   288.0000 </r>
       <r>   -29.4887     0.0000   288.0000 </r>
       <r>   -29.2289     0.0000   288.0000 </r>
       <r>   -28.9691     0.0000   288.0000 </r>
       <r>   -28.7093     0.0000   288.0000 </r>
       <r>   -28.4495     0.0000   288.0000 </r>
       <r>   -28.1897     0.0000   288.0000 </r>
       <r>   -27.9299     0.0000   288.0000 </r>
       <r>   -27.6702     0.0000   288.0000 </r>
       <r>   -27.4104     0.0000   288.0000 </r>
       <r>   -27.1506     0.0000   288.0000 </r>
       <r>   -26.8908     0.0000   288.0000 </r>
       <r>   -26.6310     0.0000   288.0000 </r>
       <r>   -26.3712     0.0000   288.0000 </r>
       <r>   -26.1114     0.0000   288.0000 </r>
       <r>   -25.8516     0.0000   288.0000 </r>
       <r>   -25.5918     0.0000   288.0000 </r>
       <r>   -25.3320     0.0000   288.0000 </r>
       <r>   -25.0722     0.0000   288.0000 </r>
       <r>   -24.8124     0.0000   288.0000 </r>
       <r>   -24.5526     0.0000   288.0000 </r>
       <r>   -24.2929     0.0000   288.0000 </r>
       <r>   -24.0331     0.0000   288.0000 </r>
       <r>   -23.7733     0.0000   288.0000 </r>
       <r>   -23.5135     0.0000   288.0000 </r>
       <r>   -23.2537     0.0000   288.0000 </r>
       <r>   -22.9939     0.0000   288.0000 </r>
       <r>   -22.7341     0.0000   288.0000 </r>
       <r>   -22.4743     0.0000   288.0000 </r>
       <r>   -22.2145     0.0000   288.0000 </r>
       <r>   -21.9547     0.0000   288.0000 </r>
       <r>   -21.6949     0.0000   288.0000 </r>
       <r>   -21.4351     0.0000   288.0000 </r>
       <r>   -21.1754     0.0000   288.0000 </r>
       <r>   -20.9156     0.0000   288.0000 </r>
       <r>   -20.6558     0.0000   288.0000 </r>
       <r>   -20.3960     0.0000   288.0000 </r>
       <r>   -20.1362     0.0000   288.0000 </r>
       <r>   -19.8764     0.0000   288.0000 </r>
       <r>   -19.6166     0.0000   288.0000 </r>
       <r>   -19.3568     0.0000   288.0000 </r>
       <r>   -19.0970     0.0000   288.0000 </r>
       <r>   -18.8372     0.0000   288.0000 </r>
       <r>   -18.5774     0.0000   288.0000 </r>
       <r>   -18.3176     0.0000   288.0000 </r>
       <r>   -18.0579     0.0000   288.0000 </r>
       <r>   -17.7981     0.0000   288.0000 </r>
       <r>   -17.5383     0.0000   288.0000 </r>
       <r>   -17.2785     0.0000   288.0000 </r>
       <r>   -17.0187     0.0000   288.0000 </r>
       <r>   -16.7589     0.0000   288.0000 </r>
       <r>   -16.4991     0.0000   288.0000 </r>
       <r>   -16.2393     0.0000   288.0000 </r>
       <r>   -15.9795     0.0000   288.0000 </r>
       <r>   -15.7197     0.0000   288.0000 </r>
       <r>   -15.4599     0.0000   288.0000 </r>
       <r>   -15.2001     0.0000   288.0000 </r>
       <r>   -14.9403     0.0021   288.0005 </r>
       <r>   -14.6806     0.4137   288.1080 </r>
       <r>   -14.4208     5.0664   289.4242 </r>
       <r>   -14.1610     7.9855   291.4988 </r>
       <r>   -13.9012     6.2686   293.1273 </r>
       <r>   -13.6414    20.6694   298.4971 </r>
       <r>   -13.3816    26.8629   305.4758 </r>
       <r>   -13.1218    27.4039   312.5951 </r>
       <r>   -12.8620    26.3694   319.4457 </r>
       <r>   -12.6022    34.0682   328.2963 </r>
       <r>   -12.3424    46.8404   340.4651 </r>
       <r>   -12.0826    47.6635   352.8477 </r>
       <r>   -11.8228    44.6760   364.4541 </r>
       <r>   -11.5631    39.6552   374.7562 </r>
       <r>   -11.3033    23.9458   380.9772 </r>
       <r>   -11.0435     9.3880   383.4161 </r>
       <r>   -10.7837     2.1883   383.9846 </r>
       <r>   -10.5239     0.0591   384.0000 </r>
       <r>   -10.2641     0.0001   384.0000 </r>
       <r>   -10.0043     0.0000   384.0000 </r>
       <r>    -9.7445     0.0000   384.0000 </r>
       <r>    -9.4847     0.0000   384.0000 </r>
       <r>    -9.2249     0.0000   384.0000 </r>
       <r>    -8.9651     0.0000   384.0000 </r>
       <r>    -8.7053     0.0000   384.0000 </r>
       <r>    -8.4455     0.0000   384.0000 </r>
       <r>    -8.1858     0.0000   384.0000 </r>
       <r>    -7.9260     0.0000   384.0000 </r>
       <r>    -7.6662     0.0000   384.0000 </r>
       <r>    -7.4064     0.0000   384.0000 </r>
       <r>    -7.1466     0.0000   384.0000 </r>
       <r>    -6.8868     0.0044   384.0011 </r>
       <r>    -6.6270     0.6540   384.1710 </r>
       <r>    -6.3672     7.8117   386.2005 </r>
       <r>    -6.1074    21.6744   391.8313 </r>
       <r>    -5.8476    29.9361   399.6084 </r>
       <r>    -5.5878    27.7489   406.8174 </r>
       <r>    -5.3280    39.6507   417.1183 </r>
       <r>    -5.0683    61.4508   433.0827 </r>
       <r>    -4.8085    63.5657   449.5966 </r>
       <r>    -4.5487    54.9089   463.8615 </r>
       <r>    -4.2889    59.6111   479.3480 </r>
       <r>    -4.0291    64.9556   496.2229 </r>
       <r>    -3.7693    68.0629   513.9051 </r>
       <r>    -3.5095    70.5624   532.2366 </r>
       <r>    -3.2497    86.5999   554.7346 </r>
       <r>    -2.9899    87.9024   577.5709 </r>
       <r>    -2.7301    77.9532   597.8226 </r>
       <r>    -2.4703    86.9406   620.4090 </r>
       <r>    -2.2105    82.9243   641.9521 </r>
       <r>    -1.9508    50.0601   654.9573 </r>
       <r>    -1.6910    52.9847   668.7223 </r>
       <r>    -1.4312    83.6090   690.4433 </r>
       <r>    -1.1714    99.8559   716.3850 </r>
       <r>    -0.9116   115.0293   746.2687 </r>
       <r>    -0.6518   137.7159   782.0462 </r>
       <r>    -0.3920   156.6695   822.7476 </r>
       <r>    -0.1322   178.0590   869.0059 </r>
       <r>     0.1276   180.2632   915.8369 </r>
       <r>     0.3874   144.7336   953.4375 </r>
       <r>     0.6472   110.4593   982.1339 </r>
       <r>     0.9070    87.0558  1004.7503 </r>
       <r>     1.1668    76.9627  1024.7446 </r>
       <r>     1.4265    75.4396  1044.3432 </r>
       <r>     1.6863    69.1911  1062.3185 </r>
       <r>     1.9461    55.2161  1076.6632 </r>
       <r>     2.2059    62.5580  1092.9153 </r>
       <r>     2.4657    70.0991  1111.1264 </r>
       <r>     2.7255    63.4002  1127.5973 </r>
       <r>     2.9853    47.0892  1139.8307 </r>
       <r>     3.2451    29.6033  1147.5214 </r>
       <r>     3.5049    15.2313  1151.4784 </r>
       <r>     3.7647     1.9849  1151.9940 </r>
       <r>     4.0245     0.2738  1152.0652 </r>
       <r>     4.2843     3.7308  1153.0344 </r>
       <r>     4.5440     7.8648  1155.0776 </r>
       <r>     4.8038    16.0790  1159.2548 </r>
       <r>     5.0636    22.4236  1165.0803 </r>
       <r>     5.3234    18.3976  1169.8598 </r>
       <r>     5.5832    14.4561  1173.6154 </r>
       <r>     5.8430    23.9270  1179.8314 </r>
       <r>     6.1028    37.2658  1189.5128 </r>
       <r>     6.3626    34.2433  1198.4089 </r>
       <r>     6.6224    30.0951  1206.2274 </r>
       <r>     6.8822    43.6858  1217.5766 </r>
       <r>     7.1420    48.7468  1230.2407 </r>
       <r>     7.4018    51.3310  1243.5760 </r>
       <r>     7.6616    59.5280  1259.0409 </r>
       <r>     7.9213    31.4372  1267.2081 </r>
       <r>     8.1811     3.0256  1267.9941 </r>
       <r>     8.4409     0.0228  1268.0000 </r>
       <r>     8.7007     0.0000  1268.0000 </r>
       <r>     8.9605     0.0000  1268.0000 </r>
       <r>     9.2203     0.0000  1268.0000 </r>
       <r>     9.4801     0.0000  1268.0000 </r>
       <r>     9.7399     0.0000  1268.0000 </r>
       <r>     9.9997     0.0000  1268.0000 </r>
       <r>    10.2595     0.0000  1268.0000 </r>
       <r>    10.5193     0.0000  1268.0000 </r>
       <r>    10.7791     0.0000  1268.0000 </r>
       <r>    11.0388     0.0000  1268.0000 </r>
       <r>    11.2986     0.0000  1268.0000 </r>
      </set>
     </set>
    </array>
   </total>
  </dos>
 </calculation>
 <structure name="finalpos" >
  <crystal>
   <varray name="basis" >
    <v>      11.25646304       0.00000000       0.00000000 </v>
    <v>       5.04456212      10.06282034       0.00000000 </v>
    <v>       0.00000000       0.00000000      22.51995597 </v>
   </varray>
   <i name="volume">   2550.87516496 </i>
   <varray name="rec_basis" >
    <v>       0.08883785      -0.04453504       0.00000000 </v>
    <v>       0.00000000       0.09937572       0.00000000 </v>
    <v>       0.00000000       0.00000000       0.04440506 </v>
   </varray>
  </crystal>
  <varray name="positions" >
   <v>       0.26092069       0.47878037       0.29519774 </v>
   <v>       0.35488056       0.38482050       0.42557357 </v>
   <v>       0.16696082       0.07274025       0.16482191 </v>
   <v>       0.27423906       0.33335901       0.13037583 </v>
   <v>       0.36819893       0.23939914       0.26075166 </v>
   <v>       0.46215879       0.14543927       0.39112749 </v>
   <v>       0.00030194       0.37150214       0.26075166 </v>
   <v>       0.09426180       0.27754227       0.39112749 </v>
   <v>       0.23724878       0.22126854       0.47204771 </v>
   <v>       0.40634206       0.46546200       0.13037583 </v>
   <v>       0.76092069       0.47878037       0.29519774 </v>
   <v>       0.85488056       0.38482050       0.42557357 </v>
   <v>       0.02931581       0.19775381       0.48864676 </v>
   <v>       0.66696082       0.07274025       0.16482191 </v>
   <v>       0.53173620       0.01424393       0.47829854 </v>
   <v>       0.68415466       0.31774683       0.04003319 </v>
   <v>       0.77423906       0.33335901       0.13037583 </v>
   <v>       0.86819893       0.23939914       0.26075166 </v>
   <v>       0.96215879       0.14543927       0.39112749 </v>
   <v>       0.50030194       0.37150214       0.26075166 </v>
   <v>       0.59426180       0.27754227       0.39112749 </v>
   <v>       0.66313259       0.22222854       0.49335963 </v>
   <v>       0.90634206       0.46546200       0.13037583 </v>
   <v>       0.71462590       0.02366117       0.05775021 </v>
   <v>       0.26092069       0.97878037       0.29519774 </v>
   <v>       0.35488056       0.88482051       0.42557357 </v>
   <v>       0.16696083       0.57274025       0.16482191 </v>
   <v>       0.03008646       0.55935978       0.49521932 </v>
   <v>       0.20249243       0.03758088       0.05936600 </v>
   <v>       0.27423906       0.83335901       0.13037583 </v>
   <v>       0.36819893       0.73939914       0.26075166 </v>
   <v>       0.46215879       0.64543927       0.39112749 </v>
   <v>       0.00030194       0.87150214       0.26075166 </v>
   <v>       0.09426180       0.77754227       0.39112749 </v>
   <v>       0.18895458       0.70875052       0.49301789 </v>
   <v>       0.40634206       0.96546200       0.13037583 </v>
   <v>       0.76092069       0.97878037       0.29519774 </v>
   <v>       0.85488056       0.88482051       0.42557357 </v>
   <v>       0.53398658       0.70987050       0.09022253 </v>
   <v>       0.66696083       0.57274025       0.16482191 </v>
   <v>       0.54952321       0.56504244       0.48820620 </v>
   <v>       0.77423906       0.83335901       0.13037583 </v>
   <v>       0.86819893       0.73939914       0.26075166 </v>
   <v>       0.96215879       0.64543927       0.39112749 </v>
   <v>       0.50030194       0.87150214       0.26075166 </v>
   <v>       0.59426180       0.77754227       0.39112749 </v>
   <v>       0.90634206       0.96546200       0.13037583 </v>
   <v>       0.73014241       0.51242456       0.04986709 </v>
   <v>       0.07287763       0.16682345       0.31134757 </v>
   <v>       0.17928676       0.08310766       0.43080985 </v>
   <v>       0.34952947       0.39038564       0.06206088 </v>
   <v>       0.47891775       0.26078331       0.18097174 </v>
   <v>       0.03023342       0.37768265       0.48558574 </v>
   <v>       0.43627354       0.47164252       0.35520991 </v>
   <v>       0.25803709       0.15836060       0.10797316 </v>
   <v>       0.34231367       0.06560240       0.22483408 </v>
   <v>       0.08030836       0.47886472       0.11387517 </v>
   <v>       0.17409868       0.39738739       0.22483408 </v>
   <v>       0.26805854       0.30342752       0.35520991 </v>
   <v>       0.41783463       0.21831679       0.48184382 </v>
   <v>       0.57287763       0.16682345       0.31134757 </v>
   <v>       0.66683750       0.07286358       0.44172340 </v>
   <v>       0.86761571       0.32013858       0.04985730 </v>
   <v>       0.97891775       0.26078331       0.18097174 </v>
   <v>       0.51848053       0.40271851       0.46799083 </v>
   <v>       0.93627354       0.47164252       0.35520991 </v>
   <v>       0.75109869       0.16198695       0.10320705 </v>
   <v>       0.84231367       0.06560240       0.22483408 </v>
   <v>       0.58013881       0.49134726       0.09445824 </v>
   <v>       0.67409868       0.39738739       0.22483408 </v>
   <v>       0.76805854       0.30342752       0.35520991 </v>
   <v>       0.84108958       0.22367265       0.46902129 </v>
   <v>       0.07287763       0.66682345       0.31134757 </v>
   <v>       0.16683750       0.57286358       0.44172340 </v>
   <v>       0.37210933       0.86705788       0.05654039 </v>
   <v>       0.47891775       0.76078331       0.18097174 </v>
   <v>       0.01964388       0.86998966       0.47152888 </v>
   <v>       0.43627354       0.97164252       0.35520991 </v>
   <v>       0.25955712       0.65673870       0.11228535 </v>
   <v>       0.34231367       0.56560240       0.22483408 </v>
   <v>       0.08178406       0.98142137       0.10792925 </v>
   <v>       0.17409868       0.89738739       0.22483408 </v>
   <v>       0.26805854       0.80342752       0.35520991 </v>
   <v>       0.36328786       0.71676475       0.47314750 </v>
   <v>       0.57287763       0.66682345       0.31134757 </v>
   <v>       0.66854702       0.57275798       0.42195243 </v>
   <v>       0.88525359       0.85472914       0.06247688 </v>
   <v>       0.97891775       0.76078331       0.18097174 </v>
   <v>       0.52522267       0.83836021       0.47573949 </v>
   <v>       0.93627354       0.97164252       0.35520991 </v>
   <v>       0.74835381       0.65956227       0.09445824 </v>
   <v>       0.84231367       0.56560240       0.22483408 </v>
   <v>       0.58339383       0.98186948       0.10727501 </v>
   <v>       0.67409868       0.89738739       0.22483408 </v>
   <v>       0.76805854       0.80342752       0.35520991 </v>
   <v>       0.86426525       0.72094613       0.47047521 </v>
  </varray>
 </structure>
</modeling>
