LAMMPS (5 Jun 2019)
OMP_NUM_THREADS environment is not set. Defaulting to 1 thread. (../comm.cpp:88)
  using 1 OpenMP thread(s) per MPI task
Reading data file ...
  triclinic box = (0 0 0) to (9.57841 8.8693 19.0111) with tilt (-4.7892 0 0)
  1 by 1 by 1 MPI processor grid
  reading atoms ...
  54 atoms
  read_data CPU = 0.00075274 secs
28 atoms in group bulk
WARNING: Using 'neigh_modify every 1 delay 0 check yes' setting during minimization (../min.cpp:168)
Neighbor list info ...
  update every 1 steps, delay 0 steps, check yes
  max neighbors/atom: 2000, page size: 100000
  master list distance cutoff = 8.5
  ghost atom cutoff = 8.5
  binsize = 4.25, bins = 4 3 5
  1 neighbor lists, perpetual/occasional/extra = 1 0 0
  (1) pair eam/alloy, perpetual
      attributes: half, newton on
      pair build: half/bin/newton/tri
      stencil: half/bin/3d/newton/tri
      bin: standard
Setting up cg style minimization ...
  Unit style    : metal
  Current step  : 0
Per MPI rank memory allocation (min/avg/max) = 4.117 | 4.117 | 4.117 Mbytes
Step Temp E_pair E_mol TotEng Press 
       0            0   -223.04045            0   -223.04045   -121392.54 
      65            0   -244.74415            0   -244.74415   -20023.126 
Loop time of 0.0320479 on 1 procs for 65 steps with 54 atoms

99.8% CPU use with 1 MPI tasks x 1 OpenMP threads

Minimization stats:
  Stopping criterion = energy tolerance
  Energy initial, next-to-last, final = 
        -223.040449891      -244.74207829       -244.7441459
  Force two-norm initial, final = 11.4768 0.205732
  Force max component initial, final = 3.73674 0.140821
  Final line search alpha, max atom move = 0.495695 0.069804
  Iterations, force evaluations = 65 99

MPI task timing breakdown:
Section |  min time  |  avg time  |  max time  |%varavg| %total
---------------------------------------------------------------
Pair    | 0.029468   | 0.029468   | 0.029468   |   0.0 | 91.95
Neigh   | 0.001041   | 0.001041   | 0.001041   |   0.0 |  3.25
Comm    | 0.00086441 | 0.00086441 | 0.00086441 |   0.0 |  2.70
Output  | 0          | 0          | 0          |   0.0 |  0.00
Modify  | 5.1767e-05 | 5.1767e-05 | 5.1767e-05 |   0.0 |  0.16
Other   |            | 0.000623   |            |       |  1.94

Nlocal:    54 ave 54 max 54 min
Histogram: 1 0 0 0 0 0 0 0 0 0
Nghost:    892 ave 892 max 892 min
Histogram: 1 0 0 0 0 0 0 0 0 0
Neighs:    3296 ave 3296 max 3296 min
Histogram: 1 0 0 0 0 0 0 0 0 0

Total # of neighbors = 3296
Ave neighs/atom = 61.037
Neighbor list builds = 3
Dangerous builds = 0
System init for write_data ...
Total wall time: 0:00:00
