"Millerite NiS"                         
           1
    11.256463    0.000000    0.000000
     5.044562   10.062820    0.000000
     0.000000    0.000000   21.744232
   Ty   Ty
  48  48
Direct configuration=     1
   0.26092070  0.47878036  0.25332799
   0.35488056  0.38482049  0.38835497
   0.38071138  0.35899106  0.49810589
   0.16696083  0.07274024  0.11830101
   0.04917584  0.05484186  0.47263026
   0.27423906  0.33335899  0.08262607
   0.36819893  0.23939913  0.21765305
   0.46215880  0.14543926  0.35268003
   0.00030194  0.37150212  0.21765305
   0.09426181  0.27754226  0.35268003
   0.18486024  0.19052657  0.47262927
   0.40713210  0.45744793  0.10014481
   0.76092070  0.47878036  0.25332799
   0.85488056  0.38482049  0.38835497
   0.88074995  0.35895095  0.49811735
   0.66886843  0.07902995  0.14120443
   0.54917396  0.05484409  0.47263786
   0.80108744  0.22508398  0.11875601
   0.86819893  0.23939913  0.21765305
   0.96215880  0.14543926  0.35268003
   0.50030194  0.37150212  0.21765305
   0.59426181  0.27754226  0.35268003
   0.68485293  0.19052233  0.47264189
   0.01471894  0.43900060  0.11865666
   0.26092070  0.97878036  0.25332799
   0.35488056  0.88482049  0.38835497
   0.38071694  0.85898420  0.49811284
   0.16696083  0.57274024  0.11830101
   0.04917728  0.55484625  0.47263275
   0.27423907  0.83335899  0.08262607
   0.36819893  0.73939913  0.21765305
   0.46215880  0.64543926  0.35268003
   0.00030194  0.87150212  0.21765305
   0.09426181  0.77754226  0.35268003
   0.18486001  0.69052892  0.47262813
   0.40642648  0.95804209  0.09986823
   0.76092070  0.97878036  0.25332799
   0.85488056  0.88482049  0.38835497
   0.88071894  0.85898069  0.49810783
   0.63091247  0.60924202  0.17647729
   0.54918208  0.55484556  0.47268292
   0.78776081  0.83339355  0.10353177
   0.86819893  0.73939913  0.21765305
   0.96215880  0.64543926  0.35268003
   0.50030194  0.87150212  0.21765305
   0.59426181  0.77754226  0.35268003
   0.68485393  0.69051738  0.47268438
   0.90634206  0.96546199  0.08262607
   0.07287763  0.16682343  0.27005396
   0.16683750  0.07286357  0.40508094
   0.37184639  0.38834968  0.02046085
   0.47891775  0.26078330  0.13502698
   0.21519597  0.52451274  0.52498125
   0.03023343  0.37768264  0.45050807
   0.43627354  0.47164251  0.31548109
   0.26965773  0.15062083  0.06687743
   0.34231368  0.06560239  0.18045411
   0.10336400  0.48954960  0.04993325
   0.17409868  0.39738738  0.18045411
   0.26805855  0.30342751  0.31548109
   0.36201842  0.20946765  0.45050807
   0.57287763  0.16682343  0.27005396
   0.66683750  0.07286357  0.40508094
   0.97891775  0.26078330  0.13502698
   0.71523072  0.52446806  0.52499838
   0.53023343  0.37768264  0.45050807
   0.93627354  0.47164251  0.31548109
   0.73282301  0.13069170  0.06004189
   0.84231368  0.06560239  0.18045411
   0.67409868  0.39738738  0.18045411
   0.76805855  0.30342751  0.31548109
   0.86201842  0.20946765  0.45050807
   0.07287764  0.66682343  0.27005396
   0.16683750  0.57286357  0.40508094
   0.36309681  0.89493449  0.02024676
   0.47891775  0.76078330  0.13502698
   0.21519536  0.02450737  0.52498018
   0.03023342  0.87768264  0.45050807
   0.43627354  0.97164251  0.31548109
   0.27318561  0.64974383  0.06710742
   0.34231368  0.56560239  0.18045411
   0.08219103  0.97998252  0.06369892
   0.17409868  0.89738738  0.18045411
   0.26805855  0.80342751  0.31548109
   0.36201842  0.70946764  0.45050807
   0.57287764  0.66682343  0.27005396
   0.66683750  0.57286357  0.40508094
   0.83990537  0.87403823  0.02188483
   0.97891775  0.76078330  0.13502698
   0.71519719  0.02449715  0.52498383
   0.53023342  0.87768264  0.45050807
   0.93627354  0.97164251  0.31548109
   0.84231368  0.56560239  0.18045411
   0.67409868  0.89738738  0.18045411
   0.76805855  0.80342751  0.31548109
   0.86201842  0.70946764  0.45050807
