 vasp.5.4.4.18Apr17-6-g9f103f2a35 (build Aug 13 2019 17:33:20) gamma-only       
  
 executed on             LinuxIFC date 2020.05.12  20:03:12
 running on   12 total cores
 distrk:  each k-point on   12 cores,    1 groups
 distr:  one band on NCORES_PER_BAND=   6 cores,    2 groups


--------------------------------------------------------------------------------------------------------


 INCAR:
 POTCAR:    PAW_PBE Ni_pv 06Sep2000               
 POTCAR:    PAW_PBE S 06Sep2000                   
 POTCAR:    PAW_PBE Ni_pv 06Sep2000               
   VRHFIN =Ni:                                                                  
   LEXCH  = PE                                                                  
   EATOM  =  3501.1230 eV,  257.3253 Ry                                         
                                                                                
   TITEL  = PAW_PBE Ni_pv 06Sep2000                                             
   LULTRA =        F    use ultrasoft PP ?                                      
   IUNSCR =        1    unscreen: 0-lin 1-nonlin 2-no                           
   RPACOR =    1.500    partial core radius                                     
   POMASS =   58.690; ZVAL   =   16.000    mass and valenz                      
   RCORE  =    2.000    outmost cutoff radius                                   
   RWIGS  =    2.000; RWIGS  =    1.058    wigner-seitz radius (au A)           
   ENMAX  =  367.986; ENMIN  =  275.989 eV                                      
   RCLOC  =    1.301    cutoff for local pot                                    
   LCOR   =        T    correct aug charges                                     
   LPAW   =        T    paw PP                                                  
   EAUG   =  703.443                                                            
   DEXC   =    0.000                                                            
   RMAX   =    2.041    core radius for proj-oper                               
   RAUG   =    1.300    factor for augmentation sphere                          
   RDEP   =    2.103    radius for radial grids                                 
   RDEPT  =    1.618    core radius for aug-charge                              
                                                                                
   Atomic configuration                                                         
    8 entries                                                                   
     n  l   j            E        occ.                                          
     1  0  0.50     -8206.4253   2.0000                                         
     2  0  0.50      -976.1748   2.0000                                         
     2  1  1.50      -839.0571   6.0000                                         
     3  0  0.50      -105.9991   2.0000                                         
     3  1  1.50       -66.4603   6.0000                                         
     3  2  2.50        -4.6458   9.0000                                         
     4  0  0.50        -4.4926   1.0000                                         
     4  3  2.50        -1.3606   0.0000                                         
   Description                                                                  
     l       E           TYP  RCUT    TYP  RCUT                                 
     1    -66.4602962     23  1.700                                             
     1     -1.3605826     23  1.700                                             
     2     -4.6457867     23  2.000                                             
     2     -6.0063693     23  2.000                                             
     0     -4.4925576     23  1.900                                             
     0     16.3626226     23  1.900                                             
  local pseudopotential read in
  partial core-charges read in
  partial kinetic energy density read in
  atomic valenz-charges read in
  non local Contribution for L=           1  read in
    real space projection operators read in
  non local Contribution for L=           1  read in
    real space projection operators read in
  non local Contribution for L=           2  read in
    real space projection operators read in
  non local Contribution for L=           2  read in
    real space projection operators read in
  non local Contribution for L=           0  read in
    real space projection operators read in
  non local Contribution for L=           0  read in
    real space projection operators read in
    PAW grid and wavefunctions read in
 
   number of l-projection  operators is LMAX  =           6
   number of lm-projection operators is LMMAX =          18
 
 POTCAR:    PAW_PBE S 06Sep2000                   
   VRHFIN =S : s2p4                                                             
   LEXCH  = PE                                                                  
   EATOM  =   276.8230 eV,   20.3459 Ry                                         
                                                                                
   TITEL  = PAW_PBE S 06Sep2000                                                 
   LULTRA =        F    use ultrasoft PP ?                                      
   IUNSCR =        1    unscreen: 0-lin 1-nonlin 2-no                           
   RPACOR =    1.500    partial core radius                                     
   POMASS =   32.066; ZVAL   =    6.000    mass and valenz                      
   RCORE  =    1.900    outmost cutoff radius                                   
   RWIGS  =    2.200; RWIGS  =    1.164    wigner-seitz radius (au A)           
   ENMAX  =  258.689; ENMIN  =  194.016 eV                                      
   ICORE  =        2    local potential                                         
   LCOR   =        T    correct aug charges                                     
   LPAW   =        T    paw PP                                                  
   EAUG   =  335.092                                                            
   DEXC   =    0.000                                                            
   RMAX   =    1.942    core radius for proj-oper                               
   RAUG   =    1.300    factor for augmentation sphere                          
   RDEP   =    1.954    radius for radial grids                                 
   RDEPT  =    1.744    core radius for aug-charge                              
                                                                                
   Atomic configuration                                                         
    6 entries                                                                   
     n  l   j            E        occ.                                          
     1  0  0.50     -2405.8406   2.0000                                         
     2  0  0.50      -211.7007   2.0000                                         
     2  1  1.50      -156.4958   6.0000                                         
     3  0  0.50       -17.2562   2.0000                                         
     3  1  0.50        -7.0085   4.0000                                         
     3  2  1.50        -6.8029   0.0000                                         
   Description                                                                  
     l       E           TYP  RCUT    TYP  RCUT                                 
     0    -17.2561641     23  1.900                                             
     0    -15.8743224     23  1.900                                             
     1     -7.0085400     23  1.900                                             
     1     -2.7779785     23  1.900                                             
     2     -6.8029130     23  1.900                                             
  local pseudopotential read in
  partial core-charges read in
  partial kinetic energy density read in
  atomic valenz-charges read in
  non local Contribution for L=           0  read in
    real space projection operators read in
  non local Contribution for L=           0  read in
    real space projection operators read in
  non local Contribution for L=           1  read in
    real space projection operators read in
  non local Contribution for L=           1  read in
    real space projection operators read in
    PAW grid and wavefunctions read in
 
   number of l-projection  operators is LMAX  =           4
   number of lm-projection operators is LMMAX =           8
 
 Optimization of the real space projectors (new method)

 maximal supplied QI-value         = 18.90
 optimisation between [QCUT,QGAM] = [ 10.77, 21.73] = [ 32.49,132.25] Ry 
 Optimized for a Real-space Cutoff    1.38 Angstroem

   l    n(q)    QCUT    max X(q) W(low)/X(q) W(high)/X(q)  e(spline) 
   1      8    10.771     2.836    0.40E-04    0.29E-04    0.12E-06
   1      8    10.771     4.023    0.10E-03    0.48E-04    0.29E-06
   2      8    10.771    73.368    0.42E-03    0.97E-04    0.44E-06
   2      8    10.771    69.010    0.42E-03    0.99E-04    0.45E-06
   0      9    10.771    54.797    0.10E-03    0.56E-04    0.74E-07
   0      9    10.771    24.266    0.89E-04    0.49E-04    0.67E-07
 Optimization of the real space projectors (new method)

 maximal supplied QI-value         = 19.84
 optimisation between [QCUT,QGAM] = [ 10.71, 21.63] = [ 32.15,130.99] Ry 
 Optimized for a Real-space Cutoff    1.19 Angstroem

   l    n(q)    QCUT    max X(q) W(low)/X(q) W(high)/X(q)  e(spline) 
   0      8    10.715   187.594    0.41E-03    0.53E-04    0.66E-07
   0      8    10.715   164.243    0.41E-03    0.53E-04    0.65E-07
   1      7    10.715    67.533    0.19E-03    0.59E-03    0.68E-07
   1      7    10.715    50.729    0.19E-03    0.58E-03    0.67E-07
  PAW_PBE Ni_pv 06Sep2000               :
 energy of atom  1       EATOM=-3501.1230
 kinetic energy error for atom=    0.0925 (will be added to EATOM!!)
  PAW_PBE S 06Sep2000                   :
 energy of atom  2       EATOM= -276.8230
 kinetic energy error for atom=    0.0033 (will be added to EATOM!!)
 
 
 POSCAR: Type_036 Type_136                       
  positions in cartesian coordinates
  No initial velocities read in
 exchange correlation table for  LEXCH =        8
   RHO(1)=    0.500       N(1)  =     2000
   RHO(2)=  100.500       N(2)  =     4000
 


--------------------------------------------------------------------------------------------------------


 ion  position               nearest neighbor table
   1  0.310  0.983  0.056-  41 2.04  69 2.07  49 2.14  42 2.17  61 2.19   2 2.30
   2  0.397  0.795  0.127-  49 2.08  61 2.09  42 2.25   1 2.30  50 2.36  62 2.36  27 2.41  23 2.49

   3  0.547  0.645  0.254-  43 2.25  62 2.26  50 2.26  63 2.36  51 2.36  28 2.53  14 2.53
   4  0.698  0.494  0.381-  64 2.15  44 2.25  51 2.26  63 2.26  52 2.36  15 2.53  29 2.53
   5  0.817  0.345  0.483-  37 2.02  64 2.03  52 2.04  16 2.48  26 2.51
   6  0.114  0.412  0.169-  53 2.11  45 2.25  68 2.26  65 2.36  54 2.36   9 2.40  30 2.53  17 2.53

   7  0.264  0.261  0.296-  46 2.25  65 2.26  54 2.26  55 2.36  66 2.36  18 2.53  31 2.53
   8  0.414  0.111  0.423-  67 2.05  56 2.18  47 2.21  55 2.26  66 2.26  32 2.53  19 2.53
   9  0.959  0.608  0.108-  48 2.06  45 2.10  68 2.21   6 2.40  53 2.45  21 2.47
  10  0.700  0.208  0.146-  38 2.01  39 2.14  60 2.17  70 2.20  11 2.27
  11  0.831  0.028  0.212-  60 2.06  39 2.25  70 2.26  10 2.27  57 2.36  71 2.36  24 2.53  34 2.53

  12  0.981  0.878  0.338-  72 2.14  58 2.21  40 2.25  57 2.26  71 2.26  35 2.53  25 2.53
  13  0.371  0.523  0.121-  62 2.04  38 2.07  53 2.08  14 2.49
  14  0.508  0.420  0.220-  54 2.25  62 2.26  38 2.26  39 2.36  63 2.36  13 2.49  28 2.53   3 2.53

  15  0.658  0.270  0.347-  64 2.08  55 2.25  63 2.26  39 2.26  40 2.36   4 2.53  29 2.53
  16  0.757  0.136  0.451-  37 2.06  40 2.06  64 2.11  56 2.12   5 2.48
  17  0.074  0.187  0.136-  41 2.09  60 2.17  68 2.26  42 2.36  65 2.36   6 2.53  30 2.53
  18  0.224  0.037  0.263-  57 2.25  42 2.26  65 2.26  66 2.36  43 2.36   7 2.53  31 2.53
  19  0.375  0.886  0.390-  67 2.06  66 2.26  43 2.26  58 2.32  44 2.36  20 2.47  32 2.53   8 2.53

  20  0.474  0.764  0.492-  59 1.99  67 2.01  44 2.02  19 2.47
  21  0.065  0.383  0.047-  41 2.01  53 2.04  68 2.04   9 2.47
  22  0.094  0.485  0.419-  46 2.02  47 2.09  52 2.12  72 2.16
  23  0.589  0.883  0.096-  49 2.09  70 2.12  69 2.12  50 2.25   2 2.49  48 2.52
  24  0.791  0.804  0.178-  48 2.05  50 2.25  70 2.26  71 2.36  45 2.36  11 2.53  34 2.53
  25  0.941  0.653  0.305-  72 2.10  51 2.25  71 2.26  45 2.26  46 2.36  35 2.53  12 2.53
  26  0.023  0.173  0.424-  40 2.05  37 2.07  52 2.07  66 2.12   5 2.51
  27  0.586  0.597  0.081-  50 2.05  38 2.06  49 2.09   2 2.41
  28  0.732  0.460  0.187-  68 2.25  50 2.26  38 2.26  51 2.36  39 2.36  14 2.53   3 2.53
  29  0.882  0.310  0.314-  65 2.25  39 2.26  51 2.26  40 2.36  52 2.36   4 2.53  15 2.53
  30  0.299  0.227  0.102-  69 2.09  41 2.19  53 2.24  54 2.36  42 2.36   6 2.53  17 2.53
  31  0.449  0.076  0.229-  70 2.25  42 2.26  54 2.26  55 2.36  43 2.36  18 2.53   7 2.53
  32  0.599  0.926  0.356-  56 2.08  71 2.25  55 2.26  43 2.26  33 2.35  44 2.36   8 2.53  19 2.53

  33  0.773  0.790  0.429-  72 2.04  44 2.09  56 2.11  32 2.35
  34  0.015  0.843  0.144-  48 2.12  61 2.13  60 2.25  45 2.36  57 2.36  24 2.53  11 2.53
  35  0.166  0.693  0.271-  58 2.08  62 2.25  57 2.26  45 2.26  46 2.36  12 2.53  25 2.53
  36  0.302  0.563  0.382-  59 2.03  46 2.07  63 2.17  58 2.18  47 2.38
  37  0.925  0.141  0.507-   5 2.02  16 2.06  26 2.07
  38  0.586  0.406  0.117-  10 2.01  27 2.06  13 2.07  14 2.26  28 2.26
  39  0.736  0.256  0.244-  10 2.14  11 2.25  29 2.26  15 2.26  14 2.36  28 2.36
  40  0.886  0.105  0.371-  26 2.05  16 2.06  12 2.25  15 2.36  29 2.36
  41  0.149  0.171  0.041-  21 2.01   1 2.04  17 2.09  30 2.19
  42  0.303  0.023  0.160-   1 2.17   2 2.25  31 2.26  18 2.26  17 2.36  30 2.36  61 2.77
  43  0.453  0.872  0.286-   3 2.25  19 2.26  32 2.26  18 2.36  31 2.36
  44  0.603  0.722  0.413-  20 2.02  33 2.09   4 2.25  32 2.36  19 2.36
  45  0.019  0.639  0.202-   9 2.10   6 2.25  25 2.26  35 2.26  24 2.36  34 2.36
  46  0.170  0.489  0.329-  22 2.02  36 2.07   7 2.25  35 2.36  25 2.36  47 2.57  72 2.76
  47  0.303  0.343  0.426-  22 2.09   8 2.21  36 2.38  46 2.57
  48  0.854  0.818  0.085-  24 2.05   9 2.06  34 2.12  23 2.52
  49  0.482  0.790  0.035-   2 2.08  27 2.09  23 2.09   1 2.14
  50  0.636  0.692  0.160-  27 2.05  23 2.25  24 2.25  28 2.26   3 2.26   2 2.36
  51  0.787  0.542  0.287-  25 2.25   4 2.26  29 2.26  28 2.36   3 2.36
  52  0.937  0.391  0.414-   5 2.04  26 2.07  22 2.12   4 2.36  29 2.36
  53  0.208  0.462  0.086-  21 2.04  13 2.08   6 2.11  30 2.24   9 2.45
  54  0.353  0.308  0.202-  14 2.25   7 2.26  31 2.26  30 2.36   6 2.36
  55  0.503  0.158  0.329-  15 2.25   8 2.26  32 2.26   7 2.36  31 2.36
  56  0.638  0.001  0.445-  32 2.08  33 2.11  16 2.12   8 2.18
  57  0.070  0.925  0.245-  18 2.25  35 2.26  12 2.26  11 2.36  34 2.36  58 2.78
  58  0.213  0.786  0.354-  35 2.08  36 2.18  12 2.21  19 2.32  59 2.68  57 2.78
  59  0.355  0.658  0.460-  20 1.99  36 2.03  58 2.68
  60  0.922  0.080  0.131-  11 2.06  17 2.17  10 2.17  34 2.25
  61  0.191  0.852  0.090-   2 2.09  34 2.13   1 2.19  42 2.77
  62  0.350  0.641  0.203-  13 2.04  35 2.25  14 2.26   3 2.26   2 2.36
  63  0.501  0.491  0.330-  36 2.17   4 2.26  15 2.26   3 2.36  14 2.36  64 2.76
  64  0.632  0.354  0.440-   5 2.03  15 2.08  16 2.11   4 2.15  63 2.76
  65  0.067  0.258  0.245-  29 2.25   7 2.26  18 2.26   6 2.36  17 2.36
  66  0.218  0.108  0.372-  26 2.12  19 2.26   8 2.26  18 2.36   7 2.36  67 2.77
  67  0.363  0.972  0.481-  20 2.01   8 2.05  19 2.06  66 2.77
  68  0.917  0.408  0.118-  21 2.04   9 2.21  28 2.25  17 2.26   6 2.26
  69  0.462  0.076  0.051-   1 2.07  30 2.09  23 2.12  70 2.78
  70  0.634  0.025  0.160-  23 2.12  10 2.20  31 2.25  11 2.26  24 2.26  69 2.78
  71  0.784  0.874  0.287-  32 2.25  25 2.26  12 2.26  24 2.36  11 2.36
  72  0.980  0.707  0.400-  33 2.04  25 2.10  12 2.14  22 2.16  46 2.76
 
  LATTYP: Found a base centered orthorhombic cell.
 ALAT       =    11.4527836704
 B/A-ratio  =     1.4485816945
 C/A-ratio  =     1.8059804630
  
  Lattice vectors:
  
 A1 = (  10.0797329849,   0.0000000000,   0.0000000000)
 A2 = (  -3.5732980427,  -9.4251025535,   0.0000000000)
 A3 = (   0.0000000000,   0.0000000000, -20.6835035552)


Analysis of symmetry for initial positions (statically):
=====================================================================
 Subroutine PRICEL returns:
 Original cell was already a primitive cell.
 

 Routine SETGRP: Setting up the symmetry group for a 
 base centered orthorhombic supercell.


 Subroutine GETGRP returns: Found  1 space group operations
 (whereof  1 operations were pure point group operations)
 out of a pool of  8 trial point group operations.


The static configuration has the point symmetry C_1 .


Analysis of symmetry for dynamics (positions and initial velocities):
=====================================================================
 Subroutine PRICEL returns:
 Original cell was already a primitive cell.
 

 Routine SETGRP: Setting up the symmetry group for a 
 base centered orthorhombic supercell.


 Subroutine GETGRP returns: Found  1 space group operations
 (whereof  1 operations were pure point group operations)
 out of a pool of  8 trial point group operations.


The dynamic configuration has the point symmetry C_1 .


 Subroutine INISYM returns: Found  1 space group operations
 (whereof  1 operations are pure point group operations),
 and found     1 'primitive' translations

 
 
 KPOINTS: gamma-point-only calculation. no periodi

Automatic generation of k-mesh.
Space group operators:
 irot       det(A)        alpha          n_x          n_y          n_z        tau_x        tau_y        tau_z
    1     1.000000     0.000000     1.000000     0.000000     0.000000     0.000000     0.000000     0.000000
 
 Subroutine IBZKPT returns following result:
 ===========================================
 
 Found      1 irreducible k-points:
 
 Following reciprocal coordinates:
            Coordinates               Weight
  0.000000  0.000000  0.000000      1.000000
 
 Following cartesian coordinates:
            Coordinates               Weight
  0.000000  0.000000  0.000000      1.000000
 


--------------------------------------------------------------------------------------------------------




 Dimension of arrays:
   k-points           NKPTS =      1   k-points in BZ     NKDIM =      1   number of bands    NBANDS=    476
   number of dos      NEDOS =    301   number of ions     NIONS =     72
   non local maximal  LDIM  =      6   non local SUM 2l+1 LMDIM =     18
   total plane-waves  NPLWV = 314928
   max r-space proj   IRMAX =   1817   max aug-charges    IRDMAX=   5248
   dimension x,y,z NGX =    54 NGY =   54 NGZ =  108
   dimension x,y,z NGXF=   108 NGYF=  108 NGZF=  216
   support grid    NGXF=   108 NGYF=  108 NGZF=  216
   ions per type =              36  36
   NGX,Y,Z   is equivalent  to a cutoff of   8.91,  8.91,  8.68 a.u.
   NGXF,Y,Z  is equivalent  to a cutoff of  17.81, 17.81, 17.36 a.u.

 SYSTEM =  "Millerite NiS"                         
 POSCAR =  Type_036 Type_136                       

 Startparameter for this run:
   NWRITE =      2    write-flag & timer
   PREC   = normal    normal or accurate (medium, high low for compatibility)
   ISTART =      0    job   : 0-new  1-cont  2-samecut
   ICHARG =      2    charge: 1-file 2-atom 10-const
   ISPIN  =      1    spin polarized calculation?
   LNONCOLLINEAR =      F non collinear calculations
   LSORBIT =      F    spin-orbit coupling
   INIWAV =      1    electr: 0-lowe 1-rand  2-diag
   LASPH  =      F    aspherical Exc in radial PAW
   METAGGA=      F    non-selfconsistent MetaGGA calc.

 Electronic Relaxation 1
   ENCUT  =  450.0 eV  33.07 Ry    5.75 a.u.  17.43 17.43 35.78*2*pi/ulx,y,z
   ENINI  =  450.0     initial cutoff
   ENAUG  =  703.4 eV  augmentation charge cutoff
   NELM   =    100;   NELMIN=  2; NELMDL= -5     # of ELM steps 
   EDIFF  = 0.1E-03   stopping-criterion for ELM
   LREAL  =      T    real-space projection
   NLSPLINE    = F    spline interpolate recip. space projectors
   LCOMPAT=      F    compatible to vasp.4.4
   GGA_COMPAT  = T    GGA compatible to vasp.4.4-vasp.4.6
   LMAXPAW     = -100 max onsite density
   LMAXMIX     =    2 max onsite mixed and CHGCAR
   VOSKOWN=      0    Vosko Wilk Nusair interpolation
   ROPT   =   -0.00050  -0.00050
 Ionic relaxation
   EDIFFG = 0.1E-02   stopping-criterion for IOM
   NSW    =      0    number of steps for IOM
   NBLOCK =      1;   KBLOCK =      1    inner block; outer block 
   IBRION =     -1    ionic relax: 0-MD 1-quasi-New 2-CG
   NFREE  =      0    steps in history (QN), initial steepest desc. (CG)
   ISIF   =      2    stress and relaxation
   IWAVPR =     10    prediction:  0-non 1-charg 2-wave 3-comb
   ISYM   =      2    0-nonsym 1-usesym 2-fastsym
   LCORR  =      T    Harris-Foulkes like correction to forces

   POTIM  = 0.5000    time-step for ionic-motion
   TEIN   =    0.0    initial temperature
   TEBEG  =    0.0;   TEEND  =   0.0 temperature during run
   SMASS  =  -3.00    Nose mass-parameter (am)
   estimated Nose-frequenzy (Omega)   =  0.10E-29 period in steps =****** mass=  -0.232E-26a.u.
   SCALEE = 1.0000    scale energy and forces
   NPACO  =    256;   APACO  = 16.0  distance and # of slots for P.C.
   PSTRESS=    0.0 pullay stress

  Mass of Ions in am
   POMASS =  58.69 32.07
  Ionic Valenz
   ZVAL   =  16.00  6.00
  Atomic Wigner-Seitz radii
   RWIGS  =  -1.00 -1.00
  virtual crystal weights 
   VCA    =   1.00  1.00
   NELECT =     792.0000    total number of electrons
   NUPDOWN=      -1.0000    fix difference up-down

 DOS related values:
   EMIN   =  10.00;   EMAX   =-10.00  energy-range for DOS
   EFERMI =   0.00
   ISMEAR =     0;   SIGMA  =   0.20  broadening in eV -4-tet -1-fermi 0-gaus

 Electronic relaxation 2 (details)
   IALGO  =     38    algorithm
   LDIAG  =      T    sub-space diagonalisation (order eigenvalues)
   LSUBROT=      F    optimize rotation matrix (better conditioning)
   TURBO    =      0    0=normal 1=particle mesh
   IRESTART =      0    0=no restart 2=restart with 2 vectors
   NREBOOT  =      0    no. of reboots
   NMIN     =      0    reboot dimension
   EREF     =   0.00    reference energy to select bands
   IMIX   =      4    mixing-type and parameters
     AMIX     =   0.40;   BMIX     =  1.00
     AMIX_MAG =   1.60;   BMIX_MAG =  1.00
     AMIN     =   0.10
     WC   =   100.;   INIMIX=   1;  MIXPRE=   1;  MAXMIX= -45

 Intra band minimization:
   WEIMIN = 0.0000     energy-eigenvalue tresh-hold
   EBREAK =  0.53E-07  absolut break condition
   DEPER  =   0.30     relativ break condition  

   TIME   =   0.40     timestep for ELM

  volume/ion in A,a.u.               =      27.29       184.17
  Fermi-wavevector in a.u.,A,eV,Ry     =   1.209289  2.285225 19.896891  1.462380
  Thomas-Fermi vector in A             =   2.344871
 
 Write flags
   LWAVE        =      F    write WAVECAR
   LDOWNSAMPLE  =      F    k-point downsampling of WAVECAR
   LCHARG       =      F    write CHGCAR
   LVTOT        =      F    write LOCPOT, total local potential
   LVHAR        =      F    write LOCPOT, Hartree potential only
   LELF         =      F    write electronic localiz. function (ELF)
   LORBIT       =      0    0 simple, 1 ext, 2 COOP (PROOUT), +10 PAW based schemes


 Dipole corrections
   LMONO  =      F    monopole corrections only (constant potential shift)
   LDIPOL =      F    correct potential (dipole corrections)
   IDIPOL =      0    1-x, 2-y, 3-z, 4-all directions 
   EPSILON=  1.0000000 bulk dielectric constant

 Exchange correlation treatment:
   GGA     =    --    GGA type
   LEXCH   =     8    internal setting for exchange type
   VOSKOWN=      0    Vosko Wilk Nusair interpolation
   LHFCALC =     F    Hartree Fock is set to
   LHFONE  =     F    Hartree Fock one center treatment
   AEXX    =    0.0000 exact exchange contribution

 Linear response parameters
   LEPSILON=     F    determine dielectric tensor
   LRPA    =     F    only Hartree local field effects (RPA)
   LNABLA  =     F    use nabla operator in PAW spheres
   LVEL    =     F    velocity operator in full k-point grid
   LINTERFAST=   F  fast interpolation
   KINTER  =     0    interpolate to denser k-point grid
   CSHIFT  =0.1000    complex shift for real part using Kramers Kronig
   OMEGAMAX=  -1.0    maximum frequency
   DEG_THRESHOLD= 0.2000000E-02 threshold for treating states as degnerate
   RTIME   =   -0.100 relaxation time in fs
  (WPLASMAI=    0.000 imaginary part of plasma frequency in eV, 0.658/RTIME)
   DFIELD  = 0.0000000 0.0000000 0.0000000 field for delta impulse in time
 
 Orbital magnetization related:
   ORBITALMAG=     F  switch on orbital magnetization
   LCHIMAG   =     F  perturbation theory with respect to B field
   DQ        =  0.001000  dq finite difference perturbation B field
   LLRAUG    =     F  two centre corrections for induced B field



--------------------------------------------------------------------------------------------------------


 Static calculation
 charge density and potential will be updated during run
 non-spin polarized calculation
 Variant of blocked Davidson
 Davidson routine will perform the subspace rotation
 perform sub-space diagonalisation
    after iterative eigenvector-optimisation
 modified Broyden-mixing scheme, WC =      100.0
 initial mixing is a Kerker type mixing with AMIX =  0.4000 and BMIX =      1.0000
 Hartree-type preconditioning will be used
 using additional bands           80
 real space projection scheme for non local part
 use partial core corrections
 calculate Harris-corrections to forces 
   (improved forces if not selfconsistent)
 use gradient corrections 
 use of overlap-Matrix (Vanderbilt PP)
 Gauss-broadening in eV      SIGMA  =   0.20


--------------------------------------------------------------------------------------------------------


  energy-cutoff  :      450.00
  volume of cell :     1964.98
      direct lattice vectors                 reciprocal lattice vectors
    10.079732985  0.000000000  0.000000000     0.099208977 -0.037612667  0.000000000
     3.573298043  9.425102554  0.000000000     0.000000000  0.106099641  0.000000000
     0.000000000  0.000000000 20.683503555     0.000000000  0.000000000  0.048347708

  length of vectors
    10.079732985 10.079732985 20.683503555     0.106099641  0.106099641  0.048347708


 
 k-points in units of 2pi/SCALE and weight: gamma-point-only calculation. no periodi
   0.00000000  0.00000000  0.00000000       1.000
 
 k-points in reciprocal lattice and weights: gamma-point-only calculation. no periodi
   0.00000000  0.00000000  0.00000000       1.000
 
 position of ions in fractional coordinates (direct lattice) 
   0.31034724  0.98275412  0.05646560
   0.39705889  0.79495179  0.12693702
   0.54732740  0.64468328  0.25387405
   0.69759592  0.49441476  0.38081107
   0.81653675  0.34529860  0.48319905
   0.11381506  0.41152895  0.16924937
   0.26408357  0.26126044  0.29618639
   0.41435209  0.11099193  0.42312341
   0.95929591  0.60763601  0.10771291
   0.69983828  0.20839964  0.14641920
   0.83057123  0.02810611  0.21156171
   0.98083975  0.87783760  0.33849873
   0.37090507  0.52323208  0.12066999
   0.50762556  0.42017912  0.22033653
   0.65789407  0.26991061  0.34727355
   0.75666887  0.13645045  0.45098721
   0.07411322  0.18702479  0.13571184
   0.22438173  0.03675628  0.26264887
   0.37465025  0.88648777  0.38958589
   0.47437615  0.76443619  0.49179392
   0.06540791  0.38302806  0.04732460
   0.09446642  0.48515192  0.41886415
   0.58939296  0.88293101  0.09558925
   0.79086939  0.80360196  0.17802418
   0.94113790  0.65333344  0.30496121
   0.02296310  0.17319847  0.42355439
   0.58596737  0.59655163  0.08089444
   0.73212972  0.45988096  0.18679900
   0.88239823  0.30961245  0.31373603
   0.29861738  0.22672664  0.10217432
   0.44888589  0.07645812  0.22911134
   0.59915440  0.92618961  0.35604837
   0.77324906  0.79030695  0.42892595
   0.01537355  0.84330380  0.14448666
   0.16564206  0.69303529  0.27142369
   0.30222033  0.56293596  0.38240062
   0.92452384  0.14053420  0.50656268
   0.58579929  0.40599939  0.11724657
   0.73606781  0.25573088  0.24418359
   0.88633632  0.10546236  0.37112062
   0.14910043  0.17073001  0.04065641
   0.30255546  0.02257655  0.15955891
   0.45282398  0.87230804  0.28649593
   0.60309249  0.72203952  0.41343296
   0.01931164  0.63915371  0.20187125
   0.16958015  0.48888520  0.32880827
   0.30336804  0.34340500  0.42577754
   0.85417576  0.81813994  0.08517322
   0.48181422  0.78956765  0.03475074
   0.63635413  0.69187455  0.15995199
   0.78662264  0.54160604  0.28688901
   0.93689115  0.39133753  0.41382604
   0.20784906  0.46161854  0.08634640
   0.35311030  0.30845171  0.20226433
   0.50337881  0.15818320  0.32920136
   0.63767522  0.00085189  0.44540791
   0.06986647  0.92502888  0.24457667
   0.21298295  0.78585385  0.35410695
   0.35464110  0.65805945  0.46003394
   0.92152200  0.08027035  0.13106110
   0.19091630  0.85164603  0.08991297
   0.35047896  0.64131972  0.20265741
   0.50074748  0.49105120  0.32959444
   0.63249812  0.35352934  0.44024479
   0.06723514  0.25789688  0.24496976
   0.21750365  0.10762837  0.37190678
   0.36257758  0.97205651  0.48103382
   0.91696662  0.40816539  0.11803273
   0.46217743  0.07639458  0.05126203
   0.63372279  0.02474255  0.16034507
   0.78399131  0.87447404  0.28728210
   0.97986479  0.70657369  0.39951728
 
 position of ions in cartesian coordinates  (Angst):
   6.63989071  9.26255833  1.16790641
   6.84284728  7.49250214  2.62550239
   7.82055958  6.07620600  5.25100480
   8.79827188  4.65990985  7.87650718
   9.46432727  3.25447474  9.99424935
   2.61774104  3.87870257  3.50066986
   3.59545334  2.46240643  6.12617225
   4.57316564  1.04611029  8.75167464
  11.84071119  5.72703173  2.22788046
   7.79885700  1.96418800  3.02846210
   8.47236779  0.26490301  4.37583732
  13.02337813  8.27370942  7.00133973
   5.60828824  4.93151604  2.49587811
   6.61815534  3.96023129  4.55733130
   7.59586764  2.54393515  7.18283371
   8.11459830  1.28605952  9.32799547
   1.41533680  1.76272786  2.80699637
   2.39304911  0.34643173  5.43249877
   6.94405944  8.35523814  8.05800116
   7.51314329  7.20488953 10.17202132
   2.02796765  3.61007873  0.97883856
   2.68578868  4.57260657  8.66357809
   9.09589933  8.32171535  1.97712067
  10.84326159  7.57403086  3.68216384
  11.82097388  6.15773471  6.30766623
   0.85035165  1.63241336  8.76058883
   8.03805140  5.62256029  1.67318041
   9.02296382  4.33442523  3.86365782
  10.00067612  2.91812908  6.48916021
   3.82014528  2.13692181  2.11332289
   4.79785758  0.72062566  4.73882528
   9.34886792  8.72943208  7.36432769
  10.61814638  7.44872409  8.87169132
   3.16833707  7.94822479  2.98849035
   4.14604938  6.53192865  5.61399275
   5.05783823  5.30572918  7.90938451
   9.82112403  1.32454920 10.47749101
   7.35545728  3.82658586  2.42506979
   8.33316958  2.41028972  5.05057219
   9.31088188  0.99399359  7.67607458
   2.11296175  1.60914785  0.84091703
   3.13035103  0.21278630  3.30023726
   7.68136138  8.22159271  5.92573965
   8.65907368  6.80529657  8.55124204
   2.47854283  6.02408928  4.17540472
   3.45625514  4.60779315  6.80090710
   4.28495729  3.23662738  8.80657135
  11.53332143  7.71105280  1.76168050
   7.67791927  7.44175611  0.71876701
   8.88655369  6.52098861  3.30836755
   9.86426599  5.10469246  5.93386996
  10.84197829  3.68839633  8.55937235
   3.74456362  4.35080208  1.78594616
   4.66144744  2.90718904  4.18353503
   5.63915974  1.49089290  6.80903742
   6.43064002  0.00802912  9.21259605
   4.00963925  8.71849203  5.05870249
   4.95490132  7.40675315  7.32417231
   5.92613018  6.20227781  9.51511366
   9.57552556  0.75655626  2.71080281
   4.96757045  8.02685113  1.85971524
   5.82436087  6.04450409  4.19166532
   6.80207317  4.62820796  6.81716773
   7.63867788  3.33205030  9.10580469
   1.59925463  2.43070453  5.06683280
   2.57696692  1.01440839  7.69233519
   7.12813279  9.16173231  9.94946476
  10.70127531  3.84700067  2.44133041
   4.93160565  0.72002675  1.06027840
   6.47616907  0.23320111  3.31649787
  11.02717941  8.24200752  5.94200025
  12.40157383  6.65952948  8.26341715
 


--------------------------------------------------------------------------------------------------------


 use parallel FFT for orbitals z direction half grid
 k-point  1 :   0.0000 0.0000 0.0000  plane waves:   21301

 maximum and minimum number of plane-waves per node :      3554     3548

 maximum number of plane-waves:     21301
 maximum index in each direction: 
   IXMAX=   17   IYMAX=   17   IZMAX=   35
   IXMIN=  -17   IYMIN=  -17   IZMIN=    0


 real space projection operators:
  total allocation   :      11163.19 KBytes
  max/ min on nodes  :       1868.08       1852.39


 parallel 3D FFT for wavefunctions:
    minimum data exchange during FFTs selected (reduces bandwidth)
 parallel 3D FFT for charge:
    minimum data exchange during FFTs selected (reduces bandwidth)


 total amount of memory used by VASP MPI-rank0    68391. kBytes
=======================================================================

   base      :      30000. kBytes
   nonlr-proj:       2276. kBytes
   fftplans  :       8265. kBytes
   grid      :      13942. kBytes
   one-center:         93. kBytes
   wavefun   :      13815. kBytes
 
     INWAV:  cpu time    0.0000: real time    0.0000
 Broyden mixing: mesh for mixing (old mesh)
   NGX = 35   NGY = 35   NGZ = 71
  (NGX  =108   NGY  =108   NGZ  =216)
  gives a total of  86975 points

 initial charge density was supplied:
 charge density of overlapping atoms calculated
 number of electron     792.0000000 magnetization 
 keeping initial charge density in first step


--------------------------------------------------------------------------------------------------------


 Maximum index for non-local projection operator          301
 Maximum index for augmentation-charges          469 (set IRDMAX)


--------------------------------------------------------------------------------------------------------


 First call to EWALD:  gamma=   0.142
 Maximum number of real-space cells 3x 3x 2
 Maximum number of reciprocal cells 2x 2x 4

    FEWALD:  cpu time    0.0056: real time    0.0056


--------------------------------------- Iteration      1(   1)  ---------------------------------------


    POTLOK:  cpu time    0.2574: real time    0.2582
    SETDIJ:  cpu time    0.0206: real time    0.0206
     EDDAV:  cpu time    6.8089: real time    6.8127
       DOS:  cpu time    0.0016: real time    0.0016
    --------------------------------------------
      LOOP:  cpu time    7.0885: real time    7.0931

 eigenvalue-minimisations  :  1160
 total energy-change (2. order) : 0.9932880E+04  (-0.5136087E+05)
 number of electron     792.0000000 magnetization 
 augmentation part      792.0000000 magnetization 

 Free energy of the ion-electron system (eV)
  ---------------------------------------------------
  alpha Z        PSCENC =      1893.09323658
  Ewald energy   TEWEN  =    222357.94301921
  -Hartree energ DENC   =   -344535.97363368
  -exchange      EXHF   =         0.00000000
  -V(xc)+E(xc)   XCENC  =      3681.93152214
  PAW double counting   =    112729.53333415  -117641.51188735
  entropy T*S    EENTRO =        -0.42269670
  eigenvalues    EBANDS =     -4554.31803844
  atomic energy  EATOM  =    136002.60505376
  Solvation  Ediel_sol  =         0.00000000
  ---------------------------------------------------
  free energy    TOTEN  =      9932.87990967 eV

  energy without entropy =     9933.30260638  energy(sigma->0) =     9933.09125803


--------------------------------------------------------------------------------------------------------




--------------------------------------- Iteration      1(   2)  ---------------------------------------


     EDDAV:  cpu time    6.1478: real time    6.1507
       DOS:  cpu time    0.0011: real time    0.0011
    --------------------------------------------
      LOOP:  cpu time    6.1489: real time    6.1518

 eigenvalue-minimisations  :  1012
 total energy-change (2. order) :-0.9329616E+04  (-0.8995605E+04)
 number of electron     792.0000000 magnetization 
 augmentation part      792.0000000 magnetization 

 Free energy of the ion-electron system (eV)
  ---------------------------------------------------
  alpha Z        PSCENC =      1893.09323658
  Ewald energy   TEWEN  =    222357.94301921
  -Hartree energ DENC   =   -344535.97363368
  -exchange      EXHF   =         0.00000000
  -V(xc)+E(xc)   XCENC  =      3681.93152214
  PAW double counting   =    112729.53333415  -117641.51188735
  entropy T*S    EENTRO =        -0.57618599
  eigenvalues    EBANDS =    -13883.78081615
  atomic energy  EATOM  =    136002.60505376
  Solvation  Ediel_sol  =         0.00000000
  ---------------------------------------------------
  free energy    TOTEN  =       603.26364267 eV

  energy without entropy =      603.83982866  energy(sigma->0) =      603.55173566


--------------------------------------------------------------------------------------------------------




--------------------------------------- Iteration      1(   3)  ---------------------------------------


     EDDAV:  cpu time    6.3715: real time    6.3728
       DOS:  cpu time    0.0011: real time    0.0011
    --------------------------------------------
      LOOP:  cpu time    6.3727: real time    6.3740

 eigenvalue-minimisations  :  1064
 total energy-change (2. order) :-0.9426736E+03  (-0.8985555E+03)
 number of electron     792.0000000 magnetization 
 augmentation part      792.0000000 magnetization 

 Free energy of the ion-electron system (eV)
  ---------------------------------------------------
  alpha Z        PSCENC =      1893.09323658
  Ewald energy   TEWEN  =    222357.94301921
  -Hartree energ DENC   =   -344535.97363368
  -exchange      EXHF   =         0.00000000
  -V(xc)+E(xc)   XCENC  =      3681.93152214
  PAW double counting   =    112729.53333415  -117641.51188735
  entropy T*S    EENTRO =        -1.14380353
  eigenvalues    EBANDS =    -14825.88674878
  atomic energy  EATOM  =    136002.60505376
  Solvation  Ediel_sol  =         0.00000000
  ---------------------------------------------------
  free energy    TOTEN  =      -339.40990750 eV

  energy without entropy =     -338.26610397  energy(sigma->0) =     -338.83800573


--------------------------------------------------------------------------------------------------------




--------------------------------------- Iteration      1(   4)  ---------------------------------------


     EDDAV:  cpu time    6.5797: real time    6.5806
       DOS:  cpu time    0.0013: real time    0.0013
    --------------------------------------------
      LOOP:  cpu time    6.5810: real time    6.5819

 eigenvalue-minimisations  :  1088
 total energy-change (2. order) :-0.5719765E+02  (-0.5655014E+02)
 number of electron     792.0000000 magnetization 
 augmentation part      792.0000000 magnetization 

 Free energy of the ion-electron system (eV)
  ---------------------------------------------------
  alpha Z        PSCENC =      1893.09323658
  Ewald energy   TEWEN  =    222357.94301921
  -Hartree energ DENC   =   -344535.97363368
  -exchange      EXHF   =         0.00000000
  -V(xc)+E(xc)   XCENC  =      3681.93152214
  PAW double counting   =    112729.53333415  -117641.51188735
  entropy T*S    EENTRO =        -1.17402576
  eigenvalues    EBANDS =    -14883.05417539
  atomic energy  EATOM  =    136002.60505376
  Solvation  Ediel_sol  =         0.00000000
  ---------------------------------------------------
  free energy    TOTEN  =      -396.60755634 eV

  energy without entropy =     -395.43353058  energy(sigma->0) =     -396.02054346


--------------------------------------------------------------------------------------------------------




--------------------------------------- Iteration      1(   5)  ---------------------------------------


     EDDAV:  cpu time    7.4172: real time    7.4222
       DOS:  cpu time    0.0012: real time    0.0012
    CHARGE:  cpu time    0.2134: real time    0.2134
    MIXING:  cpu time    0.0085: real time    0.0085
    --------------------------------------------
      LOOP:  cpu time    7.6403: real time    7.6453

 eigenvalue-minimisations  :  1256
 total energy-change (2. order) :-0.2383342E+01  (-0.2380310E+01)
 number of electron     792.0000610 magnetization 
 augmentation part      286.9732515 magnetization 

 Broyden mixing:
  rms(total) = 0.96555E+01    rms(broyden)= 0.96467E+01
  rms(prec ) = 0.99833E+01
  weight for this iteration     100.00

 Free energy of the ion-electron system (eV)
  ---------------------------------------------------
  alpha Z        PSCENC =      1893.09323658
  Ewald energy   TEWEN  =    222357.94301921
  -Hartree energ DENC   =   -344535.97363368
  -exchange      EXHF   =         0.00000000
  -V(xc)+E(xc)   XCENC  =      3681.93152214
  PAW double counting   =    112729.53333415  -117641.51188735
  entropy T*S    EENTRO =        -1.16271584
  eigenvalues    EBANDS =    -14885.44882721
  atomic energy  EATOM  =    136002.60505376
  Solvation  Ediel_sol  =         0.00000000
  ---------------------------------------------------
  free energy    TOTEN  =      -398.99089823 eV

  energy without entropy =     -397.82818240  energy(sigma->0) =     -398.40954031


--------------------------------------------------------------------------------------------------------




--------------------------------------- Iteration      1(   6)  ---------------------------------------


    POTLOK:  cpu time    0.2463: real time    0.2463
    SETDIJ:  cpu time    0.0174: real time    0.0174
     EDDAV:  cpu time    6.9412: real time    6.9451
       DOS:  cpu time    0.0011: real time    0.0011
    CHARGE:  cpu time    0.2072: real time    0.2072
    MIXING:  cpu time    0.0086: real time    0.0086
    --------------------------------------------
      LOOP:  cpu time    7.4218: real time    7.4258

 eigenvalue-minimisations  :  1184
 total energy-change (2. order) :-0.5804780E+02  (-0.9096458E+02)
 number of electron     792.0000691 magnetization 
 augmentation part      345.6903552 magnetization 

 Broyden mixing:
  rms(total) = 0.15031E+02    rms(broyden)= 0.15029E+02
  rms(prec ) = 0.15550E+02
  weight for this iteration     100.00

 eigenvalues of (default mixing * dielectric matrix)
  average eigenvalue GAMMA=   0.2639
  0.2639

 Free energy of the ion-electron system (eV)
  ---------------------------------------------------
  alpha Z        PSCENC =      1893.09323658
  Ewald energy   TEWEN  =    222357.94301921
  -Hartree energ DENC   =   -341907.77168991
  -exchange      EXHF   =         0.00000000
  -V(xc)+E(xc)   XCENC  =      3608.69347038
  PAW double counting   =    117659.63108053  -122342.91802254
  entropy T*S    EENTRO =        -0.90810970
  eigenvalues    EBANDS =    -17727.40674154
  atomic energy  EATOM  =    136002.60505376
  Solvation  Ediel_sol  =         0.00000000
  ---------------------------------------------------
  free energy    TOTEN  =      -457.03870322 eV

  energy without entropy =     -456.13059353  energy(sigma->0) =     -456.58464837


--------------------------------------------------------------------------------------------------------




--------------------------------------- Iteration      1(   7)  ---------------------------------------


    POTLOK:  cpu time    0.2428: real time    0.2428
    SETDIJ:  cpu time    0.0176: real time    0.0176
     EDDAV:  cpu time    6.7962: real time    6.7971
       DOS:  cpu time    0.0012: real time    0.0012
    CHARGE:  cpu time    0.2125: real time    0.2126
    MIXING:  cpu time    0.0088: real time    0.0088
    --------------------------------------------
      LOOP:  cpu time    7.2792: real time    7.2803

 eigenvalue-minimisations  :  1080
 total energy-change (2. order) : 0.9326045E+02  (-0.1986957E+02)
 number of electron     792.0000667 magnetization 
 augmentation part      328.7075191 magnetization 

 Broyden mixing:
  rms(total) = 0.61846E+01    rms(broyden)= 0.61831E+01
  rms(prec ) = 0.63958E+01
  weight for this iteration     100.00

 eigenvalues of (default mixing * dielectric matrix)
  average eigenvalue GAMMA=   0.5480
  0.6592  0.4369

 Free energy of the ion-electron system (eV)
  ---------------------------------------------------
  alpha Z        PSCENC =      1893.09323658
  Ewald energy   TEWEN  =    222357.94301921
  -Hartree energ DENC   =   -343084.17394727
  -exchange      EXHF   =         0.00000000
  -V(xc)+E(xc)   XCENC  =      3636.18742166
  PAW double counting   =    122333.17938302  -127162.75926318
  entropy T*S    EENTRO =        -0.83917628
  eigenvalues    EBANDS =    -16339.01397901
  atomic energy  EATOM  =    136002.60505376
  Solvation  Ediel_sol  =         0.00000000
  ---------------------------------------------------
  free energy    TOTEN  =      -363.77825151 eV

  energy without entropy =     -362.93907523  energy(sigma->0) =     -363.35866337


--------------------------------------------------------------------------------------------------------




--------------------------------------- Iteration      1(   8)  ---------------------------------------


    POTLOK:  cpu time    0.2562: real time    0.2572
    SETDIJ:  cpu time    0.0174: real time    0.0174
     EDDAV:  cpu time    7.3559: real time    7.3589
       DOS:  cpu time    0.0011: real time    0.0011
    CHARGE:  cpu time    0.2058: real time    0.2058
    MIXING:  cpu time    0.0087: real time    0.0087
    --------------------------------------------
      LOOP:  cpu time    7.8452: real time    7.8492

 eigenvalue-minimisations  :  1280
 total energy-change (2. order) :-0.5581046E+02  (-0.2111066E+02)
 number of electron     792.0000649 magnetization 
 augmentation part      304.2836280 magnetization 

 Broyden mixing:
  rms(total) = 0.12488E+02    rms(broyden)= 0.12487E+02
  rms(prec ) = 0.14427E+02
  weight for this iteration     100.00

 eigenvalues of (default mixing * dielectric matrix)
  average eigenvalue GAMMA=   0.5275
  0.9727  0.4224  0.1874

 Free energy of the ion-electron system (eV)
  ---------------------------------------------------
  alpha Z        PSCENC =      1893.09323658
  Ewald energy   TEWEN  =    222357.94301921
  -Hartree energ DENC   =   -343811.26631820
  -exchange      EXHF   =         0.00000000
  -V(xc)+E(xc)   XCENC  =      3660.91523868
  PAW double counting   =    129902.99152775  -134870.59343071
  entropy T*S    EENTRO =        -1.06510199
  eigenvalues    EBANDS =    -15554.21193188
  atomic energy  EATOM  =    136002.60505376
  Solvation  Ediel_sol  =         0.00000000
  ---------------------------------------------------
  free energy    TOTEN  =      -419.58870679 eV

  energy without entropy =     -418.52360481  energy(sigma->0) =     -419.05615580


--------------------------------------------------------------------------------------------------------




--------------------------------------- Iteration      1(   9)  ---------------------------------------


    POTLOK:  cpu time    0.2431: real time    0.2431
    SETDIJ:  cpu time    0.0210: real time    0.0211
     EDDAV:  cpu time    7.0830: real time    7.0849
       DOS:  cpu time    0.0011: real time    0.0011
    CHARGE:  cpu time    0.2095: real time    0.2095
    MIXING:  cpu time    0.0105: real time    0.0105
    --------------------------------------------
      LOOP:  cpu time    7.5683: real time    7.5703

 eigenvalue-minimisations  :  1224
 total energy-change (2. order) : 0.3717511E+02  (-0.1418100E+02)
 number of electron     792.0000657 magnetization 
 augmentation part      304.7781459 magnetization 

 Broyden mixing:
  rms(total) = 0.72610E+01    rms(broyden)= 0.72542E+01
  rms(prec ) = 0.85322E+01
  weight for this iteration     100.00

 eigenvalues of (default mixing * dielectric matrix)
  average eigenvalue GAMMA=   0.5969
  1.5013  0.3798  0.3798  0.1268

 Free energy of the ion-electron system (eV)
  ---------------------------------------------------
  alpha Z        PSCENC =      1893.09323658
  Ewald energy   TEWEN  =    222357.94301921
  -Hartree energ DENC   =   -343880.92852072
  -exchange      EXHF   =         0.00000000
  -V(xc)+E(xc)   XCENC  =      3658.80872469
  PAW double counting   =    133176.89542377  -138158.58538047
  entropy T*S    EENTRO =        -1.11123103
  eigenvalues    EBANDS =    -15431.13392387
  atomic energy  EATOM  =    136002.60505376
  Solvation  Ediel_sol  =         0.00000000
  ---------------------------------------------------
  free energy    TOTEN  =      -382.41359809 eV

  energy without entropy =     -381.30236705  energy(sigma->0) =     -381.85798257


--------------------------------------------------------------------------------------------------------




--------------------------------------- Iteration      1(  10)  ---------------------------------------


    POTLOK:  cpu time    0.2898: real time    0.2898
    SETDIJ:  cpu time    0.0352: real time    0.0352
     EDDAV:  cpu time    7.6268: real time    7.6308
       DOS:  cpu time    0.0011: real time    0.0011
    CHARGE:  cpu time    0.2099: real time    0.2099
    MIXING:  cpu time    0.0103: real time    0.0103
    --------------------------------------------
      LOOP:  cpu time    8.1731: real time    8.1771

 eigenvalue-minimisations  :  1312
 total energy-change (2. order) :-0.2407413E+02  (-0.1120227E+02)
 number of electron     792.0000627 magnetization 
 augmentation part      302.2569000 magnetization 

 Broyden mixing:
  rms(total) = 0.96670E+01    rms(broyden)= 0.96633E+01
  rms(prec ) = 0.11399E+02
  weight for this iteration     100.00

 eigenvalues of (default mixing * dielectric matrix)
  average eigenvalue GAMMA=   0.6238
  2.0366  0.4159  0.4159  0.1253  0.1253

 Free energy of the ion-electron system (eV)
  ---------------------------------------------------
  alpha Z        PSCENC =      1893.09323658
  Ewald energy   TEWEN  =    222357.94301921
  -Hartree energ DENC   =   -343921.12343542
  -exchange      EXHF   =         0.00000000
  -V(xc)+E(xc)   XCENC  =      3655.77774131
  PAW double counting   =    137211.86193847  -142213.69722881
  entropy T*S    EENTRO =        -1.15171519
  eigenvalues    EBANDS =    -15391.79634088
  atomic energy  EATOM  =    136002.60505376
  Solvation  Ediel_sol  =         0.00000000
  ---------------------------------------------------
  free energy    TOTEN  =      -406.48773096 eV

  energy without entropy =     -405.33601577  energy(sigma->0) =     -405.91187336


--------------------------------------------------------------------------------------------------------




--------------------------------------- Iteration      1(  11)  ---------------------------------------


    POTLOK:  cpu time    0.2447: real time    0.2447
    SETDIJ:  cpu time    0.0172: real time    0.0172
     EDDAV:  cpu time    7.3838: real time    7.3849
       DOS:  cpu time    0.0011: real time    0.0011
    CHARGE:  cpu time    0.2103: real time    0.2103
    MIXING:  cpu time    0.0103: real time    0.0103
    --------------------------------------------
      LOOP:  cpu time    7.8673: real time    7.8685

 eigenvalue-minimisations  :  1288
 total energy-change (2. order) : 0.2754986E+02  (-0.6154032E+01)
 number of electron     792.0000651 magnetization 
 augmentation part      308.6616423 magnetization 

 Broyden mixing:
  rms(total) = 0.62394E+01    rms(broyden)= 0.62361E+01
  rms(prec ) = 0.69921E+01
  weight for this iteration     100.00

 eigenvalues of (default mixing * dielectric matrix)
  average eigenvalue GAMMA=   0.5906
  2.2384  0.4258  0.4258  0.1766  0.1766  0.1001

 Free energy of the ion-electron system (eV)
  ---------------------------------------------------
  alpha Z        PSCENC =      1893.09323658
  Ewald energy   TEWEN  =    222357.94301921
  -Hartree energ DENC   =   -343748.16108348
  -exchange      EXHF   =         0.00000000
  -V(xc)+E(xc)   XCENC  =      3652.14717741
  PAW double counting   =    141456.43706952  -146477.87910802
  entropy T*S    EENTRO =        -0.98941377
  eigenvalues    EBANDS =    -15514.13382112
  atomic energy  EATOM  =    136002.60505376
  Solvation  Ediel_sol  =         0.00000000
  ---------------------------------------------------
  free energy    TOTEN  =      -378.93786991 eV

  energy without entropy =     -377.94845614  energy(sigma->0) =     -378.44316303


--------------------------------------------------------------------------------------------------------




--------------------------------------- Iteration      1(  12)  ---------------------------------------


    POTLOK:  cpu time    0.2434: real time    0.2434
    SETDIJ:  cpu time    0.0172: real time    0.0172
     EDDAV:  cpu time    7.6266: real time    7.6359
       DOS:  cpu time    0.0011: real time    0.0011
    CHARGE:  cpu time    0.2428: real time    0.2428
    MIXING:  cpu time    0.0100: real time    0.0100
    --------------------------------------------
      LOOP:  cpu time    8.1411: real time    8.1505

 eigenvalue-minimisations  :  1288
 total energy-change (2. order) : 0.1410443E+02  (-0.4297603E+01)
 number of electron     792.0000642 magnetization 
 augmentation part      312.2072965 magnetization 

 Broyden mixing:
  rms(total) = 0.38344E+01    rms(broyden)= 0.38306E+01
  rms(prec ) = 0.42680E+01
  weight for this iteration     100.00

 eigenvalues of (default mixing * dielectric matrix)
  average eigenvalue GAMMA=   0.5640
  2.2525  0.4256  0.4256  0.4020  0.1987  0.1361  0.1074

 Free energy of the ion-electron system (eV)
  ---------------------------------------------------
  alpha Z        PSCENC =      1893.09323658
  Ewald energy   TEWEN  =    222357.94301921
  -Hartree energ DENC   =   -343666.37368778
  -exchange      EXHF   =         0.00000000
  -V(xc)+E(xc)   XCENC  =      3650.89484511
  PAW double counting   =    142959.66342869  -147988.13638837
  entropy T*S    EENTRO =        -0.85946337
  eigenvalues    EBANDS =    -15573.66347991
  atomic energy  EATOM  =    136002.60505376
  Solvation  Ediel_sol  =         0.00000000
  ---------------------------------------------------
  free energy    TOTEN  =      -364.83343608 eV

  energy without entropy =     -363.97397271  energy(sigma->0) =     -364.40370440


--------------------------------------------------------------------------------------------------------




--------------------------------------- Iteration      1(  13)  ---------------------------------------


    POTLOK:  cpu time    0.2424: real time    0.2424
    SETDIJ:  cpu time    0.0172: real time    0.0172
     EDDAV:  cpu time    7.5021: real time    7.5032
       DOS:  cpu time    0.0011: real time    0.0011
    CHARGE:  cpu time    0.2109: real time    0.2109
    MIXING:  cpu time    0.0124: real time    0.0124
    --------------------------------------------
      LOOP:  cpu time    7.9861: real time    7.9873

 eigenvalue-minimisations  :  1304
 total energy-change (2. order) : 0.2002455E+01  (-0.2890835E+01)
 number of electron     792.0000659 magnetization 
 augmentation part      311.7486280 magnetization 

 Broyden mixing:
  rms(total) = 0.47302E+01    rms(broyden)= 0.47281E+01
  rms(prec ) = 0.53397E+01
  weight for this iteration     100.00

 eigenvalues of (default mixing * dielectric matrix)
  average eigenvalue GAMMA=   0.5426
  2.2530  0.6055  0.4351  0.4351  0.2233  0.1422  0.1422  0.1043

 Free energy of the ion-electron system (eV)
  ---------------------------------------------------
  alpha Z        PSCENC =      1893.09323658
  Ewald energy   TEWEN  =    222357.94301921
  -Hartree energ DENC   =   -343689.12543331
  -exchange      EXHF   =         0.00000000
  -V(xc)+E(xc)   XCENC  =      3650.74922321
  PAW double counting   =    142877.13311754  -147902.64190541
  entropy T*S    EENTRO =        -1.03939836
  eigenvalues    EBANDS =    -15551.54789473
  atomic energy  EATOM  =    136002.60505376
  Solvation  Ediel_sol  =         0.00000000
  ---------------------------------------------------
  free energy    TOTEN  =      -362.83098151 eV

  energy without entropy =     -361.79158315  energy(sigma->0) =     -362.31128233


--------------------------------------------------------------------------------------------------------




--------------------------------------- Iteration      1(  14)  ---------------------------------------


    POTLOK:  cpu time    0.2419: real time    0.2419
    SETDIJ:  cpu time    0.0173: real time    0.0173
     EDDAV:  cpu time    7.6895: real time    7.6944
       DOS:  cpu time    0.0011: real time    0.0011
    CHARGE:  cpu time    0.2116: real time    0.2116
    MIXING:  cpu time    0.0109: real time    0.0109
    --------------------------------------------
      LOOP:  cpu time    8.1723: real time    8.1772

 eigenvalue-minimisations  :  1304
 total energy-change (2. order) : 0.5944527E+01  (-0.2358682E+01)
 number of electron     792.0000643 magnetization 
 augmentation part      312.8982730 magnetization 

 Broyden mixing:
  rms(total) = 0.26154E+01    rms(broyden)= 0.26131E+01
  rms(prec ) = 0.29147E+01
  weight for this iteration     100.00

 eigenvalues of (default mixing * dielectric matrix)
  average eigenvalue GAMMA=   0.5181
  2.1964  0.5211  0.5211  0.4399  0.4399  0.1504  0.1504  0.1379  0.1054

 Free energy of the ion-electron system (eV)
  ---------------------------------------------------
  alpha Z        PSCENC =      1893.09323658
  Ewald energy   TEWEN  =    222357.94301921
  -Hartree energ DENC   =   -343698.71107010
  -exchange      EXHF   =         0.00000000
  -V(xc)+E(xc)   XCENC  =      3650.60184009
  PAW double counting   =    142644.19680247  -147666.11805931
  entropy T*S    EENTRO =        -0.85592720
  eigenvalues    EBANDS =    -15539.64134957
  atomic energy  EATOM  =    136002.60505376
  Solvation  Ediel_sol  =         0.00000000
  ---------------------------------------------------
  free energy    TOTEN  =      -356.88645407 eV

  energy without entropy =     -356.03052687  energy(sigma->0) =     -356.45849047


--------------------------------------------------------------------------------------------------------




--------------------------------------- Iteration      1(  15)  ---------------------------------------


    POTLOK:  cpu time    0.2522: real time    0.2522
    SETDIJ:  cpu time    0.0172: real time    0.0172
     EDDAV:  cpu time    7.5026: real time    7.5087
       DOS:  cpu time    0.0011: real time    0.0011
    CHARGE:  cpu time    0.2116: real time    0.2116
    MIXING:  cpu time    0.0125: real time    0.0125
    --------------------------------------------
      LOOP:  cpu time    7.9972: real time    8.0033

 eigenvalue-minimisations  :  1320
 total energy-change (2. order) : 0.2450182E+01  (-0.6426272E+00)
 number of electron     792.0000644 magnetization 
 augmentation part      312.6407598 magnetization 

 Broyden mixing:
  rms(total) = 0.21277E+01    rms(broyden)= 0.21269E+01
  rms(prec ) = 0.23958E+01
  weight for this iteration     100.00

 eigenvalues of (default mixing * dielectric matrix)
  average eigenvalue GAMMA=   0.5059
  2.1491  0.6491  0.6491  0.4251  0.4251  0.1878  0.1878  0.1408  0.1408  0.1041

 Free energy of the ion-electron system (eV)
  ---------------------------------------------------
  alpha Z        PSCENC =      1893.09323658
  Ewald energy   TEWEN  =    222357.94301921
  -Hartree energ DENC   =   -343711.77124751
  -exchange      EXHF   =         0.00000000
  -V(xc)+E(xc)   XCENC  =      3651.12763375
  PAW double counting   =    142226.87773926  -147246.60436803
  entropy T*S    EENTRO =        -0.88844222
  eigenvalues    EBANDS =    -15526.81889711
  atomic energy  EATOM  =    136002.60505376
  Solvation  Ediel_sol  =         0.00000000
  ---------------------------------------------------
  free energy    TOTEN  =      -354.43627231 eV

  energy without entropy =     -353.54783009  energy(sigma->0) =     -353.99205120


--------------------------------------------------------------------------------------------------------




--------------------------------------- Iteration      1(  16)  ---------------------------------------


    POTLOK:  cpu time    0.2448: real time    0.2451
    SETDIJ:  cpu time    0.0173: real time    0.0173
     EDDAV:  cpu time    7.7071: real time    7.7115
       DOS:  cpu time    0.0014: real time    0.0014
    CHARGE:  cpu time    0.2143: real time    0.2143
    MIXING:  cpu time    0.0122: real time    0.0122
    --------------------------------------------
      LOOP:  cpu time    8.1969: real time    8.2016

 eigenvalue-minimisations  :  1304
 total energy-change (2. order) : 0.1183080E+01  (-0.2776723E+00)
 number of electron     792.0000647 magnetization 
 augmentation part      312.4510270 magnetization 

 Broyden mixing:
  rms(total) = 0.17415E+01    rms(broyden)= 0.17409E+01
  rms(prec ) = 0.19780E+01
  weight for this iteration     100.00

 eigenvalues of (default mixing * dielectric matrix)
  average eigenvalue GAMMA=   0.4772
  2.1311  0.6584  0.6584  0.4153  0.4153  0.2294  0.2294  0.1419  0.1419  0.1053
  0.1227

 Free energy of the ion-electron system (eV)
  ---------------------------------------------------
  alpha Z        PSCENC =      1893.09323658
  Ewald energy   TEWEN  =    222357.94301921
  -Hartree energ DENC   =   -343721.60676707
  -exchange      EXHF   =         0.00000000
  -V(xc)+E(xc)   XCENC  =      3651.48207611
  PAW double counting   =    141850.93795585  -146868.00088479
  entropy T*S    EENTRO =        -0.90932167
  eigenvalues    EBANDS =    -15518.79756042
  atomic energy  EATOM  =    136002.60505376
  Solvation  Ediel_sol  =         0.00000000
  ---------------------------------------------------
  free energy    TOTEN  =      -353.25319244 eV

  energy without entropy =     -352.34387077  energy(sigma->0) =     -352.79853160


--------------------------------------------------------------------------------------------------------




--------------------------------------- Iteration      1(  17)  ---------------------------------------


    POTLOK:  cpu time    0.2479: real time    0.2479
    SETDIJ:  cpu time    0.0176: real time    0.0176
     EDDAV:  cpu time    7.1747: real time    7.1788
       DOS:  cpu time    0.0014: real time    0.0014
    CHARGE:  cpu time    0.2167: real time    0.2167
    MIXING:  cpu time    0.0120: real time    0.0120
    --------------------------------------------
      LOOP:  cpu time    7.6703: real time    7.6744

 eigenvalue-minimisations  :  1248
 total energy-change (2. order) : 0.4848264E+00  (-0.7166274E-01)
 number of electron     792.0000646 magnetization 
 augmentation part      312.3113783 magnetization 

 Broyden mixing:
  rms(total) = 0.15595E+01    rms(broyden)= 0.15594E+01
  rms(prec ) = 0.17760E+01
  weight for this iteration     100.00

 eigenvalues of (default mixing * dielectric matrix)
  average eigenvalue GAMMA=   0.5000
  2.1239  0.7964  0.7964  0.4373  0.4373  0.4450  0.2597  0.1044  0.1579  0.1579
  0.1416  0.1416

 Free energy of the ion-electron system (eV)
  ---------------------------------------------------
  alpha Z        PSCENC =      1893.09323658
  Ewald energy   TEWEN  =    222357.94301921
  -Hartree energ DENC   =   -343728.49949182
  -exchange      EXHF   =         0.00000000
  -V(xc)+E(xc)   XCENC  =      3651.61115199
  PAW double counting   =    141688.29380659  -146704.11825384
  entropy T*S    EENTRO =        -0.89973578
  eigenvalues    EBANDS =    -15512.79715275
  atomic energy  EATOM  =    136002.60505376
  Solvation  Ediel_sol  =         0.00000000
  ---------------------------------------------------
  free energy    TOTEN  =      -352.76836606 eV

  energy without entropy =     -351.86863028  energy(sigma->0) =     -352.31849817


--------------------------------------------------------------------------------------------------------




--------------------------------------- Iteration      1(  18)  ---------------------------------------


    POTLOK:  cpu time    0.2446: real time    0.2447
    SETDIJ:  cpu time    0.0172: real time    0.0172
     EDDAV:  cpu time    7.5223: real time    7.5279
       DOS:  cpu time    0.0014: real time    0.0013
    CHARGE:  cpu time    0.2126: real time    0.2126
    MIXING:  cpu time    0.0125: real time    0.0125
    --------------------------------------------
      LOOP:  cpu time    8.0106: real time    8.0163

 eigenvalue-minimisations  :  1272
 total energy-change (2. order) : 0.4742947E+00  (-0.3022369E-01)
 number of electron     792.0000647 magnetization 
 augmentation part      312.1940298 magnetization 

 Broyden mixing:
  rms(total) = 0.13747E+01    rms(broyden)= 0.13746E+01
  rms(prec ) = 0.15500E+01
  weight for this iteration     100.00

 eigenvalues of (default mixing * dielectric matrix)
  average eigenvalue GAMMA=   0.5033
  2.1265  0.9069  0.9069  0.4571  0.4571  0.3972  0.3972  0.1836  0.1836  0.1045
  0.1419  0.1419  0.1388

 Free energy of the ion-electron system (eV)
  ---------------------------------------------------
  alpha Z        PSCENC =      1893.09323658
  Ewald energy   TEWEN  =    222357.94301921
  -Hartree energ DENC   =   -343740.01477605
  -exchange      EXHF   =         0.00000000
  -V(xc)+E(xc)   XCENC  =      3651.71883893
  PAW double counting   =    141381.68785639  -146394.37929456
  entropy T*S    EENTRO =        -0.93088879
  eigenvalues    EBANDS =    -15504.01711686
  atomic energy  EATOM  =    136002.60505376
  Solvation  Ediel_sol  =         0.00000000
  ---------------------------------------------------
  free energy    TOTEN  =      -352.29407138 eV

  energy without entropy =     -351.36318260  energy(sigma->0) =     -351.82862699


--------------------------------------------------------------------------------------------------------




--------------------------------------- Iteration      1(  19)  ---------------------------------------


    POTLOK:  cpu time    0.2457: real time    0.2457
    SETDIJ:  cpu time    0.0173: real time    0.0173
     EDDAV:  cpu time    7.4124: real time    7.4145
       DOS:  cpu time    0.0012: real time    0.0012
    CHARGE:  cpu time    0.2113: real time    0.2113
    MIXING:  cpu time    0.0131: real time    0.0131
    --------------------------------------------
      LOOP:  cpu time    7.9011: real time    7.9032

 eigenvalue-minimisations  :  1304
 total energy-change (2. order) : 0.2549996E+00  (-0.1911693E-01)
 number of electron     792.0000645 magnetization 
 augmentation part      312.1452907 magnetization 

 Broyden mixing:
  rms(total) = 0.12916E+01    rms(broyden)= 0.12916E+01
  rms(prec ) = 0.14610E+01
  weight for this iteration     100.00

 eigenvalues of (default mixing * dielectric matrix)
  average eigenvalue GAMMA=   0.5711
  2.1456  1.3416  1.3416  0.5937  0.5937  0.4332  0.4332  0.2080  0.2080  0.1044
  0.1443  0.1443  0.1521  0.1521

 Free energy of the ion-electron system (eV)
  ---------------------------------------------------
  alpha Z        PSCENC =      1893.09323658
  Ewald energy   TEWEN  =    222357.94301921
  -Hartree energ DENC   =   -343744.47233457
  -exchange      EXHF   =         0.00000000
  -V(xc)+E(xc)   XCENC  =      3651.77872443
  PAW double counting   =    141206.19301533  -146216.89629539
  entropy T*S    EENTRO =        -0.91912261
  eigenvalues    EBANDS =    -15501.36436856
  atomic energy  EATOM  =    136002.60505376
  Solvation  Ediel_sol  =         0.00000000
  ---------------------------------------------------
  free energy    TOTEN  =      -352.03907183 eV

  energy without entropy =     -351.11994922  energy(sigma->0) =     -351.57951052


--------------------------------------------------------------------------------------------------------




--------------------------------------- Iteration      1(  20)  ---------------------------------------


    POTLOK:  cpu time    0.2470: real time    0.2470
    SETDIJ:  cpu time    0.0172: real time    0.0172
     EDDAV:  cpu time    8.1172: real time    8.1196
       DOS:  cpu time    0.0013: real time    0.0013
    CHARGE:  cpu time    0.2130: real time    0.2130
    MIXING:  cpu time    0.0136: real time    0.0136
    --------------------------------------------
      LOOP:  cpu time    8.6092: real time    8.6117

 eigenvalue-minimisations  :  1400
 total energy-change (2. order) : 0.6589041E+00  (-0.3631275E-01)
 number of electron     792.0000647 magnetization 
 augmentation part      312.1113502 magnetization 

 Broyden mixing:
  rms(total) = 0.10215E+01    rms(broyden)= 0.10213E+01
  rms(prec ) = 0.11535E+01
  weight for this iteration     100.00

 eigenvalues of (default mixing * dielectric matrix)
  average eigenvalue GAMMA=   0.5881
  2.1314  1.5875  1.5875  0.6401  0.6401  0.4280  0.4280  0.2982  0.2203  0.1044
  0.1430  0.1430  0.1628  0.1628  0.1443

 Free energy of the ion-electron system (eV)
  ---------------------------------------------------
  alpha Z        PSCENC =      1893.09323658
  Ewald energy   TEWEN  =    222357.94301921
  -Hartree energ DENC   =   -343761.01706347
  -exchange      EXHF   =         0.00000000
  -V(xc)+E(xc)   XCENC  =      3651.89740354
  PAW double counting   =    140609.03151863  -145612.53952868
  entropy T*S    EENTRO =        -0.95026505
  eigenvalues    EBANDS =    -15491.44354230
  atomic energy  EATOM  =    136002.60505376
  Solvation  Ediel_sol  =         0.00000000
  ---------------------------------------------------
  free energy    TOTEN  =      -351.38016777 eV

  energy without entropy =     -350.42990272  energy(sigma->0) =     -350.90503525


--------------------------------------------------------------------------------------------------------




--------------------------------------- Iteration      1(  21)  ---------------------------------------


    POTLOK:  cpu time    0.2509: real time    0.2511
    SETDIJ:  cpu time    0.0174: real time    0.0174
     EDDAV:  cpu time    7.4429: real time    7.4438
       DOS:  cpu time    0.0012: real time    0.0012
    CHARGE:  cpu time    0.2135: real time    0.2135
    MIXING:  cpu time    0.0143: real time    0.0143
    --------------------------------------------
      LOOP:  cpu time    7.9401: real time    7.9414

 eigenvalue-minimisations  :  1312
 total energy-change (2. order) : 0.5454528E+00  (-0.4236142E-01)
 number of electron     792.0000646 magnetization 
 augmentation part      312.0022187 magnetization 

 Broyden mixing:
  rms(total) = 0.68194E+00    rms(broyden)= 0.68174E+00
  rms(prec ) = 0.76670E+00
  weight for this iteration     100.00

 eigenvalues of (default mixing * dielectric matrix)
  average eigenvalue GAMMA=   0.6106
  2.0734  1.8075  1.8075  0.6809  0.6809  0.5333  0.4372  0.4372  0.2430  0.1044
  0.1975  0.1436  0.1436  0.1690  0.1550  0.1550

 Free energy of the ion-electron system (eV)
  ---------------------------------------------------
  alpha Z        PSCENC =      1893.09323658
  Ewald energy   TEWEN  =    222357.94301921
  -Hartree energ DENC   =   -343779.31323421
  -exchange      EXHF   =         0.00000000
  -V(xc)+E(xc)   XCENC  =      3652.06728574
  PAW double counting   =    140039.66462558  -145036.73213885
  entropy T*S    EENTRO =        -0.96276718
  eigenvalues    EBANDS =    -15479.19979558
  atomic energy  EATOM  =    136002.60505376
  Solvation  Ediel_sol  =         0.00000000
  ---------------------------------------------------
  free energy    TOTEN  =      -350.83471495 eV

  energy without entropy =     -349.87194777  energy(sigma->0) =     -350.35333136


--------------------------------------------------------------------------------------------------------




--------------------------------------- Iteration      1(  22)  ---------------------------------------


    POTLOK:  cpu time    0.2494: real time    0.2494
    SETDIJ:  cpu time    0.0180: real time    0.0180
     EDDAV:  cpu time    7.7242: real time    7.7276
       DOS:  cpu time    0.0012: real time    0.0012
    CHARGE:  cpu time    0.2316: real time    0.2316
    MIXING:  cpu time    0.0157: real time    0.0157
    --------------------------------------------
      LOOP:  cpu time    8.2401: real time    8.2435

 eigenvalue-minimisations  :  1320
 total energy-change (2. order) : 0.2628127E+00  (-0.4890543E-01)
 number of electron     792.0000647 magnetization 
 augmentation part      311.8724847 magnetization 

 Broyden mixing:
  rms(total) = 0.42006E+00    rms(broyden)= 0.41959E+00
  rms(prec ) = 0.45800E+00
  weight for this iteration     100.00

 eigenvalues of (default mixing * dielectric matrix)
  average eigenvalue GAMMA=   0.5959
  2.0723  1.8275  1.8275  0.7053  0.7053  0.5566  0.4437  0.4437  0.2979  0.2005
  0.2005  0.1044  0.1436  0.1436  0.1573  0.1573  0.1427

 Free energy of the ion-electron system (eV)
  ---------------------------------------------------
  alpha Z        PSCENC =      1893.09323658
  Ewald energy   TEWEN  =    222357.94301921
  -Hartree energ DENC   =   -343802.36452208
  -exchange      EXHF   =         0.00000000
  -V(xc)+E(xc)   XCENC  =      3652.22026061
  PAW double counting   =    139358.71877556  -144347.88325567
  entropy T*S    EENTRO =        -0.99430498
  eigenvalues    EBANDS =    -15463.91016522
  atomic energy  EATOM  =    136002.60505376
  Solvation  Ediel_sol  =         0.00000000
  ---------------------------------------------------
  free energy    TOTEN  =      -350.57190224 eV

  energy without entropy =     -349.57759726  energy(sigma->0) =     -350.07474975


--------------------------------------------------------------------------------------------------------




--------------------------------------- Iteration      1(  23)  ---------------------------------------


    POTLOK:  cpu time    0.2504: real time    0.2504
    SETDIJ:  cpu time    0.0172: real time    0.0172
     EDDAV:  cpu time    7.1358: real time    7.1374
       DOS:  cpu time    0.0012: real time    0.0012
    CHARGE:  cpu time    0.2174: real time    0.2174
    MIXING:  cpu time    0.0154: real time    0.0154
    --------------------------------------------
      LOOP:  cpu time    7.6374: real time    7.6390

 eigenvalue-minimisations  :  1232
 total energy-change (2. order) : 0.1735811E-01  (-0.2547208E-01)
 number of electron     792.0000646 magnetization 
 augmentation part      311.8896468 magnetization 

 Broyden mixing:
  rms(total) = 0.34096E+00    rms(broyden)= 0.34083E+00
  rms(prec ) = 0.37400E+00
  weight for this iteration     100.00

 eigenvalues of (default mixing * dielectric matrix)
  average eigenvalue GAMMA=   0.6053
  2.0725  1.8248  1.8248  0.8564  0.8564  0.5593  0.5593  0.4388  0.4388  0.2227
  0.2149  0.1044  0.1436  0.1436  0.1646  0.1592  0.1592  0.1517

 Free energy of the ion-electron system (eV)
  ---------------------------------------------------
  alpha Z        PSCENC =      1893.09323658
  Ewald energy   TEWEN  =    222357.94301921
  -Hartree energ DENC   =   -343805.16659051
  -exchange      EXHF   =         0.00000000
  -V(xc)+E(xc)   XCENC  =      3652.21662318
  PAW double counting   =    139284.76226765  -144272.89992195
  entropy T*S    EENTRO =        -0.99661735
  eigenvalues    EBANDS =    -15462.11161470
  atomic energy  EATOM  =    136002.60505376
  Solvation  Ediel_sol  =         0.00000000
  ---------------------------------------------------
  free energy    TOTEN  =      -350.55454413 eV

  energy without entropy =     -349.55792679  energy(sigma->0) =     -350.05623546


--------------------------------------------------------------------------------------------------------




--------------------------------------- Iteration      1(  24)  ---------------------------------------


    POTLOK:  cpu time    0.2493: real time    0.2493
    SETDIJ:  cpu time    0.0172: real time    0.0172
     EDDAV:  cpu time    7.0379: real time    7.0391
       DOS:  cpu time    0.0012: real time    0.0012
    CHARGE:  cpu time    0.2987: real time    0.2988
    MIXING:  cpu time    0.0304: real time    0.0304
    --------------------------------------------
      LOOP:  cpu time    7.6346: real time    7.6360

 eigenvalue-minimisations  :  1216
 total energy-change (2. order) : 0.3186548E-02  (-0.7325922E-02)
 number of electron     792.0000647 magnetization 
 augmentation part      311.9508289 magnetization 

 Broyden mixing:
  rms(total) = 0.32073E+00    rms(broyden)= 0.32065E+00
  rms(prec ) = 0.35758E+00
  weight for this iteration     100.00

 eigenvalues of (default mixing * dielectric matrix)
  average eigenvalue GAMMA=   0.6039
  2.0328  1.7810  1.7810  1.0140  1.0140  0.6053  0.6053  0.4338  0.4338  0.3134
  0.2407  0.1044  0.1965  0.1436  0.1436  0.1718  0.1568  0.1568  0.1449

 Free energy of the ion-electron system (eV)
  ---------------------------------------------------
  alpha Z        PSCENC =      1893.09323658
  Ewald energy   TEWEN  =    222357.94301921
  -Hartree energ DENC   =   -343811.34810220
  -exchange      EXHF   =         0.00000000
  -V(xc)+E(xc)   XCENC  =      3652.18888229
  PAW double counting   =    139146.76484756  -144133.19552566
  entropy T*S    EENTRO =        -1.00091734
  eigenvalues    EBANDS =    -15457.60185179
  atomic energy  EATOM  =    136002.60505376
  Solvation  Ediel_sol  =         0.00000000
  ---------------------------------------------------
  free energy    TOTEN  =      -350.55135758 eV

  energy without entropy =     -349.55044025  energy(sigma->0) =     -350.05089892


--------------------------------------------------------------------------------------------------------




--------------------------------------- Iteration      1(  25)  ---------------------------------------


    POTLOK:  cpu time    0.3083: real time    0.3083
    SETDIJ:  cpu time    0.0172: real time    0.0172
     EDDAV:  cpu time    6.7539: real time    6.7550
       DOS:  cpu time    0.0012: real time    0.0012
    CHARGE:  cpu time    0.2130: real time    0.2130
    MIXING:  cpu time    0.0168: real time    0.0168
    --------------------------------------------
      LOOP:  cpu time    7.3103: real time    7.3114

 eigenvalue-minimisations  :  1152
 total energy-change (2. order) : 0.3178125E-02  (-0.8054095E-02)
 number of electron     792.0000647 magnetization 
 augmentation part      312.0059856 magnetization 

 Broyden mixing:
  rms(total) = 0.29783E+00    rms(broyden)= 0.29771E+00
  rms(prec ) = 0.32548E+00
  weight for this iteration     100.00

 eigenvalues of (default mixing * dielectric matrix)
  average eigenvalue GAMMA=   0.6434
  2.0653  2.0653  1.5366  1.5366  0.9063  0.9063  0.7081  0.6396  0.4367  0.4367
  0.2384  0.2049  0.1044  0.1436  0.1436  0.1770  0.1654  0.1553  0.1553  0.1419

 Free energy of the ion-electron system (eV)
  ---------------------------------------------------
  alpha Z        PSCENC =      1893.09323658
  Ewald energy   TEWEN  =    222357.94301921
  -Hartree energ DENC   =   -343816.43961371
  -exchange      EXHF   =         0.00000000
  -V(xc)+E(xc)   XCENC  =      3652.18257429
  PAW double counting   =    139052.28538667  -144037.71882520
  entropy T*S    EENTRO =        -0.99781306
  eigenvalues    EBANDS =    -15453.50119800
  atomic energy  EATOM  =    136002.60505376
  Solvation  Ediel_sol  =         0.00000000
  ---------------------------------------------------
  free energy    TOTEN  =      -350.54817946 eV

[...]
    FORCOR:  cpu time    0.3347: real time    0.3347
    FORHAR:  cpu time    0.1986: real time    0.1986
    MIXING:  cpu time    0.0407: real time    0.0407
    OFIELD:  cpu time    0.0001: real time    0.0001

  FORCE on cell =-STRESS in cart. coord.  units (eV):
  Direction    XX          YY          ZZ          XY          YZ          ZX
  --------------------------------------------------------------------------------------
  Alpha Z  1893.09324  1893.09324  1893.09324
  Ewald  269607.14758275279.16494************ -1248.17651 -1496.60865   930.43363
  Hartree306002.83179310528.95862************ -1054.12140 -1136.39091   620.03987
  E(xc)   -5052.95993 -5051.36103 -5057.50274    -0.28139    -1.01283     0.78345
  Local  ************************582133.50720  2297.25504  2604.87822 -1516.44416
  n-local  -612.71001  -611.91263  -614.79943     3.37677     4.07279     1.54857
  augment  5792.93352  5780.75804  5805.69774     0.98429     6.58223   -12.08881
  Kinetic 11097.24312 11058.77919 11154.05519    -3.34054    19.21185   -25.04818
  Fock        0.00000     0.00000     0.00000     0.00000     0.00000     0.00000
  -------------------------------------------------------------------------------------
  Total      88.22028    89.97774   110.69345    -4.30374     0.73270    -0.77563
  in kB      71.93161    73.36458    90.25542    -3.50911     0.59742    -0.63242
  external pressure =       78.52 kB  Pullay stress =        0.00 kB


 VOLUME and BASIS-vectors are now :
 -----------------------------------------------------------------------------
  energy-cutoff  :      450.00
  volume of cell :     1964.98
      direct lattice vectors                 reciprocal lattice vectors
    10.079732985  0.000000000  0.000000000     0.099208977 -0.037612667  0.000000000
     3.573298043  9.425102554  0.000000000     0.000000000  0.106099641  0.000000000
     0.000000000  0.000000000 20.683503555     0.000000000  0.000000000  0.048347708

  length of vectors
    10.079732985 10.079732985 20.683503555     0.106099641  0.106099641  0.048347708


 FORCES acting on ions
    electron-ion (+dipol)            ewald-force                    non-local-force                 convergence-correction
 -----------------------------------------------------------------------------------------------
   0.430E+03 0.566E+02 0.541E+04   -.432E+03 -.574E+02 -.542E+04   0.102E+01 0.432E+00 0.720E+01   0.113E-01 -.327E-01 -.131E-01
   0.498E+03 0.142E+03 0.298E+04   -.502E+03 -.146E+03 -.297E+04   0.260E+01 0.266E+01 -.148E+01   -.547E-01 -.518E-01 -.976E-01
   0.192E+02 -.431E+03 -.259E+03   -.200E+02 0.432E+03 0.260E+03   0.929E+00 -.130E+01 -.655E+00   -.752E-01 0.589E-01 -.152E+00
   0.290E+02 -.611E+03 -.325E+04   -.282E+02 0.614E+03 0.325E+04   -.558E+00 -.233E+01 0.118E+01   0.266E-01 0.426E-01 -.367E-01
   -.160E+03 -.598E+03 -.561E+04   0.161E+03 0.599E+03 0.561E+04   -.105E+00 0.707E+00 -.133E+01   0.404E-01 -.245E-01 0.888E-01
   -.817E+02 -.235E+03 0.167E+04   0.821E+02 0.234E+03 -.166E+04   -.375E+00 0.628E+00 -.320E+01   0.100E+00 -.628E-03 -.173E+00
   -.222E+02 -.413E+03 -.128E+04   0.217E+02 0.413E+03 0.128E+04   0.602E+00 -.557E+00 0.116E+01   -.471E-03 -.187E-01 -.166E+00
   0.365E+02 -.681E+03 -.451E+04   -.361E+02 0.684E+03 0.452E+04   -.213E+00 -.150E+01 -.325E+01   0.306E-01 0.173E-01 0.962E-02
   0.880E+02 -.314E+03 0.444E+04   -.913E+02 0.316E+03 -.445E+04   0.363E+01 -.217E+01 0.585E+01   0.903E-01 0.143E-01 -.115E+00
   0.757E+02 0.610E+02 0.383E+04   -.771E+02 -.627E+02 -.384E+04   0.129E+01 0.152E+01 0.585E+01   -.715E-01 -.376E-01 -.135E+00
   -.120E+03 -.143E+03 0.954E+03   0.120E+03 0.140E+03 -.950E+03   0.314E-01 0.783E+00 -.191E+01   0.228E-01 -.790E-01 -.132E+00
   -.206E+03 -.384E+03 -.252E+04   0.206E+03 0.388E+03 0.252E+04   0.221E+00 -.307E+01 -.572E+00   -.368E-01 0.202E-01 -.694E-01
   0.353E+03 0.134E+02 0.414E+04   -.355E+03 -.126E+02 -.414E+04   0.173E+01 -.459E+00 0.722E+00   -.322E-01 0.505E-01 -.846E-01
   0.416E+03 0.286E+03 0.737E+03   -.417E+03 -.285E+03 -.734E+03   0.138E+01 -.106E+01 -.207E+01   -.143E+00 0.657E-01 -.197E+00
   0.555E+03 0.213E+03 -.206E+04   -.558E+03 -.215E+03 0.206E+04   0.213E+01 0.143E+01 0.843E+00   -.269E-01 -.377E-01 -.669E-01
   0.377E+03 0.573E+03 -.488E+04   -.381E+03 -.579E+03 0.488E+04   0.300E+01 0.543E+01 -.162E+01   0.222E-02 -.665E-01 0.402E-01
   0.810E+03 0.359E+03 0.306E+04   -.814E+03 -.361E+03 -.306E+04   0.386E+01 0.176E+01 -.561E+00   0.841E-01 -.321E-01 -.101E+00
   0.459E+03 0.319E+03 -.231E+03   -.460E+03 -.319E+03 0.231E+03   0.113E+01 -.436E+00 -.573E-01   0.525E-02 -.171E-03 -.178E+00
   0.668E+03 0.233E+03 -.315E+04   -.669E+03 -.233E+03 0.315E+04   0.928E+00 -.756E+00 0.206E+01   0.190E-01 0.131E-01 -.693E-01
   0.100E+03 0.318E+03 -.551E+04   -.977E+02 -.317E+03 0.551E+04   -.229E+01 -.148E+01 0.764E+00   0.678E-01 -.948E-02 0.138E+00
   0.373E+03 -.291E+03 0.584E+04   -.373E+03 0.294E+03 -.585E+04   0.409E+00 -.187E+01 0.530E+01   0.614E-01 0.214E-01 -.927E-01
   -.947E+01 -.238E+02 -.464E+04   0.676E+01 0.208E+02 0.464E+04   0.212E+01 0.330E+01 -.257E+01   -.407E-01 0.161E-01 0.318E-01
   -.671E+03 -.216E+03 0.449E+04   0.673E+03 0.219E+03 -.449E+04   -.307E+00 -.317E+01 0.398E+01   -.456E-01 -.553E-02 -.857E-01
   0.230E+03 0.551E+02 0.190E+04   -.231E+03 -.545E+02 -.190E+04   0.386E+00 -.356E+00 -.230E+01   0.297E-01 0.244E-01 -.147E+00
   0.324E+03 0.314E+03 -.122E+04   -.327E+03 -.315E+03 0.122E+04   0.299E+01 0.528E+00 -.699E-01   -.398E-02 0.381E-01 -.888E-01
   -.677E+03 0.514E+03 -.415E+04   0.683E+03 -.518E+03 0.415E+04   -.410E+01 0.358E+01 -.905E+00   0.348E-02 -.163E-01 0.355E-02
   -.271E+03 0.601E+03 0.523E+04   0.268E+03 -.602E+03 -.523E+04   0.314E+01 -.645E+00 0.234E+00   -.134E+00 0.641E-01 -.129E+00
   -.509E+03 0.207E+03 0.205E+04   0.511E+03 -.207E+03 -.205E+04   -.148E+01 -.404E+00 -.149E+01   -.581E-01 0.578E-01 -.130E+00
   -.477E+03 0.156E+03 -.106E+04   0.479E+03 -.155E+03 0.106E+04   -.169E+01 -.833E+00 0.180E+01   0.533E-01 -.483E-01 -.554E-01
   -.848E+03 -.127E+03 0.413E+04   0.854E+03 0.128E+03 -.413E+04   -.536E+01 -.724E+00 0.118E+01   0.103E-01 0.431E-01 -.649E-01
   -.433E+03 0.108E+03 0.815E+03   0.435E+03 -.108E+03 -.816E+03   -.190E+01 0.801E-01 0.120E+01   -.372E-01 0.326E-03 -.159E+00
   -.234E+03 0.538E+02 -.206E+04   0.235E+03 -.536E+02 0.205E+04   -.218E+01 0.293E+00 0.262E+01   0.908E-01 -.399E-01 -.464E-01
   -.465E+03 0.312E+03 -.474E+04   0.467E+03 -.315E+03 0.474E+04   -.282E+01 0.281E+01 0.140E+01   0.350E-01 -.106E-01 0.485E-01
   -.461E+03 -.747E+02 0.349E+04   0.464E+03 0.762E+02 -.349E+04   -.255E+01 -.913E+00 0.259E+01   0.560E-01 -.421E-01 -.121E+00
   -.388E+03 0.113E+03 -.139E+03   0.391E+03 -.113E+03 0.136E+03   -.234E+01 -.170E+00 0.184E+01   0.244E-01 0.854E-02 -.229E+00
   -.169E+03 0.567E+02 -.353E+04   0.173E+03 -.582E+02 0.353E+04   -.356E+01 0.806E+00 -.714E+00   -.942E-02 -.220E-01 -.642E-01
   -.173E+03 0.367E+03 -.223E+04   0.175E+03 -.370E+03 0.224E+04   -.625E+00 0.709E+00 -.109E+01   0.859E-02 -.201E-01 0.470E-01
   -.281E+01 0.246E+03 0.178E+04   0.213E+01 -.248E+03 -.178E+04   0.599E+00 0.171E+01 0.325E+01   -.898E-01 0.405E-01 -.633E-01
   -.354E+02 0.108E+03 0.123E+03   0.359E+02 -.108E+03 -.121E+03   -.437E+00 0.108E+01 -.909E+00   -.248E-01 -.276E-01 -.321E-01
   -.568E+02 0.267E+03 -.911E+03   0.566E+02 -.270E+03 0.909E+03   -.142E+00 0.988E+00 -.129E+00   0.990E-02 -.147E-01 -.886E-02
   0.298E+03 0.112E+03 0.225E+04   -.302E+03 -.112E+03 -.226E+04   0.241E+01 0.192E+00 0.215E+01   0.104E-01 0.190E-01 -.236E-01
   0.766E+02 0.808E+02 0.823E+03   -.763E+02 -.803E+02 -.820E+03   -.421E+00 0.459E-01 -.647E+00   0.117E-02 -.786E-02 -.407E-01
   0.380E+02 0.121E+03 -.178E+03   -.382E+02 -.123E+03 0.176E+03   0.277E+00 0.195E+01 0.831E+00   0.352E-03 0.552E-03 -.807E-01
   -.508E+01 0.194E+03 -.140E+04   0.654E+01 -.196E+03 0.139E+04   -.292E+00 0.116E+01 -.290E+00   0.633E-01 0.720E-02 0.829E-02
   -.724E+02 0.613E+02 0.487E+03   0.735E+02 -.629E+02 -.485E+03   -.600E+00 0.121E+01 -.754E+00   0.281E-01 0.108E-01 -.778E-01
   -.117E+00 0.117E+03 -.562E+03   0.147E+00 -.119E+03 0.558E+03   -.525E+00 0.148E+01 0.403E+00   -.303E-03 -.107E-01 -.548E-01
   -.108E+03 -.365E+01 -.177E+04   0.108E+03 0.360E+01 0.177E+04   0.404E+00 0.307E+00 0.408E+00   -.280E-02 -.546E-02 0.108E-01
   -.525E+02 -.219E+03 0.215E+04   0.531E+02 0.220E+03 -.215E+04   -.106E+01 -.927E+00 0.224E+01   0.168E-01 -.208E-02 -.275E-01
   -.173E+02 0.151E+03 0.238E+04   0.182E+02 -.153E+03 -.238E+04   -.381E+00 0.386E+00 0.258E+01   -.574E-02 -.111E-01 -.114E-01
   -.145E+03 -.202E+02 0.857E+03   0.147E+03 0.199E+02 -.855E+03   -.153E+01 0.824E+00 -.378E+00   -.326E-01 0.549E-01 -.606E-01
   -.124E+03 -.107E+03 -.244E+03   0.126E+03 0.109E+03 0.244E+03   -.223E+01 -.244E+01 0.312E+00   0.441E-02 0.289E-01 -.144E-01
   -.246E+03 -.209E+03 -.146E+04   0.249E+03 0.211E+03 0.146E+04   -.159E+01 -.267E+00 -.829E+00   0.126E-01 -.689E-02 0.135E-02
   -.286E+03 -.253E+03 0.188E+04   0.289E+03 0.256E+03 -.189E+04   -.197E+01 -.110E+01 0.693E+00   0.341E-01 0.866E-02 -.159E-01
   -.120E+03 -.804E+02 0.532E+03   0.121E+03 0.808E+02 -.533E+03   -.178E+01 -.913E+00 0.851E+00   -.294E-02 0.174E-01 -.741E-01
   -.862E+02 -.135E+03 -.640E+03   0.877E+02 0.137E+03 0.639E+03   -.146E+01 -.219E+01 -.763E+00   -.381E-02 -.325E-02 -.502E-01
   -.698E+02 -.625E+02 -.196E+04   0.710E+02 0.624E+02 0.197E+04   -.231E-01 0.748E+00 -.177E+01   0.275E-01 -.442E-01 0.174E-01
   -.116E+03 -.107E+03 0.163E+03   0.118E+03 0.109E+03 -.164E+03   -.202E+01 -.133E+01 0.112E+01   0.981E-02 -.566E-02 -.723E-01
   -.779E+02 -.128E+03 -.111E+04   0.794E+02 0.131E+03 0.111E+04   -.945E+00 -.246E+01 0.100E+01   -.169E-01 0.868E-02 -.475E-01
   0.247E+03 0.989E+02 -.192E+04   -.248E+03 -.100E+03 0.192E+04   0.535E+00 0.520E+00 -.205E+01   -.663E-02 -.662E-02 0.426E-01
   -.318E+02 -.406E+02 0.161E+04   0.320E+02 0.419E+02 -.161E+04   0.624E+00 -.560E+00 0.192E+01   0.174E-01 -.400E-01 -.442E-01
   0.312E+03 0.778E+02 0.178E+04   -.314E+03 -.806E+02 -.179E+04   0.572E+00 0.136E+01 0.229E+01   -.144E-02 -.303E-01 -.120E-01
   0.166E+03 -.159E+03 0.446E+03   -.169E+03 0.160E+03 -.446E+03   0.249E+01 -.525E+00 0.162E+01   -.698E-02 -.163E-01 -.107E+00
   0.168E+03 -.657E+02 -.760E+03   -.171E+03 0.672E+02 0.760E+03   0.316E+01 -.133E+01 -.121E+01   -.576E-02 0.404E-02 -.591E-01
   0.462E+03 -.206E+03 -.187E+04   -.467E+03 0.208E+03 0.187E+04   0.271E+01 -.784E+00 -.169E+01   -.852E-02 -.858E-02 0.149E-01
   0.150E+03 -.519E+02 0.655E+02   -.153E+03 0.531E+02 -.653E+02   0.224E+01 -.112E+01 -.120E+00   0.295E-01 -.190E-01 -.544E-01
   0.132E+03 -.342E+02 -.115E+04   -.134E+03 0.363E+02 0.115E+04   0.287E+01 -.212E+01 -.943E+00   -.224E-01 0.205E-01 -.344E-01
   0.226E+03 -.209E+03 -.217E+04   -.228E+03 0.211E+03 0.218E+04   0.158E+01 -.186E+00 -.974E+00   0.411E-02 0.128E-01 0.622E-01
   0.389E+03 0.298E+02 0.145E+04   -.393E+03 -.295E+02 -.145E+04   0.239E+01 0.161E+00 0.172E+01   0.643E-01 -.337E-02 -.753E-01
   -.444E+03 -.204E+03 0.209E+04   0.448E+03 0.206E+03 -.209E+04   -.152E+01 -.153E+01 0.324E+01   -.319E-03 0.205E-02 -.208E-01
   0.790E+01 -.147E+03 0.107E+04   -.988E+01 0.150E+03 -.107E+04   0.128E+01 -.225E+01 0.173E+01   -.230E-01 -.164E-01 -.483E-01
   0.114E+03 -.763E+02 -.289E+03   -.117E+03 0.775E+02 0.289E+03   0.241E+01 -.910E+00 -.513E+00   -.309E-02 0.248E-02 -.354E-01
   -.165E+03 -.266E+02 -.170E+04   0.164E+03 0.279E+02 0.170E+04   0.400E-01 -.107E+01 -.129E+01   -.487E-01 0.303E-01 0.227E-01
 -----------------------------------------------------------------------------------------------
   -.878E+01 0.668E+01 -.312E+02   0.225E-11 -.352E-12 -.250E-11   0.873E+01 -.663E+01 0.350E+02   0.131E+00 -.506E-01 -.386E+01
 
 
 POSITION                                       TOTAL-FORCE (eV/Angst)
 -----------------------------------------------------------------------------------
      6.63989      9.26256      1.16791        -1.222388     -0.329030     -1.621134
      6.84285      7.49250      2.62550        -0.931522     -1.260436      2.999199
      7.82056      6.07621      5.25100         0.006582     -0.235716      0.177778
      8.79827      4.65991      7.87651         0.267194      0.481693      0.020543
      9.46433      3.25447      9.99425         0.213115      1.343050      1.227709
      2.61774      3.87870      3.50067         0.044008     -0.619474      1.821733
      3.59545      2.46241      6.12617         0.024131     -0.339061     -0.207777
      4.57317      1.04611      8.75167         0.276976      0.882768     -1.079218
     11.84071      5.72703      2.22788         0.421321     -0.465747     -0.985470
      7.79886      1.96419      3.02846        -0.149854     -0.248352     -0.692596
      8.47237      0.26490      4.37584         0.041082     -1.493337      2.565615
     13.02338      8.27371      7.00134         0.471695      0.598090     -0.532324
      5.60829      4.93152      2.49588        -0.134643      0.383710     -1.223083
      6.61816      3.96023      4.55733         0.103904     -0.134290      0.500242
      7.59587      2.54394      7.18283        -0.310268     -0.501712     -1.368012
      8.11460      1.28606      9.32800        -1.597052     -0.758317      0.699324
      1.41534      1.76273      2.80700        -0.483868      0.167730      1.807963
      2.39305      0.34643      5.43250         0.038613     -0.027549      0.087748
      6.94406      8.35524      8.05800        -0.687469     -0.314128     -1.741167
      7.51314      7.20489     10.17202         0.191863     -0.948351      1.187937
      2.02797      3.61008      0.97884        -0.194042      0.817500     -1.526627
      2.68579      4.57261      8.66358        -0.635264      0.301882      1.583842
      9.09590      8.32172      1.97712         1.640534     -0.115131     -0.292265
     10.84326      7.57403      3.68216        -0.426266      0.220542      1.695286
     11.82097      6.15773      6.30767         0.004983     -0.269410     -1.172972
      0.85035      1.63241      8.76059         1.592693     -0.766968     -0.181498
      8.03805      5.62256      1.67318         0.026071     -0.933631     -0.857886
      9.02296      4.33443      3.86366         0.185270     -0.200739     -0.048163
     10.00068      2.91813      6.48916         0.226694     -0.124161     -0.243683
      3.82015      2.13692      2.11332         0.270429      0.740470      1.099990
      4.79786      0.72063      4.73883         0.074008     -0.040502      0.297033
      9.34887      8.72943      7.36433        -0.685033      0.379934     -2.216819
     10.61815      7.44872      8.87169        -0.108343     -0.091777      1.216782
      3.16834      7.94822      2.98849         0.329741      0.568678      0.579701
      4.14605      6.53193      5.61399         0.067979     -0.303872     -1.555732
      5.05784      5.30573      7.90938         0.289174     -0.716943      0.233343
      9.82112      1.32455     10.47749         0.927935     -1.872679      3.158656
      7.35546      3.82659      2.42507        -0.177807     -0.467594     -1.795257
      8.33317      2.41029      5.05057         0.037795      0.333741      0.984114
      9.31088      0.99399      7.67607        -0.342191     -1.310307     -2.561362
      2.11296      1.60915      0.84092        -1.367215     -0.213275     -3.109185
      3.13035      0.21279      3.30024        -0.117884      0.500833      2.731405
      7.68136      8.22159      5.92574         0.064491     -0.064346     -0.411141
      8.65907      6.80530      8.55124         1.224792     -1.078377     -0.601487
      2.47854      6.02409      4.17540         0.508403     -0.367816      1.294822
      3.45626      4.60779      6.80091        -0.497601     -0.777596     -3.695884
      4.28496      3.23663      8.80657         1.175827      0.251866      2.083223
     11.53332      7.71105      1.76168        -0.400241      0.341134     -3.521756
      7.67792      7.44176      0.71877         0.530986     -1.242753     -3.746487
      8.88655      6.52099      3.30837         0.459711      0.614281      1.808659
      9.86427      5.10469      5.93387        -0.099537      0.015380      0.017855
     10.84198      3.68840      8.55937         0.767957      1.813829     -0.772390
      3.74456      4.35080      1.78595         1.223290      1.299087     -1.607593
      4.66145      2.90719      4.18354        -0.086314     -0.477092      0.259376
      5.63916      1.49089      6.80904        -0.024766     -0.067264     -0.899657
      6.43064      0.00803      9.21260         1.173345      0.643748      2.196439
      4.00964      8.71849      5.05870         0.141824      0.326292      0.140870
      4.95490      7.40675      7.32417         0.550014      0.613345      1.122084
      5.92613      6.20228      9.51511        -0.860853     -0.627927      2.132599
      9.57553      0.75656      2.71080         0.930854      0.712965     -2.053997
      4.96757      8.02685      1.85972        -1.313160     -1.499041     -1.713035
      5.82436      6.04450      4.19167         0.150260      0.993892      1.400392
      6.80207      4.62821      6.81717         0.422066      0.196656     -1.590849
      7.63868      3.33205      9.10580        -2.219196      1.172691      1.687556
      1.59925      2.43070      5.06683         0.127118      0.064697      0.081011
      2.57697      1.01441      7.69234         0.121894      0.006873     -0.765106
      7.12813      9.16173      9.94946        -1.073571      1.492861      3.320441
     10.70128      3.84700      2.44133        -1.859682      0.507827      0.621810
      4.93161      0.72003      1.06028         2.427903      1.076289     -2.236935
      6.47617      0.23320      3.31650        -0.729511      0.914482      1.444914
     11.02718      8.24201      5.94200        -0.197966      0.278263     -0.225427
     12.40157      6.65953      8.26342        -0.841019      0.247619      2.565983
 -----------------------------------------------------------------------------------
    total drift:                                0.084290      0.005621      0.004167


--------------------------------------------------------------------------------------------------------



  FREE ENERGIE OF THE ION-ELECTRON SYSTEM (eV)
  ---------------------------------------------------
  free  energy   TOTEN  =      -350.50532760 eV

  energy  without entropy=     -349.51981979  energy(sigma->0) =     -350.01257370
 


--------------------------------------------------------------------------------------------------------


    POTLOK:  cpu time    0.3295: real time    0.3295


--------------------------------------------------------------------------------------------------------


     LOOP+:  cpu time  271.5992: real time  271.6949
    4ORBIT:  cpu time    0.0000: real time    0.0000

 total amount of memory used by VASP MPI-rank0    68391. kBytes
=======================================================================

   base      :      30000. kBytes
   nonlr-proj:       2276. kBytes
   fftplans  :       8265. kBytes
   grid      :      13942. kBytes
   one-center:         93. kBytes
   wavefun   :      13815. kBytes
 
  
  
 General timing and accounting informations for this job:
 ========================================================
  
                  Total CPU time used (sec):      274.458
                            User time (sec):      274.023
                          System time (sec):        0.436
                         Elapsed time (sec):      274.792
  
                   Maximum memory used (kb):      187208.
                   Average memory used (kb):           0.
  
                          Minor page faults:       132272
                          Major page faults:            0
                 Voluntary context switches:          171
