LAMMPS data file via write_data, version 5 Jun 2019, timestep = 68

72 atoms
2 atom types

0.0000000000000000e+00 1.6884694054200001e+01 xlo xhi
0.0000000000000000e+00 9.5784099999999999e+00 ylo yhi
0.0000000000000000e+00 1.6169087119699999e+01 zlo zhi
0.0000000000000000e+00 0.0000000000000000e+00 0.0000000000000000e+00 xy xz yz

Masses

1 58.71
2 32.06

Atoms # atomic

1 1 1.3170843241800000e+01 1.3917137972000000e+00 1.9497492409999999e+00 0 0 0
2 1 1.2361393952191007e+01 9.3104127343274279e-01 4.0399635926642876e+00 0 0 0
3 1 3.6542024914732605e+00 6.2986360096929053e+00 1.5420317003634059e+00 0 0 0
4 1 5.0203308952999999e+00 6.1809187972000021e+00 3.4920210102000002e+00 0 0 0
5 1 6.5545276901689293e+00 1.5769559302821168e+00 1.9246487015255669e+00 0 0 0
6 1 7.9317248034999999e+00 1.3917137972000000e+00 4.0061116054000001e+00 0 0 0
7 1 1.6082237150000001e+01 6.1809187972000021e+00 2.4638398361000022e+00 0 0 0
8 1 1.6439937553716000e+01 6.0105903723823788e+00 4.8961454993579023e+00 0 0 0
9 1 2.1089370039999999e+00 1.3917137972000000e+00 2.9779304312999999e+00 0 0 0
10 1 2.2697900064203420e+00 1.4671068025310634e+00 5.4203035715502912e+00 0 0 0
11 1 9.6324962963624188e+00 6.2184987305657904e+00 2.5701302334807119e+00 0 0 0
12 1 1.0843118711600001e+01 6.1809187972000021e+00 4.5202022005000000e+00 0 0 0
13 1 1.4975832140915253e+01 9.4278110386639522e+00 1.5594529847246466e+00 0 -1 0
14 1 2.3727383389657872e-01 9.4761219553295000e+00 2.6887794542084800e+00 1 -1 0
15 1 7.0021822339876394e+00 3.8909012857293952e+00 9.5874617871731949e-01 0 0 0
16 1 7.1737451720000003e+00 4.9155821009000009e+00 3.0845435547000002e+00 0 0 0
17 1 7.6722068196124216e+00 4.7582117729045352e+00 5.6114985602881395e+00 0 0 0
18 1 1.0274123914685912e+01 8.9578473442704105e+00 1.4056857325343803e+00 0 -1 0
19 1 1.0085139063300000e+01 1.2637710090000001e-01 3.5986341498000001e+00 0 0 0
20 1 1.3509573556000001e+00 4.9155821009000009e+00 2.0563623806000000e+00 0 0 0
21 1 1.7089830169986080e+00 4.6823416787757006e+00 4.4592748179229664e+00 0 0 0
22 1 4.2623512638000003e+00 1.2637710090000001e-01 2.5704529594999999e+00 0 0 0
23 1 4.9117311190411712e+00 9.5489193069036560e+00 4.9913289227966917e+00 0 -1 0
24 1 1.2882403945950664e+01 4.2348270332961988e+00 1.8830656542125899e+00 0 0 0
25 1 1.2996532971500001e+01 4.9155821009000009e+00 4.1127247450000004e+00 0 0 0
26 1 1.5209600625843512e+01 3.5214292536701319e+00 2.2594431918827582e+00 0 0 0
27 1 6.0471530880080113e+00 6.1894269735986649e+00 9.4154390136233512e-01 0 0 0
28 1 7.1737451720000003e+00 7.4462554934000007e+00 3.0845435547000002e+00 0 0 0
29 1 7.6268559921678118e+00 7.6219567321298891e+00 5.5714921989575883e+00 0 0 0
30 1 8.9343721872106112e+00 1.4041507741836512e+00 1.4114402502247936e+00 0 0 0
31 1 1.0085139063300000e+01 2.6570504934000008e+00 3.5986341498000001e+00 0 0 0
32 1 1.3509573556000001e+00 7.4462554934000007e+00 2.0563623806000000e+00 0 0 0
33 1 1.8944517299888082e+00 7.5550608617086219e+00 4.6879671698187533e+00 0 0 0
34 1 4.2623512638000003e+00 2.6570504934000008e+00 2.5704529594999999e+00 0 0 0
35 1 1.2721171490034179e+01 8.5703165263151249e+00 1.9631995094789663e+00 0 0 0
36 1 1.2996532971500001e+01 7.4462554934000007e+00 4.1127247450000004e+00 0 0 0
37 2 5.6553460374546172e-01 1.1403732175946630e+00 4.3617537201315937e+00 0 0 0
38 2 1.6030813037430615e+01 1.5744446881702381e+00 1.9771791719495631e+00 0 0 0
39 2 8.0063374054000001e+00 6.1809187972000021e+00 1.4071266099999999e+00 0 0 0
40 2 8.5900067833999998e+00 6.1809187972000021e+00 4.4916701808999999e+00 0 0 0
41 2 1.0917731313499999e+01 1.3917137972000000e+00 1.9212172052000012e+00 0 0 0
42 2 1.0757955056730340e+01 1.4269643049101473e+00 5.1228064603685564e+00 0 0 0
43 2 1.9215861411022823e+00 6.1814926062164135e+00 5.1205047244841861e-01 0 0 0
44 2 2.7672189669999998e+00 6.1809187972000021e+00 3.4634889906000002e+00 0 0 0
45 2 4.7346020537139886e+00 1.3835122504789992e+00 1.0075187935716143e+00 0 0 0
46 2 5.6371681018591380e+00 1.4384012758201326e+00 3.7724368994896431e+00 0 0 0
47 2 1.3829125221700000e+01 6.1809187972000021e+00 2.4353078002999999e+00 0 0 0
48 2 1.4387584262096624e+01 6.1715037499278491e+00 5.0744475730122129e+00 0 0 0
49 2 1.3914259972351957e+01 2.9416395676454505e+00 7.2704393806903522e-01 0 0 0
50 2 1.3469385680154067e+01 2.8953182024363682e+00 3.4634670964746097e+00 0 0 0
51 2 5.2642605413999997e+00 7.7921510352999999e+00 1.9259931169000000e+00 0 0 0
52 2 5.7832234823544155e+00 7.7142116538985395e+00 4.7300100269218843e+00 0 0 0
53 2 8.1756544495999997e+00 3.0029460353000008e+00 2.4400837120999999e+00 0 0 0
54 2 8.6079417632627191e+00 3.0254165538485114e+00 5.1190699252573495e+00 0 0 0
55 2 2.5142103000000002e-02 7.7921510352999999e+00 3.9823554812999999e+00 0 0 0
56 2 1.6377735330922249e+01 7.9489740393005155e+00 1.2677157757830062e+00 0 0 0
57 2 2.3572028697340235e+00 3.0812732955061142e+00 1.7201848574101311e+00 0 0 0
58 2 2.9441622240662428e+00 2.9972476140852526e+00 4.2682899386443411e+00 0 0 0
59 2 1.1087048357700001e+01 7.7921510352999999e+00 2.9541742911000002e+00 0 0 0
60 2 1.1758253716777062e+01 7.5679090099714683e+00 5.6984643263273940e+00 0 0 0
61 2 5.2642605413999997e+00 4.5696865590000000e+00 1.9259931169000000e+00 0 0 0
62 2 5.8647905280487951e+00 4.7489181422637587e+00 4.7368258368256413e+00 0 0 0
63 2 1.3337743173633530e+01 6.7898376155868606e-02 3.4482647831719565e-01 0 1 0
64 2 1.3998442265900000e+01 9.3588915589999999e+00 3.4682648862000023e+00 0 0 0
65 2 1.6713584856114867e+01 4.4213618762358617e+00 3.5995713387930990e+00 -1 0 0
66 2 1.6393802652117280e+01 4.7219794702376570e+00 1.0241643479040337e+00 0 0 0
67 2 8.1756544495999997e+00 9.3588915589999999e+00 2.4400837120999999e+00 0 0 0
68 2 8.5982921750708439e+00 9.3536036893546814e+00 5.1430366385549124e+00 0 0 0
69 2 1.1087048357700001e+01 4.5696865590000000e+00 2.9541742911000002e+00 0 0 0
70 2 1.1745286527211386e+01 4.7954931911691681e+00 5.6915721170098346e+00 0 0 0
71 2 2.2349723059613464e+00 9.3211732076263711e+00 1.7391720591375459e+00 0 0 0
72 2 2.9365360111999999e+00 9.3588915589999999e+00 4.4964460765000034e+00 0 0 0

Velocities

1 0.0000000000000000e+00 0.0000000000000000e+00 0.0000000000000000e+00
2 0.0000000000000000e+00 0.0000000000000000e+00 0.0000000000000000e+00
3 0.0000000000000000e+00 0.0000000000000000e+00 0.0000000000000000e+00
4 0.0000000000000000e+00 0.0000000000000000e+00 0.0000000000000000e+00
5 0.0000000000000000e+00 0.0000000000000000e+00 0.0000000000000000e+00
6 0.0000000000000000e+00 0.0000000000000000e+00 0.0000000000000000e+00
7 0.0000000000000000e+00 0.0000000000000000e+00 0.0000000000000000e+00
8 0.0000000000000000e+00 0.0000000000000000e+00 0.0000000000000000e+00
9 0.0000000000000000e+00 0.0000000000000000e+00 0.0000000000000000e+00
10 0.0000000000000000e+00 0.0000000000000000e+00 0.0000000000000000e+00
11 0.0000000000000000e+00 0.0000000000000000e+00 0.0000000000000000e+00
12 0.0000000000000000e+00 0.0000000000000000e+00 0.0000000000000000e+00
13 0.0000000000000000e+00 0.0000000000000000e+00 0.0000000000000000e+00
14 0.0000000000000000e+00 0.0000000000000000e+00 0.0000000000000000e+00
15 0.0000000000000000e+00 0.0000000000000000e+00 0.0000000000000000e+00
16 0.0000000000000000e+00 0.0000000000000000e+00 0.0000000000000000e+00
17 0.0000000000000000e+00 0.0000000000000000e+00 0.0000000000000000e+00
18 0.0000000000000000e+00 0.0000000000000000e+00 0.0000000000000000e+00
19 0.0000000000000000e+00 0.0000000000000000e+00 0.0000000000000000e+00
20 0.0000000000000000e+00 0.0000000000000000e+00 0.0000000000000000e+00
21 0.0000000000000000e+00 0.0000000000000000e+00 0.0000000000000000e+00
22 0.0000000000000000e+00 0.0000000000000000e+00 0.0000000000000000e+00
23 0.0000000000000000e+00 0.0000000000000000e+00 0.0000000000000000e+00
24 0.0000000000000000e+00 0.0000000000000000e+00 0.0000000000000000e+00
25 0.0000000000000000e+00 0.0000000000000000e+00 0.0000000000000000e+00
26 0.0000000000000000e+00 0.0000000000000000e+00 0.0000000000000000e+00
27 0.0000000000000000e+00 0.0000000000000000e+00 0.0000000000000000e+00
28 0.0000000000000000e+00 0.0000000000000000e+00 0.0000000000000000e+00
29 0.0000000000000000e+00 0.0000000000000000e+00 0.0000000000000000e+00
30 0.0000000000000000e+00 0.0000000000000000e+00 0.0000000000000000e+00
31 0.0000000000000000e+00 0.0000000000000000e+00 0.0000000000000000e+00
32 0.0000000000000000e+00 0.0000000000000000e+00 0.0000000000000000e+00
33 0.0000000000000000e+00 0.0000000000000000e+00 0.0000000000000000e+00
34 0.0000000000000000e+00 0.0000000000000000e+00 0.0000000000000000e+00
35 0.0000000000000000e+00 0.0000000000000000e+00 0.0000000000000000e+00
36 0.0000000000000000e+00 0.0000000000000000e+00 0.0000000000000000e+00
37 0.0000000000000000e+00 0.0000000000000000e+00 0.0000000000000000e+00
38 0.0000000000000000e+00 0.0000000000000000e+00 0.0000000000000000e+00
39 0.0000000000000000e+00 0.0000000000000000e+00 0.0000000000000000e+00
40 0.0000000000000000e+00 0.0000000000000000e+00 0.0000000000000000e+00
41 0.0000000000000000e+00 0.0000000000000000e+00 0.0000000000000000e+00
42 0.0000000000000000e+00 0.0000000000000000e+00 0.0000000000000000e+00
43 0.0000000000000000e+00 0.0000000000000000e+00 0.0000000000000000e+00
44 0.0000000000000000e+00 0.0000000000000000e+00 0.0000000000000000e+00
45 0.0000000000000000e+00 0.0000000000000000e+00 0.0000000000000000e+00
46 0.0000000000000000e+00 0.0000000000000000e+00 0.0000000000000000e+00
47 0.0000000000000000e+00 0.0000000000000000e+00 0.0000000000000000e+00
48 0.0000000000000000e+00 0.0000000000000000e+00 0.0000000000000000e+00
49 0.0000000000000000e+00 0.0000000000000000e+00 0.0000000000000000e+00
50 0.0000000000000000e+00 0.0000000000000000e+00 0.0000000000000000e+00
51 0.0000000000000000e+00 0.0000000000000000e+00 0.0000000000000000e+00
52 0.0000000000000000e+00 0.0000000000000000e+00 0.0000000000000000e+00
53 0.0000000000000000e+00 0.0000000000000000e+00 0.0000000000000000e+00
54 0.0000000000000000e+00 0.0000000000000000e+00 0.0000000000000000e+00
55 0.0000000000000000e+00 0.0000000000000000e+00 0.0000000000000000e+00
56 0.0000000000000000e+00 0.0000000000000000e+00 0.0000000000000000e+00
57 0.0000000000000000e+00 0.0000000000000000e+00 0.0000000000000000e+00
58 0.0000000000000000e+00 0.0000000000000000e+00 0.0000000000000000e+00
59 0.0000000000000000e+00 0.0000000000000000e+00 0.0000000000000000e+00
60 0.0000000000000000e+00 0.0000000000000000e+00 0.0000000000000000e+00
61 0.0000000000000000e+00 0.0000000000000000e+00 0.0000000000000000e+00
62 0.0000000000000000e+00 0.0000000000000000e+00 0.0000000000000000e+00
63 0.0000000000000000e+00 0.0000000000000000e+00 0.0000000000000000e+00
64 0.0000000000000000e+00 0.0000000000000000e+00 0.0000000000000000e+00
65 0.0000000000000000e+00 0.0000000000000000e+00 0.0000000000000000e+00
66 0.0000000000000000e+00 0.0000000000000000e+00 0.0000000000000000e+00
67 0.0000000000000000e+00 0.0000000000000000e+00 0.0000000000000000e+00
68 0.0000000000000000e+00 0.0000000000000000e+00 0.0000000000000000e+00
69 0.0000000000000000e+00 0.0000000000000000e+00 0.0000000000000000e+00
70 0.0000000000000000e+00 0.0000000000000000e+00 0.0000000000000000e+00
71 0.0000000000000000e+00 0.0000000000000000e+00 0.0000000000000000e+00
72 0.0000000000000000e+00 0.0000000000000000e+00 0.0000000000000000e+00
