
78 atoms
2 atom types
   0.0000000000    9.5784100000 xlo xhi
   0.0000000000   10.4033537511 ylo yhi
   0.0000000000   20.8468301371 zlo zhi
  -4.7892049999    0.0000000000    0.0000000000 xy xz yz

Atoms # atomic

     1      1    4.0556245202    4.4635129025    1.6687430979
     2      1    4.0556245203    6.3581094339    4.1718577448
     3      1    4.0556245155    8.2527059550    6.6749723917
     4      1    4.0556245203   10.1473024761    9.1780870385
     5      1    4.0556245202    0.6856046070    5.8406008427
     6      1    4.0556245250    2.5802011281    8.3437154896
     7      1    4.0556245155    4.4747976595   10.8468301365
     8      1   -0.7335804797    7.2997653159    0.8343715490
     9      1   -0.7335804749    9.1943618370    3.3374861958
    10      1   -0.7335804750    1.6272604994    2.5031146469
    11      1   -0.7335804798    3.5218570205    5.0062292938
    12      1   -0.7335804750    5.4164535415    7.5093439406
    13      1    4.0556245203   10.1360177294    0.0000000000
    14      1    5.3209612165    0.8214154382    0.4883042664
    15      1    5.3209612213    2.7160119593    2.9914189133
    16      1    5.3209612117    4.6106084908    5.4945335602
    17      1    5.3209612165    6.5052050118    7.9976482071
    18      1    5.3209612117    8.3998015329   10.5007628539
    19      1    5.3209612165    0.8327001849    9.6663913050
    20      1    0.5317562213    5.5522643728    2.1570473644
    21      1    0.5317562165    7.4468608938    4.6601620112
    22      1    0.5317562213    9.3414574149    7.1632766581
    23      1    0.5317562212    1.7743560773    6.3289051091
    24      1    0.5317562165    3.6689525984    8.8320197560
    25      1   -4.2574487835   10.2831133073    3.8257904623
    26      1    5.3209612117    8.3885167862    1.3226758154
    27      1   -2.9921120921    8.2527059550    6.6749723917
    28      1   -2.9921120873   10.1473024761    9.1780870385
    29      1    6.5862979127    4.4635129025    1.6687430979
    30      1    6.5862979127    6.3581094339    4.1718577448
    31      1    6.5862979127    0.6856046070    5.8406008427
    32      1    6.5862979175    2.5802011281    8.3437154896
    33      1    1.7970929127    7.2997653159    0.8343715490
    34      1    1.7970929175    9.1943618370    3.3374861958
    35      1    1.7970929175    1.6272604994    2.5031146469
    36      1    1.7970929127    3.5218570205    5.0062292938
    37      1    1.7970929175    5.4164535415    7.5093439406
    38      1    1.7970929127    7.3110500626   10.0124585875
    39      1   -2.9921120873   10.1360177294    0.0000000000
    40      2   -2.6462165454    6.0272031990    6.4865362472
    41      2   -2.6462165406    7.9217997201    8.9896508940
    42      2    6.9321934546    2.2380101568    1.4803069534
    43      2    6.9321934594    4.1326066779    3.9834216003
    44      2    6.9321934594    0.3546983825    8.1552793451
    45      2    6.9321934546    2.2492949035   10.6583939920
    46      2    2.1429884546    5.0742625703    0.6459354044
    47      2    2.1429884498    6.9688590914    3.1490500513
    48      2    2.1429884547    8.8634556124    5.6521646982
    49      2    2.1429884594    1.2963542645    4.8177931492
    50      2    2.1429884498    3.1909507959    7.3209077961
    51      2    2.1429884546    5.0855473170    9.8240224430
    52      2   -2.6462165453    9.8051114944    2.3146785024
    53      2    0.5317562165    1.6382445788    9.8085198228
    54      2   -4.2574487787   10.1470018087    7.3054051760
    55      2    5.3209612213    6.3578087666    2.2991758822
    56      2    5.3209612165    8.2524052877    4.8022905291
    57      2    5.3209612164    0.6853039501    3.9679189801
    58      2    5.3209612117    2.5799004711    6.4710336270
    59      2    5.3209612165    4.4744969922    8.9741482739
    60      2    0.5317562117    9.1940611801    1.4648043333
    61      2    0.5317562165    1.6269598321    0.6304327843
    62      2    0.5317562213    3.5215563531    3.1335474312
    63      2    0.5317562165    5.4161528742    5.6366620780
    64      2    0.5317562165    7.3107494057    8.1397767249
    65      2    0.5317562117    9.2053459267   10.6428913718
    66      2    3.7097289783    2.2380101568    1.4803069534
    67      2    3.7097289831    4.1326066779    3.9834216003
    68      2    3.7097289783    6.0272031990    6.4865362472
    69      2    3.7097289831    7.9217997201    8.9896508940
    70      2    3.7097289831    0.3546983825    8.1552793451
    71      2    3.7097289783    2.2492949035   10.6583939920
    72      2   -1.0794760217    5.0742625703    0.6459354044
    73      2   -1.0794760265    6.9688590914    3.1490500513
    74      2   -1.0794760217    8.8634556124    5.6521646982
    75      2   -1.0794760265    3.1909507959    7.3209077961
    76      2   -1.0794760217    5.0855473170    9.8240224430
    77      2    8.4989339831    1.2963542645    4.8177931492
    78      2    3.7097289784    9.8051114944    2.3146785024
