  78  78   0   0
  0.2663252E+02  0.9578410E-09  0.1145278E-08  0.2084683E-08  0.5000000E-15
  1.000000000000000E-004
  CAR 
 "Millerite NiS"                         
     11.25166407    -66.14254129  301      1.55438231      1.00000000
    -66.143  0.0000E+00  0.0000E+00
    -65.885  0.0000E+00  0.0000E+00
    -65.627  0.0000E+00  0.0000E+00
    -65.369  0.0000E+00  0.0000E+00
    -65.111  0.0000E+00  0.0000E+00
    -64.853  0.0000E+00  0.0000E+00
    -64.595  0.0000E+00  0.0000E+00
    -64.337  0.0000E+00  0.0000E+00
    -64.079  0.0000E+00  0.0000E+00
    -63.821  0.0000E+00  0.0000E+00
    -63.563  0.4385E-09  0.1131E-09
    -63.305  0.2967E-04  0.7654E-05
    -63.047  0.9355E-01  0.2414E-01
    -62.789  0.1615E+02  0.4191E+01
    -62.531  0.2054E+03  0.5718E+02
    -62.273  0.3282E+03  0.1418E+03
    -62.015  0.1543E+03  0.1817E+03
    -61.757  0.7352E+02  0.2006E+03
    -61.499  0.5164E+02  0.2140E+03
    -61.241  0.4818E+02  0.2264E+03
    -60.983  0.2718E+02  0.2334E+03
    -60.725  0.2333E+01  0.2340E+03
    -60.467  0.1443E-01  0.2340E+03
    -60.209  0.4681E-05  0.2340E+03
    -59.951  0.6867E-10  0.2340E+03
    -59.693  0.0000E+00  0.2340E+03
    -59.435  0.0000E+00  0.2340E+03
    -59.177  0.0000E+00  0.2340E+03
    -58.919  0.0000E+00  0.2340E+03
    -58.661  0.0000E+00  0.2340E+03
    -58.403  0.0000E+00  0.2340E+03
    -58.145  0.0000E+00  0.2340E+03
    -57.887  0.0000E+00  0.2340E+03
    -57.629  0.0000E+00  0.2340E+03
    -57.371  0.0000E+00  0.2340E+03
    -57.113  0.0000E+00  0.2340E+03
    -56.855  0.0000E+00  0.2340E+03
    -56.597  0.0000E+00  0.2340E+03
    -56.339  0.0000E+00  0.2340E+03
    -56.081  0.0000E+00  0.2340E+03
    -55.823  0.0000E+00  0.2340E+03
    -55.565  0.0000E+00  0.2340E+03
    -55.307  0.0000E+00  0.2340E+03
    -55.049  0.0000E+00  0.2340E+03
    -54.791  0.0000E+00  0.2340E+03
    -54.533  0.0000E+00  0.2340E+03
    -54.275  0.0000E+00  0.2340E+03
    -54.017  0.0000E+00  0.2340E+03
    -53.759  0.0000E+00  0.2340E+03
    -53.501  0.0000E+00  0.2340E+03
    -53.244  0.0000E+00  0.2340E+03
    -52.986  0.0000E+00  0.2340E+03
    -52.728  0.0000E+00  0.2340E+03
    -52.470  0.0000E+00  0.2340E+03
    -52.212  0.0000E+00  0.2340E+03
    -51.954  0.0000E+00  0.2340E+03
    -51.696  0.0000E+00  0.2340E+03
    -51.438  0.0000E+00  0.2340E+03
    -51.180  0.0000E+00  0.2340E+03
    -50.922  0.0000E+00  0.2340E+03
    -50.664  0.0000E+00  0.2340E+03
    -50.406  0.0000E+00  0.2340E+03
    -50.148  0.0000E+00  0.2340E+03
    -49.890  0.0000E+00  0.2340E+03
    -49.632  0.0000E+00  0.2340E+03
    -49.374  0.0000E+00  0.2340E+03
    -49.116  0.0000E+00  0.2340E+03
    -48.858  0.0000E+00  0.2340E+03
    -48.600  0.0000E+00  0.2340E+03
    -48.342  0.0000E+00  0.2340E+03
    -48.084  0.0000E+00  0.2340E+03
    -47.826  0.0000E+00  0.2340E+03
    -47.568  0.0000E+00  0.2340E+03
    -47.310  0.0000E+00  0.2340E+03
    -47.052  0.0000E+00  0.2340E+03
    -46.794  0.0000E+00  0.2340E+03
    -46.536  0.0000E+00  0.2340E+03
    -46.278  0.0000E+00  0.2340E+03
    -46.020  0.0000E+00  0.2340E+03
    -45.762  0.0000E+00  0.2340E+03
    -45.504  0.0000E+00  0.2340E+03
    -45.246  0.0000E+00  0.2340E+03
    -44.988  0.0000E+00  0.2340E+03
    -44.730  0.0000E+00  0.2340E+03
    -44.472  0.0000E+00  0.2340E+03
    -44.214  0.0000E+00  0.2340E+03
    -43.956  0.0000E+00  0.2340E+03
    -43.698  0.0000E+00  0.2340E+03
    -43.440  0.0000E+00  0.2340E+03
    -43.182  0.0000E+00  0.2340E+03
    -42.924  0.0000E+00  0.2340E+03
    -42.666  0.0000E+00  0.2340E+03
    -42.408  0.0000E+00  0.2340E+03
    -42.150  0.0000E+00  0.2340E+03
    -41.892  0.0000E+00  0.2340E+03
    -41.634  0.0000E+00  0.2340E+03
    -41.376  0.0000E+00  0.2340E+03
    -41.118  0.0000E+00  0.2340E+03
    -40.860  0.0000E+00  0.2340E+03
    -40.602  0.0000E+00  0.2340E+03
    -40.344  0.0000E+00  0.2340E+03
    -40.086  0.0000E+00  0.2340E+03
    -39.829  0.0000E+00  0.2340E+03
    -39.571  0.0000E+00  0.2340E+03
    -39.313  0.0000E+00  0.2340E+03
    -39.055  0.0000E+00  0.2340E+03
    -38.797  0.0000E+00  0.2340E+03
    -38.539  0.0000E+00  0.2340E+03
    -38.281  0.0000E+00  0.2340E+03
    -38.023  0.0000E+00  0.2340E+03
    -37.765  0.0000E+00  0.2340E+03
    -37.507  0.0000E+00  0.2340E+03
    -37.249  0.0000E+00  0.2340E+03
    -36.991  0.0000E+00  0.2340E+03
    -36.733  0.0000E+00  0.2340E+03
    -36.475  0.0000E+00  0.2340E+03
    -36.217  0.0000E+00  0.2340E+03
    -35.959  0.0000E+00  0.2340E+03
    -35.701  0.0000E+00  0.2340E+03
    -35.443  0.0000E+00  0.2340E+03
    -35.185  0.0000E+00  0.2340E+03
    -34.927  0.0000E+00  0.2340E+03
    -34.669  0.0000E+00  0.2340E+03
    -34.411  0.0000E+00  0.2340E+03
    -34.153  0.0000E+00  0.2340E+03
    -33.895  0.0000E+00  0.2340E+03
    -33.637  0.0000E+00  0.2340E+03
    -33.379  0.0000E+00  0.2340E+03
    -33.121  0.0000E+00  0.2340E+03
    -32.863  0.0000E+00  0.2340E+03
    -32.605  0.0000E+00  0.2340E+03
    -32.347  0.0000E+00  0.2340E+03
    -32.089  0.0000E+00  0.2340E+03
    -31.831  0.0000E+00  0.2340E+03
    -31.573  0.0000E+00  0.2340E+03
    -31.315  0.0000E+00  0.2340E+03
    -31.057  0.0000E+00  0.2340E+03
    -30.799  0.0000E+00  0.2340E+03
    -30.541  0.0000E+00  0.2340E+03
    -30.283  0.0000E+00  0.2340E+03
    -30.025  0.0000E+00  0.2340E+03
    -29.767  0.0000E+00  0.2340E+03
    -29.509  0.0000E+00  0.2340E+03
    -29.251  0.0000E+00  0.2340E+03
    -28.993  0.0000E+00  0.2340E+03
    -28.735  0.0000E+00  0.2340E+03
    -28.477  0.0000E+00  0.2340E+03
    -28.219  0.0000E+00  0.2340E+03
    -27.961  0.0000E+00  0.2340E+03
    -27.703  0.0000E+00  0.2340E+03
    -27.445  0.0000E+00  0.2340E+03
    -27.187  0.0000E+00  0.2340E+03
    -26.929  0.0000E+00  0.2340E+03
    -26.671  0.0000E+00  0.2340E+03
    -26.414  0.0000E+00  0.2340E+03
    -26.156  0.0000E+00  0.2340E+03
    -25.898  0.0000E+00  0.2340E+03
    -25.640  0.0000E+00  0.2340E+03
    -25.382  0.0000E+00  0.2340E+03
    -25.124  0.0000E+00  0.2340E+03
    -24.866  0.0000E+00  0.2340E+03
    -24.608  0.0000E+00  0.2340E+03
    -24.350  0.0000E+00  0.2340E+03
    -24.092  0.0000E+00  0.2340E+03
    -23.834  0.0000E+00  0.2340E+03
    -23.576  0.0000E+00  0.2340E+03
    -23.318  0.0000E+00  0.2340E+03
    -23.060  0.0000E+00  0.2340E+03
    -22.802  0.0000E+00  0.2340E+03
    -22.544  0.0000E+00  0.2340E+03
    -22.286  0.0000E+00  0.2340E+03
    -22.028  0.0000E+00  0.2340E+03
    -21.770  0.0000E+00  0.2340E+03
    -21.512  0.0000E+00  0.2340E+03
    -21.254  0.0000E+00  0.2340E+03
    -20.996  0.0000E+00  0.2340E+03
    -20.738  0.0000E+00  0.2340E+03
    -20.480  0.0000E+00  0.2340E+03
    -20.222  0.0000E+00  0.2340E+03
    -19.964  0.0000E+00  0.2340E+03
    -19.706  0.0000E+00  0.2340E+03
    -19.448  0.0000E+00  0.2340E+03
    -19.190  0.0000E+00  0.2340E+03
    -18.932  0.0000E+00  0.2340E+03
    -18.674  0.0000E+00  0.2340E+03
    -18.416  0.0000E+00  0.2340E+03
    -18.158  0.0000E+00  0.2340E+03
    -17.900  0.0000E+00  0.2340E+03
    -17.642  0.0000E+00  0.2340E+03
    -17.384  0.0000E+00  0.2340E+03
    -17.126  0.0000E+00  0.2340E+03
    -16.868  0.0000E+00  0.2340E+03
    -16.610  0.0000E+00  0.2340E+03
    -16.352  0.0000E+00  0.2340E+03
    -16.094  0.0000E+00  0.2340E+03
    -15.836  0.0000E+00  0.2340E+03
    -15.578  0.0000E+00  0.2340E+03
    -15.320  0.0000E+00  0.2340E+03
    -15.062  0.3443E-14  0.2340E+03
    -14.804  0.1913E-08  0.2340E+03
    -14.546  0.4256E-04  0.2340E+03
    -14.288  0.3907E-01  0.2340E+03
    -14.030  0.1721E+01  0.2345E+03
    -13.772  0.4902E+01  0.2357E+03
    -13.514  0.1685E+01  0.2362E+03
    -13.257  0.8029E+01  0.2382E+03
    -12.999  0.1882E+02  0.2431E+03
    -12.741  0.2120E+02  0.2486E+03
    -12.483  0.3039E+02  0.2564E+03
    -12.225  0.3028E+02  0.2642E+03
    -11.967  0.3912E+02  0.2743E+03
    -11.709  0.3760E+02  0.2840E+03
    -11.451  0.2579E+02  0.2906E+03
    -11.193  0.2115E+02  0.2961E+03
    -10.935  0.2127E+02  0.3016E+03
    -10.677  0.2189E+02  0.3072E+03
    -10.419  0.1049E+02  0.3099E+03
    -10.161  0.4955E+01  0.3112E+03
     -9.903  0.2890E+01  0.3120E+03
     -9.645  0.1370E+00  0.3120E+03
     -9.387  0.3325E-03  0.3120E+03
     -9.129  0.3422E-07  0.3120E+03
     -8.871  0.1377E-12  0.3120E+03
     -8.613  0.0000E+00  0.3120E+03
     -8.355  0.0000E+00  0.3120E+03
     -8.097  0.0000E+00  0.3120E+03
     -7.839  0.0000E+00  0.3120E+03
     -7.581  0.0000E+00  0.3120E+03
     -7.323  0.0000E+00  0.3120E+03
     -7.065  0.0000E+00  0.3120E+03
     -6.807  0.1612E-09  0.3120E+03
     -6.549  0.7277E-05  0.3120E+03
     -6.291  0.1398E-01  0.3120E+03
     -6.033  0.1352E+01  0.3124E+03
     -5.775  0.8863E+01  0.3146E+03
     -5.517  0.7869E+01  0.3167E+03
     -5.259  0.1828E+02  0.3214E+03
     -5.001  0.3328E+02  0.3300E+03
     -4.743  0.4781E+02  0.3423E+03
     -4.485  0.5553E+02  0.3566E+03
     -4.227  0.4056E+02  0.3671E+03
     -3.969  0.4369E+02  0.3784E+03
     -3.711  0.4110E+02  0.3890E+03
     -3.453  0.4415E+02  0.4004E+03
     -3.195  0.5324E+02  0.4141E+03
     -2.937  0.6253E+02  0.4302E+03
     -2.679  0.7484E+02  0.4495E+03
     -2.421  0.8409E+02  0.4712E+03
     -2.163  0.7752E+02  0.4912E+03
     -1.905  0.6228E+02  0.5073E+03
     -1.647  0.4832E+02  0.5198E+03
     -1.389  0.5101E+02  0.5329E+03
     -1.131  0.6357E+02  0.5493E+03
     -0.873  0.7876E+02  0.5696E+03
     -0.615  0.1047E+03  0.5967E+03
     -0.357  0.1331E+03  0.6310E+03
     -0.099  0.1830E+03  0.6782E+03
      0.158  0.1872E+03  0.7265E+03
      0.416  0.1361E+03  0.7616E+03
      0.674  0.1056E+03  0.7888E+03
      0.932  0.1050E+03  0.8159E+03
      1.190  0.7963E+02  0.8365E+03
      1.448  0.5881E+02  0.8516E+03
      1.706  0.6107E+02  0.8674E+03
      1.964  0.6646E+02  0.8845E+03
      2.222  0.6812E+02  0.9021E+03
      2.480  0.6119E+02  0.9179E+03
      2.738  0.5050E+02  0.9309E+03
      2.996  0.2873E+02  0.9383E+03
      3.254  0.6170E+01  0.9399E+03
      3.512  0.1708E+01  0.9404E+03
      3.770  0.6982E+01  0.9422E+03
      4.028  0.6271E+01  0.9438E+03
      4.286  0.3351E+01  0.9447E+03
      4.544  0.7345E+01  0.9465E+03
      4.802  0.1147E+02  0.9495E+03
      5.060  0.1818E+02  0.9542E+03
      5.318  0.1472E+02  0.9580E+03
      5.576  0.1574E+02  0.9621E+03
      5.834  0.2219E+02  0.9678E+03
      6.092  0.3417E+02  0.9766E+03
      6.350  0.3152E+02  0.9847E+03
      6.608  0.2384E+02  0.9909E+03
      6.866  0.3640E+02  0.1000E+04
      7.124  0.3864E+02  0.1010E+04
      7.382  0.4163E+02  0.1021E+04
      7.640  0.4728E+02  0.1033E+04
      7.898  0.2408E+02  0.1039E+04
      8.156  0.2372E+01  0.1040E+04
      8.414  0.1995E-01  0.1040E+04
      8.672  0.8940E-05  0.1040E+04
      8.930  0.1737E-09  0.1040E+04
      9.188  0.0000E+00  0.1040E+04
      9.446  0.0000E+00  0.1040E+04
      9.704  0.0000E+00  0.1040E+04
      9.962  0.0000E+00  0.1040E+04
     10.220  0.0000E+00  0.1040E+04
     10.478  0.0000E+00  0.1040E+04
     10.736  0.0000E+00  0.1040E+04
     10.994  0.0000E+00  0.1040E+04
     11.252  0.0000E+00  0.1040E+04
