  96  96   0   0
  0.2657162E+02  0.1125646E-08  0.1125646E-08  0.2251996E-08  0.5000000E-15
  1.000000000000000E-004
  CAR 
 "Millerite NiS"                         
     11.41225417    -65.84486772  301      1.76135815      1.00000000
    -65.845  0.0000E+00  0.0000E+00
    -65.587  0.0000E+00  0.0000E+00
    -65.330  0.0000E+00  0.0000E+00
    -65.072  0.0000E+00  0.0000E+00
    -64.815  0.0000E+00  0.0000E+00
    -64.557  0.0000E+00  0.0000E+00
    -64.300  0.0000E+00  0.0000E+00
    -64.042  0.0000E+00  0.0000E+00
    -63.785  0.0000E+00  0.0000E+00
    -63.527  0.0000E+00  0.0000E+00
    -63.270  0.1250E-08  0.3218E-09
    -63.012  0.7410E-04  0.1908E-04
    -62.755  0.2014E+00  0.5187E-01
    -62.497  0.2931E+02  0.7599E+01
    -62.240  0.3098E+03  0.8737E+02
    -61.982  0.3989E+03  0.1901E+03
    -61.724  0.1092E+03  0.2182E+03
    -61.467  0.6275E+02  0.2344E+03
    -61.209  0.5241E+02  0.2479E+03
    -60.952  0.7255E+02  0.2666E+03
    -60.694  0.6420E+02  0.2831E+03
    -60.437  0.1627E+02  0.2873E+03
    -60.179  0.2706E+01  0.2880E+03
    -59.922  0.8960E-01  0.2880E+03
    -59.664  0.1645E-03  0.2880E+03
    -59.407  0.1287E-07  0.2880E+03
    -59.149  0.3966E-13  0.2880E+03
    -58.892  0.0000E+00  0.2880E+03
    -58.634  0.0000E+00  0.2880E+03
    -58.377  0.0000E+00  0.2880E+03
    -58.119  0.0000E+00  0.2880E+03
    -57.862  0.0000E+00  0.2880E+03
    -57.604  0.0000E+00  0.2880E+03
    -57.347  0.0000E+00  0.2880E+03
    -57.089  0.0000E+00  0.2880E+03
    -56.832  0.0000E+00  0.2880E+03
    -56.574  0.0000E+00  0.2880E+03
    -56.316  0.0000E+00  0.2880E+03
    -56.059  0.0000E+00  0.2880E+03
    -55.801  0.0000E+00  0.2880E+03
    -55.544  0.0000E+00  0.2880E+03
    -55.286  0.0000E+00  0.2880E+03
    -55.029  0.0000E+00  0.2880E+03
    -54.771  0.0000E+00  0.2880E+03
    -54.514  0.0000E+00  0.2880E+03
    -54.256  0.0000E+00  0.2880E+03
    -53.999  0.0000E+00  0.2880E+03
    -53.741  0.0000E+00  0.2880E+03
    -53.484  0.0000E+00  0.2880E+03
    -53.226  0.0000E+00  0.2880E+03
    -52.969  0.0000E+00  0.2880E+03
    -52.711  0.0000E+00  0.2880E+03
    -52.454  0.0000E+00  0.2880E+03
    -52.196  0.0000E+00  0.2880E+03
    -51.939  0.0000E+00  0.2880E+03
    -51.681  0.0000E+00  0.2880E+03
    -51.424  0.0000E+00  0.2880E+03
    -51.166  0.0000E+00  0.2880E+03
    -50.908  0.0000E+00  0.2880E+03
    -50.651  0.0000E+00  0.2880E+03
    -50.393  0.0000E+00  0.2880E+03
    -50.136  0.0000E+00  0.2880E+03
    -49.878  0.0000E+00  0.2880E+03
    -49.621  0.0000E+00  0.2880E+03
    -49.363  0.0000E+00  0.2880E+03
    -49.106  0.0000E+00  0.2880E+03
    -48.848  0.0000E+00  0.2880E+03
    -48.591  0.0000E+00  0.2880E+03
    -48.333  0.0000E+00  0.2880E+03
    -48.076  0.0000E+00  0.2880E+03
    -47.818  0.0000E+00  0.2880E+03
    -47.561  0.0000E+00  0.2880E+03
    -47.303  0.0000E+00  0.2880E+03
    -47.046  0.0000E+00  0.2880E+03
    -46.788  0.0000E+00  0.2880E+03
    -46.531  0.0000E+00  0.2880E+03
    -46.273  0.0000E+00  0.2880E+03
    -46.016  0.0000E+00  0.2880E+03
    -45.758  0.0000E+00  0.2880E+03
    -45.500  0.0000E+00  0.2880E+03
    -45.243  0.0000E+00  0.2880E+03
    -44.985  0.0000E+00  0.2880E+03
    -44.728  0.0000E+00  0.2880E+03
    -44.470  0.0000E+00  0.2880E+03
    -44.213  0.0000E+00  0.2880E+03
    -43.955  0.0000E+00  0.2880E+03
    -43.698  0.0000E+00  0.2880E+03
    -43.440  0.0000E+00  0.2880E+03
    -43.183  0.0000E+00  0.2880E+03
    -42.925  0.0000E+00  0.2880E+03
    -42.668  0.0000E+00  0.2880E+03
    -42.410  0.0000E+00  0.2880E+03
    -42.153  0.0000E+00  0.2880E+03
    -41.895  0.0000E+00  0.2880E+03
    -41.638  0.0000E+00  0.2880E+03
    -41.380  0.0000E+00  0.2880E+03
    -41.123  0.0000E+00  0.2880E+03
    -40.865  0.0000E+00  0.2880E+03
    -40.608  0.0000E+00  0.2880E+03
    -40.350  0.0000E+00  0.2880E+03
    -40.092  0.0000E+00  0.2880E+03
    -39.835  0.0000E+00  0.2880E+03
    -39.577  0.0000E+00  0.2880E+03
    -39.320  0.0000E+00  0.2880E+03
    -39.062  0.0000E+00  0.2880E+03
    -38.805  0.0000E+00  0.2880E+03
    -38.547  0.0000E+00  0.2880E+03
    -38.290  0.0000E+00  0.2880E+03
    -38.032  0.0000E+00  0.2880E+03
    -37.775  0.0000E+00  0.2880E+03
    -37.517  0.0000E+00  0.2880E+03
    -37.260  0.0000E+00  0.2880E+03
    -37.002  0.0000E+00  0.2880E+03
    -36.745  0.0000E+00  0.2880E+03
    -36.487  0.0000E+00  0.2880E+03
    -36.230  0.0000E+00  0.2880E+03
    -35.972  0.0000E+00  0.2880E+03
    -35.715  0.0000E+00  0.2880E+03
    -35.457  0.0000E+00  0.2880E+03
    -35.200  0.0000E+00  0.2880E+03
    -34.942  0.0000E+00  0.2880E+03
    -34.684  0.0000E+00  0.2880E+03
    -34.427  0.0000E+00  0.2880E+03
    -34.169  0.0000E+00  0.2880E+03
    -33.912  0.0000E+00  0.2880E+03
    -33.654  0.0000E+00  0.2880E+03
    -33.397  0.0000E+00  0.2880E+03
    -33.139  0.0000E+00  0.2880E+03
    -32.882  0.0000E+00  0.2880E+03
    -32.624  0.0000E+00  0.2880E+03
    -32.367  0.0000E+00  0.2880E+03
    -32.109  0.0000E+00  0.2880E+03
    -31.852  0.0000E+00  0.2880E+03
    -31.594  0.0000E+00  0.2880E+03
    -31.337  0.0000E+00  0.2880E+03
    -31.079  0.0000E+00  0.2880E+03
    -30.822  0.0000E+00  0.2880E+03
    -30.564  0.0000E+00  0.2880E+03
    -30.307  0.0000E+00  0.2880E+03
    -30.049  0.0000E+00  0.2880E+03
    -29.792  0.0000E+00  0.2880E+03
    -29.534  0.0000E+00  0.2880E+03
    -29.276  0.0000E+00  0.2880E+03
    -29.019  0.0000E+00  0.2880E+03
    -28.761  0.0000E+00  0.2880E+03
    -28.504  0.0000E+00  0.2880E+03
    -28.246  0.0000E+00  0.2880E+03
    -27.989  0.0000E+00  0.2880E+03
    -27.731  0.0000E+00  0.2880E+03
    -27.474  0.0000E+00  0.2880E+03
    -27.216  0.0000E+00  0.2880E+03
    -26.959  0.0000E+00  0.2880E+03
    -26.701  0.0000E+00  0.2880E+03
    -26.444  0.0000E+00  0.2880E+03
    -26.186  0.0000E+00  0.2880E+03
    -25.929  0.0000E+00  0.2880E+03
    -25.671  0.0000E+00  0.2880E+03
    -25.414  0.0000E+00  0.2880E+03
    -25.156  0.0000E+00  0.2880E+03
    -24.899  0.0000E+00  0.2880E+03
    -24.641  0.0000E+00  0.2880E+03
    -24.384  0.0000E+00  0.2880E+03
    -24.126  0.0000E+00  0.2880E+03
    -23.868  0.0000E+00  0.2880E+03
    -23.611  0.0000E+00  0.2880E+03
    -23.353  0.0000E+00  0.2880E+03
    -23.096  0.0000E+00  0.2880E+03
    -22.838  0.0000E+00  0.2880E+03
    -22.581  0.0000E+00  0.2880E+03
    -22.323  0.0000E+00  0.2880E+03
    -22.066  0.0000E+00  0.2880E+03
    -21.808  0.0000E+00  0.2880E+03
    -21.551  0.0000E+00  0.2880E+03
    -21.293  0.0000E+00  0.2880E+03
    -21.036  0.0000E+00  0.2880E+03
    -20.778  0.0000E+00  0.2880E+03
    -20.521  0.0000E+00  0.2880E+03
    -20.263  0.0000E+00  0.2880E+03
    -20.006  0.0000E+00  0.2880E+03
    -19.748  0.0000E+00  0.2880E+03
    -19.491  0.0000E+00  0.2880E+03
    -19.233  0.0000E+00  0.2880E+03
    -18.976  0.0000E+00  0.2880E+03
    -18.718  0.0000E+00  0.2880E+03
    -18.460  0.0000E+00  0.2880E+03
    -18.203  0.0000E+00  0.2880E+03
    -17.945  0.0000E+00  0.2880E+03
    -17.688  0.0000E+00  0.2880E+03
    -17.430  0.0000E+00  0.2880E+03
    -17.173  0.0000E+00  0.2880E+03
    -16.915  0.0000E+00  0.2880E+03
    -16.658  0.0000E+00  0.2880E+03
    -16.400  0.0000E+00  0.2880E+03
    -16.143  0.0000E+00  0.2880E+03
    -15.885  0.0000E+00  0.2880E+03
    -15.628  0.0000E+00  0.2880E+03
    -15.370  0.0000E+00  0.2880E+03
    -15.113  0.0000E+00  0.2880E+03
    -14.855  0.0000E+00  0.2880E+03
    -14.598  0.3447E-10  0.2880E+03
    -14.340  0.2196E-05  0.2880E+03
    -14.083  0.5683E-02  0.2880E+03
    -13.825  0.6684E+00  0.2882E+03
    -13.568  0.4587E+01  0.2894E+03
    -13.310  0.2650E+01  0.2900E+03
    -13.053  0.6227E+01  0.2916E+03
    -12.795  0.2098E+02  0.2970E+03
    -12.537  0.2299E+02  0.3030E+03
    -12.280  0.2638E+02  0.3098E+03
    -12.022  0.3201E+02  0.3180E+03
    -11.765  0.4698E+02  0.3301E+03
    -11.507  0.5450E+02  0.3441E+03
    -11.250  0.4751E+02  0.3564E+03
    -10.992  0.3749E+02  0.3660E+03
    -10.735  0.2602E+02  0.3727E+03
    -10.477  0.2055E+02  0.3780E+03
    -10.220  0.7539E+01  0.3800E+03
     -9.962  0.6070E+01  0.3815E+03
     -9.705  0.8261E+01  0.3836E+03
     -9.447  0.1349E+01  0.3840E+03
     -9.190  0.1707E-01  0.3840E+03
     -8.932  0.1113E-04  0.3840E+03
     -8.675  0.3062E-09  0.3840E+03
     -8.417  0.0000E+00  0.3840E+03
     -8.160  0.0000E+00  0.3840E+03
     -7.902  0.0000E+00  0.3840E+03
     -7.645  0.0000E+00  0.3840E+03
     -7.387  0.0000E+00  0.3840E+03
     -7.129  0.0000E+00  0.3840E+03
     -6.872  0.0000E+00  0.3840E+03
     -6.614  0.0000E+00  0.3840E+03
     -6.357  0.3649E-09  0.3840E+03
     -6.099  0.1698E-04  0.3840E+03
     -5.842  0.3461E-01  0.3840E+03
     -5.584  0.3619E+01  0.3849E+03
     -5.327  0.2579E+02  0.3916E+03
     -5.069  0.1964E+02  0.3966E+03
     -4.812  0.1918E+02  0.4016E+03
     -4.554  0.4105E+02  0.4122E+03
     -4.297  0.6001E+02  0.4276E+03
     -4.039  0.5821E+02  0.4426E+03
     -3.782  0.5188E+02  0.4560E+03
     -3.524  0.4844E+02  0.4684E+03
     -3.267  0.5950E+02  0.4838E+03
     -3.009  0.6499E+02  0.5005E+03
     -2.752  0.8333E+02  0.5219E+03
     -2.494  0.8515E+02  0.5439E+03
     -2.237  0.9908E+02  0.5694E+03
     -1.979  0.1040E+03  0.5962E+03
     -1.721  0.7825E+02  0.6163E+03
     -1.464  0.6612E+02  0.6333E+03
     -1.206  0.6539E+02  0.6502E+03
     -0.949  0.6933E+02  0.6680E+03
     -0.691  0.7460E+02  0.6873E+03
     -0.434  0.1147E+03  0.7168E+03
     -0.176  0.1467E+03  0.7546E+03
      0.081  0.1913E+03  0.8038E+03
      0.339  0.2374E+03  0.8650E+03
      0.596  0.1857E+03  0.9128E+03
      0.854  0.1470E+03  0.9506E+03
      1.111  0.1336E+03  0.9851E+03
      1.369  0.1261E+03  0.1018E+04
      1.626  0.1062E+03  0.1045E+04
      1.884  0.7686E+02  0.1065E+04
      2.141  0.6225E+02  0.1081E+04
      2.399  0.7046E+02  0.1099E+04
      2.656  0.8949E+02  0.1122E+04
      2.914  0.8183E+02  0.1143E+04
      3.171  0.4715E+02  0.1155E+04
      3.429  0.1416E+02  0.1159E+04
      3.687  0.6497E+01  0.1160E+04
      3.944  0.9986E+01  0.1163E+04
      4.202  0.1147E+02  0.1166E+04
      4.459  0.1317E+02  0.1169E+04
      4.717  0.1519E+02  0.1173E+04
      4.974  0.1084E+02  0.1176E+04
      5.232  0.1186E+02  0.1179E+04
      5.489  0.1713E+02  0.1184E+04
      5.747  0.1844E+02  0.1188E+04
      6.004  0.2153E+02  0.1194E+04
      6.262  0.2877E+02  0.1201E+04
      6.519  0.3094E+02  0.1209E+04
      6.777  0.4005E+02  0.1219E+04
      7.034  0.4736E+02  0.1232E+04
      7.292  0.5438E+02  0.1246E+04
      7.549  0.5566E+02  0.1260E+04
      7.807  0.4943E+02  0.1273E+04
      8.064  0.2557E+02  0.1279E+04
      8.322  0.2522E+01  0.1280E+04
      8.579  0.2131E-01  0.1280E+04
      8.837  0.9658E-05  0.1280E+04
      9.095  0.1918E-09  0.1280E+04
      9.352  0.0000E+00  0.1280E+04
      9.610  0.0000E+00  0.1280E+04
      9.867  0.0000E+00  0.1280E+04
     10.125  0.0000E+00  0.1280E+04
     10.382  0.0000E+00  0.1280E+04
     10.640  0.0000E+00  0.1280E+04
     10.897  0.0000E+00  0.1280E+04
     11.155  0.0000E+00  0.1280E+04
     11.412  0.0000E+00  0.1280E+04
