 vasp.5.4.4.18Apr17-6-g9f103f2a35 (build Aug 13 2019 17:33:20) gamma-only       
  
 executed on             LinuxIFC date 2020.05.12  08:32:31
 running on   12 total cores
 distrk:  each k-point on   12 cores,    1 groups
 distr:  one band on NCORES_PER_BAND=   6 cores,    2 groups


--------------------------------------------------------------------------------------------------------


 INCAR:
 POTCAR:    PAW_PBE Ni_pv 06Sep2000               
 POTCAR:    PAW_PBE S 06Sep2000                   
 POTCAR:    PAW_PBE Ni_pv 06Sep2000               
   VRHFIN =Ni:                                                                  
   LEXCH  = PE                                                                  
   EATOM  =  3501.1230 eV,  257.3253 Ry                                         
                                                                                
   TITEL  = PAW_PBE Ni_pv 06Sep2000                                             
   LULTRA =        F    use ultrasoft PP ?                                      
   IUNSCR =        1    unscreen: 0-lin 1-nonlin 2-no                           
   RPACOR =    1.500    partial core radius                                     
   POMASS =   58.690; ZVAL   =   16.000    mass and valenz                      
   RCORE  =    2.000    outmost cutoff radius                                   
   RWIGS  =    2.000; RWIGS  =    1.058    wigner-seitz radius (au A)           
   ENMAX  =  367.986; ENMIN  =  275.989 eV                                      
   RCLOC  =    1.301    cutoff for local pot                                    
   LCOR   =        T    correct aug charges                                     
   LPAW   =        T    paw PP                                                  
   EAUG   =  703.443                                                            
   DEXC   =    0.000                                                            
   RMAX   =    2.041    core radius for proj-oper                               
   RAUG   =    1.300    factor for augmentation sphere                          
   RDEP   =    2.103    radius for radial grids                                 
   RDEPT  =    1.618    core radius for aug-charge                              
                                                                                
   Atomic configuration                                                         
    8 entries                                                                   
     n  l   j            E        occ.                                          
     1  0  0.50     -8206.4253   2.0000                                         
     2  0  0.50      -976.1748   2.0000                                         
     2  1  1.50      -839.0571   6.0000                                         
     3  0  0.50      -105.9991   2.0000                                         
     3  1  1.50       -66.4603   6.0000                                         
     3  2  2.50        -4.6458   9.0000                                         
     4  0  0.50        -4.4926   1.0000                                         
     4  3  2.50        -1.3606   0.0000                                         
   Description                                                                  
     l       E           TYP  RCUT    TYP  RCUT                                 
     1    -66.4602962     23  1.700                                             
     1     -1.3605826     23  1.700                                             
     2     -4.6457867     23  2.000                                             
     2     -6.0063693     23  2.000                                             
     0     -4.4925576     23  1.900                                             
     0     16.3626226     23  1.900                                             
  local pseudopotential read in
  partial core-charges read in
  partial kinetic energy density read in
  atomic valenz-charges read in
  non local Contribution for L=           1  read in
    real space projection operators read in
  non local Contribution for L=           1  read in
    real space projection operators read in
  non local Contribution for L=           2  read in
    real space projection operators read in
  non local Contribution for L=           2  read in
    real space projection operators read in
  non local Contribution for L=           0  read in
    real space projection operators read in
  non local Contribution for L=           0  read in
    real space projection operators read in
    PAW grid and wavefunctions read in
 
   number of l-projection  operators is LMAX  =           6
   number of lm-projection operators is LMMAX =          18
 
 POTCAR:    PAW_PBE S 06Sep2000                   
   VRHFIN =S : s2p4                                                             
   LEXCH  = PE                                                                  
   EATOM  =   276.8230 eV,   20.3459 Ry                                         
                                                                                
   TITEL  = PAW_PBE S 06Sep2000                                                 
   LULTRA =        F    use ultrasoft PP ?                                      
   IUNSCR =        1    unscreen: 0-lin 1-nonlin 2-no                           
   RPACOR =    1.500    partial core radius                                     
   POMASS =   32.066; ZVAL   =    6.000    mass and valenz                      
   RCORE  =    1.900    outmost cutoff radius                                   
   RWIGS  =    2.200; RWIGS  =    1.164    wigner-seitz radius (au A)           
   ENMAX  =  258.689; ENMIN  =  194.016 eV                                      
   ICORE  =        2    local potential                                         
   LCOR   =        T    correct aug charges                                     
   LPAW   =        T    paw PP                                                  
   EAUG   =  335.092                                                            
   DEXC   =    0.000                                                            
   RMAX   =    1.942    core radius for proj-oper                               
   RAUG   =    1.300    factor for augmentation sphere                          
   RDEP   =    1.954    radius for radial grids                                 
   RDEPT  =    1.744    core radius for aug-charge                              
                                                                                
   Atomic configuration                                                         
    6 entries                                                                   
     n  l   j            E        occ.                                          
     1  0  0.50     -2405.8406   2.0000                                         
     2  0  0.50      -211.7007   2.0000                                         
     2  1  1.50      -156.4958   6.0000                                         
     3  0  0.50       -17.2562   2.0000                                         
     3  1  0.50        -7.0085   4.0000                                         
     3  2  1.50        -6.8029   0.0000                                         
   Description                                                                  
     l       E           TYP  RCUT    TYP  RCUT                                 
     0    -17.2561641     23  1.900                                             
     0    -15.8743224     23  1.900                                             
     1     -7.0085400     23  1.900                                             
     1     -2.7779785     23  1.900                                             
     2     -6.8029130     23  1.900                                             
  local pseudopotential read in
  partial core-charges read in
  partial kinetic energy density read in
  atomic valenz-charges read in
  non local Contribution for L=           0  read in
    real space projection operators read in
  non local Contribution for L=           0  read in
    real space projection operators read in
  non local Contribution for L=           1  read in
    real space projection operators read in
  non local Contribution for L=           1  read in
    real space projection operators read in
    PAW grid and wavefunctions read in
 
   number of l-projection  operators is LMAX  =           4
   number of lm-projection operators is LMMAX =           8
 
 Optimization of the real space projectors (new method)

 maximal supplied QI-value         = 18.90
 optimisation between [QCUT,QGAM] = [ 10.77, 21.73] = [ 32.49,132.25] Ry 
 Optimized for a Real-space Cutoff    1.38 Angstroem

   l    n(q)    QCUT    max X(q) W(low)/X(q) W(high)/X(q)  e(spline) 
   1      8    10.771     2.836    0.40E-04    0.29E-04    0.12E-06
   1      8    10.771     4.023    0.10E-03    0.48E-04    0.29E-06
   2      8    10.771    73.368    0.42E-03    0.97E-04    0.44E-06
   2      8    10.771    69.010    0.42E-03    0.99E-04    0.45E-06
   0      9    10.771    54.797    0.10E-03    0.56E-04    0.74E-07
   0      9    10.771    24.266    0.89E-04    0.49E-04    0.67E-07
 Optimization of the real space projectors (new method)

 maximal supplied QI-value         = 19.84
 optimisation between [QCUT,QGAM] = [ 10.71, 21.63] = [ 32.15,130.99] Ry 
 Optimized for a Real-space Cutoff    1.19 Angstroem

   l    n(q)    QCUT    max X(q) W(low)/X(q) W(high)/X(q)  e(spline) 
   0      8    10.715   187.594    0.41E-03    0.53E-04    0.66E-07
   0      8    10.715   164.243    0.41E-03    0.53E-04    0.65E-07
   1      7    10.715    67.533    0.19E-03    0.59E-03    0.68E-07
   1      7    10.715    50.729    0.19E-03    0.58E-03    0.67E-07
  PAW_PBE Ni_pv 06Sep2000               :
 energy of atom  1       EATOM=-3501.1230
 kinetic energy error for atom=    0.0925 (will be added to EATOM!!)
  PAW_PBE S 06Sep2000                   :
 energy of atom  2       EATOM= -276.8230
 kinetic energy error for atom=    0.0033 (will be added to EATOM!!)
 
 
 POSCAR: Type_048 Type_148                       
  positions in cartesian coordinates
  No initial velocities read in
 exchange correlation table for  LEXCH =        8
   RHO(1)=    0.500       N(1)  =     2000
   RHO(2)=  100.500       N(2)  =     4000
 


--------------------------------------------------------------------------------------------------------


 ion  position               nearest neighbor table
   1  0.256  0.016  0.152-  76 2.25  66 2.26  81 2.26  53 2.36  93 2.36   5 2.43   9 2.53
   2  0.256  0.016  0.481-  77 2.25  67 2.26  82 2.26  54 2.36  94 2.36  36 2.38  10 2.53   6 2.53

   3  0.006  0.266  0.317-  63 2.25  69 2.26  73 2.26  56 2.36  60 2.36   7 2.53  23 2.53
   4  0.010  0.269  0.638-  57 2.17  74 2.19  70 2.23  61 2.25   8 2.33  24 2.42
   5  0.297  0.014  0.070-  91 2.06  49 2.12  93 2.12  62 2.23  81 2.36   1 2.43   9 2.51
   6  0.256  0.016  0.394-  80 2.25  63 2.26  82 2.26  50 2.36  94 2.36   2 2.53  10 2.53
   7  0.006  0.266  0.230-  66 2.25  73 2.26  64 2.26  60 2.36  51 2.36   3 2.53  23 2.53
   8  0.006  0.266  0.558-  67 2.25  74 2.26  65 2.26   4 2.33  61 2.36  52 2.36  24 2.53
   9  0.190  0.215  0.109-  62 2.10  49 2.11  58 2.25  66 2.26  53 2.36   5 2.51   1 2.53
  10  0.190  0.215  0.438-  59 2.25  67 2.26  63 2.26  54 2.36  50 2.36   2 2.53   6 2.53
  11  0.440  0.465  0.273-  83 2.25  51 2.26  56 2.26  64 2.36  69 2.36  19 2.53  15 2.53
  12  0.440  0.465  0.602-  70 2.15  57 2.16  84 2.25  52 2.26  40 2.31  65 2.36  16 2.42  20 2.53

  13  0.756  0.016  0.152-  87 2.25  53 2.26  93 2.26  66 2.36  81 2.36  17 2.53  21 2.53
  14  0.756  0.016  0.481-  88 2.25  54 2.26  94 2.26  67 2.36  82 2.36  48 2.38  22 2.53  18 2.53

  15  0.506  0.266  0.317-  50 2.25  56 2.26  60 2.26  69 2.36  73 2.36  19 2.53  11 2.53
  16  0.510  0.269  0.638-  70 2.17  61 2.19  57 2.23  74 2.25  20 2.33  12 2.42
  17  0.756  0.016  0.066-  91 2.03  62 2.10  49 2.21  93 2.26  81 2.36  21 2.53  13 2.53
  18  0.756  0.016  0.394-  92 2.25  50 2.26  94 2.26  63 2.36  82 2.36  14 2.53  22 2.53
  19  0.506  0.266  0.230-  53 2.25  60 2.26  51 2.26  73 2.36  64 2.36  15 2.53  11 2.53
  20  0.506  0.266  0.558-  54 2.25  61 2.26  52 2.26  16 2.33  74 2.36  65 2.36  12 2.53
  21  0.690  0.215  0.109-  49 2.05  62 2.17  71 2.25  53 2.26  66 2.36  17 2.53  13 2.53
  22  0.690  0.215  0.438-  72 2.25  54 2.26  50 2.26  67 2.36  63 2.36  14 2.53  18 2.53
  23  0.940  0.465  0.273-  95 2.25  64 2.26  69 2.26  51 2.36  56 2.36   7 2.53   3 2.53
  24  0.940  0.465  0.602-  57 2.15  70 2.16  96 2.25  65 2.26  28 2.31  52 2.36   4 2.42   8 2.53

  25  0.256  0.516  0.152-  51 2.25  89 2.26  58 2.26  78 2.36  71 2.36  29 2.41  33 2.49
  26  0.256  0.516  0.481-  52 2.25  90 2.26  59 2.26  79 2.36  72 2.36  34 2.53  30 2.53
  27  0.006  0.766  0.317-  86 2.25  92 2.26  95 2.26  80 2.36  83 2.36  31 2.53  47 2.53
  28  0.093  0.603  0.643-  84 2.00  96 2.18  57 2.21  24 2.31
  29  0.219  0.528  0.070-  55 2.05  85 2.12  58 2.13  68 2.17  25 2.41  71 2.51  33 2.52
  30  0.256  0.516  0.394-  56 2.25  86 2.26  59 2.26  75 2.36  72 2.36  26 2.53  34 2.53
  31  0.006  0.766  0.230-  89 2.25  95 2.26  87 2.26  83 2.36  76 2.36  27 2.53  47 2.53
  32  0.006  0.766  0.558-  90 2.25  96 2.26  88 2.26  84 2.36  77 2.36
  33  0.201  0.720  0.116-  85 2.14  78 2.18  68 2.18  89 2.18  81 2.22  25 2.49  29 2.52
  34  0.190  0.715  0.438-  82 2.25  90 2.26  86 2.26  79 2.36  75 2.36  26 2.53  30 2.53
  35  0.440  0.965  0.273-  60 2.25  76 2.26  80 2.26  87 2.36  92 2.36  43 2.53  39 2.53
  36  0.441  0.047  0.550-  88 2.06  61 2.08  54 2.17  77 2.21   2 2.38
  37  0.756  0.516  0.152-  64 2.25  78 2.26  71 2.26  89 2.36  58 2.36  41 2.38  45 2.48
  38  0.756  0.516  0.481-  65 2.25  79 2.26  72 2.26  90 2.36  59 2.36  46 2.53  42 2.53
  39  0.506  0.766  0.317-  75 2.25  80 2.26  83 2.26  92 2.36  95 2.36  43 2.53  35 2.53
  40  0.593  0.603  0.643-  96 2.00  84 2.18  70 2.21  12 2.31
  41  0.796  0.525  0.071-  55 2.03  85 2.14  58 2.15  68 2.21  37 2.38  71 2.41  45 2.53
  42  0.756  0.516  0.394-  69 2.25  75 2.26  72 2.26  86 2.36  59 2.36  38 2.53  46 2.53
  43  0.506  0.766  0.230-  78 2.25  83 2.26  76 2.26  95 2.36  87 2.36  39 2.53  35 2.53
  44  0.506  0.766  0.558-  79 2.25  84 2.26  77 2.26  96 2.36  88 2.36
  45  0.685  0.719  0.116-  78 2.12  85 2.12  68 2.18  93 2.21  89 2.26  37 2.48  41 2.53
  46  0.690  0.715  0.438-  94 2.25  79 2.26  75 2.26  90 2.36  86 2.36  38 2.53  42 2.53
  47  0.940  0.965  0.273-  73 2.25  87 2.26  92 2.26  76 2.36  80 2.36  31 2.53  27 2.53
  48  0.941  0.047  0.550-  77 2.06  74 2.08  67 2.17  88 2.21  14 2.38
  49  0.464  0.161  0.067-  21 2.05   9 2.11   5 2.12  17 2.21  91 2.55
  50  0.468  0.167  0.382-  15 2.25  18 2.26  22 2.26   6 2.36  10 2.36
  51  0.218  0.417  0.218-  25 2.25  11 2.26  19 2.26  23 2.36   7 2.36
  52  0.218  0.417  0.547-  26 2.25  12 2.26  20 2.26  24 2.36   8 2.36
  53  0.468  0.167  0.164-  19 2.25  13 2.26  21 2.26   1 2.36   9 2.36
  54  0.468  0.167  0.493-  36 2.17  20 2.25  22 2.26  14 2.26  10 2.36   2 2.36
  55  0.021  0.479  0.021-  41 2.03  29 2.05  85 2.64  58 2.67
  56  0.218  0.417  0.329-  30 2.25  15 2.26  11 2.26   3 2.36  23 2.36
  57  0.209  0.406  0.647-  24 2.15  12 2.16   4 2.17  28 2.21  16 2.23
  58  0.053  0.414  0.109-  29 2.13  41 2.15   9 2.25  25 2.26  37 2.36  55 2.67
  59  0.053  0.414  0.438-  10 2.25  26 2.26  30 2.26  38 2.36  42 2.36
  60  0.303  0.164  0.273-  35 2.25  19 2.26  15 2.26   7 2.36   3 2.36
  61  0.303  0.164  0.602-  36 2.08  16 2.19   4 2.25  20 2.26   8 2.36
  62  0.974  0.138  0.069-   9 2.10  17 2.10  21 2.17   5 2.23  81 2.73
  63  0.968  0.167  0.382-   3 2.25   6 2.26  10 2.26  18 2.36  22 2.36
  64  0.718  0.417  0.218-  37 2.25  23 2.26   7 2.26  11 2.36  19 2.36
  65  0.718  0.417  0.547-  38 2.25  24 2.26   8 2.26  12 2.36  20 2.36
  66  0.968  0.167  0.164-   7 2.25   1 2.26   9 2.26  13 2.36  21 2.36
  67  0.968  0.167  0.493-  48 2.17   8 2.25  10 2.26   2 2.26  22 2.36  14 2.36
  68  0.469  0.638  0.072-  29 2.17  45 2.18  33 2.18  41 2.21  71 2.69  78 2.70
  69  0.718  0.417  0.329-  42 2.25   3 2.26  23 2.26  15 2.36  11 2.36
  70  0.709  0.406  0.647-  12 2.15  24 2.16  16 2.17  40 2.21   4 2.23
  71  0.553  0.414  0.109-  21 2.25  37 2.26  25 2.36  41 2.41  29 2.51  68 2.69
  72  0.553  0.414  0.438-  22 2.25  38 2.26  42 2.26  26 2.36  30 2.36
  73  0.803  0.164  0.273-  47 2.25   7 2.26   3 2.26  19 2.36  15 2.36
  74  0.803  0.164  0.602-  48 2.08   4 2.19  16 2.25   8 2.26  20 2.36
  75  0.468  0.667  0.382-  39 2.25  42 2.26  46 2.26  30 2.36  34 2.36
  76  0.218  0.917  0.218-   1 2.25  35 2.26  43 2.26  47 2.36  31 2.36
  77  0.218  0.917  0.547-  48 2.06  36 2.21   2 2.25  44 2.26  32 2.36
  78  0.468  0.667  0.164-  45 2.12  33 2.18  43 2.25  37 2.26  25 2.36  68 2.70
  79  0.468  0.667  0.493-  44 2.25  46 2.26  38 2.26  34 2.36  26 2.36
  80  0.218  0.917  0.329-   6 2.25  39 2.26  35 2.26  27 2.36  47 2.36
  81  0.053  0.914  0.109-  33 2.22   1 2.26   5 2.36  17 2.36  13 2.36  62 2.73
  82  0.053  0.914  0.438-  34 2.25   2 2.26   6 2.26  14 2.36  18 2.36
  83  0.303  0.664  0.273-  11 2.25  43 2.26  39 2.26  31 2.36  27 2.36
  84  0.303  0.664  0.602-  28 2.00  40 2.18  12 2.25  44 2.26  32 2.36
  85  0.956  0.677  0.072-  45 2.12  29 2.12  41 2.14  33 2.14  55 2.64  89 2.71
  86  0.968  0.667  0.382-  27 2.25  30 2.26  34 2.26  42 2.36  46 2.36
  87  0.718  0.917  0.218-  13 2.25  47 2.26  31 2.26  35 2.36  43 2.36
  88  0.718  0.917  0.547-  36 2.06  48 2.21  14 2.25  32 2.26  44 2.36
  89  0.968  0.667  0.164-  33 2.18  31 2.25  25 2.26  45 2.26  37 2.36  85 2.71
  90  0.968  0.667  0.493-  32 2.25  34 2.26  26 2.26  46 2.36  38 2.36
  91  0.539  0.963  0.022-  17 2.03   5 2.06  49 2.55  93 2.58
  92  0.718  0.917  0.329-  18 2.25  27 2.26  47 2.26  39 2.36  35 2.36
  93  0.553  0.914  0.109-   5 2.12  45 2.21  17 2.26  13 2.26   1 2.36  91 2.58
  94  0.553  0.914  0.438-  46 2.25  14 2.26  18 2.26   2 2.36   6 2.36
  95  0.803  0.664  0.273-  23 2.25  31 2.26  27 2.26  43 2.36  39 2.36
  96  0.803  0.664  0.602-  40 2.00  28 2.18  24 2.25  32 2.26  44 2.36
 
  LATTYP: Found a simple monoclinic cell.
 ALAT       =    13.8711386352
 B/A-ratio  =     2.1019774055
 C/A-ratio  =     1.3233367991
 COS(beta)  =    -0.9620914447
  
  Lattice vectors:
  
 A1 = (  -8.3714133957, -11.0601955134,   0.0000000000)
 A2 = (   0.0000000000,   0.0000000000, -29.1568200000)
 A3 = (  14.6499733957,  11.0601955134,   0.0000000000)


Analysis of symmetry for initial positions (statically):
=====================================================================
 Subroutine PRICEL returns:
 Original cell was already a primitive cell.
 

 Routine SETGRP: Setting up the symmetry group for a 
 simple monoclinic supercell.


 Subroutine GETGRP returns: Found  1 space group operations
 (whereof  1 operations were pure point group operations)
 out of a pool of  4 trial point group operations.


The static configuration has the point symmetry C_1 .


Analysis of symmetry for dynamics (positions and initial velocities):
=====================================================================
 Subroutine PRICEL returns:
 Original cell was already a primitive cell.
 

 Routine SETGRP: Setting up the symmetry group for a 
 simple monoclinic supercell.


 Subroutine GETGRP returns: Found  1 space group operations
 (whereof  1 operations were pure point group operations)
 out of a pool of  4 trial point group operations.


The dynamic configuration has the point symmetry C_1 .


 Subroutine INISYM returns: Found  1 space group operations
 (whereof  1 operations are pure point group operations),
 and found     1 'primitive' translations

 
 
 KPOINTS: gamma-point-only calculation. no periodi

Automatic generation of k-mesh.
Space group operators:
 irot       det(A)        alpha          n_x          n_y          n_z        tau_x        tau_y        tau_z
    1     1.000000     0.000000     1.000000     0.000000     0.000000     0.000000     0.000000     0.000000
 
 Subroutine IBZKPT returns following result:
 ===========================================
 
 Found      1 irreducible k-points:
 
 Following reciprocal coordinates:
            Coordinates               Weight
  0.000000  0.000000  0.000000      1.000000
 
 Following cartesian coordinates:
            Coordinates               Weight
  0.000000  0.000000  0.000000      1.000000
 


--------------------------------------------------------------------------------------------------------




 Dimension of arrays:
   k-points           NKPTS =      1   k-points in BZ     NKDIM =      1   number of bands    NBANDS=    634
   number of dos      NEDOS =    301   number of ions     NIONS =     96
   non local maximal  LDIM  =      6   non local SUM 2l+1 LMDIM =     18
   total plane-waves  NPLWV = 345600
   max r-space proj   IRMAX =   1932   max aug-charges    IRDMAX=   5576
   dimension x,y,z NGX =    36 NGY =   60 NGZ =  160
   dimension x,y,z NGXF=    72 NGYF=  120 NGZF=  320
   support grid    NGXF=    72 NGYF=  120 NGZF=  320
   ions per type =              48  48
   NGX,Y,Z   is equivalent  to a cutoff of   9.53,  8.86,  9.12 a.u.
   NGXF,Y,Z  is equivalent  to a cutoff of  19.06, 17.72, 18.25 a.u.

 SYSTEM =  "Millerite NiS"                         
 POSCAR =  Type_048 Type_148                       

 Startparameter for this run:
   NWRITE =      2    write-flag & timer
   PREC   = normal    normal or accurate (medium, high low for compatibility)
   ISTART =      0    job   : 0-new  1-cont  2-samecut
   ICHARG =      2    charge: 1-file 2-atom 10-const
   ISPIN  =      1    spin polarized calculation?
   LNONCOLLINEAR =      F non collinear calculations
   LSORBIT =      F    spin-orbit coupling
   INIWAV =      1    electr: 0-lowe 1-rand  2-diag
   LASPH  =      F    aspherical Exc in radial PAW
   METAGGA=      F    non-selfconsistent MetaGGA calc.

 Electronic Relaxation 1
   ENCUT  =  450.0 eV  33.07 Ry    5.75 a.u.  10.86 19.47 50.43*2*pi/ulx,y,z
   ENINI  =  450.0     initial cutoff
   ENAUG  =  703.4 eV  augmentation charge cutoff
   NELM   =    100;   NELMIN=  2; NELMDL= -5     # of ELM steps 
   EDIFF  = 0.1E-03   stopping-criterion for ELM
   LREAL  =      T    real-space projection
   NLSPLINE    = F    spline interpolate recip. space projectors
   LCOMPAT=      F    compatible to vasp.4.4
   GGA_COMPAT  = T    GGA compatible to vasp.4.4-vasp.4.6
   LMAXPAW     = -100 max onsite density
   LMAXMIX     =    2 max onsite mixed and CHGCAR
   VOSKOWN=      0    Vosko Wilk Nusair interpolation
   ROPT   =   -0.00050  -0.00050
 Ionic relaxation
   EDIFFG = 0.1E-02   stopping-criterion for IOM
   NSW    =      0    number of steps for IOM
   NBLOCK =      1;   KBLOCK =      1    inner block; outer block 
   IBRION =     -1    ionic relax: 0-MD 1-quasi-New 2-CG
   NFREE  =      0    steps in history (QN), initial steepest desc. (CG)
   ISIF   =      2    stress and relaxation
   IWAVPR =     10    prediction:  0-non 1-charg 2-wave 3-comb
   ISYM   =      2    0-nonsym 1-usesym 2-fastsym
   LCORR  =      T    Harris-Foulkes like correction to forces

   POTIM  = 0.5000    time-step for ionic-motion
   TEIN   =    0.0    initial temperature
   TEBEG  =    0.0;   TEEND  =   0.0 temperature during run
   SMASS  =  -3.00    Nose mass-parameter (am)
   estimated Nose-frequenzy (Omega)   =  0.10E-29 period in steps =****** mass=  -0.901E-27a.u.
   SCALEE = 1.0000    scale energy and forces
   NPACO  =    256;   APACO  = 16.0  distance and # of slots for P.C.
   PSTRESS=    0.0 pullay stress

  Mass of Ions in am
   POMASS =  58.69 32.07
  Ionic Valenz
   ZVAL   =  16.00  6.00
  Atomic Wigner-Seitz radii
   RWIGS  =  -1.00 -1.00
  virtual crystal weights 
   VCA    =   1.00  1.00
   NELECT =    1056.0000    total number of electrons
   NUPDOWN=      -1.0000    fix difference up-down

 DOS related values:
   EMIN   =  10.00;   EMAX   =-10.00  energy-range for DOS
   EFERMI =   0.00
   ISMEAR =     0;   SIGMA  =   0.20  broadening in eV -4-tet -1-fermi 0-gaus

 Electronic relaxation 2 (details)
   IALGO  =     38    algorithm
   LDIAG  =      T    sub-space diagonalisation (order eigenvalues)
   LSUBROT=      F    optimize rotation matrix (better conditioning)
   TURBO    =      0    0=normal 1=particle mesh
   IRESTART =      0    0=no restart 2=restart with 2 vectors
   NREBOOT  =      0    no. of reboots
   NMIN     =      0    reboot dimension
   EREF     =   0.00    reference energy to select bands
   IMIX   =      4    mixing-type and parameters
     AMIX     =   0.40;   BMIX     =  1.00
     AMIX_MAG =   1.60;   BMIX_MAG =  1.00
     AMIN     =   0.10
     WC   =   100.;   INIMIX=   1;  MIXPRE=   1;  MAXMIX= -45

 Intra band minimization:
   WEIMIN = 0.0000     energy-eigenvalue tresh-hold
   EBREAK =  0.39E-07  absolut break condition
   DEPER  =   0.30     relativ break condition  

   TIME   =   0.40     timestep for ELM

  volume/ion in A,a.u.               =      21.09       142.33
  Fermi-wavevector in a.u.,A,eV,Ry     =   1.317777  2.490237 23.626996  1.736535
  Thomas-Fermi vector in A             =   2.447794
 
 Write flags
   LWAVE        =      F    write WAVECAR
   LDOWNSAMPLE  =      F    k-point downsampling of WAVECAR
   LCHARG       =      F    write CHGCAR
   LVTOT        =      F    write LOCPOT, total local potential
   LVHAR        =      F    write LOCPOT, Hartree potential only
   LELF         =      F    write electronic localiz. function (ELF)
   LORBIT       =      0    0 simple, 1 ext, 2 COOP (PROOUT), +10 PAW based schemes


 Dipole corrections
   LMONO  =      F    monopole corrections only (constant potential shift)
   LDIPOL =      F    correct potential (dipole corrections)
   IDIPOL =      0    1-x, 2-y, 3-z, 4-all directions 
   EPSILON=  1.0000000 bulk dielectric constant

 Exchange correlation treatment:
   GGA     =    --    GGA type
   LEXCH   =     8    internal setting for exchange type
   VOSKOWN=      0    Vosko Wilk Nusair interpolation
   LHFCALC =     F    Hartree Fock is set to
   LHFONE  =     F    Hartree Fock one center treatment
   AEXX    =    0.0000 exact exchange contribution

 Linear response parameters
   LEPSILON=     F    determine dielectric tensor
   LRPA    =     F    only Hartree local field effects (RPA)
   LNABLA  =     F    use nabla operator in PAW spheres
   LVEL    =     F    velocity operator in full k-point grid
   LINTERFAST=   F  fast interpolation
   KINTER  =     0    interpolate to denser k-point grid
   CSHIFT  =0.1000    complex shift for real part using Kramers Kronig
   OMEGAMAX=  -1.0    maximum frequency
   DEG_THRESHOLD= 0.2000000E-02 threshold for treating states as degnerate
   RTIME   =   -0.100 relaxation time in fs
  (WPLASMAI=    0.000 imaginary part of plasma frequency in eV, 0.658/RTIME)
   DFIELD  = 0.0000000 0.0000000 0.0000000 field for delta impulse in time
 
 Orbital magnetization related:
   ORBITALMAG=     F  switch on orbital magnetization
   LCHIMAG   =     F  perturbation theory with respect to B field
   DQ        =  0.001000  dq finite difference perturbation B field
   LLRAUG    =     F  two centre corrections for induced B field



--------------------------------------------------------------------------------------------------------


 Static calculation
 charge density and potential will be updated during run
 non-spin polarized calculation
 Variant of blocked Davidson
 Davidson routine will perform the subspace rotation
 perform sub-space diagonalisation
    after iterative eigenvector-optimisation
 modified Broyden-mixing scheme, WC =      100.0
 initial mixing is a Kerker type mixing with AMIX =  0.4000 and BMIX =      1.0000
 Hartree-type preconditioning will be used
 using additional bands          106
 real space projection scheme for non local part
 use partial core corrections
 calculate Harris-corrections to forces 
   (improved forces if not selfconsistent)
 use gradient corrections 
 use of overlap-Matrix (Vanderbilt PP)
 Gauss-broadening in eV      SIGMA  =   0.20


--------------------------------------------------------------------------------------------------------


  energy-cutoff  :      450.00
  volume of cell :     2024.71
      direct lattice vectors                 reciprocal lattice vectors
     6.278560000  0.000000000  0.000000000     0.159272190 -0.030138106  0.000000000
     2.092853396 11.060195513  0.000000000     0.000000000  0.090414315  0.000000000
     0.000000000  0.000000000 29.156820000     0.000000000  0.000000000  0.034297293

  length of vectors
     6.278560000 11.256463038 29.156820000     0.162098538  0.090414315  0.034297293


 
 k-points in units of 2pi/SCALE and weight: gamma-point-only calculation. no periodi
   0.00000000  0.00000000  0.00000000       1.000
 
 k-points in reciprocal lattice and weights: gamma-point-only calculation. no periodi
   0.00000000  0.00000000  0.00000000       1.000
 
 position of ions in fractional coordinates (direct lattice) 
   0.25630944  0.01645859  0.15239349
   0.25630944  0.01645859  0.48090702
   0.00630944  0.26645858  0.31665025
   0.01049590  0.26854366  0.63844039
   0.29655095  0.01440631  0.06964256
   0.25630944  0.01645859  0.39411177
   0.00630944  0.26645858  0.22985501
   0.00630944  0.26645858  0.55836854
   0.19025794  0.21461308  0.10899586
   0.19025794  0.21461308  0.43750940
   0.44025794  0.46461308  0.27325263
   0.44025794  0.46461308  0.60176617
   0.75630944  0.01645859  0.15239349
   0.75630944  0.01645859  0.48090702
   0.50630944  0.26645858  0.31665025
   0.51049590  0.26854366  0.63844039
   0.75630944  0.01645859  0.06559824
   0.75630944  0.01645859  0.39411177
   0.50630944  0.26645858  0.22985501
   0.50630944  0.26645858  0.55836854
   0.69025794  0.21461308  0.10899586
   0.69025794  0.21461308  0.43750940
   0.94025794  0.46461308  0.27325263
   0.94025794  0.46461308  0.60176617
   0.25630944  0.51645859  0.15239349
   0.25630944  0.51645859  0.48090702
   0.00630944  0.76645858  0.31665025
   0.09251169  0.60304625  0.64280718
   0.21922344  0.52844682  0.07034195
   0.25630944  0.51645859  0.39411177
   0.00630944  0.76645858  0.22985501
   0.00630944  0.76645858  0.55836854
   0.20123166  0.72004080  0.11637881
   0.19025794  0.71461308  0.43750940
   0.44025794  0.96461308  0.27325263
   0.44089553  0.04706557  0.55003733
   0.75630944  0.51645859  0.15239349
   0.75630944  0.51645859  0.48090702
   0.50630944  0.76645858  0.31665025
   0.59251169  0.60304625  0.64280718
   0.79607556  0.52462928  0.07123496
   0.75630944  0.51645859  0.39411177
   0.50630944  0.76645858  0.22985501
   0.50630944  0.76645858  0.55836854
   0.68493543  0.71923577  0.11596667
   0.69025794  0.71461308  0.43750940
   0.94025794  0.96461308  0.27325263
   0.94089553  0.04706557  0.55003733
   0.46409747  0.16095645  0.06681744
   0.46840410  0.16661759  0.38224849
   0.21840410  0.41661758  0.21799173
   0.21840410  0.41661758  0.54650526
   0.46840410  0.16661759  0.16425677
   0.46840410  0.16661759  0.49277030
   0.02058223  0.47877543  0.02085743
   0.21840410  0.41661758  0.32851354
   0.20863677  0.40571235  0.64723107
   0.05251161  0.41429508  0.10899586
   0.05251161  0.41429508  0.43750940
   0.30251160  0.16429509  0.27325263
   0.30251160  0.16429509  0.60176617
   0.97416312  0.13751531  0.06888800
   0.96840410  0.16661759  0.38224849
   0.71840410  0.41661758  0.21799173
   0.71840410  0.41661758  0.54650526
   0.96840410  0.16661759  0.16425677
   0.96840410  0.16661759  0.49277030
   0.46923528  0.63786093  0.07232042
   0.71840410  0.41661758  0.32851354
   0.70863677  0.40571235  0.64723107
   0.55251161  0.41429508  0.10899586
   0.55251161  0.41429508  0.43750940
   0.80251160  0.16429509  0.27325263
   0.80251160  0.16429509  0.60176617
   0.46840411  0.66661759  0.38224849
   0.21840411  0.91661758  0.21799173
   0.21840411  0.91661758  0.54650526
   0.46840411  0.66661759  0.16425677
   0.46840411  0.66661759  0.49277030
   0.21840411  0.91661758  0.32851354
   0.05251161  0.91429508  0.10899586
   0.05251161  0.91429508  0.43750940
   0.30251161  0.66429509  0.27325263
   0.30251161  0.66429509  0.60176617
   0.95574392  0.67704300  0.07154678
   0.96840411  0.66661759  0.38224849
   0.71840411  0.91661758  0.21799173
   0.71840411  0.91661758  0.54650526
   0.96840411  0.66661759  0.16425677
   0.96840411  0.66661759  0.49277030
   0.53879136  0.96278287  0.02232212
   0.71840411  0.91661758  0.32851354
   0.55251161  0.91429508  0.10899586
   0.55251161  0.91429508  0.43750940
   0.80251161  0.66429509  0.27325263
   0.80251161  0.66429509  0.60176617
 
 position of ions in cartesian coordinates  (Angst):
   1.64369960  0.18203523  4.44330947
   1.64369960  0.18203523 14.02171945
   0.59727294  2.94708402  9.23251446
   0.62792164  2.97014539 18.61489152
   1.89206323  0.15933665  2.03055566
   1.64369960  0.18203523 11.49104605
   0.59727294  2.94708402  6.70184107
   0.59727294  2.94708402 16.28025107
   1.64369960  2.37366268  3.17797276
   1.64369960  2.37366268 12.75638277
   3.73655294  5.13871148  7.96717775
   3.73655294  5.13871148 17.54558776
   4.78297960  0.18203523  4.44330947
   4.78297960  0.18203523 14.02171945
   3.73655294  2.94708402  9.23251446
   3.76720164  2.97014539 18.61489152
   4.78297960  0.18203523  1.91263608
   4.78297960  0.18203523 11.49104605
   3.73655294  2.94708402  6.70184107
   3.73655294  2.94708402 16.28025107
   4.78297960  2.37366268  3.17797276
   4.78297960  2.37366268 12.75638277
   6.87583294  5.13871148  7.96717775
   6.87583294  5.13871148 17.54558776
   2.69012630  5.71213299  4.44330947
   2.69012630  5.71213299 14.02171945
   1.64369963  8.47718178  9.23251446
   1.84292759  6.66980948 18.74221320
   2.48236922  5.84472513  2.05094746
   2.69012630  5.71213299 11.49104605
   1.64369963  8.47718178  6.70184107
   1.64369963  8.47718178 16.28025107
   2.77038485  7.96379200  3.39323609
   2.69012630  7.90376044 12.75638277
   4.78297964 10.66880924  7.96717775
   2.86669039  0.52055436 16.03733935
   5.82940630  5.71213299  4.44330947
   5.82940630  5.71213299 14.02171945
   4.78297963  8.47718178  9.23251446
   4.98220759  6.66980948 18.74221320
   6.09618035  5.80250240  2.07698496
   5.82940630  5.71213299 11.49104605
   4.78297963  8.47718178  6.70184107
   4.78297963  8.47718178 16.28025107
   5.80566320  7.95488823  3.38121939
   5.82940630  7.90376044 12.75638277
   7.92225964 10.66880924  7.96717775
   6.00597039  0.52055436 16.03733935
   3.25072204  1.78020976  1.94818397
   3.28960946  1.84282308 11.14515053
   2.24318279  4.60787188  6.35594552
   2.24318279  4.60787188 15.93435552
   3.28960946  1.84282308  4.78920499
   3.28960946  1.84282308 14.36761500
   1.13123354  5.29534989  0.60813634
   2.24318279  4.60787188  9.57841001
   2.15903492  4.48725789 18.87119993
   1.19675613  4.58218457  3.17797276
   1.19675613  4.58218457 12.75638277
   2.24318279  1.81713577  7.96717775
   2.24318279  1.81713577 17.54558776
   6.40414099  1.52094626  2.00855488
   6.42888946  1.84282308 11.14515053
   5.38246279  4.60787188  6.35594552
   5.38246279  4.60787188 15.93435552
   6.42888946  1.84282308  4.78920499
   6.42888946  1.84282308 14.36761500
   4.28107128  7.05486661  2.10863337
   5.38246279  4.60787188  9.57841001
   5.29831492  4.48725789 18.87119993
   4.33603613  4.58218457  3.17797276
   4.33603613  4.58218457 12.75638277
   5.38246279  1.81713577  7.96717775
   5.38246279  1.81713577 17.54558776
   4.33603616  7.37292083 11.14515053
   3.28960949 10.13796963  6.35594552
   3.28960949 10.13796963 15.93435552
   4.33603616  7.37292083  4.78920499
   4.33603616  7.37292083 14.36761500
   3.28960949 10.13796963  9.57841001
   2.24318282 10.11228233  3.17797276
   2.24318282 10.11228233 12.75638277
   3.28960949  7.34723353  7.96717775
   3.28960949  7.34723353 17.54558776
   7.41764729  7.48822798  2.08607648
   7.47531616  7.37292083 11.14515053
   6.42888949 10.13796963  6.35594552
   6.42888949 10.13796963 15.93435552
   7.47531616  7.37292083  4.78920499
   7.47531616  7.37292083 14.36761500
   5.39779732 10.64856682  0.65084197
   6.42888949 10.13796963  9.57841001
   5.38246282 10.11228233  3.17797276
   5.38246282 10.11228233 12.75638277
   6.42888949  7.34723353  7.96717775
   6.42888949  7.34723353 17.54558776
 


--------------------------------------------------------------------------------------------------------


 use parallel FFT for orbitals z direction half grid
 k-point  1 :   0.0000 0.0000 0.0000  plane waves:   21935

 maximum and minimum number of plane-waves per node :      3657     3654

 maximum number of plane-waves:     21935
 maximum index in each direction: 
   IXMAX=   10   IYMAX=   19   IZMAX=   50
   IXMIN=  -10   IYMIN=  -19   IZMIN=    0


 real space projection operators:
  total allocation   :      15869.78 KBytes
  max/ min on nodes  :       2669.53       2632.06


 parallel 3D FFT for wavefunctions:
    minimum data exchange during FFTs selected (reduces bandwidth)
 parallel 3D FFT for charge:
    minimum data exchange during FFTs selected (reduces bandwidth)


 total amount of memory used by VASP MPI-rank0    76705. kBytes
=======================================================================

   base      :      30000. kBytes
   nonlr-proj:       3245. kBytes
   fftplans  :       8997. kBytes
   grid      :      15269. kBytes
   one-center:        124. kBytes
   wavefun   :      19070. kBytes
 
     INWAV:  cpu time    0.0000: real time    0.0000
 Broyden mixing: mesh for mixing (old mesh)
   NGX = 21   NGY = 39   NGZ =101
  (NGX  = 72   NGY  =120   NGZ  =320)
  gives a total of  82719 points

 initial charge density was supplied:
 charge density of overlapping atoms calculated
 number of electron    1056.0000000 magnetization 
 keeping initial charge density in first step


--------------------------------------------------------------------------------------------------------


 Maximum index for non-local projection operator          325
 Maximum index for augmentation-charges          474 (set IRDMAX)


--------------------------------------------------------------------------------------------------------


 First call to EWALD:  gamma=   0.140
 Maximum number of real-space cells 5x 3x 1
 Maximum number of reciprocal cells 2x 2x 6

    FEWALD:  cpu time    0.0077: real time    0.0077


--------------------------------------- Iteration      1(   1)  ---------------------------------------


    POTLOK:  cpu time    0.2870: real time    0.2871
    SETDIJ:  cpu time    0.0230: real time    0.0230
     EDDAV:  cpu time   10.6937: real time   10.6977
       DOS:  cpu time    0.0018: real time    0.0018
    --------------------------------------------
      LOOP:  cpu time   11.0055: real time   11.0096

 eigenvalue-minimisations  :  1492
 total energy-change (2. order) : 0.1473864E+05  (-0.6819428E+05)
 number of electron    1056.0000000 magnetization 
 augmentation part     1056.0000000 magnetization 

 Free energy of the ion-electron system (eV)
  ---------------------------------------------------
  alpha Z        PSCENC =      3266.22189490
  Ewald energy   TEWEN  =    360627.28786095
  -Hartree energ DENC   =   -526561.27411379
  -exchange      EXHF   =         0.00000000
  -V(xc)+E(xc)   XCENC  =      4901.30955090
  PAW double counting   =    150306.04444553  -156855.34918313
  entropy T*S    EENTRO =        -0.41068997
  eigenvalues    EBANDS =     -2282.00004397
  atomic energy  EATOM  =    181336.80673834
  Solvation  Ediel_sol  =         0.00000000
  ---------------------------------------------------
  free energy    TOTEN  =     14738.63645977 eV

  energy without entropy =    14739.04714974  energy(sigma->0) =    14738.84180476


--------------------------------------------------------------------------------------------------------




--------------------------------------- Iteration      1(   2)  ---------------------------------------


     EDDAV:  cpu time    9.5574: real time    9.5589
       DOS:  cpu time    0.0014: real time    0.0013
    --------------------------------------------
      LOOP:  cpu time    9.5587: real time    9.5602

 eigenvalue-minimisations  :  1284
 total energy-change (2. order) :-0.1353562E+05  (-0.1308822E+05)
 number of electron    1056.0000000 magnetization 
 augmentation part     1056.0000000 magnetization 

 Free energy of the ion-electron system (eV)
  ---------------------------------------------------
  alpha Z        PSCENC =      3266.22189490
  Ewald energy   TEWEN  =    360627.28786095
  -Hartree energ DENC   =   -526561.27411379
  -exchange      EXHF   =         0.00000000
  -V(xc)+E(xc)   XCENC  =      4901.30955090
  PAW double counting   =    150306.04444553  -156855.34918313
  entropy T*S    EENTRO =        -0.67678380
  eigenvalues    EBANDS =    -15817.35030760
  atomic energy  EATOM  =    181336.80673834
  Solvation  Ediel_sol  =         0.00000000
  ---------------------------------------------------
  free energy    TOTEN  =      1203.02010232 eV

  energy without entropy =     1203.69688612  energy(sigma->0) =     1203.35849422


--------------------------------------------------------------------------------------------------------




--------------------------------------- Iteration      1(   3)  ---------------------------------------


     EDDAV:  cpu time   10.2842: real time   10.2882
       DOS:  cpu time    0.0014: real time    0.0014
    --------------------------------------------
      LOOP:  cpu time   10.2857: real time   10.2896

 eigenvalue-minimisations  :  1430
 total energy-change (2. order) :-0.1605083E+04  (-0.1487759E+04)
 number of electron    1056.0000000 magnetization 
 augmentation part     1056.0000000 magnetization 

 Free energy of the ion-electron system (eV)
  ---------------------------------------------------
  alpha Z        PSCENC =      3266.22189490
  Ewald energy   TEWEN  =    360627.28786095
  -Hartree energ DENC   =   -526561.27411379
  -exchange      EXHF   =         0.00000000
  -V(xc)+E(xc)   XCENC  =      4901.30955090
  PAW double counting   =    150306.04444553  -156855.34918313
  entropy T*S    EENTRO =        -0.84777537
  eigenvalues    EBANDS =    -17422.26212986
  atomic energy  EATOM  =    181336.80673834
  Solvation  Ediel_sol  =         0.00000000
  ---------------------------------------------------
  free energy    TOTEN  =      -402.06271151 eV

  energy without entropy =     -401.21493614  energy(sigma->0) =     -401.63882382


--------------------------------------------------------------------------------------------------------




--------------------------------------- Iteration      1(   4)  ---------------------------------------


     EDDAV:  cpu time   10.4405: real time   10.4429
       DOS:  cpu time    0.0013: real time    0.0013
    --------------------------------------------
      LOOP:  cpu time   10.4418: real time   10.4442

 eigenvalue-minimisations  :  1472
 total energy-change (2. order) :-0.1334631E+03  (-0.1304530E+03)
 number of electron    1056.0000000 magnetization 
 augmentation part     1056.0000000 magnetization 

 Free energy of the ion-electron system (eV)
  ---------------------------------------------------
  alpha Z        PSCENC =      3266.22189490
  Ewald energy   TEWEN  =    360627.28786095
  -Hartree energ DENC   =   -526561.27411379
  -exchange      EXHF   =         0.00000000
  -V(xc)+E(xc)   XCENC  =      4901.30955090
  PAW double counting   =    150306.04444553  -156855.34918313
  entropy T*S    EENTRO =        -0.89574195
  eigenvalues    EBANDS =    -17555.67724089
  atomic energy  EATOM  =    181336.80673834
  Solvation  Ediel_sol  =         0.00000000
  ---------------------------------------------------
  free energy    TOTEN  =      -535.52578912 eV

  energy without entropy =     -534.63004717  energy(sigma->0) =     -535.07791815


--------------------------------------------------------------------------------------------------------




--------------------------------------- Iteration      1(   5)  ---------------------------------------


     EDDAV:  cpu time   10.8868: real time   10.8952
       DOS:  cpu time    0.0015: real time    0.0015
    CHARGE:  cpu time    0.2993: real time    0.2993
    MIXING:  cpu time    0.0094: real time    0.0095
    --------------------------------------------
      LOOP:  cpu time   11.1971: real time   11.2056

 eigenvalue-minimisations  :  1568
 total energy-change (2. order) :-0.5080458E+01  (-0.5065185E+01)
 number of electron    1056.0000789 magnetization 
 augmentation part      383.2135741 magnetization 

 Broyden mixing:
  rms(total) = 0.10237E+02    rms(broyden)= 0.10218E+02
  rms(prec ) = 0.10475E+02
  weight for this iteration     100.00

 Free energy of the ion-electron system (eV)
  ---------------------------------------------------
  alpha Z        PSCENC =      3266.22189490
  Ewald energy   TEWEN  =    360627.28786095
  -Hartree energ DENC   =   -526561.27411379
  -exchange      EXHF   =         0.00000000
  -V(xc)+E(xc)   XCENC  =      4901.30955090
  PAW double counting   =    150306.04444553  -156855.34918313
  entropy T*S    EENTRO =        -0.90084117
  eigenvalues    EBANDS =    -17560.75260015
  atomic energy  EATOM  =    181336.80673834
  Solvation  Ediel_sol  =         0.00000000
  ---------------------------------------------------
  free energy    TOTEN  =      -540.60624761 eV

  energy without entropy =     -539.70540644  energy(sigma->0) =     -540.15582702


--------------------------------------------------------------------------------------------------------




--------------------------------------- Iteration      1(   6)  ---------------------------------------


    POTLOK:  cpu time    0.2801: real time    0.2801
    SETDIJ:  cpu time    0.0233: real time    0.0233
     EDDAV:  cpu time   11.4734: real time   11.4821
       DOS:  cpu time    0.0016: real time    0.0016
    CHARGE:  cpu time    0.2801: real time    0.2801
    MIXING:  cpu time    0.0088: real time    0.0088
    --------------------------------------------
      LOOP:  cpu time   12.0673: real time   12.0760

 eigenvalue-minimisations  :  1656
 total energy-change (2. order) :-0.2105941E+03  (-0.1209346E+03)
 number of electron    1056.0000951 magnetization 
 augmentation part      446.1151711 magnetization 

 Broyden mixing:
  rms(total) = 0.22966E+02    rms(broyden)= 0.22960E+02
  rms(prec ) = 0.25334E+02
  weight for this iteration     100.00

 eigenvalues of (default mixing * dielectric matrix)
  average eigenvalue GAMMA=   0.1572
  0.1572

 Free energy of the ion-electron system (eV)
  ---------------------------------------------------
  alpha Z        PSCENC =      3266.22189490
  Ewald energy   TEWEN  =    360627.28786095
  -Hartree energ DENC   =   -522410.88461419
  -exchange      EXHF   =         0.00000000
  -V(xc)+E(xc)   XCENC  =      4802.50451841
  PAW double counting   =    154986.68537212  -161228.23293840
  entropy T*S    EENTRO =        -0.76501249
  eigenvalues    EBANDS =    -22130.82412792
  atomic energy  EATOM  =    181336.80673834
  Solvation  Ediel_sol  =         0.00000000
  ---------------------------------------------------
  free energy    TOTEN  =      -751.20030828 eV

  energy without entropy =     -750.43529579  energy(sigma->0) =     -750.81780203


--------------------------------------------------------------------------------------------------------




--------------------------------------- Iteration      1(   7)  ---------------------------------------


    POTLOK:  cpu time    0.2754: real time    0.2754
    SETDIJ:  cpu time    0.0229: real time    0.0229
     EDDAV:  cpu time   11.1156: real time   11.1224
       DOS:  cpu time    0.0014: real time    0.0014
    CHARGE:  cpu time    0.2751: real time    0.2751
    MIXING:  cpu time    0.0094: real time    0.0094
    --------------------------------------------
      LOOP:  cpu time   11.6997: real time   11.7065

 eigenvalue-minimisations  :  1568
 total energy-change (2. order) : 0.1320469E+03  (-0.2924785E+02)
 number of electron    1056.0000841 magnetization 
 augmentation part      457.3332310 magnetization 

 Broyden mixing:
  rms(total) = 0.13727E+02    rms(broyden)= 0.13725E+02
  rms(prec ) = 0.15492E+02
  weight for this iteration     100.00

 eigenvalues of (default mixing * dielectric matrix)
  average eigenvalue GAMMA=   0.2204
  0.2204  0.2204

 Free energy of the ion-electron system (eV)
  ---------------------------------------------------
  alpha Z        PSCENC =      3266.22189490
  Ewald energy   TEWEN  =    360627.28786095
  -Hartree energ DENC   =   -523874.32085012
  -exchange      EXHF   =         0.00000000
  -V(xc)+E(xc)   XCENC  =      4816.78947007
  PAW double counting   =    157956.12745988  -164282.92882864
  entropy T*S    EENTRO =        -0.86673786
  eigenvalues    EBANDS =    -20464.27036942
  atomic energy  EATOM  =    181336.80673834
  Solvation  Ediel_sol  =         0.00000000
  ---------------------------------------------------
  free energy    TOTEN  =      -619.15336190 eV

  energy without entropy =     -618.28662404  energy(sigma->0) =     -618.71999297


--------------------------------------------------------------------------------------------------------




--------------------------------------- Iteration      1(   8)  ---------------------------------------


    POTLOK:  cpu time    0.2766: real time    0.2772
    SETDIJ:  cpu time    0.0230: real time    0.0230
     EDDAV:  cpu time   12.2176: real time   12.2193
       DOS:  cpu time    0.0014: real time    0.0014
    CHARGE:  cpu time    0.2833: real time    0.2835
    MIXING:  cpu time    0.0094: real time    0.0094
    --------------------------------------------
      LOOP:  cpu time   12.8113: real time   12.8139

 eigenvalue-minimisations  :  1784
 total energy-change (2. order) :-0.1084147E+03  (-0.1806680E+02)
 number of electron    1056.0000762 magnetization 
 augmentation part      417.6449580 magnetization 

 Broyden mixing:
  rms(total) = 0.18916E+02    rms(broyden)= 0.18913E+02
  rms(prec ) = 0.25028E+02
  weight for this iteration     100.00

 eigenvalues of (default mixing * dielectric matrix)
  average eigenvalue GAMMA=   0.1976
  0.2634  0.2634  0.0661

 Free energy of the ion-electron system (eV)
  ---------------------------------------------------
  alpha Z        PSCENC =      3266.22189490
  Ewald energy   TEWEN  =    360627.28786095
  -Hartree energ DENC   =   -524619.28763510
  -exchange      EXHF   =         0.00000000
  -V(xc)+E(xc)   XCENC  =      4844.09700402
  PAW double counting   =    162398.07004216  -168863.01735984
  entropy T*S    EENTRO =        -1.30300116
  eigenvalues    EBANDS =    -19716.44361156
  atomic energy  EATOM  =    181336.80673834
  Solvation  Ediel_sol  =         0.00000000
  ---------------------------------------------------
  free energy    TOTEN  =      -727.56806728 eV

  energy without entropy =     -726.26506612  energy(sigma->0) =     -726.91656670


--------------------------------------------------------------------------------------------------------




--------------------------------------- Iteration      1(   9)  ---------------------------------------


    POTLOK:  cpu time    0.2761: real time    0.2761
    SETDIJ:  cpu time    0.0230: real time    0.0230
     EDDAV:  cpu time   12.2859: real time   12.2878
       DOS:  cpu time    0.0014: real time    0.0014
    CHARGE:  cpu time    0.2789: real time    0.2789
    MIXING:  cpu time    0.0095: real time    0.0095
    --------------------------------------------
      LOOP:  cpu time   12.8749: real time   12.8768

 eigenvalue-minimisations  :  1752
 total energy-change (2. order) : 0.1894530E+03  (-0.2086986E+02)
 number of electron    1056.0000838 magnetization 
 augmentation part      426.4266567 magnetization 

 Broyden mixing:
  rms(total) = 0.12374E+02    rms(broyden)= 0.12371E+02
  rms(prec ) = 0.14205E+02
  weight for this iteration     100.00

 eigenvalues of (default mixing * dielectric matrix)
  average eigenvalue GAMMA=   0.2980
  0.4917  0.4917  0.1337  0.0751

 Free energy of the ion-electron system (eV)
  ---------------------------------------------------
  alpha Z        PSCENC =      3266.22189490
  Ewald energy   TEWEN  =    360627.28786095
  -Hartree energ DENC   =   -524665.30864177
  -exchange      EXHF   =         0.00000000
  -V(xc)+E(xc)   XCENC  =      4849.07360104
  PAW double counting   =    164333.19227085  -170836.34214022
  entropy T*S    EENTRO =        -1.22163003
  eigenvalues    EBANDS =    -19447.82500002
  atomic energy  EATOM  =    181336.80673834
  Solvation  Ediel_sol  =         0.00000000
  ---------------------------------------------------
  free energy    TOTEN  =      -538.11504595 eV

  energy without entropy =     -536.89341592  energy(sigma->0) =     -537.50423093


--------------------------------------------------------------------------------------------------------




--------------------------------------- Iteration      1(  10)  ---------------------------------------


    POTLOK:  cpu time    0.2760: real time    0.2760
    SETDIJ:  cpu time    0.0229: real time    0.0229
     EDDAV:  cpu time   12.8694: real time   12.8725
       DOS:  cpu time    0.0014: real time    0.0014
    CHARGE:  cpu time    0.2775: real time    0.2776
    MIXING:  cpu time    0.0099: real time    0.0099
    --------------------------------------------
      LOOP:  cpu time   13.4572: real time   13.4604

 eigenvalue-minimisations  :  1920
 total energy-change (2. order) :-0.1025110E+03  (-0.1659547E+02)
 number of electron    1056.0000720 magnetization 
 augmentation part      410.1523893 magnetization 

 Broyden mixing:
  rms(total) = 0.15918E+02    rms(broyden)= 0.15912E+02
  rms(prec ) = 0.21194E+02
  weight for this iteration     100.00

 eigenvalues of (default mixing * dielectric matrix)
  average eigenvalue GAMMA=   0.3147
  0.6972  0.5264  0.1722  0.0889  0.0889

 Free energy of the ion-electron system (eV)
  ---------------------------------------------------
  alpha Z        PSCENC =      3266.22189490
  Ewald energy   TEWEN  =    360627.28786095
  -Hartree energ DENC   =   -524849.00613851
  -exchange      EXHF   =         0.00000000
  -V(xc)+E(xc)   XCENC  =      4860.86489376
  PAW double counting   =    169248.22447678  -175828.65561391
  entropy T*S    EENTRO =        -1.37282315
  eigenvalues    EBANDS =    -19300.99737588
  atomic energy  EATOM  =    181336.80673834
  Solvation  Ediel_sol  =         0.00000000
  ---------------------------------------------------
  free energy    TOTEN  =      -640.62608672 eV

  energy without entropy =     -639.25326357  energy(sigma->0) =     -639.93967515


--------------------------------------------------------------------------------------------------------




--------------------------------------- Iteration      1(  11)  ---------------------------------------


    POTLOK:  cpu time    0.2749: real time    0.2749
    SETDIJ:  cpu time    0.0232: real time    0.0233
     EDDAV:  cpu time   11.5924: real time   11.5943
       DOS:  cpu time    0.0014: real time    0.0014
    CHARGE:  cpu time    0.2815: real time    0.2816
    MIXING:  cpu time    0.0112: real time    0.0112
    --------------------------------------------
      LOOP:  cpu time   12.1846: real time   12.1866

 eigenvalue-minimisations  :  1680
 total energy-change (2. order) :-0.1769890E+02  (-0.2278474E+02)
 number of electron    1056.0001014 magnetization 
 augmentation part      400.2485232 magnetization 

 Broyden mixing:
  rms(total) = 0.20153E+02    rms(broyden)= 0.20151E+02
  rms(prec ) = 0.23706E+02
  weight for this iteration     100.00

 eigenvalues of (default mixing * dielectric matrix)
  average eigenvalue GAMMA=   0.3275
  1.1286  0.3543  0.2342  0.0934  0.0934  0.0611

 Free energy of the ion-electron system (eV)
  ---------------------------------------------------
  alpha Z        PSCENC =      3266.22189490
  Ewald energy   TEWEN  =    360627.28786095
  -Hartree energ DENC   =   -525557.47783483
  -exchange      EXHF   =         0.00000000
  -V(xc)+E(xc)   XCENC  =      4858.35470404
  PAW double counting   =    173635.49197390  -180249.05068776
  entropy T*S    EENTRO =        -1.27411974
  eigenvalues    EBANDS =    -18574.68551227
  atomic energy  EATOM  =    181336.80673834
  Solvation  Ediel_sol  =         0.00000000
  ---------------------------------------------------
  free energy    TOTEN  =      -658.32498247 eV

  energy without entropy =     -657.05086272  energy(sigma->0) =     -657.68792260


--------------------------------------------------------------------------------------------------------




--------------------------------------- Iteration      1(  12)  ---------------------------------------


    POTLOK:  cpu time    0.2885: real time    0.2888
    SETDIJ:  cpu time    0.0476: real time    0.0476
     EDDAV:  cpu time   11.8146: real time   11.8188
       DOS:  cpu time    0.0013: real time    0.0013
    CHARGE:  cpu time    0.2850: real time    0.2850
    MIXING:  cpu time    0.0107: real time    0.0107
    --------------------------------------------
      LOOP:  cpu time   12.4477: real time   12.4523

 eigenvalue-minimisations  :  1672
 total energy-change (2. order) : 0.9343549E+02  (-0.1194779E+02)
 number of electron    1056.0000566 magnetization 
 augmentation part      414.0630011 magnetization 

 Broyden mixing:
  rms(total) = 0.12384E+02    rms(broyden)= 0.12378E+02
  rms(prec ) = 0.13981E+02
  weight for this iteration     100.00

 eigenvalues of (default mixing * dielectric matrix)
  average eigenvalue GAMMA=   0.3718
  1.5731  0.3283  0.3283  0.1081  0.0890  0.0881  0.0881

 Free energy of the ion-electron system (eV)
  ---------------------------------------------------
  alpha Z        PSCENC =      3266.22189490
  Ewald energy   TEWEN  =    360627.28786095
  -Hartree energ DENC   =   -525263.70854203
  -exchange      EXHF   =         0.00000000
  -V(xc)+E(xc)   XCENC  =      4855.09418748
  PAW double counting   =    177770.16083390  -184417.13688614
  entropy T*S    EENTRO =        -1.02974171
  eigenvalues    EBANDS =    -18738.58583687
  atomic energy  EATOM  =    181336.80673834
  Solvation  Ediel_sol  =         0.00000000
  ---------------------------------------------------
  free energy    TOTEN  =      -564.88949118 eV

  energy without entropy =     -563.85974947  energy(sigma->0) =     -564.37462033


--------------------------------------------------------------------------------------------------------




--------------------------------------- Iteration      1(  13)  ---------------------------------------


    POTLOK:  cpu time    0.2716: real time    0.2716
    SETDIJ:  cpu time    0.0228: real time    0.0228
     EDDAV:  cpu time   11.7521: real time   11.7541
       DOS:  cpu time    0.0014: real time    0.0014
    CHARGE:  cpu time    0.2809: real time    0.2809
    MIXING:  cpu time    0.0110: real time    0.0110
    --------------------------------------------
      LOOP:  cpu time   12.3399: real time   12.3420

 eigenvalue-minimisations  :  1704
 total energy-change (2. order) : 0.2011959E+02  (-0.1089367E+02)
 number of electron    1056.0000846 magnetization 
 augmentation part      419.3733855 magnetization 

 Broyden mixing:
  rms(total) = 0.98949E+01    rms(broyden)= 0.98913E+01
  rms(prec ) = 0.11051E+02
  weight for this iteration     100.00

 eigenvalues of (default mixing * dielectric matrix)
  average eigenvalue GAMMA=   0.4024
  1.8418  0.3804  0.3076  0.3076  0.1344  0.0888  0.0888  0.0698

 Free energy of the ion-electron system (eV)
  ---------------------------------------------------
  alpha Z        PSCENC =      3266.22189490
  Ewald energy   TEWEN  =    360627.28786095
  -Hartree energ DENC   =   -525024.54697040
  -exchange      EXHF   =         0.00000000
  -V(xc)+E(xc)   XCENC  =      4851.89869944
  PAW double counting   =    182531.49866782  -189217.41929582
  entropy T*S    EENTRO =        -1.58400676
  eigenvalues    EBANDS =    -18914.93349396
  atomic energy  EATOM  =    181336.80673834
  Solvation  Ediel_sol  =         0.00000000
  ---------------------------------------------------
  free energy    TOTEN  =      -544.76990548 eV

  energy without entropy =     -543.18589872  energy(sigma->0) =     -543.97790210


--------------------------------------------------------------------------------------------------------




--------------------------------------- Iteration      1(  14)  ---------------------------------------


    POTLOK:  cpu time    0.2725: real time    0.2726
    SETDIJ:  cpu time    0.0230: real time    0.0230
     EDDAV:  cpu time   11.7071: real time   11.7114
       DOS:  cpu time    0.0016: real time    0.0016
    CHARGE:  cpu time    0.2853: real time    0.2853
    MIXING:  cpu time    0.0122: real time    0.0122
    --------------------------------------------
      LOOP:  cpu time   12.3017: real time   12.3061

 eigenvalue-minimisations  :  1696
 total energy-change (2. order) : 0.2629739E+01  (-0.1149422E+02)
 number of electron    1056.0001012 magnetization 
 augmentation part      412.7938345 magnetization 

 Broyden mixing:
  rms(total) = 0.13572E+02    rms(broyden)= 0.13566E+02
  rms(prec ) = 0.15164E+02
  weight for this iteration     100.00

 eigenvalues of (default mixing * dielectric matrix)
  average eigenvalue GAMMA=   0.3853
  1.8074  0.4803  0.3267  0.3267  0.1588  0.1208  0.0866  0.0866  0.0740

 Free energy of the ion-electron system (eV)
  ---------------------------------------------------
  alpha Z        PSCENC =      3266.22189490
  Ewald energy   TEWEN  =    360627.28786095
  -Hartree energ DENC   =   -525208.38206420
  -exchange      EXHF   =         0.00000000
  -V(xc)+E(xc)   XCENC  =      4855.16413747
  PAW double counting   =    185439.26723009  -192156.22527261
  entropy T*S    EENTRO =        -1.43164918
  eigenvalues    EBANDS =    -18700.84904238
  atomic energy  EATOM  =    181336.80673834
  Solvation  Ediel_sol  =         0.00000000
  ---------------------------------------------------
  free energy    TOTEN  =      -542.14016662 eV

  energy without entropy =     -540.70851743  energy(sigma->0) =     -541.42434203


--------------------------------------------------------------------------------------------------------




--------------------------------------- Iteration      1(  15)  ---------------------------------------


    POTLOK:  cpu time    0.2729: real time    0.2730
    SETDIJ:  cpu time    0.0228: real time    0.0228
     EDDAV:  cpu time   11.9685: real time   11.9702
       DOS:  cpu time    0.0015: real time    0.0015
    CHARGE:  cpu time    0.4896: real time    0.4896
    MIXING:  cpu time    0.0120: real time    0.0120
    --------------------------------------------
      LOOP:  cpu time   12.7673: real time   12.7692

 eigenvalue-minimisations  :  1736
 total energy-change (2. order) : 0.2128467E+01  (-0.1131348E+02)
 number of electron    1056.0000805 magnetization 
 augmentation part      413.7670555 magnetization 

 Broyden mixing:
  rms(total) = 0.13084E+02    rms(broyden)= 0.13082E+02
  rms(prec ) = 0.14464E+02
  weight for this iteration     100.00

 eigenvalues of (default mixing * dielectric matrix)
  average eigenvalue GAMMA=   0.3770
  1.7286  0.5672  0.3831  0.3831  0.2444  0.1290  0.0879  0.0879  0.0719  0.0872

 Free energy of the ion-electron system (eV)
  ---------------------------------------------------
  alpha Z        PSCENC =      3266.22189490
  Ewald energy   TEWEN  =    360627.28786095
  -Hartree energ DENC   =   -525272.81823707
  -exchange      EXHF   =         0.00000000
  -V(xc)+E(xc)   XCENC  =      4857.92473820
  PAW double counting   =    185473.89722398  -192193.95904019
  entropy T*S    EENTRO =        -1.35608748
  eigenvalues    EBANDS =    -18634.01679109
  atomic energy  EATOM  =    181336.80673834
  Solvation  Ediel_sol  =         0.00000000
  ---------------------------------------------------
  free energy    TOTEN  =      -540.01169946 eV

  energy without entropy =     -538.65561198  energy(sigma->0) =     -539.33365572


--------------------------------------------------------------------------------------------------------




--------------------------------------- Iteration      1(  16)  ---------------------------------------


    POTLOK:  cpu time    0.2725: real time    0.2725
    SETDIJ:  cpu time    0.0229: real time    0.0229
     EDDAV:  cpu time   12.0994: real time   12.1015
       DOS:  cpu time    0.0017: real time    0.0017
    CHARGE:  cpu time    0.2865: real time    0.2865
    MIXING:  cpu time    0.0124: real time    0.0124
    --------------------------------------------
      LOOP:  cpu time   12.6955: real time   12.6975

 eigenvalue-minimisations  :  1768
 total energy-change (2. order) : 0.4090139E+02  (-0.4549611E+01)
 number of electron    1056.0000836 magnetization 
 augmentation part      415.4809899 magnetization 

 Broyden mixing:
  rms(total) = 0.69928E+01    rms(broyden)= 0.69873E+01
  rms(prec ) = 0.76165E+01
  weight for this iteration     100.00

 eigenvalues of (default mixing * dielectric matrix)
  average eigenvalue GAMMA=   0.3549
  1.6946  0.4203  0.4203  0.4436  0.3242  0.1430  0.1266  0.0880  0.0880  0.0727
  0.0824

 Free energy of the ion-electron system (eV)
  ---------------------------------------------------
  alpha Z        PSCENC =      3266.22189490
  Ewald energy   TEWEN  =    360627.28786095
  -Hartree energ DENC   =   -525296.19943781
  -exchange      EXHF   =         0.00000000
  -V(xc)+E(xc)   XCENC  =      4860.93308585
  PAW double counting   =    185241.54907047  -191960.82720930
  entropy T*S    EENTRO =        -1.22222394
  eigenvalues    EBANDS =    -18573.66008612
  atomic energy  EATOM  =    181336.80673834
  Solvation  Ediel_sol  =         0.00000000
  ---------------------------------------------------
  free energy    TOTEN  =      -499.11030665 eV

  energy without entropy =     -497.88808272  energy(sigma->0) =     -498.49919468


--------------------------------------------------------------------------------------------------------




--------------------------------------- Iteration      1(  17)  ---------------------------------------


    POTLOK:  cpu time    0.2741: real time    0.2741
    SETDIJ:  cpu time    0.0229: real time    0.0229
     EDDAV:  cpu time   12.0132: real time   12.0152
       DOS:  cpu time    0.0016: real time    0.0016
    CHARGE:  cpu time    0.2849: real time    0.2849
    MIXING:  cpu time    0.0142: real time    0.0142
    --------------------------------------------
      LOOP:  cpu time   12.6109: real time   12.6130

 eigenvalue-minimisations  :  1744
 total energy-change (2. order) : 0.9233376E+01  (-0.3296027E+01)
 number of electron    1056.0000853 magnetization 
 augmentation part      416.4293229 magnetization 

 Broyden mixing:
  rms(total) = 0.41823E+01    rms(broyden)= 0.41795E+01
  rms(prec ) = 0.44753E+01
  weight for this iteration     100.00

 eigenvalues of (default mixing * dielectric matrix)
  average eigenvalue GAMMA=   0.3708
  1.6884  0.6366  0.6366  0.3576  0.3576  0.1842  0.1414  0.1146  0.0878  0.0878
  0.0724  0.0839

 Free energy of the ion-electron system (eV)
  ---------------------------------------------------
  alpha Z        PSCENC =      3266.22189490
  Ewald energy   TEWEN  =    360627.28786095
  -Hartree energ DENC   =   -525299.39744424
  -exchange      EXHF   =         0.00000000
  -V(xc)+E(xc)   XCENC  =      4861.54011519
  PAW double counting   =    184945.59097681  -191660.90475815
  entropy T*S    EENTRO =        -1.02054761
  eigenvalues    EBANDS =    -18566.00176659
  atomic energy  EATOM  =    181336.80673834
  Solvation  Ediel_sol  =         0.00000000
  ---------------------------------------------------
  free energy    TOTEN  =      -489.87693039 eV

  energy without entropy =     -488.85638279  energy(sigma->0) =     -489.36665659


--------------------------------------------------------------------------------------------------------




--------------------------------------- Iteration      1(  18)  ---------------------------------------


    POTLOK:  cpu time    0.2737: real time    0.2743
    SETDIJ:  cpu time    0.0229: real time    0.0229
     EDDAV:  cpu time   11.8877: real time   11.8909
       DOS:  cpu time    0.0014: real time    0.0014
    CHARGE:  cpu time    0.5308: real time    0.5308
    MIXING:  cpu time    0.0137: real time    0.0137
    --------------------------------------------
      LOOP:  cpu time   12.7303: real time   12.7341

 eigenvalue-minimisations  :  1728
 total energy-change (2. order) : 0.6037098E+01  (-0.1430245E+01)
 number of electron    1056.0000848 magnetization 
 augmentation part      416.2994198 magnetization 

 Broyden mixing:
  rms(total) = 0.30250E+01    rms(broyden)= 0.30230E+01
  rms(prec ) = 0.32528E+01
  weight for this iteration     100.00

 eigenvalues of (default mixing * dielectric matrix)
  average eigenvalue GAMMA=   0.3906
  1.8000  0.7644  0.7644  0.3609  0.3609  0.2226  0.2226  0.1250  0.1250  0.0879
  0.0879  0.0725  0.0833

 Free energy of the ion-electron system (eV)
  ---------------------------------------------------
  alpha Z        PSCENC =      3266.22189490
  Ewald energy   TEWEN  =    360627.28786095
  -Hartree energ DENC   =   -525328.87964616
  -exchange      EXHF   =         0.00000000
  -V(xc)+E(xc)   XCENC  =      4861.86380249
  PAW double counting   =    184258.65940155  -190962.85315962
  entropy T*S    EENTRO =        -0.94032592
  eigenvalues    EBANDS =    -18542.00639938
  atomic energy  EATOM  =    181336.80673834
  Solvation  Ediel_sol  =         0.00000000
  ---------------------------------------------------
  free energy    TOTEN  =      -483.83983284 eV

  energy without entropy =     -482.89950692  energy(sigma->0) =     -483.36966988


--------------------------------------------------------------------------------------------------------




--------------------------------------- Iteration      1(  19)  ---------------------------------------


    POTLOK:  cpu time    0.2804: real time    0.2807
    SETDIJ:  cpu time    0.0309: real time    0.0309
     EDDAV:  cpu time   11.6814: real time   11.6834
       DOS:  cpu time    0.0018: real time    0.0018
    CHARGE:  cpu time    0.2910: real time    0.2911
    MIXING:  cpu time    0.0141: real time    0.0141
    --------------------------------------------
      LOOP:  cpu time   12.2997: real time   12.3020

 eigenvalue-minimisations  :  1696
 total energy-change (2. order) : 0.1286062E+01  (-0.6152789E+00)
 number of electron    1056.0000828 magnetization 
 augmentation part      416.8066352 magnetization 

 Broyden mixing:
  rms(total) = 0.25756E+01    rms(broyden)= 0.25747E+01
  rms(prec ) = 0.28643E+01
  weight for this iteration     100.00

 eigenvalues of (default mixing * dielectric matrix)
  average eigenvalue GAMMA=   0.3954
  1.8108  0.8477  0.8477  0.3701  0.3701  0.2723  0.2723  0.1490  0.1452  0.1186
  0.0879  0.0879  0.0725  0.0835

 Free energy of the ion-electron system (eV)
  ---------------------------------------------------
  alpha Z        PSCENC =      3266.22189490
  Ewald energy   TEWEN  =    360627.28786095
  -Hartree energ DENC   =   -525328.47700169
  -exchange      EXHF   =         0.00000000
  -V(xc)+E(xc)   XCENC  =      4861.10268544
  PAW double counting   =    183963.14990521  -190658.68465541
  entropy T*S    EENTRO =        -0.94479792
  eigenvalues    EBANDS =    -18549.01640073
  atomic energy  EATOM  =    181336.80673834
  Solvation  Ediel_sol  =         0.00000000
  ---------------------------------------------------
  free energy    TOTEN  =      -482.55377091 eV

  energy without entropy =     -481.60897299  energy(sigma->0) =     -482.08137195


--------------------------------------------------------------------------------------------------------




--------------------------------------- Iteration      1(  20)  ---------------------------------------


    POTLOK:  cpu time    0.2730: real time    0.2732
    SETDIJ:  cpu time    0.0229: real time    0.0229
     EDDAV:  cpu time   11.8259: real time   11.8285
       DOS:  cpu time    0.0017: real time    0.0017
    CHARGE:  cpu time    0.2895: real time    0.2896
    MIXING:  cpu time    0.0147: real time    0.0147
    --------------------------------------------
      LOOP:  cpu time   12.4278: real time   12.4307

 eigenvalue-minimisations  :  1720
 total energy-change (2. order) : 0.1133255E+01  (-0.2255689E+00)
 number of electron    1056.0000827 magnetization 
 augmentation part      417.0618335 magnetization 

 Broyden mixing:
  rms(total) = 0.21966E+01    rms(broyden)= 0.21963E+01
  rms(prec ) = 0.24770E+01
  weight for this iteration     100.00

 eigenvalues of (default mixing * dielectric matrix)
  average eigenvalue GAMMA=   0.3806
  1.7857  0.8773  0.8773  0.3729  0.3729  0.2774  0.2774  0.1495  0.1495  0.0879
  0.0879  0.1190  0.1190  0.0725  0.0834

 Free energy of the ion-electron system (eV)
  ---------------------------------------------------
  alpha Z        PSCENC =      3266.22189490
  Ewald energy   TEWEN  =    360627.28786095
  -Hartree energ DENC   =   -525313.71681071
  -exchange      EXHF   =         0.00000000
  -V(xc)+E(xc)   XCENC  =      4860.82522641
  PAW double counting   =    183510.76932949  -190199.45029711
  entropy T*S    EENTRO =        -0.95136447
  eigenvalues    EBANDS =    -18569.21309339
  atomic energy  EATOM  =    181336.80673834
  Solvation  Ediel_sol  =         0.00000000
  ---------------------------------------------------
  free energy    TOTEN  =      -481.42051558 eV

  energy without entropy =     -480.46915112  energy(sigma->0) =     -480.94483335


--------------------------------------------------------------------------------------------------------




--------------------------------------- Iteration      1(  21)  ---------------------------------------


    POTLOK:  cpu time    0.2728: real time    0.2728
    SETDIJ:  cpu time    0.0229: real time    0.0229
     EDDAV:  cpu time   11.9123: real time   11.9146
       DOS:  cpu time    0.0016: real time    0.0016
    CHARGE:  cpu time    0.2881: real time    0.2881
    MIXING:  cpu time    0.0152: real time    0.0152
    --------------------------------------------
      LOOP:  cpu time   12.5128: real time   12.5151

 eigenvalue-minimisations  :  1736
 total energy-change (2. order) : 0.7927251E+00  (-0.5236813E-01)
 number of electron    1056.0000827 magnetization 
 augmentation part      416.9834472 magnetization 

 Broyden mixing:
  rms(total) = 0.20084E+01    rms(broyden)= 0.20083E+01
  rms(prec ) = 0.22620E+01
  weight for this iteration     100.00

 eigenvalues of (default mixing * dielectric matrix)
  average eigenvalue GAMMA=   0.4255
  1.7208  1.0951  1.0951  0.4891  0.4891  0.3683  0.3683  0.2185  0.2185  0.1596
  0.1338  0.1204  0.0879  0.0879  0.0725  0.0835

 Free energy of the ion-electron system (eV)
  ---------------------------------------------------
  alpha Z        PSCENC =      3266.22189490
  Ewald energy   TEWEN  =    360627.28786095
  -Hartree energ DENC   =   -525308.08385478
  -exchange      EXHF   =         0.00000000
  -V(xc)+E(xc)   XCENC  =      4860.96489774
  PAW double counting   =    183131.74654227  -189816.20326694
  entropy T*S    EENTRO =        -0.96479425
  eigenvalues    EBANDS =    -18578.40380872
  atomic energy  EATOM  =    181336.80673834
  Solvation  Ediel_sol  =         0.00000000
  ---------------------------------------------------
  free energy    TOTEN  =      -480.62779047 eV

  energy without entropy =     -479.66299623  energy(sigma->0) =     -480.14539335


--------------------------------------------------------------------------------------------------------




--------------------------------------- Iteration      1(  22)  ---------------------------------------


    POTLOK:  cpu time    0.2754: real time    0.2755
    SETDIJ:  cpu time    0.0471: real time    0.0471
     EDDAV:  cpu time   12.7573: real time   12.7626
       DOS:  cpu time    0.0016: real time    0.0016
    CHARGE:  cpu time    0.2867: real time    0.2867
    MIXING:  cpu time    0.0158: real time    0.0158
    --------------------------------------------
      LOOP:  cpu time   13.3839: real time   13.3893

 eigenvalue-minimisations  :  1856
 total energy-change (2. order) : 0.7855650E+00  (-0.9117498E-01)
 number of electron    1056.0000818 magnetization 
 augmentation part      416.4892547 magnetization 

 Broyden mixing:
  rms(total) = 0.18828E+01    rms(broyden)= 0.18825E+01
  rms(prec ) = 0.21365E+01
  weight for this iteration     100.00

 eigenvalues of (default mixing * dielectric matrix)
  average eigenvalue GAMMA=   0.4601
  1.8033  1.3186  1.3186  0.6088  0.6088  0.3743  0.3743  0.2506  0.2506  0.1641
  0.1641  0.0879  0.0879  0.1324  0.1206  0.0725  0.0835

 Free energy of the ion-electron system (eV)
  ---------------------------------------------------
  alpha Z        PSCENC =      3266.22189490
  Ewald energy   TEWEN  =    360627.28786095
  -Hartree energ DENC   =   -525314.72269808
  -exchange      EXHF   =         0.00000000
  -V(xc)+E(xc)   XCENC  =      4861.23147005
  PAW double counting   =    182022.47509494  -188692.75883564
  entropy T*S    EENTRO =        -1.06549218
  eigenvalues    EBANDS =    -18585.31825877
  atomic energy  EATOM  =    181336.80673834
  Solvation  Ediel_sol  =         0.00000000
  ---------------------------------------------------
  free energy    TOTEN  =      -479.84222550 eV

  energy without entropy =     -478.77673331  energy(sigma->0) =     -479.30947940


--------------------------------------------------------------------------------------------------------




--------------------------------------- Iteration      1(  23)  ---------------------------------------


    POTLOK:  cpu time    0.2756: real time    0.2756
    SETDIJ:  cpu time    0.0229: real time    0.0229
     EDDAV:  cpu time   12.2006: real time   12.2147
       DOS:  cpu time    0.0016: real time    0.0016
    CHARGE:  cpu time    0.2920: real time    0.2920
    MIXING:  cpu time    0.0168: real time    0.0168
    --------------------------------------------
      LOOP:  cpu time   12.8095: real time   12.8236

 eigenvalue-minimisations  :  1792
 total energy-change (2. order) : 0.4262780E+00  (-0.1889993E+00)
 number of electron    1056.0000818 magnetization 
 augmentation part      416.3362023 magnetization 

 Broyden mixing:
  rms(total) = 0.16333E+01    rms(broyden)= 0.16326E+01
  rms(prec ) = 0.19496E+01
  weight for this iteration     100.00

 eigenvalues of (default mixing * dielectric matrix)
  average eigenvalue GAMMA=   0.4992
  1.9279  1.5002  1.5002  0.7591  0.7591  0.4216  0.3824  0.3824  0.2380  0.2060
  0.0879  0.0879  0.0725  0.0835  0.1205  0.1327  0.1689  0.1551

 Free energy of the ion-electron system (eV)
  ---------------------------------------------------
  alpha Z        PSCENC =      3266.22189490
  Ewald energy   TEWEN  =    360627.28786095
  -Hartree energ DENC   =   -525324.60981665
  -exchange      EXHF   =         0.00000000
  -V(xc)+E(xc)   XCENC  =      4861.08927197
  PAW double counting   =    181352.68758047  -188010.66780826
  entropy T*S    EENTRO =        -1.14949310
  eigenvalues    EBANDS =    -18587.08217608
  atomic energy  EATOM  =    181336.80673834
  Solvation  Ediel_sol  =         0.00000000
  ---------------------------------------------------
  free energy    TOTEN  =      -479.41594747 eV

[...]
   -.407E+02 -.507E+03 0.176E+04   0.399E+02 0.507E+03 -.176E+04   0.940E+00 -.123E+01 0.179E-01   0.118E-02 0.275E+00 -.528E+00
   0.419E+02 -.499E+03 -.558E+04   -.424E+02 0.500E+03 0.557E+04   -.372E+00 -.263E+01 0.142E+01   0.273E-01 0.906E+00 0.685E+00
   -.102E+03 0.390E+03 0.411E+04   0.100E+03 -.392E+03 -.411E+04   0.136E+01 0.216E+01 -.132E+01   -.273E-01 -.299E-01 -.147E+01
   -.414E+02 0.101E+03 -.352E+04   0.406E+02 -.102E+03 0.352E+04   0.992E+00 0.442E+00 -.126E+01   -.568E-02 0.557E+00 0.444E+00
   -.412E+02 0.265E+03 0.289E+03   0.404E+02 -.265E+03 -.289E+03   0.947E+00 0.435E+00 -.115E+01   0.306E-02 -.369E-02 0.503E+00
   -.257E+02 -.118E+04 -.720E+04   0.240E+02 0.118E+04 0.720E+04   0.919E+00 0.139E+00 0.543E+00   0.356E-01 0.528E+00 0.391E+00
   -.386E+03 0.334E+03 0.710E+04   0.391E+03 -.337E+03 -.711E+04   -.268E+01 0.281E+01 0.781E+01   -.154E+00 -.452E-01 -.436E+00
   -.413E+02 0.213E+03 -.605E+03   0.404E+02 -.214E+03 0.603E+03   0.972E+00 0.498E+00 0.110E+01   -.182E-03 0.304E+00 0.741E+00
   -.387E+02 0.246E+03 0.316E+04   0.378E+02 -.247E+03 -.316E+04   0.104E+01 0.555E+00 0.121E+01   -.138E-01 -.110E+00 -.138E+01
   -.346E+02 -.336E+03 -.541E+04   0.328E+02 0.335E+03 0.540E+04   0.195E+01 0.674E+00 0.229E+01   -.350E-02 -.438E-01 0.567E+00
   -.681E+02 -.630E+03 0.561E+04   0.676E+02 0.634E+03 -.561E+04   0.223E+00 -.401E+01 -.558E-01   -.362E-01 -.695E-01 -.106E+01
   -.411E+02 -.511E+03 -.215E+04   0.405E+02 0.512E+03 0.215E+04   0.796E+00 -.129E+01 -.234E+00   -.747E-02 0.126E+00 0.779E+00
   -.413E+02 -.524E+03 0.176E+04   0.405E+02 0.524E+03 -.176E+04   0.976E+00 -.122E+01 0.213E-01   0.665E-03 0.234E+00 -.425E+00
   -.143E+02 0.638E+03 -.579E+04   0.128E+02 -.639E+03 0.579E+04   0.871E+00 0.630E+00 -.219E+01   0.176E-01 -.669E+00 0.463E+00
   0.290E+02 0.390E+03 0.410E+04   -.301E+02 -.392E+03 -.410E+04   0.952E+00 0.215E+01 -.125E+01   0.241E-01 0.852E-01 -.159E+01
   -.414E+02 0.101E+03 -.352E+04   0.406E+02 -.102E+03 0.352E+04   0.989E+00 0.440E+00 -.126E+01   -.138E-01 0.551E+00 0.457E+00
   -.413E+02 0.265E+03 0.289E+03   0.404E+02 -.265E+03 -.289E+03   0.968E+00 0.450E+00 -.111E+01   0.466E-02 -.398E-01 0.498E+00
   -.257E+02 -.118E+04 -.720E+04   0.240E+02 0.118E+04 0.720E+04   0.918E+00 0.137E+00 0.542E+00   0.279E-01 0.530E+00 0.386E+00
   0.368E+03 0.361E+03 0.708E+04   -.373E+03 -.364E+03 -.708E+04   0.248E+01 0.291E+01 0.787E+01   0.482E-01 0.482E-01 -.434E+00
   -.413E+02 0.214E+03 -.605E+03   0.404E+02 -.214E+03 0.603E+03   0.984E+00 0.507E+00 0.111E+01   -.692E-02 0.301E+00 0.742E+00
   -.411E+02 0.249E+03 0.316E+04   0.401E+02 -.249E+03 -.316E+04   0.119E+01 0.582E+00 0.144E+01   0.153E-01 -.142E+00 -.144E+01
   -.346E+02 -.336E+03 -.541E+04   0.328E+02 0.335E+03 0.540E+04   0.196E+01 0.674E+00 0.229E+01   0.247E-02 -.455E-01 0.569E+00
   0.110E+02 -.600E+03 0.560E+04   -.980E+01 0.603E+03 -.560E+04   -.849E+00 -.354E+01 0.869E+00   0.347E-01 -.864E-01 -.112E+01
   -.412E+02 -.511E+03 -.215E+04   0.406E+02 0.512E+03 0.215E+04   0.802E+00 -.128E+01 -.233E+00   0.375E-02 0.146E+00 0.787E+00
   -.410E+02 -.523E+03 0.176E+04   0.403E+02 0.524E+03 -.176E+04   0.888E+00 -.128E+01 -.102E+00   -.748E-02 0.220E+00 -.403E+00
   -.143E+02 0.638E+03 -.579E+04   0.128E+02 -.639E+03 0.579E+04   0.868E+00 0.629E+00 -.218E+01   -.165E-01 -.667E+00 0.452E+00
   -.315E+01 -.289E+03 0.276E+04   0.269E+01 0.297E+03 -.277E+04   0.412E+00 -.588E+01 0.420E+01   0.685E-02 -.705E-01 -.156E+00
   0.394E+02 -.847E+02 -.117E+03   -.404E+02 0.863E+02 0.115E+03   0.923E+00 -.159E+01 0.223E+01   0.126E-01 -.233E+00 0.199E+00
   0.380E+02 -.716E+02 0.129E+04   -.386E+02 0.728E+02 -.129E+04   0.453E+00 -.147E+01 0.248E+01   0.625E-02 0.762E-01 -.683E+00
   0.389E+02 -.136E+03 -.153E+04   -.394E+02 0.137E+03 0.153E+04   0.513E+00 -.160E+01 0.150E+01   -.253E-02 0.196E+00 0.140E+00
   0.350E+02 -.105E+03 0.147E+04   -.356E+02 0.106E+03 -.146E+04   0.476E+00 -.145E+01 -.211E+01   -.318E-01 -.533E-01 -.651E+00
   0.185E+02 -.183E+03 -.126E+04   -.185E+02 0.186E+03 0.126E+04   -.197E+00 -.272E+01 -.919E+00   0.134E-01 -.158E+00 0.193E+00
   0.113E+01 0.176E+03 0.283E+04   -.117E+01 -.178E+03 -.284E+04   0.220E+00 0.414E+00 0.317E+01   -.388E-01 0.145E-01 0.121E-01
   0.397E+02 -.886E+02 0.391E+02   -.404E+02 0.896E+02 -.372E+02   0.531E+00 -.130E+01 -.263E+01   0.175E-01 0.970E-01 0.263E+00
   -.235E+02 0.382E+02 -.287E+04   0.236E+02 -.384E+02 0.287E+04   0.520E-01 0.185E-02 -.324E+01   -.169E-02 0.271E+00 0.262E+00
   0.253E+02 0.294E+03 0.209E+04   -.262E+02 -.297E+03 -.209E+04   0.902E+00 0.288E+01 -.735E+00   -.202E-01 0.589E-02 -.364E+00
   0.395E+02 0.131E+03 -.757E+03   -.404E+02 -.133E+03 0.757E+03   0.736E+00 0.241E+01 0.179E-01   0.241E-02 0.196E+00 0.173E+00
   0.396E+02 0.164E+03 0.666E+03   -.404E+02 -.166E+03 -.666E+03   0.719E+00 0.273E+01 -.210E-01   0.134E-02 -.902E-01 -.193E+00
   0.565E+02 0.505E+03 -.257E+04   -.573E+02 -.509E+03 0.257E+04   0.185E+00 0.478E+01 -.127E+01   -.607E-02 -.187E+00 0.179E+00
   -.584E+01 -.168E+03 0.274E+04   0.557E+01 0.172E+03 -.275E+04   0.290E+00 -.218E+01 0.374E+01   -.159E-01 -.472E-01 -.159E+00
   0.395E+02 -.847E+02 -.117E+03   -.404E+02 0.863E+02 0.115E+03   0.923E+00 -.158E+01 0.223E+01   -.217E-01 -.244E+00 0.212E+00
   0.418E+02 -.716E+02 0.129E+04   -.423E+02 0.726E+02 -.129E+04   0.482E+00 -.137E+01 0.252E+01   -.140E-01 0.770E-01 -.676E+00
   0.389E+02 -.136E+03 -.153E+04   -.394E+02 0.137E+03 0.153E+04   0.513E+00 -.159E+01 0.150E+01   -.646E-02 0.194E+00 0.141E+00
   0.424E+02 -.969E+02 0.148E+04   -.437E+02 0.989E+02 -.147E+04   0.118E+01 -.173E+01 -.231E+01   0.216E-01 -.499E-01 -.662E+00
   0.185E+02 -.183E+03 -.126E+04   -.185E+02 0.186E+03 0.126E+04   -.195E+00 -.272E+01 -.911E+00   -.202E-01 -.158E+00 0.196E+00
   -.185E+01 -.117E+03 0.275E+04   0.127E+01 0.120E+03 -.276E+04   0.577E+00 -.149E+01 0.399E+01   0.892E-01 -.180E-01 -.169E+00
   0.398E+02 -.885E+02 0.392E+02   -.404E+02 0.895E+02 -.372E+02   0.545E+00 -.136E+01 -.260E+01   -.272E-01 0.947E-01 0.261E+00
   -.235E+02 0.382E+02 -.287E+04   0.236E+02 -.384E+02 0.287E+04   0.528E-01 0.137E-02 -.324E+01   -.313E-02 0.268E+00 0.262E+00
   0.394E+02 0.184E+03 0.222E+04   -.406E+02 -.186E+03 -.222E+04   0.148E+01 0.226E+01 0.106E+01   0.206E-01 0.237E-01 -.351E+00
   0.395E+02 0.131E+03 -.757E+03   -.404E+02 -.133E+03 0.757E+03   0.723E+00 0.239E+01 0.591E-01   -.949E-02 0.184E+00 0.171E+00
   0.397E+02 0.164E+03 0.667E+03   -.404E+02 -.166E+03 -.667E+03   0.637E+00 0.267E+01 0.385E-01   -.315E-01 -.114E+00 -.190E+00
   0.565E+02 0.505E+03 -.257E+04   -.573E+02 -.509E+03 0.257E+04   0.185E+00 0.478E+01 -.128E+01   -.555E-02 -.189E+00 0.177E+00
   0.397E+02 -.853E+02 -.156E+03   -.404E+02 0.864E+02 0.154E+03   0.558E+00 -.132E+01 0.256E+01   -.150E-01 -.760E-02 0.400E+00
   0.417E+02 -.972E+02 0.128E+04   -.424E+02 0.982E+02 -.128E+04   0.579E+00 -.138E+01 0.254E+01   -.971E-02 0.796E-01 -.614E+00
   0.447E+01 0.240E+03 -.211E+04   -.555E+01 -.240E+03 0.211E+04   0.237E+01 -.149E+01 -.238E+01   0.146E-02 -.233E+00 0.204E+00
   0.383E+02 -.416E+02 0.143E+04   -.392E+02 0.438E+02 -.142E+04   0.535E+00 -.196E+01 -.119E+01   0.461E-01 -.643E-01 -.637E+00
   0.398E+02 -.138E+03 -.147E+04   -.405E+02 0.139E+03 0.147E+04   0.542E+00 -.159E+01 -.328E+01   0.127E-02 0.147E+00 0.245E+00
   0.398E+02 -.777E+02 0.364E+02   -.405E+02 0.788E+02 -.345E+02   0.564E+00 -.147E+01 -.261E+01   -.236E-01 0.102E+00 0.337E+00
   0.384E+02 0.161E+03 0.220E+04   -.391E+02 -.164E+03 -.220E+04   0.101E+01 0.308E+01 0.413E+00   -.314E-01 0.756E-01 -.404E+00
   0.386E+02 0.225E+03 -.764E+03   -.396E+02 -.227E+03 0.764E+03   0.926E+00 0.271E+01 0.268E-01   -.610E-02 -.550E-01 0.180E+00
   0.397E+02 0.170E+03 0.649E+03   -.404E+02 -.172E+03 -.649E+03   0.661E+00 0.260E+01 -.705E-01   -.186E-01 -.328E-01 -.192E+00
   -.513E+01 -.468E+03 -.221E+04   0.438E+01 0.468E+03 0.221E+04   0.225E+01 0.422E+00 -.172E+01   -.114E-01 0.134E+00 0.229E+00
   -.524E+01 -.311E+03 0.274E+04   0.482E+01 0.319E+03 -.275E+04   0.481E+00 -.570E+01 0.496E+01   -.868E-01 -.366E-01 -.176E+00
   0.397E+02 -.853E+02 -.156E+03   -.404E+02 0.864E+02 0.154E+03   0.558E+00 -.132E+01 0.257E+01   0.329E-02 0.431E-03 0.392E+00
   0.372E+02 -.963E+02 0.128E+04   -.379E+02 0.975E+02 -.128E+04   0.574E+00 -.155E+01 0.248E+01   0.679E-03 0.717E-01 -.611E+00
   0.447E+01 0.240E+03 -.211E+04   -.554E+01 -.240E+03 0.211E+04   0.237E+01 -.149E+01 -.238E+01   0.212E-02 -.227E+00 0.195E+00
   0.382E+02 -.687E+02 0.144E+04   -.386E+02 0.701E+02 -.143E+04   0.294E+00 -.144E+01 -.170E+01   -.495E-01 -.765E-01 -.643E+00
   0.398E+02 -.138E+03 -.147E+04   -.405E+02 0.139E+03 0.147E+04   0.540E+00 -.159E+01 -.328E+01   0.939E-02 0.147E+00 0.241E+00
   0.181E+02 0.194E+03 0.282E+04   -.183E+02 -.197E+03 -.283E+04   -.253E+00 0.967E+00 0.370E+01   0.557E-01 0.428E-01 0.306E-01
   0.396E+02 -.778E+02 0.365E+02   -.403E+02 0.788E+02 -.345E+02   0.575E+00 -.138E+01 -.269E+01   0.238E-01 0.106E+00 0.339E+00
   0.534E+01 0.219E+03 0.211E+04   -.569E+01 -.222E+03 -.210E+04   0.836E+00 0.271E+01 -.116E+01   0.359E-01 0.212E-01 -.412E+00
   0.385E+02 0.225E+03 -.764E+03   -.396E+02 -.227E+03 0.764E+03   0.931E+00 0.273E+01 -.292E-02   0.199E-01 -.489E-01 0.182E+00
   0.394E+02 0.170E+03 0.649E+03   -.403E+02 -.172E+03 -.649E+03   0.737E+00 0.266E+01 -.802E-01   -.143E-01 -.227E-01 -.193E+00
   -.513E+01 -.468E+03 -.221E+04   0.438E+01 0.468E+03 0.221E+04   0.225E+01 0.420E+00 -.173E+01   -.124E-01 0.136E+00 0.228E+00
 -----------------------------------------------------------------------------------------------
   -.651E+02 0.698E+01 -.327E+02   -.512E-12 0.267E-11 -.150E-10   0.653E+02 -.765E+01 0.400E+02   -.200E+00 0.763E+00 -.721E+01
 
 
 POSITION                                       TOTAL-FORCE (eV/Angst)
 -----------------------------------------------------------------------------------
      1.64370      0.18204      4.44331         0.002212      0.162743      0.482928
      1.64370      0.18204     14.02172        -0.328788     -0.443563     -1.353612
      0.59727      2.94708      9.23251         0.081467      0.140117     -0.382849
      0.62792      2.97015     18.61489         0.057402     -0.141315     -0.050910
      1.89206      0.15934      2.03056        -2.172765     -0.234723      1.196112
      1.64370      0.18204     11.49105         0.109206      0.136614      0.206533
      0.59727      2.94708      6.70184         0.156225      0.174346      0.461768
      0.59727      2.94708     16.28025         0.306824      0.645098     -0.808543
      1.64370      2.37366      3.17797         0.193508      0.067921      2.360641
      1.64370      2.37366     12.75638         0.134574     -0.253386     -0.113741
      3.73655      5.13871      7.96718         0.168918     -0.382782     -0.000360
      3.73655      5.13871     17.54559        -0.861943     -0.840599     -2.725353
      4.78298      0.18204      4.44331         0.100840      0.114888      0.055307
      4.78298      0.18204     14.02172        -0.329195     -0.447342     -1.353189
      3.73655      2.94708      9.23251         0.087666      0.141892     -0.394611
      3.76720      2.97015     18.61489         0.057541     -0.141600     -0.050906
      4.78298      0.18204      1.91264         0.942743     -0.352297      2.457605
      4.78298      0.18204     11.49105         0.105989      0.138230      0.204571
      3.73655      2.94708      6.70184         0.103747      0.138623      0.392575
      3.73655      2.94708     16.28025         0.307199      0.645430     -0.808808
      4.78298      2.37366      3.17797         0.600969      0.050457      2.152899
      4.78298      2.37366     12.75638         0.131146     -0.254673     -0.115360
      6.87583      5.13871      7.96718         0.178951     -0.394466     -0.006880
      6.87583      5.13871     17.54559        -0.862013     -0.840419     -2.725625
      2.69013      5.71213      4.44331         0.143588     -0.266908      0.537605
      2.69013      5.71213     14.02172         0.126334      0.077094     -0.431663
      1.64370      8.47718      9.23251         0.100820      0.139772     -0.387713
      1.84293      6.66981     18.74221        -0.719440      0.517556      1.019180
      2.48237      5.84473      2.05095         1.966177     -0.451024      1.016023
      2.69013      5.71213     11.49105         0.062151      0.142633      0.331408
      1.64370      8.47718      6.70184         0.061731      0.111454      0.517804
      1.64370      8.47718     16.28025         0.103488      0.039656     -0.274283
      2.77038      7.96379      3.39324        -0.276013     -0.399406      0.408272
      2.69013      7.90376     12.75638         0.187813     -0.383607     -0.075434
      4.78298     10.66881      7.96718         0.174408     -0.409082     -0.001511
      2.86669      0.52055     16.03734        -0.623771     -0.157877      0.297766
      5.82941      5.71213      4.44331        -0.029919     -0.293234      0.728689
      5.82941      5.71213     14.02172         0.125316      0.080928     -0.433907
      4.78298      8.47718      9.23251         0.093123      0.137085     -0.377866
      4.98221      6.66981     18.74221        -0.719399      0.517160      1.019463
      6.09618      5.80250      2.07698        -2.323052     -0.340628      1.150571
      5.82941      5.71213     11.49105         0.067395      0.145426      0.331963
      4.78298      8.47718      6.70184         0.124829      0.149794      0.592687
      4.78298      8.47718     16.28025         0.102873      0.039702     -0.275085
      5.80566      7.95489      3.38122         0.389176     -0.278957      0.662366
      5.82941      7.90376     12.75638         0.189228     -0.384102     -0.075114
      7.92226     10.66881      7.96718         0.158417     -0.407186      0.006170
      6.00597      0.52055     16.03734        -0.624250     -0.156603      0.298931
      3.25072      1.78021      1.94818        -0.045295      1.861723     -3.196640
      3.28961      1.84282     11.14515        -0.014738     -0.289863      0.402619
      2.24318      4.60787      6.35595        -0.122280     -0.224560      0.358249
      2.24318      4.60787     15.93436         0.038937     -0.348965     -0.044932
      3.28961      1.84282      4.78920        -0.090688     -0.299181      0.128443
      3.28961      1.84282     14.36761        -0.197905      0.479170     -0.613847
      1.13123      5.29535      0.60814         0.145495     -1.732816     -3.817100
      2.24318      4.60787      9.57841        -0.087358     -0.256559     -0.412693
      2.15903      4.48726     18.87120         0.135996      0.082878      3.125532
      1.19676      4.58218      3.17797        -0.002165     -0.408098      1.321814
      1.19676      4.58218     12.75638        -0.156946      0.390519      0.040164
      2.24318      1.81714      7.96718        -0.139559      0.527548     -0.016081
      2.24318      1.81714     17.54559        -0.642382      0.465883      1.336404
      6.40414      1.52095      2.00855         0.004237      1.263335     -3.715555
      6.42889      1.84282     11.14515        -0.008534     -0.290427      0.400824
      5.38246      4.60787      6.35595        -0.100030     -0.248990      0.349808
      5.38246      4.60787     15.93436         0.039360     -0.349578     -0.045038
      6.42889      1.84282      4.78920        -0.098994      0.198187      0.684852
      6.42889      1.84282     14.36761        -0.198404      0.479177     -0.612263
      4.28107      7.05487      2.10863         0.080737      1.282506     -3.671297
      5.38246      4.60787      9.57841        -0.103642     -0.253655     -0.387979
      5.29831      4.48726     18.87120         0.135891      0.082650      3.126223
      4.33604      4.58218      3.17797         0.307893     -0.033458     -0.128918
      4.33604      4.58218     12.75638        -0.157018      0.393263      0.042345
      5.38246      1.81714      7.96718        -0.106434      0.543131     -0.010579
      5.38246      1.81714     17.54559        -0.641792      0.465867      1.336326
      4.33604      7.37292     11.14515        -0.163340     -0.265550      0.426877
      3.28961     10.13797      6.35595        -0.050070     -0.251780      0.334847
      3.28961     10.13797     15.93436         1.297385     -1.242794      0.323574
      4.33604      7.37292      4.78920        -0.238448      0.147124      2.156376
      4.33604      7.37292     14.36761        -0.221603     -0.146549     -0.267178
      3.28961     10.13797      9.57841        -0.136629     -0.219255     -0.361308
      2.24318     10.11228      3.17797         0.302749      0.101078     -0.154429
      2.24318     10.11228     12.75638        -0.098537      0.554989     -0.090317
      3.28961      7.34723      7.96718        -0.123889      0.552931     -0.028865
      3.28961      7.34723     17.54559         1.481685      0.990370     -0.115838
      7.41765      7.48823      2.08608        -0.024630      2.330750     -2.593884
      7.47532      7.37292     11.14515        -0.167253     -0.265849      0.427105
      6.42889     10.13797      6.35595        -0.107380     -0.263091      0.327822
      6.42889     10.13797     15.93436         1.297214     -1.241861      0.322558
      7.47532      7.37292      4.78920        -0.172523     -0.105040      1.180819
      7.47532      7.37292     14.36761        -0.220846     -0.149127     -0.268197
      5.39780     10.64857      0.65084        -0.379999     -2.142997     -4.105619
      6.42889     10.13797      9.57841        -0.119144     -0.216784     -0.388953
      5.38246     10.11228      3.17797         0.516773     -0.022806      1.477236
      5.38246     10.11228     12.75638        -0.099438      0.552026     -0.088663
      6.42889      7.34723      7.96718        -0.161442      0.535647     -0.045627
      6.42889      7.34723     17.54559         1.481535      0.990043     -0.115530
 -----------------------------------------------------------------------------------
    total drift:                               -0.000862      0.092578      0.091722


--------------------------------------------------------------------------------------------------------



  FREE ENERGIE OF THE ION-ELECTRON SYSTEM (eV)
  ---------------------------------------------------
  free  energy   TOTEN  =      -477.81322239 eV

  energy  without entropy=     -476.52977935  energy(sigma->0) =     -477.17150087
 


--------------------------------------------------------------------------------------------------------


    POTLOK:  cpu time    0.4017: real time    0.4018


--------------------------------------------------------------------------------------------------------


     LOOP+:  cpu time  530.9483: real time  531.1015
    4ORBIT:  cpu time    0.0000: real time    0.0000

 total amount of memory used by VASP MPI-rank0    76705. kBytes
=======================================================================

   base      :      30000. kBytes
   nonlr-proj:       3245. kBytes
   fftplans  :       8997. kBytes
   grid      :      15269. kBytes
   one-center:        124. kBytes
   wavefun   :      19070. kBytes
 
  
  
 General timing and accounting informations for this job:
 ========================================================
  
                  Total CPU time used (sec):      534.501
                            User time (sec):      533.945
                          System time (sec):        0.556
                         Elapsed time (sec):      534.898
  
                   Maximum memory used (kb):      214064.
                   Average memory used (kb):           0.
  
                          Minor page faults:       160383
                          Major page faults:            0
                 Voluntary context switches:          207
