"Millerite NiS"                         
           1
     6.278560    0.000000    0.000000
     2.092853   11.060196    0.000000
     0.000000    0.000000   29.156820
   Ty   Ty
  48  48
Direct configuration=     1
   0.25630944  0.01645859  0.15239349
   0.25630944  0.01645859  0.48090702
   0.00630944  0.26645858  0.31665025
   0.01049590  0.26854366  0.63844039
   0.29655095  0.01440631  0.06964256
   0.25630944  0.01645859  0.39411177
   0.00630944  0.26645858  0.22985501
   0.00630944  0.26645858  0.55836854
   0.19025794  0.21461308  0.10899586
   0.19025794  0.21461308  0.43750940
   0.44025794  0.46461308  0.27325263
   0.44025794  0.46461308  0.60176617
   0.75630944  0.01645859  0.15239349
   0.75630944  0.01645859  0.48090702
   0.50630944  0.26645858  0.31665025
   0.51049590  0.26854366  0.63844039
   0.75630944  0.01645859  0.06559824
   0.75630944  0.01645859  0.39411177
   0.50630944  0.26645858  0.22985501
   0.50630944  0.26645858  0.55836854
   0.69025794  0.21461308  0.10899586
   0.69025794  0.21461308  0.43750940
   0.94025794  0.46461308  0.27325263
   0.94025794  0.46461308  0.60176617
   0.25630944  0.51645859  0.15239349
   0.25630944  0.51645859  0.48090702
   0.00630944  0.76645858  0.31665025
   0.09251169  0.60304625  0.64280718
   0.21922344  0.52844682  0.07034195
   0.25630944  0.51645859  0.39411177
   0.00630944  0.76645858  0.22985501
   0.00630944  0.76645858  0.55836854
   0.20123166  0.72004080  0.11637881
   0.19025794  0.71461308  0.43750940
   0.44025794  0.96461308  0.27325263
   0.44089553  0.04706557  0.55003733
   0.75630944  0.51645859  0.15239349
   0.75630944  0.51645859  0.48090702
   0.50630944  0.76645858  0.31665025
   0.59251169  0.60304625  0.64280718
   0.79607556  0.52462928  0.07123496
   0.75630944  0.51645859  0.39411177
   0.50630944  0.76645858  0.22985501
   0.50630944  0.76645858  0.55836854
   0.68493543  0.71923577  0.11596667
   0.69025794  0.71461308  0.43750940
   0.94025794  0.96461308  0.27325263
   0.94089553  0.04706557  0.55003733
   0.46409747  0.16095645  0.06681744
   0.46840410  0.16661759  0.38224849
   0.21840410  0.41661758  0.21799173
   0.21840410  0.41661758  0.54650526
   0.46840410  0.16661759  0.16425677
   0.46840410  0.16661759  0.49277030
   0.02058223  0.47877543  0.02085743
   0.21840410  0.41661758  0.32851354
   0.20863677  0.40571235  0.64723107
   0.05251161  0.41429508  0.10899586
   0.05251161  0.41429508  0.43750940
   0.30251160  0.16429509  0.27325263
   0.30251160  0.16429509  0.60176617
   0.97416312  0.13751531  0.06888800
   0.96840410  0.16661759  0.38224849
   0.71840410  0.41661758  0.21799173
   0.71840410  0.41661758  0.54650526
   0.96840410  0.16661759  0.16425677
   0.96840410  0.16661759  0.49277030
   0.46923528  0.63786093  0.07232042
   0.71840410  0.41661758  0.32851354
   0.70863677  0.40571235  0.64723107
   0.55251161  0.41429508  0.10899586
   0.55251161  0.41429508  0.43750940
   0.80251160  0.16429509  0.27325263
   0.80251160  0.16429509  0.60176617
   0.46840411  0.66661759  0.38224849
   0.21840411  0.91661758  0.21799173
   0.21840411  0.91661758  0.54650526
   0.46840411  0.66661759  0.16425677
   0.46840411  0.66661759  0.49277030
   0.21840411  0.91661758  0.32851354
   0.05251161  0.91429508  0.10899586
   0.05251161  0.91429508  0.43750940
   0.30251161  0.66429509  0.27325263
   0.30251161  0.66429509  0.60176617
   0.95574392  0.67704300  0.07154678
   0.96840411  0.66661759  0.38224849
   0.71840411  0.91661758  0.21799173
   0.71840411  0.91661758  0.54650526
   0.96840411  0.66661759  0.16425677
   0.96840411  0.66661759  0.49277030
   0.53879136  0.96278287  0.02232212
   0.71840411  0.91661758  0.32851354
   0.55251161  0.91429508  0.10899586
   0.55251161  0.91429508  0.43750940
   0.80251161  0.66429509  0.27325263
   0.80251161  0.66429509  0.60176617
