
74 atoms
2 atom types
   0.0000000000   16.8846940542 xlo xhi
   0.0000000000    9.5784100000 ylo yhi
   0.0000000000   16.6546456851 zlo zhi
   0.0000000000    0.0000000000    0.0000000000 xy xz yz

Atoms # atomic

     1      1   13.1708432080    1.3917138259    2.0563623765
     2      1   13.7545125861    1.3917138259    5.1409059329
     3      1    4.4366614835    6.1809188259    0.5140905900
     4      1    5.0203308784    6.1809188259    3.5986341464
     5      1    7.3480553917    1.3917138259    1.0281811799
     6      1    7.9317247697    1.3917138259    4.1127247530
     7      1   16.0822371162    6.1809188259    2.5704529665
     8      1   16.6659064942    6.1809188259    5.6549965229
     9      1    1.5252675922    1.3917138259    0.0000000000
    10      1    2.1089369702    1.3917138259    3.0845435564
    11      1    2.6926063482    1.3917138259    6.1690871128
    12      1   10.8431186779    6.1809188259    4.6268153429
    13      1   15.3242574679    0.1263771297    1.6488849187
    14      1   15.9079268459    0.1263771297    4.7334284751
    15      1    6.5900757602    4.9155821297    0.1066131322
    16      1    7.1737451382    4.9155821297    3.1911566886
    17      1    7.7574145162    4.9155821297    6.2757002616
    18      1    9.5014696515    0.1263771297    0.6207037221
    19      1   10.0851390464    0.1263771297    3.7052472952
    20      1    1.3509573218    4.9155821297    2.1629755087
    21      1    1.9346266999    4.9155821297    5.2475190651
    22      1    4.2623512300    0.1263771297    2.6770660986
    23      1    4.8460206080    0.1263771297    5.7616096550
    24      1   12.4128635597    4.9155821297    1.1347943287
    25      1   12.9965329377    4.9155821297    4.2193378851
    26      1   15.9079268459    2.6570505221    4.7334284751
    27      1    6.5900757602    7.4462555221    0.1066131322
    28      1    7.1737451382    7.4462555221    3.1911566886
    29      1    7.7574145162    7.4462555221    6.2757002616
    30      1    9.5014696515    2.6570505221    0.6207037221
    31      1   10.0851390464    2.6570505221    3.7052472952
    32      1    1.3509573218    7.4462555221    2.1629755087
    33      1    1.9346266999    7.4462555221    5.2475190651
    34      1    4.2623512300    2.6570505221    2.6770660986
    35      1    4.8460206080    2.6570505221    5.7616096550
    36      1   12.4128635597    7.4462555221    1.1347943287
    37      1   12.9965329377    7.4462555221    4.2193378851
    38      2    0.4394944200    1.3917138259    6.1405550900
    39      2   16.7405190961    1.3917138259    3.0560115336
    40      2    8.0063373716    6.1809188259    1.5137397470
    41      2    8.5900067496    6.1809188259    4.5982833201
    42      2   10.9177312798    1.3917138259    2.0278303370
    43      2   11.5014006578    1.3917138259    5.1123739101
    44      2    2.1835495552    6.1809188259    0.4855585671
    45      2    2.7672189501    6.1809188259    3.5701021235
    46      2    3.3508883282    6.1809188259    6.6546456799
    47      2    5.0949434634    1.3917138259    0.9996491571
    48      2    5.6786128414    1.3917138259    4.0841927135
    49      2   13.8291251880    6.1809188259    2.5419209436
    50      2   14.4127945660    6.1809188259    5.6264645000
    51      2   13.4147728541    3.0029460640    0.4903344700
    52      2   13.9984422322    3.0029460640    3.5748780264
    53      2    5.2642605076    7.7921510640    2.0326062399
    54      2    5.8479298856    7.7921510640    5.1171498129
    55      2    8.1756544158    3.0029460640    2.5466968465
    56      2    8.7593237938    3.0029460640    5.6312404029
    57      2    0.0251420861    7.7921510640    4.0889686163
    58      2   16.3261667454    7.7921510640    1.0044250599
    59      2    2.3528665994    3.0029460640    1.5185156499
    60      2    2.9365359774    3.0029460640    4.6030592063
    61      2   11.0870483240    7.7921510640    3.0607874364
    62      2   11.6707177020    7.7921510640    6.1453309928
    63      2    5.2642605076    4.5696865877    2.0326062399
    64      2    5.8479298856    4.5696865877    5.1171498129
    65      2   13.4147728541    9.3588915877    0.4903344700
    66      2   13.9984422322    9.3588915877    3.5748780264
    67      2    0.0251420861    4.5696865877    4.0889686163
    68      2   16.3261667454    4.5696865877    1.0044250599
    69      2    8.1756544158    9.3588915877    2.5466968465
    70      2    8.7593237938    9.3588915877    5.6312404029
    71      2   11.0870483240    4.5696865877    3.0607874364
    72      2   11.6707177020    4.5696865877    6.1453309928
    73      2    2.3528665994    9.3588915877    1.5185156499
    74      2    2.9365359774    9.3588915877    4.6030592063
