  74  74   0   0
  0.3639907E+02  0.1688469E-08  0.9578410E-09  0.1665465E-08  0.5000000E-15
  1.000000000000000E-004
  CAR 
 "Millerite NiS"                         
      9.22699544    -68.66542122  301     -0.16564647      1.00000000
    -68.665  0.0000E+00  0.0000E+00
    -68.406  0.0000E+00  0.0000E+00
    -68.146  0.0000E+00  0.0000E+00
    -67.886  0.0000E+00  0.0000E+00
    -67.627  0.0000E+00  0.0000E+00
    -67.367  0.0000E+00  0.0000E+00
    -67.108  0.0000E+00  0.0000E+00
    -66.848  0.0000E+00  0.0000E+00
    -66.588  0.0000E+00  0.0000E+00
    -66.329  0.0000E+00  0.0000E+00
    -66.069  0.1090E-09  0.2831E-10
    -65.809  0.6263E-05  0.1626E-05
    -65.550  0.1476E-01  0.3834E-02
    -65.290  0.1815E+01  0.4751E+00
    -65.030  0.2466E+02  0.6877E+01
    -64.771  0.1033E+03  0.3370E+02
    -64.511  0.1873E+03  0.8233E+02
    -64.252  0.2083E+03  0.1364E+03
    -63.992  0.1536E+03  0.1763E+03
    -63.732  0.7718E+02  0.1963E+03
    -63.473  0.5519E+02  0.2107E+03
    -63.213  0.3510E+02  0.2198E+03
    -62.953  0.8266E+01  0.2219E+03
    -62.694  0.2826E+00  0.2220E+03
    -62.434  0.6566E-03  0.2220E+03
    -62.174  0.7217E-07  0.2220E+03
    -61.915  0.3181E-12  0.2220E+03
    -61.655  0.0000E+00  0.2220E+03
    -61.395  0.0000E+00  0.2220E+03
    -61.136  0.0000E+00  0.2220E+03
    -60.876  0.0000E+00  0.2220E+03
    -60.617  0.0000E+00  0.2220E+03
    -60.357  0.0000E+00  0.2220E+03
    -60.097  0.0000E+00  0.2220E+03
    -59.838  0.0000E+00  0.2220E+03
    -59.578  0.0000E+00  0.2220E+03
    -59.318  0.0000E+00  0.2220E+03
    -59.059  0.0000E+00  0.2220E+03
    -58.799  0.0000E+00  0.2220E+03
    -58.539  0.0000E+00  0.2220E+03
    -58.280  0.0000E+00  0.2220E+03
    -58.020  0.0000E+00  0.2220E+03
    -57.760  0.0000E+00  0.2220E+03
    -57.501  0.0000E+00  0.2220E+03
    -57.241  0.0000E+00  0.2220E+03
    -56.982  0.0000E+00  0.2220E+03
    -56.722  0.0000E+00  0.2220E+03
    -56.462  0.0000E+00  0.2220E+03
    -56.203  0.0000E+00  0.2220E+03
    -55.943  0.0000E+00  0.2220E+03
    -55.683  0.0000E+00  0.2220E+03
    -55.424  0.0000E+00  0.2220E+03
    -55.164  0.0000E+00  0.2220E+03
    -54.904  0.0000E+00  0.2220E+03
    -54.645  0.0000E+00  0.2220E+03
    -54.385  0.0000E+00  0.2220E+03
    -54.126  0.0000E+00  0.2220E+03
    -53.866  0.0000E+00  0.2220E+03
    -53.606  0.0000E+00  0.2220E+03
    -53.347  0.0000E+00  0.2220E+03
    -53.087  0.0000E+00  0.2220E+03
    -52.827  0.0000E+00  0.2220E+03
    -52.568  0.0000E+00  0.2220E+03
    -52.308  0.0000E+00  0.2220E+03
    -52.048  0.0000E+00  0.2220E+03
    -51.789  0.0000E+00  0.2220E+03
    -51.529  0.0000E+00  0.2220E+03
    -51.269  0.0000E+00  0.2220E+03
    -51.010  0.0000E+00  0.2220E+03
    -50.750  0.0000E+00  0.2220E+03
    -50.491  0.0000E+00  0.2220E+03
    -50.231  0.0000E+00  0.2220E+03
    -49.971  0.0000E+00  0.2220E+03
    -49.712  0.0000E+00  0.2220E+03
    -49.452  0.0000E+00  0.2220E+03
    -49.192  0.0000E+00  0.2220E+03
    -48.933  0.0000E+00  0.2220E+03
    -48.673  0.0000E+00  0.2220E+03
    -48.413  0.0000E+00  0.2220E+03
    -48.154  0.0000E+00  0.2220E+03
    -47.894  0.0000E+00  0.2220E+03
    -47.634  0.0000E+00  0.2220E+03
    -47.375  0.0000E+00  0.2220E+03
    -47.115  0.0000E+00  0.2220E+03
    -46.856  0.0000E+00  0.2220E+03
    -46.596  0.0000E+00  0.2220E+03
    -46.336  0.0000E+00  0.2220E+03
    -46.077  0.0000E+00  0.2220E+03
    -45.817  0.0000E+00  0.2220E+03
    -45.557  0.0000E+00  0.2220E+03
    -45.298  0.0000E+00  0.2220E+03
    -45.038  0.0000E+00  0.2220E+03
    -44.778  0.0000E+00  0.2220E+03
    -44.519  0.0000E+00  0.2220E+03
    -44.259  0.0000E+00  0.2220E+03
    -43.999  0.0000E+00  0.2220E+03
    -43.740  0.0000E+00  0.2220E+03
    -43.480  0.0000E+00  0.2220E+03
    -43.221  0.0000E+00  0.2220E+03
    -42.961  0.0000E+00  0.2220E+03
    -42.701  0.0000E+00  0.2220E+03
    -42.442  0.0000E+00  0.2220E+03
    -42.182  0.0000E+00  0.2220E+03
    -41.922  0.0000E+00  0.2220E+03
    -41.663  0.0000E+00  0.2220E+03
    -41.403  0.0000E+00  0.2220E+03
    -41.143  0.0000E+00  0.2220E+03
    -40.884  0.0000E+00  0.2220E+03
    -40.624  0.0000E+00  0.2220E+03
    -40.365  0.0000E+00  0.2220E+03
    -40.105  0.0000E+00  0.2220E+03
    -39.845  0.0000E+00  0.2220E+03
    -39.586  0.0000E+00  0.2220E+03
    -39.326  0.0000E+00  0.2220E+03
    -39.066  0.0000E+00  0.2220E+03
    -38.807  0.0000E+00  0.2220E+03
    -38.547  0.0000E+00  0.2220E+03
    -38.287  0.0000E+00  0.2220E+03
    -38.028  0.0000E+00  0.2220E+03
    -37.768  0.0000E+00  0.2220E+03
    -37.508  0.0000E+00  0.2220E+03
    -37.249  0.0000E+00  0.2220E+03
    -36.989  0.0000E+00  0.2220E+03
    -36.730  0.0000E+00  0.2220E+03
    -36.470  0.0000E+00  0.2220E+03
    -36.210  0.0000E+00  0.2220E+03
    -35.951  0.0000E+00  0.2220E+03
    -35.691  0.0000E+00  0.2220E+03
    -35.431  0.0000E+00  0.2220E+03
    -35.172  0.0000E+00  0.2220E+03
    -34.912  0.0000E+00  0.2220E+03
    -34.652  0.0000E+00  0.2220E+03
    -34.393  0.0000E+00  0.2220E+03
    -34.133  0.0000E+00  0.2220E+03
    -33.873  0.0000E+00  0.2220E+03
    -33.614  0.0000E+00  0.2220E+03
    -33.354  0.0000E+00  0.2220E+03
    -33.095  0.0000E+00  0.2220E+03
    -32.835  0.0000E+00  0.2220E+03
    -32.575  0.0000E+00  0.2220E+03
    -32.316  0.0000E+00  0.2220E+03
    -32.056  0.0000E+00  0.2220E+03
    -31.796  0.0000E+00  0.2220E+03
    -31.537  0.0000E+00  0.2220E+03
    -31.277  0.0000E+00  0.2220E+03
    -31.017  0.0000E+00  0.2220E+03
    -30.758  0.0000E+00  0.2220E+03
    -30.498  0.0000E+00  0.2220E+03
    -30.238  0.0000E+00  0.2220E+03
    -29.979  0.0000E+00  0.2220E+03
    -29.719  0.0000E+00  0.2220E+03
    -29.460  0.0000E+00  0.2220E+03
    -29.200  0.0000E+00  0.2220E+03
    -28.940  0.0000E+00  0.2220E+03
    -28.681  0.0000E+00  0.2220E+03
    -28.421  0.0000E+00  0.2220E+03
    -28.161  0.0000E+00  0.2220E+03
    -27.902  0.0000E+00  0.2220E+03
    -27.642  0.0000E+00  0.2220E+03
    -27.382  0.0000E+00  0.2220E+03
    -27.123  0.0000E+00  0.2220E+03
    -26.863  0.0000E+00  0.2220E+03
    -26.604  0.0000E+00  0.2220E+03
    -26.344  0.0000E+00  0.2220E+03
    -26.084  0.0000E+00  0.2220E+03
    -25.825  0.0000E+00  0.2220E+03
    -25.565  0.0000E+00  0.2220E+03
    -25.305  0.0000E+00  0.2220E+03
    -25.046  0.0000E+00  0.2220E+03
    -24.786  0.0000E+00  0.2220E+03
    -24.526  0.0000E+00  0.2220E+03
    -24.267  0.0000E+00  0.2220E+03
    -24.007  0.0000E+00  0.2220E+03
    -23.747  0.0000E+00  0.2220E+03
    -23.488  0.0000E+00  0.2220E+03
    -23.228  0.0000E+00  0.2220E+03
    -22.969  0.0000E+00  0.2220E+03
    -22.709  0.0000E+00  0.2220E+03
    -22.449  0.0000E+00  0.2220E+03
    -22.190  0.0000E+00  0.2220E+03
    -21.930  0.0000E+00  0.2220E+03
    -21.670  0.0000E+00  0.2220E+03
    -21.411  0.0000E+00  0.2220E+03
    -21.151  0.0000E+00  0.2220E+03
    -20.891  0.0000E+00  0.2220E+03
    -20.632  0.0000E+00  0.2220E+03
    -20.372  0.0000E+00  0.2220E+03
    -20.112  0.0000E+00  0.2220E+03
    -19.853  0.0000E+00  0.2220E+03
    -19.593  0.0000E+00  0.2220E+03
    -19.334  0.0000E+00  0.2220E+03
    -19.074  0.0000E+00  0.2220E+03
    -18.814  0.0000E+00  0.2220E+03
    -18.555  0.0000E+00  0.2220E+03
    -18.295  0.0000E+00  0.2220E+03
    -18.035  0.0000E+00  0.2220E+03
    -17.776  0.0000E+00  0.2220E+03
    -17.516  0.1026E-13  0.2220E+03
    -17.256  0.4950E-08  0.2220E+03
    -16.997  0.8869E-04  0.2220E+03
    -16.737  0.6357E-01  0.2220E+03
    -16.478  0.2202E+01  0.2226E+03
    -16.218  0.7225E+01  0.2245E+03
    -15.958  0.1016E+02  0.2271E+03
    -15.699  0.6667E+01  0.2288E+03
    -15.439  0.1488E+02  0.2327E+03
    -15.179  0.1689E+02  0.2371E+03
    -14.920  0.2553E+02  0.2437E+03
    -14.660  0.2704E+02  0.2507E+03
    -14.400  0.3273E+02  0.2592E+03
    -14.141  0.3000E+02  0.2670E+03
    -13.881  0.2965E+02  0.2747E+03
    -13.621  0.2507E+02  0.2812E+03
    -13.362  0.1966E+02  0.2863E+03
    -13.102  0.1526E+02  0.2903E+03
    -12.843  0.1417E+02  0.2940E+03
    -12.583  0.7024E+01  0.2958E+03
    -12.323  0.7905E+00  0.2960E+03
    -12.064  0.6902E-02  0.2960E+03
    -11.804  0.2721E-05  0.2960E+03
    -11.544  0.4154E-10  0.2960E+03
    -11.285  0.0000E+00  0.2960E+03
    -11.025  0.0000E+00  0.2960E+03
    -10.765  0.0000E+00  0.2960E+03
    -10.506  0.0000E+00  0.2960E+03
    -10.246  0.0000E+00  0.2960E+03
     -9.986  0.0000E+00  0.2960E+03
     -9.727  0.0000E+00  0.2960E+03
     -9.467  0.0000E+00  0.2960E+03
     -9.208  0.9621E-13  0.2960E+03
     -8.948  0.2788E-07  0.2960E+03
     -8.688  0.3058E-03  0.2960E+03
     -8.429  0.1427E+00  0.2960E+03
     -8.169  0.3890E+01  0.2970E+03
     -7.909  0.1340E+02  0.3005E+03
     -7.650  0.2501E+02  0.3070E+03
     -7.390  0.3780E+02  0.3168E+03
     -7.130  0.4344E+02  0.3281E+03
     -6.871  0.3480E+02  0.3371E+03
     -6.611  0.4505E+02  0.3488E+03
     -6.351  0.5082E+02  0.3620E+03
     -6.092  0.5325E+02  0.3759E+03
     -5.832  0.5635E+02  0.3905E+03
     -5.573  0.5516E+02  0.4048E+03
     -5.313  0.5737E+02  0.4197E+03
     -5.053  0.6151E+02  0.4357E+03
     -4.794  0.7160E+02  0.4543E+03
     -4.534  0.5772E+02  0.4693E+03
     -4.274  0.5034E+02  0.4823E+03
     -4.015  0.4203E+02  0.4932E+03
     -3.755  0.4332E+02  0.5045E+03
     -3.495  0.5198E+02  0.5180E+03
     -3.236  0.5672E+02  0.5327E+03
     -2.976  0.7501E+02  0.5522E+03
     -2.717  0.9252E+02  0.5762E+03
     -2.457  0.1200E+03  0.6074E+03
     -2.197  0.1331E+03  0.6419E+03
     -1.938  0.1232E+03  0.6739E+03
     -1.678  0.1067E+03  0.7016E+03
     -1.418  0.9466E+02  0.7262E+03
     -1.159  0.9188E+02  0.7501E+03
     -0.899  0.6406E+02  0.7667E+03
     -0.639  0.6662E+02  0.7840E+03
     -0.380  0.6646E+02  0.8012E+03
     -0.120  0.6037E+02  0.8169E+03
      0.140  0.6201E+02  0.8330E+03
      0.399  0.4308E+02  0.8442E+03
      0.659  0.3111E+02  0.8523E+03
      0.918  0.3748E+02  0.8620E+03
      1.178  0.4462E+02  0.8736E+03
      1.438  0.3230E+02  0.8820E+03
      1.697  0.1859E+02  0.8868E+03
      1.957  0.1053E+02  0.8895E+03
      2.217  0.3475E+01  0.8904E+03
      2.476  0.9534E+01  0.8929E+03
      2.736  0.1322E+02  0.8963E+03
      2.996  0.1132E+02  0.8993E+03
      3.255  0.8272E+01  0.9014E+03
      3.515  0.2098E+02  0.9069E+03
      3.775  0.1549E+02  0.9109E+03
      4.034  0.1289E+02  0.9142E+03
      4.294  0.2158E+02  0.9199E+03
      4.553  0.2799E+02  0.9271E+03
      4.813  0.3303E+02  0.9357E+03
      5.073  0.3567E+02  0.9450E+03
      5.332  0.3963E+02  0.9552E+03
      5.592  0.4883E+02  0.9679E+03
      5.852  0.2842E+02  0.9753E+03
      6.111  0.2658E+01  0.9760E+03
      6.371  0.1939E-01  0.9760E+03
      6.631  0.7406E-05  0.9760E+03
      6.890  0.1213E-09  0.9760E+03
      7.150  0.0000E+00  0.9760E+03
      7.410  0.0000E+00  0.9760E+03
      7.669  0.0000E+00  0.9760E+03
      7.929  0.0000E+00  0.9760E+03
      8.188  0.0000E+00  0.9760E+03
      8.448  0.0000E+00  0.9760E+03
      8.708  0.0000E+00  0.9760E+03
      8.967  0.0000E+00  0.9760E+03
      9.227  0.0000E+00  0.9760E+03
