<?xml version="1.0" encoding="ISO-8859-1"?>
<modeling>
 <generator>
  <i name="program" type="string">vasp </i>
  <i name="version" type="string">5.4.4.18Apr17-6-g9f103f2a35  </i>
  <i name="subversion" type="string">(build Aug 13 2019 17:33:20) gamma-only         parallel </i>
  <i name="platform" type="string">LinuxIFC </i>
  <i name="date" type="string">2020 05 12 </i>
  <i name="time" type="string">19:12:28 </i>
 </generator>
 <incar>
  <i type="string" name="SYSTEM">"Millerite NiS"</i>
  <i type="string" name="PREC">normal</i>
  <i type="int" name="NSIM">     4</i>
  <i type="int" name="NELM">   100</i>
  <i name="ENCUT">    450.00000000</i>
  <i type="string" name="LREAL">A</i>
  <i type="int" name="ISMEAR">     0</i>
  <i type="int" name="NWRITE">     2</i>
  <i type="logical" name="LWAVE"> F  </i>
  <i type="logical" name="LCHARG"> F  </i>
  <v type="int" name="KPOINT_BSE">    -1     0     0     0</v>
  <i type="int" name="NELM">   100</i>
 </incar>
 <structure name="primitive_cell" >
  <crystal>
   <varray name="basis" >
    <v>      10.07973298       0.00000000       0.00000000 </v>
    <v>       3.57329804       9.42510255       0.00000000 </v>
    <v>       0.00000000       0.00000000      20.68350356 </v>
   </varray>
   <i name="volume">   1964.98490008 </i>
   <varray name="rec_basis" >
    <v>       0.09920898      -0.03761267       0.00000000 </v>
    <v>       0.00000000       0.10609964       0.00000000 </v>
    <v>       0.00000000       0.00000000       0.04834771 </v>
   </varray>
  </crystal>
  <varray name="positions" >
   <v>       0.29990560      -0.01100256       0.05735891 </v>
   <v>       0.14902674       0.18625082       0.04404901 </v>
   <v>       0.45944419       0.07480546       0.04892900 </v>
   <v>       0.30255546       0.02257655       0.15955891 </v>
   <v>       0.19090323      -0.14871004       0.09038596 </v>
   <v>       0.47365127      -0.21064968       0.03429996 </v>
   <v>       0.39705889      -0.20504821       0.12693702 </v>
   <v>       0.29861738       0.22672664       0.10217432 </v>
   <v>      -0.41715362      -0.11668551       0.09481756 </v>
   <v>       0.07411322       0.18702479       0.13571184 </v>
   <v>      -0.08040204       0.07529739       0.11763965 </v>
   <v>      -0.41589469      -0.40218233       0.08134062 </v>
   <v>       0.44888589       0.07645812       0.22911134 </v>
   <v>       0.01537355      -0.15669620       0.14448666 </v>
   <v>      -0.36627721       0.02474255       0.16034507 </v>
   <v>      -0.36364587      -0.30812545       0.15995199 </v>
   <v>       0.22438173       0.03675628       0.26264887 </v>
   <v>       0.18377004       0.45015468       0.07967573 </v>
   <v>       0.35047896      -0.35868028       0.20265741 </v>
   <v>       0.35311030       0.30845171       0.20226433 </v>
   <v>       0.11381506       0.41152895       0.16924937 </v>
   <v>       0.06986647      -0.07497112       0.24457667 </v>
   <v>      -0.23050310      -0.00150031       0.08360338 </v>
   <v>      -0.07736304       0.40583200       0.13054437 </v>
   <v>       0.06723514       0.25789688       0.24496976 </v>
   <v>       0.45282398      -0.12769196       0.28649593 </v>
   <v>      -0.20913061      -0.19639804       0.17802418 </v>
   <v>       0.34471303       0.47403762       0.13451603 </v>
   <v>      -0.45267260      -0.35531672       0.25387405 </v>
   <v>      -0.13095688      -0.21057777       0.07493423 </v>
   <v>       0.26408357       0.26126044       0.29618639 </v>
   <v>      -0.16942877       0.02810611       0.21156171 </v>
   <v>      -0.41420071       0.40599939       0.11724657 </v>
   <v>      -0.28697863       0.21540488       0.14596451 </v>
   <v>       0.16564206      -0.30696471       0.27142369 </v>
   <v>      -0.02790957      -0.40881617       0.10579139 </v>
   <v>       0.01931164      -0.36084629       0.20187125 </v>
   <v>      -0.26787028       0.45988096       0.18679900 </v>
   <v>      -0.49237444       0.42017912       0.22033653 </v>
   <v>      -0.49662119       0.15818320       0.32920136 </v>
   <v>      -0.26393219       0.25573088       0.24418359 </v>
   <v>       0.21750365       0.10762837       0.37190678 </v>
   <v>      -0.21600869      -0.12552596       0.28728210 </v>
   <v>      -0.40084560      -0.07381039       0.35604837 </v>
   <v>      -0.11760177       0.30961245       0.31373603 </v>
   <v>      -0.01916025      -0.12216240       0.33849873 </v>
   <v>       0.37465025      -0.11351223       0.38958589 </v>
   <v>       0.22013498      -0.22523964       0.37151370 </v>
   <v>      -0.21337736      -0.45839396       0.28688902 </v>
   <v>       0.15747781      -0.49543872       0.31096724 </v>
   <v>      -0.49925252       0.49105120       0.32959444 </v>
   <v>      -0.11366368       0.10546236       0.37112062 </v>
   <v>      -0.05886210      -0.34666656       0.30496121 </v>
   <v>       0.41435209       0.11099193       0.42312341 </v>
   <v>       0.31183715       0.32914317       0.39692605 </v>
   <v>      -0.34210593       0.26991061       0.34727355 </v>
   <v>       0.29348226      -0.45269618       0.37990710 </v>
   <v>      -0.39690751      -0.27796048       0.41343296 </v>
   <v>       0.02661785       0.16104829       0.42570381 </v>
   <v>      -0.07887720       0.38277310       0.40220112 </v>
   <v>      -0.30240408       0.49441476       0.38081107 </v>
   <v>      -0.03427134      -0.28048698       0.40059306 </v>
   <v>      -0.36476185       0.01280229       0.44425093 </v>
   <v>       0.10209329      -0.20198001       0.45332566 </v>
   <v>       0.39351982      -0.06069136       0.48166790 </v>
   <v>       0.42613597      -0.27828214       0.47127420 </v>
   <v>      -0.23619604      -0.19833015       0.43582212 </v>
   <v>      -0.00781133       0.00670904       0.48465877 </v>
   <v>       0.28318144      -0.37694658       0.47485429 </v>
   <v>      -0.21891151       0.11921698       0.45634332 </v>
   <v>      -0.35460244       0.33793815       0.44151869 </v>
   <v>      -0.17362994       0.33896234       0.48038644 </v>
  </varray>
 </structure>
 <varray name="primitive_index" >
  <v type="int" >        1 </v>
  <v type="int" >       41 </v>
  <v type="int" >       69 </v>
  <v type="int" >       42 </v>
  <v type="int" >       61 </v>
  <v type="int" >       49 </v>
  <v type="int" >        2 </v>
  <v type="int" >       29 </v>
  <v type="int" >       22 </v>
  <v type="int" >       18 </v>
  <v type="int" >       60 </v>
  <v type="int" >       26 </v>
  <v type="int" >       30 </v>
  <v type="int" >       33 </v>
  <v type="int" >       70 </v>
  <v type="int" >       50 </v>
  <v type="int" >       19 </v>
  <v type="int" >       53 </v>
  <v type="int" >       62 </v>
  <v type="int" >       54 </v>
  <v type="int" >        6 </v>
  <v type="int" >       57 </v>
  <v type="int" >       36 </v>
  <v type="int" >       68 </v>
  <v type="int" >       65 </v>
  <v type="int" >       43 </v>
  <v type="int" >       23 </v>
  <v type="int" >       14 </v>
  <v type="int" >        3 </v>
  <v type="int" >       48 </v>
  <v type="int" >        7 </v>
  <v type="int" >       12 </v>
  <v type="int" >       38 </v>
  <v type="int" >       11 </v>
  <v type="int" >       34 </v>
  <v type="int" >        9 </v>
  <v type="int" >       45 </v>
  <v type="int" >       27 </v>
  <v type="int" >       15 </v>
  <v type="int" >       55 </v>
  <v type="int" >       39 </v>
  <v type="int" >       66 </v>
  <v type="int" >       71 </v>
  <v type="int" >       31 </v>
  <v type="int" >       28 </v>
  <v type="int" >       13 </v>
  <v type="int" >       20 </v>
  <v type="int" >       58 </v>
  <v type="int" >       51 </v>
  <v type="int" >       46 </v>
  <v type="int" >       63 </v>
  <v type="int" >       40 </v>
  <v type="int" >       24 </v>
  <v type="int" >        8 </v>
  <v type="int" >       47 </v>
  <v type="int" >       16 </v>
  <v type="int" >       35 </v>
  <v type="int" >       44 </v>
  <v type="int" >       25 </v>
  <v type="int" >       52 </v>
  <v type="int" >        4 </v>
  <v type="int" >       72 </v>
  <v type="int" >       56 </v>
  <v type="int" >       10 </v>
  <v type="int" >       67 </v>
  <v type="int" >       21 </v>
  <v type="int" >       32 </v>
  <v type="int" >       37 </v>
  <v type="int" >       59 </v>
  <v type="int" >       17 </v>
  <v type="int" >       64 </v>
  <v type="int" >        5 </v>
 </varray>
 <kpoints>
  <generation param="Gamma">
   <v type="int" name="divisions">       1        1        1 </v>
   <v name="usershift">      0.00000000       0.00000000       0.00000000 </v>
   <v name="genvec1">      1.00000000      -0.00000000       0.00000000 </v>
   <v name="genvec2">      0.00000000       1.00000000       0.00000000 </v>
   <v name="genvec3">      0.00000000       0.00000000       1.00000000 </v>
   <v name="shift">      0.00000000       0.00000000       0.00000000 </v>
  </generation>
  <varray name="kpointlist" >
   <v>       0.00000000       0.00000000       0.00000000 </v>
  </varray>
  <varray name="weights" >
   <v>       1.00000000 </v>
  </varray>
 </kpoints>
 <parameters>
  <separator name="general" >
   <i type="string" name="SYSTEM">"Millerite NiS"</i>
   <i type="logical" name="LCOMPAT"> F  </i>
  </separator>
  <separator name="electronic" >
   <i type="string" name="PREC">normal</i>
   <i name="ENMAX">    450.00000000</i>
   <i name="ENAUG">    703.44300000</i>
   <i name="EDIFF">      0.00010000</i>
   <i type="int" name="IALGO">    38</i>
   <i type="int" name="IWAVPR">    10</i>
   <i type="int" name="NBANDS">   476</i>
   <i name="NELECT">    792.00000000</i>
   <i type="int" name="TURBO">     0</i>
   <i type="int" name="IRESTART">     0</i>
   <i type="int" name="NREBOOT">     0</i>
   <i type="int" name="NMIN">     0</i>
   <i name="EREF">      0.00000000</i>
   <separator name="electronic smearing" >
    <i type="int" name="ISMEAR">     0</i>
    <i name="SIGMA">      0.20000000</i>
    <i name="KSPACING">      0.50000000</i>
    <i type="logical" name="KGAMMA"> T  </i>
   </separator>
   <separator name="electronic projectors" >
    <i type="logical" name="LREAL"> T  </i>
    <v name="ROPT">     -0.00050000     -0.00050000</v>
    <i type="int" name="LMAXPAW">  -100</i>
    <i type="int" name="LMAXMIX">     2</i>
    <i type="logical" name="NLSPLINE"> F  </i>
   </separator>
   <separator name="electronic startup" >
    <i type="int" name="ISTART">     0</i>
    <i type="int" name="ICHARG">     2</i>
    <i type="int" name="INIWAV">     1</i>
   </separator>
   <separator name="electronic spin" >
    <i type="int" name="ISPIN">     1</i>
    <i type="logical" name="LNONCOLLINEAR"> F  </i>
    <v name="MAGMOM">      1.00000000      1.00000000      1.00000000      1.00000000      1.00000000      1.00000000      1.00000000      1.00000000      1.00000000      1.00000000      1.00000000      1.00000000      1.00000000      1.00000000      1.00000000      1.00000000      1.00000000      1.00000000      1.00000000      1.00000000
      1.00000000      1.00000000      1.00000000      1.00000000      1.00000000      1.00000000      1.00000000      1.00000000      1.00000000      1.00000000      1.00000000      1.00000000      1.00000000      1.00000000      1.00000000      1.00000000      1.00000000      1.00000000      1.00000000      1.00000000
      1.00000000      1.00000000      1.00000000      1.00000000      1.00000000      1.00000000      1.00000000      1.00000000      1.00000000      1.00000000      1.00000000      1.00000000      1.00000000      1.00000000      1.00000000      1.00000000      1.00000000      1.00000000      1.00000000      1.00000000
      1.00000000      1.00000000      1.00000000      1.00000000      1.00000000      1.00000000      1.00000000      1.00000000      1.00000000      1.00000000      1.00000000      1.00000000</v>
    <i name="NUPDOWN">     -1.00000000</i>
    <i type="logical" name="LSORBIT"> F  </i>
    <v name="SAXIS">      0.00000000      0.00000000      1.00000000</v>
    <i type="logical" name="LSPIRAL"> F  </i>
    <v name="QSPIRAL">      0.00000000      0.00000000      0.00000000</v>
    <i type="logical" name="LZEROZ"> F  </i>
   </separator>
   <separator name="electronic exchange-correlation" >
    <i type="logical" name="LASPH"> F  </i>
    <i type="logical" name="LMETAGGA"> F  </i>
   </separator>
   <separator name="electronic convergence" >
    <i type="int" name="NELM">   100</i>
    <i type="int" name="NELMDL">    -5</i>
    <i type="int" name="NELMIN">     2</i>
    <i name="ENINI">    450.00000000</i>
    <separator name="electronic convergence detail" >
     <i type="logical" name="LDIAG"> T  </i>
     <i type="logical" name="LSUBROT"> F  </i>
     <i name="WEIMIN">      0.00000000</i>
     <i name="EBREAK">      0.00000005</i>
     <i name="DEPER">      0.30000000</i>
     <i type="int" name="NRMM">     4</i>
     <i name="TIME">      0.40000000</i>
    </separator>
   </separator>
   <separator name="electronic mixer" >
    <i name="AMIX">      0.40000000</i>
    <i name="BMIX">      1.00000000</i>
    <i name="AMIN">      0.10000000</i>
    <i name="AMIX_MAG">      1.60000000</i>
    <i name="BMIX_MAG">      1.00000000</i>
    <separator name="electronic mixer details" >
     <i type="int" name="IMIX">     4</i>
     <i type="logical" name="MIXFIRST"> F  </i>
     <i type="int" name="MAXMIX">   -45</i>
     <i name="WC">    100.00000000</i>
     <i type="int" name="INIMIX">     1</i>
     <i type="int" name="MIXPRE">     1</i>
     <i type="int" name="MREMOVE">     5</i>
    </separator>
   </separator>
   <separator name="electronic dipolcorrection" >
    <i type="logical" name="LDIPOL"> F  </i>
    <i type="logical" name="LMONO"> F  </i>
    <i type="int" name="IDIPOL">     0</i>
    <i name="EPSILON">      1.00000000</i>
    <v name="DIPOL">   -100.00000000   -100.00000000   -100.00000000</v>
    <i name="EFIELD">      0.00000000</i>
   </separator>
  </separator>
  <separator name="grids" >
   <i type="int" name="NGX">    54</i>
   <i type="int" name="NGY">    54</i>
   <i type="int" name="NGZ">   108</i>
   <i type="int" name="NGXF">   108</i>
   <i type="int" name="NGYF">   108</i>
   <i type="int" name="NGZF">   216</i>
   <i type="logical" name="ADDGRID"> F  </i>
  </separator>
  <separator name="ionic" >
   <i type="int" name="NSW">     0</i>
   <i type="int" name="IBRION">    -1</i>
   <i type="int" name="MDALGO">     0</i>
   <i type="int" name="ISIF">     2</i>
   <i name="PSTRESS">      0.00000000</i>
   <i name="EDIFFG">      0.00100000</i>
   <i type="int" name="NFREE">     0</i>
   <i name="POTIM">      0.50000000</i>
   <i name="SMASS">     -3.00000000</i>
   <i name="SCALEE">      1.00000000</i>
  </separator>
  <separator name="ionic md" >
   <i name="TEBEG">      0.00010000</i>
   <i name="TEEND">      0.00010000</i>
   <i type="int" name="NBLOCK">     1</i>
   <i type="int" name="KBLOCK">     1</i>
   <i type="int" name="NPACO">   256</i>
   <i name="APACO">     16.00000000</i>
  </separator>
  <separator name="symmetry" >
   <i type="int" name="ISYM">     2</i>
   <i name="SYMPREC">      0.00001000</i>
  </separator>
  <separator name="dos" >
   <i type="int" name="LORBIT">     0</i>
   <v name="RWIGS">     -1.00000000     -1.00000000</v>
   <i type="int" name="NEDOS">   301</i>
   <i name="EMIN">     10.00000000</i>
   <i name="EMAX">    -10.00000000</i>
   <i name="EFERMI">      0.00000000</i>
  </separator>
  <separator name="writing" >
   <i type="int" name="NWRITE">     2</i>
   <i type="logical" name="LWAVE"> F  </i>
   <i type="logical" name="LDOWNSAMPLE"> F  </i>
   <i type="logical" name="LCHARG"> F  </i>
   <i type="logical" name="LPARD"> F  </i>
   <i type="logical" name="LVTOT"> F  </i>
   <i type="logical" name="LVHAR"> F  </i>
   <i type="logical" name="LELF"> F  </i>
   <i type="logical" name="LOPTICS"> F  </i>
   <v name="STM">      0.00000000      0.00000000      0.00000000      0.00000000      0.00000000      0.00000000      0.00000000</v>
  </separator>
  <separator name="performance" >
   <i type="int" name="NPAR">     2</i>
   <i type="int" name="NSIM">     4</i>
   <i type="int" name="NBLK">    -1</i>
   <i type="logical" name="LPLANE"> T  </i>
   <i type="logical" name="LSCALAPACK"> T  </i>
   <i type="logical" name="LSCAAWARE"> F  </i>
   <i type="logical" name="LSCALU"> F  </i>
   <i type="logical" name="LASYNC"> F  </i>
   <i type="logical" name="LORBITALREAL"> F  </i>
  </separator>
  <separator name="miscellaneous" >
   <i type="int" name="IDIOT">     3</i>
   <i type="int" name="ISPECIAL">     0</i>
   <i type="logical" name="LMUSIC"> F  </i>
   <v name="POMASS">     58.69000000     32.06600000</v>
   <v name="DARWINR">      0.00000000      0.00000000</v>
   <v name="DARWINV">      1.00000000      1.00000000</v>
   <i type="logical" name="LCORR"> T  </i>
  </separator>
  <i type="logical" name="GGA_COMPAT"> T  </i>
  <i type="logical" name="LBERRY"> F  </i>
  <i type="int" name="ICORELEVEL">     0</i>
  <i type="logical" name="LDAU"> F  </i>
  <i type="int" name="I_CONSTRAINED_M">     0</i>
  <separator name="electronic exchange-correlation" >
   <i type="string" name="GGA">--</i>
   <i type="int" name="VOSKOWN">     0</i>
   <i type="logical" name="LHFCALC"> F  </i>
   <i type="string" name="PRECFOCK"></i>
   <i type="logical" name="LSYMGRAD"> F  </i>
   <i type="logical" name="LHFONE"> F  </i>
   <i type="logical" name="LRHFCALC"> F  </i>
   <i type="logical" name="LTHOMAS"> F  </i>
   <i type="logical" name="LMODELHF"> F  </i>
   <i name="ENCUT4O">     -1.00000000</i>
   <i type="int" name="EXXOEP">     0</i>
   <i type="int" name="FOURORBIT">     0</i>
   <i name="AEXX">      0.00000000</i>
   <i name="HFALPHA">      0.00000000</i>
   <i name="MCALPHA">      0.00000000</i>
   <i name="ALDAX">      1.00000000</i>
   <i name="AGGAX">      1.00000000</i>
   <i name="ALDAC">      1.00000000</i>
   <i name="AGGAC">      1.00000000</i>
   <i type="int" name="NKREDX">     1</i>
   <i type="int" name="NKREDY">     1</i>
   <i type="int" name="NKREDZ">     1</i>
   <i type="logical" name="SHIFTRED"> F  </i>
   <i type="logical" name="ODDONLY"> F  </i>
   <i type="logical" name="EVENONLY"> F  </i>
   <i type="int" name="LMAXFOCK">     0</i>
   <i type="int" name="NMAXFOCKAE">     0</i>
   <i type="logical" name="LFOCKAEDFT"> F  </i>
   <i name="HFSCREEN">      0.00000000</i>
   <i name="HFSCREENC">      0.00000000</i>
   <i type="int" name="NBANDSGWLOW">     0</i>
  </separator>
  <separator name="vdW DFT" >
   <i type="logical" name="LUSE_VDW"> F  </i>
   <i name="Zab_VDW">     -0.84910000</i>
   <i name="PARAM1">      0.12340000</i>
   <i name="PARAM2">      1.00000000</i>
   <i name="PARAM3">      0.00000000</i>
  </separator>
  <separator name="model GW" >
   <i type="int" name="MODEL_GW">     0</i>
   <i name="MODEL_EPS0">     16.37487417</i>
   <i name="MODEL_ALPHA">      1.00000000</i>
  </separator>
  <separator name="linear response parameters" >
   <i type="logical" name="LEPSILON"> F  </i>
   <i type="logical" name="LRPA"> F  </i>
   <i type="logical" name="LNABLA"> F  </i>
   <i type="logical" name="LVEL"> F  </i>
   <i type="int" name="KINTER">     0</i>
   <i name="CSHIFT">      0.10000000</i>
   <i name="OMEGAMAX">     -1.00000000</i>
   <i name="DEG_THRESHOLD">      0.00200000</i>
   <i name="RTIME">     -0.10000000</i>
   <i name="WPLASMAI">      0.00000000</i>
   <v name="DFIELD">      0.00000000      0.00000000      0.00000000</v>
   <v name="WPLASMA">      0.00000000      0.00000000      0.00000000      0.00000000      0.00000000      0.00000000      0.00000000      0.00000000      0.00000000</v>
  </separator>
  <separator name="orbital magnetization" >
   <i type="logical" name="NUCIND"> F  </i>
   <v name="MAGPOS">      0.00000000      0.00000000      0.00000000</v>
   <i type="logical" name="LNICSALL"> T  </i>
   <i type="logical" name="ORBITALMAG"> F  </i>
   <i type="logical" name="LMAGBLOCH"> F  </i>
   <i type="logical" name="LCHIMAG"> F  </i>
   <i type="logical" name="LGAUGE"> T  </i>
   <i type="int" name="MAGATOM">     0</i>
   <v name="MAGDIPOL">      0.00000000      0.00000000      0.00000000</v>
   <v name="AVECCONST">      0.00000000      0.00000000      0.00000000</v>
  </separator>
  <separator name="response functions" >
   <i type="logical" name="LADDER"> F  </i>
   <i type="logical" name="LRPAFORCE"> F  </i>
   <i type="logical" name="LFXC"> F  </i>
   <i type="logical" name="LHARTREE"> T  </i>
   <i type="int" name="IBSE">     0</i>
   <v type="int" name="KPOINT">    -1     0     0     0</v>
   <i type="logical" name="LTCTE"> F  </i>
   <i type="logical" name="LTETE"> F  </i>
   <i type="logical" name="LTRIPLET"> F  </i>
   <i type="logical" name="LFXCEPS"> F  </i>
   <i type="logical" name="LFXHEG"> F  </i>
   <i type="int" name="NATURALO">     2</i>
   <i type="logical" name="L2ORDER"> F  </i>
   <i type="logical" name="LMP2LT"> F  </i>
   <i type="logical" name="LUSEW"> F  </i>
   <i name="ENCUTGW">     -2.00000000</i>
   <i name="ENCUTGWSOFT">     -2.00000000</i>
   <i name="ENCUTLF">     -1.00000000</i>
   <i type="int" name="LMAXMP2">    -1</i>
   <i name="SCISSOR">      0.00000000</i>
   <i type="int" name="NOMEGA">     0</i>
   <i type="int" name="NOMEGAR">     0</i>
   <i type="int" name="NBANDSGW">    -1</i>
   <i type="int" name="NBANDSO">    -1</i>
   <i type="int" name="NBANDSV">    -1</i>
   <i type="int" name="NELM">   100</i>
   <i type="int" name="NELMHF">     1</i>
   <i type="int" name="DIM">     3</i>
   <i type="int" name="ANTIRES">     0</i>
   <i name="OMEGAMAX">    -30.00000000</i>
   <i name="OMEGAMIN">    -30.00000000</i>
   <i name="OMEGATL">   -200.00000000</i>
   <i type="int" name="OMEGAGRID">   140</i>
   <i name="CSHIFT">     -0.10000000</i>
   <i type="logical" name="SELFENERGY"> F  </i>
   <i type="logical" name="LSPECTRAL"> F  </i>
   <i type="logical" name="LSPECTRALGW"> F  </i>
   <i type="logical" name="LSINGLES"> F  </i>
   <i type="logical" name="LFERMIGW"> F  </i>
   <i type="logical" name="ODDONLYGW"> F  </i>
   <i type="logical" name="EVENONLYGW"> F  </i>
   <i type="int" name="NKREDLFX">     1</i>
   <i type="int" name="NKREDLFY">     1</i>
   <i type="int" name="NKREDLFZ">     1</i>
   <i type="int" name="MAXMEM">  2800</i>
   <i type="int" name="TELESCOPE">     0</i>
   <i type="int" name="TAUPAR">     1</i>
   <i type="int" name="OMEGAPAR">    -1</i>
   <i name="LAMBDA">      1.00000000</i>
  </separator>
  <separator name="External order field" >
   <i name="OFIELD_KAPPA">      0.00000000</i>
   <v name="OFIELD_K">      0.00000000      0.00000000      0.00000000</v>
   <i name="OFIELD_Q6_NEAR">      0.00000000</i>
   <i name="OFIELD_Q6_FAR">      0.00000000</i>
   <i name="OFIELD_A">      0.00000000</i>
  </separator>
 </parameters>
 <atominfo>
  <atoms>      72 </atoms>
  <types>       2 </types>
  <array name="atoms" >
   <dimension dim="1">ion</dimension>
   <field type="string">element</field>
   <field type="int">atomtype</field>
   <set>
    <rc><c>Ni</c><c>   1</c></rc>
    <rc><c>Ni</c><c>   1</c></rc>
    <rc><c>Ni</c><c>   1</c></rc>
    <rc><c>Ni</c><c>   1</c></rc>
    <rc><c>Ni</c><c>   1</c></rc>
    <rc><c>Ni</c><c>   1</c></rc>
    <rc><c>Ni</c><c>   1</c></rc>
    <rc><c>Ni</c><c>   1</c></rc>
    <rc><c>Ni</c><c>   1</c></rc>
    <rc><c>Ni</c><c>   1</c></rc>
    <rc><c>Ni</c><c>   1</c></rc>
    <rc><c>Ni</c><c>   1</c></rc>
    <rc><c>Ni</c><c>   1</c></rc>
    <rc><c>Ni</c><c>   1</c></rc>
    <rc><c>Ni</c><c>   1</c></rc>
    <rc><c>Ni</c><c>   1</c></rc>
    <rc><c>Ni</c><c>   1</c></rc>
    <rc><c>Ni</c><c>   1</c></rc>
    <rc><c>Ni</c><c>   1</c></rc>
    <rc><c>Ni</c><c>   1</c></rc>
    <rc><c>Ni</c><c>   1</c></rc>
    <rc><c>Ni</c><c>   1</c></rc>
    <rc><c>Ni</c><c>   1</c></rc>
    <rc><c>Ni</c><c>   1</c></rc>
    <rc><c>Ni</c><c>   1</c></rc>
    <rc><c>Ni</c><c>   1</c></rc>
    <rc><c>Ni</c><c>   1</c></rc>
    <rc><c>Ni</c><c>   1</c></rc>
    <rc><c>Ni</c><c>   1</c></rc>
    <rc><c>Ni</c><c>   1</c></rc>
    <rc><c>Ni</c><c>   1</c></rc>
    <rc><c>Ni</c><c>   1</c></rc>
    <rc><c>Ni</c><c>   1</c></rc>
    <rc><c>Ni</c><c>   1</c></rc>
    <rc><c>Ni</c><c>   1</c></rc>
    <rc><c>Ni</c><c>   1</c></rc>
    <rc><c>S </c><c>   2</c></rc>
    <rc><c>S </c><c>   2</c></rc>
    <rc><c>S </c><c>   2</c></rc>
    <rc><c>S </c><c>   2</c></rc>
    <rc><c>S </c><c>   2</c></rc>
    <rc><c>S </c><c>   2</c></rc>
    <rc><c>S </c><c>   2</c></rc>
    <rc><c>S </c><c>   2</c></rc>
    <rc><c>S </c><c>   2</c></rc>
    <rc><c>S </c><c>   2</c></rc>
    <rc><c>S </c><c>   2</c></rc>
    <rc><c>S </c><c>   2</c></rc>
    <rc><c>S </c><c>   2</c></rc>
    <rc><c>S </c><c>   2</c></rc>
    <rc><c>S </c><c>   2</c></rc>
    <rc><c>S </c><c>   2</c></rc>
    <rc><c>S </c><c>   2</c></rc>
    <rc><c>S </c><c>   2</c></rc>
    <rc><c>S </c><c>   2</c></rc>
    <rc><c>S </c><c>   2</c></rc>
    <rc><c>S </c><c>   2</c></rc>
    <rc><c>S </c><c>   2</c></rc>
    <rc><c>S </c><c>   2</c></rc>
    <rc><c>S </c><c>   2</c></rc>
    <rc><c>S </c><c>   2</c></rc>
    <rc><c>S </c><c>   2</c></rc>
    <rc><c>S </c><c>   2</c></rc>
    <rc><c>S </c><c>   2</c></rc>
    <rc><c>S </c><c>   2</c></rc>
    <rc><c>S </c><c>   2</c></rc>
    <rc><c>S </c><c>   2</c></rc>
    <rc><c>S </c><c>   2</c></rc>
    <rc><c>S </c><c>   2</c></rc>
    <rc><c>S </c><c>   2</c></rc>
    <rc><c>S </c><c>   2</c></rc>
    <rc><c>S </c><c>   2</c></rc>
   </set>
  </array>
  <array name="atomtypes" >
   <dimension dim="1">type</dimension>
   <field type="int">atomspertype</field>
   <field type="string">element</field>
   <field>mass</field>
   <field>valence</field>
   <field type="string">pseudopotential</field>
   <set>
    <rc><c>  36</c><c>Ni</c><c>     58.69000000</c><c>     16.00000000</c><c>  PAW_PBE Ni_pv 06Sep2000               </c></rc>
    <rc><c>  36</c><c>S </c><c>     32.06600000</c><c>      6.00000000</c><c>  PAW_PBE S 06Sep2000                   </c></rc>
   </set>
  </array>
 </atominfo>
 <structure name="initialpos" >
  <crystal>
   <varray name="basis" >
    <v>      10.07973298       0.00000000       0.00000000 </v>
    <v>       3.57329804       9.42510255       0.00000000 </v>
    <v>       0.00000000       0.00000000      20.68350356 </v>
   </varray>
   <i name="volume">   1964.98490008 </i>
   <varray name="rec_basis" >
    <v>       0.09920898      -0.03761267       0.00000000 </v>
    <v>       0.00000000       0.10609964       0.00000000 </v>
    <v>       0.00000000       0.00000000       0.04834771 </v>
   </varray>
  </crystal>
  <varray name="positions" >
   <v>       0.29990560       0.98899744       0.05735891 </v>
   <v>       0.39705889       0.79495179       0.12693702 </v>
   <v>       0.54732740       0.64468328       0.25387405 </v>
   <v>       0.69759592       0.49441476       0.38081107 </v>
   <v>       0.82637006       0.33896234       0.48038644 </v>
   <v>       0.11381506       0.41152895       0.16924937 </v>
   <v>       0.26408357       0.26126044       0.29618639 </v>
   <v>       0.41435209       0.11099193       0.42312341 </v>
   <v>       0.97209043       0.59118383       0.10579139 </v>
   <v>       0.10209329       0.79801999       0.45332566 </v>
   <v>       0.71302137       0.21540488       0.14596451 </v>
   <v>       0.83057123       0.02810611       0.21156171 </v>
   <v>       0.98083975       0.87783760       0.33849873 </v>
   <v>       0.34471303       0.47403762       0.13451603 </v>
   <v>       0.50762556       0.42017912       0.22033653 </v>
   <v>       0.65789407       0.26991061       0.34727355 </v>
   <v>       0.78108849       0.11921698       0.45634332 </v>
   <v>       0.07411322       0.18702479       0.13571184 </v>
   <v>       0.22438173       0.03675628       0.26264887 </v>
   <v>       0.37465025       0.88648777       0.38958589 </v>
   <v>       0.42613597       0.72171786       0.47127420 </v>
   <v>       0.58284638       0.88331449       0.09481756 </v>
   <v>       0.79086939       0.80360196       0.17802418 </v>
   <v>       0.94113790       0.65333344       0.30496121 </v>
   <v>       0.02661785       0.16104829       0.42570381 </v>
   <v>       0.58410531       0.59781767       0.08134062 </v>
   <v>       0.73212972       0.45988096       0.18679900 </v>
   <v>       0.88239823       0.30961245       0.31373603 </v>
   <v>       0.29861738       0.22672664       0.10217432 </v>
   <v>       0.44888589       0.07645812       0.22911134 </v>
   <v>       0.59915440       0.92618961       0.35604837 </v>
   <v>       0.76380396       0.80166985       0.43582212 </v>
   <v>       0.01537355       0.84330380       0.14448666 </v>
   <v>       0.16564206       0.69303529       0.27142369 </v>
   <v>       0.29348226       0.54730382       0.37990710 </v>
   <v>       0.76949690       0.99849969       0.08360338 </v>
   <v>       0.99218867       0.00670904       0.48465877 </v>
   <v>       0.58579929       0.40599939       0.11724657 </v>
   <v>       0.73606781       0.25573088       0.24418359 </v>
   <v>       0.88633632       0.10546236       0.37112062 </v>
   <v>       0.14902674       0.18625082       0.04404901 </v>
   <v>       0.30255546       0.02257655       0.15955891 </v>
   <v>       0.45282398       0.87230804       0.28649593 </v>
   <v>       0.60309249       0.72203952       0.41343296 </v>
   <v>       0.01931164       0.63915371       0.20187125 </v>
   <v>       0.15747781       0.50456128       0.31096724 </v>
   <v>       0.31183715       0.32914317       0.39692605 </v>
   <v>       0.86904312       0.78942223       0.07493423 </v>
   <v>       0.47365127       0.78935032       0.03429996 </v>
   <v>       0.63635413       0.69187455       0.15995199 </v>
   <v>       0.78662264       0.54160604       0.28688901 </v>
   <v>       0.92112280       0.38277310       0.40220112 </v>
   <v>       0.18377004       0.45015468       0.07967573 </v>
   <v>       0.35311030       0.30845171       0.20226433 </v>
   <v>       0.50337881       0.15818320       0.32920136 </v>
   <v>       0.63523815       0.01280229       0.44425093 </v>
   <v>       0.06986647       0.92502888       0.24457667 </v>
   <v>       0.22013498       0.77476036       0.37151370 </v>
   <v>       0.28318144       0.62305342       0.47485429 </v>
   <v>       0.91959796       0.07529739       0.11763965 </v>
   <v>       0.19090323       0.85128996       0.09038596 </v>
   <v>       0.35047896       0.64131972       0.20265741 </v>
   <v>       0.50074748       0.49105120       0.32959444 </v>
   <v>       0.64539756       0.33793815       0.44151869 </v>
   <v>       0.06723514       0.25789688       0.24496976 </v>
   <v>       0.21750365       0.10762837       0.37190678 </v>
   <v>       0.39351982       0.93930864       0.48166790 </v>
   <v>       0.92263696       0.40583200       0.13054437 </v>
   <v>       0.45944419       0.07480546       0.04892900 </v>
   <v>       0.63372279       0.02474255       0.16034507 </v>
   <v>       0.78399131       0.87447404       0.28728210 </v>
   <v>       0.96572866       0.71951302       0.40059306 </v>
  </varray>
 </structure>
 <calculation>
  <scstep>
   <time name="dav">    6.75    6.75</time>
   <time name="total">    7.02    7.02</time>
   <energy>
    <i name="alphaZ">   1893.09323658 </i>
    <i name="ewald"> 225841.85675245 </i>
    <i name="hartreedc">-348015.87255064 </i>
    <i name="XCdc">   3682.43340548 </i>
    <i name="pawpsdc"> 112729.53333415 </i>
    <i name="pawaedc">-117641.51188735 </i>
    <i name="eentropy">     -0.35605166 </i>
    <i name="bandstr">  -4564.75084003 </i>
    <i name="atom"> 136002.60505376 </i>
    <i name="e_fr_energy">   9927.03045275 </i>
    <i name="e_wo_entrp">   9927.38650440 </i>
    <i name="e_0_energy">   9927.20847857 </i>
   </energy>
  </scstep>
  <scstep>
   <time name="dav">    6.18    6.19</time>
   <time name="total">    6.19    6.19</time>
   <energy>
    <i name="e_fr_energy">    604.19489098 </i>
    <i name="e_wo_entrp">    604.86870270 </i>
    <i name="e_0_energy">    604.53179684 </i>
   </energy>
  </scstep>
  <scstep>
   <time name="dav">    6.45    6.46</time>
   <time name="total">    6.46    6.46</time>
   <energy>
    <i name="e_fr_energy">   -338.43940694 </i>
    <i name="e_wo_entrp">   -337.44661594 </i>
    <i name="e_0_energy">   -337.94301144 </i>
   </energy>
  </scstep>
  <scstep>
   <time name="dav">    6.67    6.67</time>
   <time name="total">    6.67    6.67</time>
   <energy>
    <i name="e_fr_energy">   -395.55157568 </i>
    <i name="e_wo_entrp">   -394.53182132 </i>
    <i name="e_0_energy">   -395.04169850 </i>
   </energy>
  </scstep>
  <scstep>
   <time name="dav">    7.21    7.21</time>
   <time name="total">    7.44    7.44</time>
   <energy>
    <i name="e_fr_energy">   -397.64697043 </i>
    <i name="e_wo_entrp">   -396.62636945 </i>
    <i name="e_0_energy">   -397.13666994 </i>
   </energy>
  </scstep>
  <scstep>
   <time name="dav">    7.03    7.03</time>
   <time name="total">    7.52    7.52</time>
   <energy>
    <i name="e_fr_energy">   -461.05618636 </i>
    <i name="e_wo_entrp">   -460.15413524 </i>
    <i name="e_0_energy">   -460.60516080 </i>
   </energy>
  </scstep>
  <scstep>
   <time name="dav">    6.40    6.40</time>
   <time name="total">    7.12    7.12</time>
   <energy>
    <i name="e_fr_energy">   -370.68159253 </i>
    <i name="e_wo_entrp">   -369.99364231 </i>
    <i name="e_0_energy">   -370.33761742 </i>
   </energy>
  </scstep>
  <scstep>
   <time name="dav">    7.26    7.26</time>
   <time name="total">    7.74    7.74</time>
   <energy>
    <i name="e_fr_energy">   -491.38577704 </i>
    <i name="e_wo_entrp">   -490.76641325 </i>
    <i name="e_0_energy">   -491.07609514 </i>
   </energy>
  </scstep>
  <scstep>
   <time name="dav">    7.23    7.23</time>
   <time name="total">    7.71    7.71</time>
   <energy>
    <i name="e_fr_energy">   -390.57414416 </i>
    <i name="e_wo_entrp">   -389.60582300 </i>
    <i name="e_0_energy">   -390.08998358 </i>
   </energy>
  </scstep>
  <scstep>
   <time name="dav">    7.81    7.81</time>
   <time name="total">    8.31    8.31</time>
   <energy>
    <i name="e_fr_energy">   -381.66752143 </i>
    <i name="e_wo_entrp">   -380.62299568 </i>
    <i name="e_0_energy">   -381.14525856 </i>
   </energy>
  </scstep>
  <scstep>
   <time name="dav">    7.24    7.24</time>
   <time name="total">    7.72    7.72</time>
   <energy>
    <i name="e_fr_energy">   -375.85021087 </i>
    <i name="e_wo_entrp">   -374.83132109 </i>
    <i name="e_0_energy">   -375.34076598 </i>
   </energy>
  </scstep>
  <scstep>
   <time name="dav">    7.73    7.73</time>
   <time name="total">    8.21    8.21</time>
   <energy>
    <i name="e_fr_energy">   -362.27873800 </i>
    <i name="e_wo_entrp">   -361.41186964 </i>
    <i name="e_0_energy">   -361.84530382 </i>
   </energy>
  </scstep>
  <scstep>
   <time name="dav">    7.53    7.53</time>
   <time name="total">    8.01    8.01</time>
   <energy>
    <i name="e_fr_energy">   -358.71652672 </i>
    <i name="e_wo_entrp">   -357.84860310 </i>
    <i name="e_0_energy">   -358.28256491 </i>
   </energy>
  </scstep>
  <scstep>
   <time name="dav">    7.76    7.76</time>
   <time name="total">    8.25    8.25</time>
   <energy>
    <i name="e_fr_energy">   -353.01792425 </i>
    <i name="e_wo_entrp">   -352.22352925 </i>
    <i name="e_0_energy">   -352.62072675 </i>
   </energy>
  </scstep>
  <scstep>
   <time name="dav">    7.43    7.43</time>
   <time name="total">    7.91    7.91</time>
   <energy>
    <i name="e_fr_energy">   -351.25004863 </i>
    <i name="e_wo_entrp">   -350.42490285 </i>
    <i name="e_0_energy">   -350.83747574 </i>
   </energy>
  </scstep>
  <scstep>
   <time name="dav">    7.41    7.41</time>
   <time name="total">    7.90    7.90</time>
   <energy>
    <i name="e_fr_energy">   -351.02308069 </i>
    <i name="e_wo_entrp">   -350.20393356 </i>
    <i name="e_0_energy">   -350.61350713 </i>
   </energy>
  </scstep>
  <scstep>
   <time name="dav">    6.65    6.65</time>
   <time name="total">    7.14    7.14</time>
   <energy>
    <i name="e_fr_energy">   -350.95772504 </i>
    <i name="e_wo_entrp">   -350.11639335 </i>
    <i name="e_0_energy">   -350.53705919 </i>
   </energy>
  </scstep>
  <scstep>
   <time name="dav">    7.74    7.74</time>
   <time name="total">    8.29    8.29</time>
   <energy>
    <i name="e_fr_energy">   -350.46755181 </i>
    <i name="e_wo_entrp">   -349.61878604 </i>
    <i name="e_0_energy">   -350.04316892 </i>
   </energy>
  </scstep>
  <scstep>
   <time name="dav">    7.29    7.29</time>
   <time name="total">    7.78    7.78</time>
   <energy>
    <i name="e_fr_energy">   -349.98465431 </i>
    <i name="e_wo_entrp">   -349.13226218 </i>
    <i name="e_0_energy">   -349.55845825 </i>
   </energy>
  </scstep>
  <scstep>
   <time name="dav">    7.74    7.74</time>
   <time name="total">    8.45    8.45</time>
   <energy>
    <i name="e_fr_energy">   -349.52709379 </i>
    <i name="e_wo_entrp">   -348.63103593 </i>
    <i name="e_0_energy">   -349.07906486 </i>
   </energy>
  </scstep>
  <scstep>
   <time name="dav">    7.27    7.27</time>
   <time name="total">    7.76    7.76</time>
   <energy>
    <i name="e_fr_energy">   -349.44926224 </i>
    <i name="e_wo_entrp">   -348.52968802 </i>
    <i name="e_0_energy">   -348.98947513 </i>
   </energy>
  </scstep>
  <scstep>
   <time name="dav">    6.44    6.44</time>
   <time name="total">    6.93    6.93</time>
   <energy>
    <i name="e_fr_energy">   -349.44246300 </i>
    <i name="e_wo_entrp">   -348.52729052 </i>
    <i name="e_0_energy">   -348.98487676 </i>
   </energy>
  </scstep>
  <scstep>
   <time name="dav">    6.45    6.45</time>
   <time name="total">    7.07    7.07</time>
   <energy>
    <i name="e_fr_energy">   -349.42525712 </i>
    <i name="e_wo_entrp">   -348.51229567 </i>
    <i name="e_0_energy">   -348.96877639 </i>
   </energy>
  </scstep>
  <scstep>
   <time name="dav">    7.30    7.30</time>
   <time name="total">    7.81    7.81</time>
   <energy>
    <i name="e_fr_energy">   -349.40936939 </i>
    <i name="e_wo_entrp">   -348.50131821 </i>
    <i name="e_0_energy">   -348.95534380 </i>
   </energy>
  </scstep>
  <scstep>
   <time name="dav">    7.30    7.30</time>
   <time name="total">    7.80    7.80</time>
   <energy>
    <i name="e_fr_energy">   -349.40387421 </i>
    <i name="e_wo_entrp">   -348.49371028 </i>
    <i name="e_0_energy">   -348.94879225 </i>
   </energy>
  </scstep>
  <scstep>
   <time name="dav">    7.48    7.48</time>
   <time name="total">    8.09    8.10</time>
   <energy>
    <i name="e_fr_energy">   -349.39892383 </i>
    <i name="e_wo_entrp">   -348.48762010 </i>
    <i name="e_0_energy">   -348.94327197 </i>
   </energy>
  </scstep>
  <scstep>
   <time name="dav">    7.10    7.10</time>
   <time name="total">    7.60    7.60</time>
   <energy>
    <i name="e_fr_energy">   -349.38154877 </i>
    <i name="e_wo_entrp">   -348.46985970 </i>
    <i name="e_0_energy">   -348.92570424 </i>
   </energy>
  </scstep>
  <scstep>
   <time name="dav">    7.62    7.62</time>
   <time name="total">    8.12    8.12</time>
   <energy>
    <i name="e_fr_energy">   -349.37886589 </i>
    <i name="e_wo_entrp">   -348.47550195 </i>
    <i name="e_0_energy">   -348.92718392 </i>
   </energy>
  </scstep>
  <scstep>
   <time name="dav">    7.36    7.36</time>
   <time name="total">    7.86    7.86</time>
   <energy>
    <i name="e_fr_energy">   -349.37562134 </i>
    <i name="e_wo_entrp">   -348.47079719 </i>
    <i name="e_0_energy">   -348.92320926 </i>
   </energy>
  </scstep>
  <scstep>
   <time name="dav">    7.68    7.68</time>
   <time name="total">    8.18    8.18</time>
   <energy>
    <i name="e_fr_energy">   -349.37566161 </i>
    <i name="e_wo_entrp">   -348.47303997 </i>
    <i name="e_0_energy">   -348.92435079 </i>
   </energy>
  </scstep>
  <scstep>
   <time name="dav">    7.09    7.09</time>
   <time name="total">    7.60    7.60</time>
   <energy>
    <i name="e_fr_energy">   -349.37379730 </i>
    <i name="e_wo_entrp">   -348.47083129 </i>
    <i name="e_0_energy">   -348.92231430 </i>
   </energy>
  </scstep>
  <scstep>
   <time name="dav">    7.58    7.58</time>
   <time name="total">    8.09    8.09</time>
   <energy>
    <i name="e_fr_energy">   -349.37377856 </i>
    <i name="e_wo_entrp">   -348.46994265 </i>
    <i name="e_0_energy">   -348.92186061 </i>
   </energy>
  </scstep>
  <scstep>
   <time name="dav">    6.80    6.80</time>
   <time name="total">    7.31    7.31</time>
   <energy>
    <i name="e_fr_energy">   -349.37364128 </i>
    <i name="e_wo_entrp">   -348.47205255 </i>
    <i name="e_0_energy">   -348.92284691 </i>
   </energy>
  </scstep>
  <scstep>
   <time name="dav">    6.18    6.18</time>
   <time name="total">    6.68    6.68</time>
   <energy>
    <i name="e_fr_energy">   -349.37388061 </i>
    <i name="e_wo_entrp">   -348.47207175 </i>
    <i name="e_0_energy">   -348.92297618 </i>
   </energy>
  </scstep>
  <scstep>
   <time name="dav">    5.32    5.32</time>
   <time name="total">    5.59    5.59</time>
   <energy>
    <i name="alphaZ">   1893.09323658 </i>
    <i name="ewald"> 225841.85675245 </i>
    <i name="hartreedc">-347335.76522872 </i>
    <i name="XCdc">   3652.68999838 </i>
    <i name="pawpsdc"> 139403.04685224 </i>
    <i name="pawaedc">-144389.63859301 </i>
    <i name="eentropy">     -0.90225035 </i>
    <i name="bandstr"> -15416.35972141 </i>
    <i name="atom"> 136002.60505376 </i>
    <i name="e_fr_energy">   -349.37390008 </i>
    <i name="e_wo_entrp">   -348.47164973 </i>
    <i name="e_0_energy">   -348.92277491 </i>
   </energy>
  </scstep>
  <structure>
   <crystal>
    <varray name="basis" >
     <v>      10.07973298       0.00000000       0.00000000 </v>
     <v>       3.57329804       9.42510255       0.00000000 </v>
     <v>       0.00000000       0.00000000      20.68350356 </v>
    </varray>
    <i name="volume">   1964.98490008 </i>
    <varray name="rec_basis" >
     <v>       0.09920898      -0.03761267       0.00000000 </v>
     <v>       0.00000000       0.10609964       0.00000000 </v>
     <v>       0.00000000       0.00000000       0.04834771 </v>
    </varray>
   </crystal>
   <varray name="positions" >
    <v>       0.29990560       0.98899744       0.05735891 </v>
    <v>       0.39705889       0.79495179       0.12693702 </v>
    <v>       0.54732740       0.64468328       0.25387405 </v>
    <v>       0.69759592       0.49441476       0.38081107 </v>
    <v>       0.82637006       0.33896234       0.48038644 </v>
    <v>       0.11381506       0.41152895       0.16924937 </v>
    <v>       0.26408357       0.26126044       0.29618639 </v>
    <v>       0.41435209       0.11099193       0.42312341 </v>
    <v>       0.97209043       0.59118383       0.10579139 </v>
    <v>       0.10209329       0.79801999       0.45332566 </v>
    <v>       0.71302137       0.21540488       0.14596451 </v>
    <v>       0.83057123       0.02810611       0.21156171 </v>
    <v>       0.98083975       0.87783760       0.33849873 </v>
    <v>       0.34471303       0.47403762       0.13451603 </v>
    <v>       0.50762556       0.42017912       0.22033653 </v>
    <v>       0.65789407       0.26991061       0.34727355 </v>
    <v>       0.78108849       0.11921698       0.45634332 </v>
    <v>       0.07411322       0.18702479       0.13571184 </v>
    <v>       0.22438173       0.03675628       0.26264887 </v>
    <v>       0.37465025       0.88648777       0.38958589 </v>
    <v>       0.42613597       0.72171786       0.47127420 </v>
    <v>       0.58284638       0.88331449       0.09481756 </v>
    <v>       0.79086939       0.80360196       0.17802418 </v>
    <v>       0.94113790       0.65333344       0.30496121 </v>
    <v>       0.02661785       0.16104829       0.42570381 </v>
    <v>       0.58410531       0.59781767       0.08134062 </v>
    <v>       0.73212972       0.45988096       0.18679900 </v>
    <v>       0.88239823       0.30961245       0.31373603 </v>
    <v>       0.29861738       0.22672664       0.10217432 </v>
    <v>       0.44888589       0.07645812       0.22911134 </v>
    <v>       0.59915440       0.92618961       0.35604837 </v>
    <v>       0.76380396       0.80166985       0.43582212 </v>
    <v>       0.01537355       0.84330380       0.14448666 </v>
    <v>       0.16564206       0.69303529       0.27142369 </v>
    <v>       0.29348226       0.54730382       0.37990710 </v>
    <v>       0.76949690       0.99849969       0.08360338 </v>
    <v>       0.99218867       0.00670904       0.48465877 </v>
    <v>       0.58579929       0.40599939       0.11724657 </v>
    <v>       0.73606781       0.25573088       0.24418359 </v>
    <v>       0.88633632       0.10546236       0.37112062 </v>
    <v>       0.14902674       0.18625082       0.04404901 </v>
    <v>       0.30255546       0.02257655       0.15955891 </v>
    <v>       0.45282398       0.87230804       0.28649593 </v>
    <v>       0.60309249       0.72203952       0.41343296 </v>
    <v>       0.01931164       0.63915371       0.20187125 </v>
    <v>       0.15747781       0.50456128       0.31096724 </v>
    <v>       0.31183715       0.32914317       0.39692605 </v>
    <v>       0.86904312       0.78942223       0.07493423 </v>
    <v>       0.47365127       0.78935032       0.03429996 </v>
    <v>       0.63635413       0.69187455       0.15995199 </v>
    <v>       0.78662264       0.54160604       0.28688901 </v>
    <v>       0.92112280       0.38277310       0.40220112 </v>
    <v>       0.18377004       0.45015468       0.07967573 </v>
    <v>       0.35311030       0.30845171       0.20226433 </v>
    <v>       0.50337881       0.15818320       0.32920136 </v>
    <v>       0.63523815       0.01280229       0.44425093 </v>
    <v>       0.06986647       0.92502888       0.24457667 </v>
    <v>       0.22013498       0.77476036       0.37151370 </v>
    <v>       0.28318144       0.62305342       0.47485429 </v>
    <v>       0.91959796       0.07529739       0.11763965 </v>
    <v>       0.19090323       0.85128996       0.09038596 </v>
    <v>       0.35047896       0.64131972       0.20265741 </v>
    <v>       0.50074748       0.49105120       0.32959444 </v>
    <v>       0.64539756       0.33793815       0.44151869 </v>
    <v>       0.06723514       0.25789688       0.24496976 </v>
    <v>       0.21750365       0.10762837       0.37190678 </v>
    <v>       0.39351982       0.93930864       0.48166790 </v>
    <v>       0.92263696       0.40583200       0.13054437 </v>
    <v>       0.45944419       0.07480546       0.04892900 </v>
    <v>       0.63372279       0.02474255       0.16034507 </v>
    <v>       0.78399131       0.87447404       0.28728210 </v>
    <v>       0.96572866       0.71951302       0.40059306 </v>
   </varray>
  </structure>
  <varray name="forces" >
   <v>      -1.31915662      -0.84820060      -1.68447039 </v>
   <v>      -1.09216791      -0.96304181       3.08186068 </v>
   <v>      -0.10599353      -0.29135625       0.14691634 </v>
   <v>      -0.45085573       0.45870769      -0.22198282 </v>
   <v>       0.56712857       0.12776315       1.56119366 </v>
   <v>       0.63244802      -1.39352863       2.63457838 </v>
   <v>       0.06712535       0.27179641       0.56630472 </v>
   <v>      -0.06735090      -0.34327019       0.10048662 </v>
   <v>      -0.06173352      -0.38157235      -0.67633362 </v>
   <v>      -0.73609020      -0.16412331       0.98892147 </v>
   <v>      -0.37538556      -0.10662813      -0.78051893 </v>
   <v>       0.41916996      -1.16948291       1.53009041 </v>
   <v>       0.59457280       0.54124654      -1.21754514 </v>
   <v>       0.93230581       0.15786983      -0.56028968 </v>
   <v>       0.57918479      -0.14481778       0.85754658 </v>
   <v>      -0.06247916      -0.60650604      -1.47761572 </v>
   <v>      -0.81385105       0.35801629       0.97617469 </v>
   <v>      -0.43880180       0.16163054       1.94658969 </v>
   <v>      -0.00272753      -0.08917276       0.02564042 </v>
   <v>      -0.60094769       0.34625300      -3.43823480 </v>
   <v>       1.43336539      -0.39466197       0.91804779 </v>
   <v>       1.63152670      -0.16451000      -0.29803817 </v>
   <v>       0.11830353      -0.27549193       0.34448263 </v>
   <v>      -0.58692340      -0.02812945      -1.02970082 </v>
   <v>       0.94138279       0.43296824       0.56832529 </v>
   <v>       0.01574547      -1.05895829      -0.83174224 </v>
   <v>       0.02357831      -0.08791085       0.26635483 </v>
   <v>      -0.37832041      -0.57799395      -1.45723590 </v>
   <v>       0.70862856       1.42244563       1.27558970 </v>
   <v>      -0.00047695      -0.07929663       0.20950339 </v>
   <v>      -0.45507245       0.11440092      -1.91437075 </v>
   <v>      -0.20813114      -0.78488135       0.96039085 </v>
   <v>       0.16642735       0.13830604       0.57043263 </v>
   <v>       0.88560938       1.04217812      -1.05435414 </v>
   <v>       1.07339067      -0.42574820      -0.55253262 </v>
   <v>      -0.30094877       0.62381765      -1.54543931 </v>
   <v>       0.58522394      -0.25584405       2.13060973 </v>
   <v>      -1.64777497       0.83999854      -1.75685837 </v>
   <v>       0.27105711      -0.28009375       1.16027597 </v>
   <v>      -0.56461886      -1.02367959      -3.33660007 </v>
   <v>      -1.24652808       0.84005486      -3.30417377 </v>
   <v>      -0.21287459       0.38847954       2.84628960 </v>
   <v>      -0.03836458      -0.01757721      -0.24011727 </v>
   <v>       0.26355351      -1.34116558       0.47422369 </v>
   <v>      -0.06402981       0.72802350       0.32324158 </v>
   <v>      -0.61786138      -1.11022965       0.40396422 </v>
   <v>      -0.37997532       0.85128847       1.10078254 </v>
   <v>      -0.34915159      -0.51664219      -2.39673185 </v>
   <v>       0.46277998      -1.21117791      -3.82552124 </v>
   <v>       0.63494765       0.67953765       1.78003254 </v>
   <v>      -0.18510660       0.34610678      -0.05504404 </v>
   <v>       2.90181694       1.60901139       1.12211908 </v>
   <v>       1.04437198       1.16354107      -2.79359993 </v>
   <v>       0.16428618      -0.66186432       0.19640635 </v>
   <v>       0.23192561      -0.40240694      -0.89351475 </v>
   <v>       0.95928964       0.09687659       1.94608831 </v>
   <v>       0.18043212       0.01474016       0.29454651 </v>
   <v>       1.03648944       0.89233067      -2.00203835 </v>
   <v>      -0.45612107      -1.43233041       2.88865676 </v>
   <v>       1.62983298       0.97526862      -0.21236054 </v>
   <v>      -1.36210032      -1.33497843      -1.69398483 </v>
   <v>      -0.09404525       0.53264279       0.14290574 </v>
   <v>       0.09838798       0.52889853      -0.93747738 </v>
   <v>      -2.28617302       1.14220740       2.39712715 </v>
   <v>      -0.11266020      -0.36390905      -0.00195233 </v>
   <v>      -0.09870073      -0.50947524      -0.52038360 </v>
   <v>      -0.80727026       1.14146932       3.55240813 </v>
   <v>      -1.84682780       0.20245585      -1.34351894 </v>
   <v>       1.98137742       1.16182927      -2.21822570 </v>
   <v>      -1.16525451       1.00394723       2.30662242 </v>
   <v>       0.01738144       0.24944617      -0.42277116 </v>
   <v>      -1.66019410      -0.74489675       2.09954807 </v>
  </varray>
  <varray name="stress" >
   <v>      74.15336028      -5.79443977       1.96311573 </v>
   <v>      -5.79443973      80.03475677      -3.32868833 </v>
   <v>       1.96311579      -3.32868846      92.16907105 </v>
  </varray>
  <energy>
   <i name="e_fr_energy">   -349.37390008 </i>
   <i name="e_wo_entrp">   -348.92277491 </i>
   <i name="e_0_energy">     -0.90225035 </i>
  </energy>
  <time name="totalsc">  270.61  270.70</time>
  <eigenvalues>
   <array>
    <dimension dim="1">band</dimension>
    <dimension dim="2">kpoint</dimension>
    <dimension dim="3">spin</dimension>
    <field>eigene</field>
    <field>occ</field>
    <set>
     <set comment="spin 1">
      <set comment="kpoint 1">
       <r>  -63.4267    1.0000 </r>
       <r>  -63.3112    1.0000 </r>
       <r>  -63.2865    1.0000 </r>
       <r>  -63.1771    1.0000 </r>
       <r>  -63.1545    1.0000 </r>
       <r>  -63.1029    1.0000 </r>
       <r>  -63.1001    1.0000 </r>
       <r>  -63.0925    1.0000 </r>
       <r>  -63.0922    1.0000 </r>
       <r>  -63.0828    1.0000 </r>
       <r>  -63.0701    1.0000 </r>
       <r>  -63.0497    1.0000 </r>
       <r>  -63.0485    1.0000 </r>
       <r>  -63.0405    1.0000 </r>
       <r>  -63.0248    1.0000 </r>
       <r>  -63.0189    1.0000 </r>
       <r>  -63.0019    1.0000 </r>
       <r>  -62.9794    1.0000 </r>
       <r>  -62.9778    1.0000 </r>
       <r>  -62.9694    1.0000 </r>
       <r>  -62.9295    1.0000 </r>
       <r>  -62.8944    1.0000 </r>
       <r>  -62.8924    1.0000 </r>
       <r>  -62.8920    1.0000 </r>
       <r>  -62.8872    1.0000 </r>
       <r>  -62.8858    1.0000 </r>
       <r>  -62.8805    1.0000 </r>
       <r>  -62.8793    1.0000 </r>
       <r>  -62.8617    1.0000 </r>
       <r>  -62.8558    1.0000 </r>
       <r>  -62.8532    1.0000 </r>
       <r>  -62.8528    1.0000 </r>
       <r>  -62.8452    1.0000 </r>
       <r>  -62.8434    1.0000 </r>
       <r>  -62.8278    1.0000 </r>
       <r>  -62.8201    1.0000 </r>
       <r>  -62.8185    1.0000 </r>
       <r>  -62.8170    1.0000 </r>
       <r>  -62.7908    1.0000 </r>
       <r>  -62.7852    1.0000 </r>
       <r>  -62.7741    1.0000 </r>
       <r>  -62.7627    1.0000 </r>
       <r>  -62.7598    1.0000 </r>
       <r>  -62.7437    1.0000 </r>
       <r>  -62.7392    1.0000 </r>
       <r>  -62.7311    1.0000 </r>
       <r>  -62.7227    1.0000 </r>
       <r>  -62.7119    1.0000 </r>
       <r>  -62.7078    1.0000 </r>
       <r>  -62.7039    1.0000 </r>
       <r>  -62.6987    1.0000 </r>
       <r>  -62.6909    1.0000 </r>
       <r>  -62.6885    1.0000 </r>
       <r>  -62.6845    1.0000 </r>
       <r>  -62.6813    1.0000 </r>
       <r>  -62.6735    1.0000 </r>
       <r>  -62.6692    1.0000 </r>
       <r>  -62.6586    1.0000 </r>
       <r>  -62.6545    1.0000 </r>
       <r>  -62.6476    1.0000 </r>
       <r>  -62.6458    1.0000 </r>
       <r>  -62.6419    1.0000 </r>
       <r>  -62.6375    1.0000 </r>
       <r>  -62.6334    1.0000 </r>
       <r>  -62.6312    1.0000 </r>
       <r>  -62.6219    1.0000 </r>
       <r>  -62.6175    1.0000 </r>
       <r>  -62.6158    1.0000 </r>
       <r>  -62.6090    1.0000 </r>
       <r>  -62.6066    1.0000 </r>
       <r>  -62.5980    1.0000 </r>
       <r>  -62.5850    1.0000 </r>
       <r>  -62.5846    1.0000 </r>
       <r>  -62.5802    1.0000 </r>
       <r>  -62.5727    1.0000 </r>
       <r>  -62.5726    1.0000 </r>
       <r>  -62.5720    1.0000 </r>
       <r>  -62.5593    1.0000 </r>
       <r>  -62.5446    1.0000 </r>
       <r>  -62.5277    1.0000 </r>
       <r>  -62.5237    1.0000 </r>
       <r>  -62.5141    1.0000 </r>
       <r>  -62.5104    1.0000 </r>
       <r>  -62.5055    1.0000 </r>
       <r>  -62.5007    1.0000 </r>
       <r>  -62.4973    1.0000 </r>
       <r>  -62.4778    1.0000 </r>
       <r>  -62.4747    1.0000 </r>
       <r>  -62.4665    1.0000 </r>
       <r>  -62.4663    1.0000 </r>
       <r>  -62.4327    1.0000 </r>
       <r>  -62.4267    1.0000 </r>
       <r>  -62.4129    1.0000 </r>
       <r>  -62.3921    1.0000 </r>
       <r>  -62.3824    1.0000 </r>
       <r>  -62.3807    1.0000 </r>
       <r>  -62.3696    1.0000 </r>
       <r>  -62.3217    1.0000 </r>
       <r>  -62.3183    1.0000 </r>
       <r>  -62.3164    1.0000 </r>
       <r>  -62.2067    1.0000 </r>
       <r>  -62.1872    1.0000 </r>
       <r>  -62.1683    1.0000 </r>
       <r>  -62.0822    1.0000 </r>
       <r>  -61.9014    1.0000 </r>
       <r>  -61.7508    1.0000 </r>
       <r>  -61.7418    1.0000 </r>
       <r>  -61.7001    1.0000 </r>
       <r>  -14.8755    1.0000 </r>
       <r>  -14.5494    1.0000 </r>
       <r>  -14.1775    1.0000 </r>
       <r>  -14.0527    1.0000 </r>
       <r>  -13.9851    1.0000 </r>
       <r>  -13.9232    1.0000 </r>
       <r>  -13.7912    1.0000 </r>
       <r>  -13.6415    1.0000 </r>
       <r>  -13.4535    1.0000 </r>
       <r>  -13.4021    1.0000 </r>
       <r>  -13.3422    1.0000 </r>
       <r>  -13.2516    1.0000 </r>
       <r>  -13.1849    1.0000 </r>
       <r>  -13.0993    1.0000 </r>
       <r>  -12.9886    1.0000 </r>
       <r>  -12.9238    1.0000 </r>
       <r>  -12.8142    1.0000 </r>
       <r>  -12.7914    1.0000 </r>
       <r>  -12.7640    1.0000 </r>
       <r>  -12.6886    1.0000 </r>
       <r>  -12.6062    1.0000 </r>
       <r>  -12.5075    1.0000 </r>
       <r>  -12.4704    1.0000 </r>
       <r>  -12.3743    1.0000 </r>
       <r>  -12.3029    1.0000 </r>
       <r>  -12.2540    1.0000 </r>
       <r>  -12.1860    1.0000 </r>
       <r>  -12.1035    1.0000 </r>
       <r>  -12.0250    1.0000 </r>
       <r>  -11.9712    1.0000 </r>
       <r>  -11.9214    1.0000 </r>
       <r>  -11.7399    1.0000 </r>
       <r>  -11.6730    1.0000 </r>
       <r>  -11.6352    1.0000 </r>
       <r>  -11.6147    1.0000 </r>
       <r>  -11.2359    1.0000 </r>
       <r>   -6.6449    1.0000 </r>
       <r>   -6.5981    1.0000 </r>
       <r>   -6.3915    1.0000 </r>
       <r>   -6.2469    1.0000 </r>
       <r>   -6.1872    1.0000 </r>
       <r>   -6.1240    1.0000 </r>
       <r>   -6.0562    1.0000 </r>
       <r>   -5.9684    1.0000 </r>
       <r>   -5.8782    1.0000 </r>
       <r>   -5.8139    1.0000 </r>
       <r>   -5.7953    1.0000 </r>
       <r>   -5.7192    1.0000 </r>
       <r>   -5.6706    1.0000 </r>
       <r>   -5.6356    1.0000 </r>
       <r>   -5.6032    1.0000 </r>
       <r>   -5.5511    1.0000 </r>
       <r>   -5.5462    1.0000 </r>
       <r>   -5.4912    1.0000 </r>
       <r>   -5.4685    1.0000 </r>
       <r>   -5.3841    1.0000 </r>
       <r>   -5.3640    1.0000 </r>
       <r>   -5.3191    1.0000 </r>
       <r>   -5.3114    1.0000 </r>
       <r>   -5.2086    1.0000 </r>
       <r>   -5.1795    1.0000 </r>
       <r>   -5.1015    1.0000 </r>
       <r>   -5.0767    1.0000 </r>
       <r>   -5.0537    1.0000 </r>
       <r>   -5.0161    1.0000 </r>
       <r>   -4.9261    1.0000 </r>
       <r>   -4.8922    1.0000 </r>
       <r>   -4.8528    1.0000 </r>
       <r>   -4.8145    1.0000 </r>
       <r>   -4.7555    1.0000 </r>
       <r>   -4.6909    1.0000 </r>
       <r>   -4.6660    1.0000 </r>
       <r>   -4.6433    1.0000 </r>
       <r>   -4.5562    1.0000 </r>
       <r>   -4.4625    1.0000 </r>
       <r>   -4.3996    1.0000 </r>
       <r>   -4.3780    1.0000 </r>
       <r>   -4.3071    1.0000 </r>
       <r>   -4.2999    1.0000 </r>
       <r>   -4.2756    1.0000 </r>
       <r>   -4.2101    1.0000 </r>
       <r>   -4.1537    1.0000 </r>
       <r>   -4.1196    1.0000 </r>
       <r>   -4.0891    1.0000 </r>
       <r>   -4.0437    1.0000 </r>
       <r>   -4.0063    1.0000 </r>
       <r>   -3.9629    1.0000 </r>
       <r>   -3.9318    1.0000 </r>
       <r>   -3.9134    1.0000 </r>
       <r>   -3.8430    1.0000 </r>
       <r>   -3.8279    1.0000 </r>
       <r>   -3.8059    1.0000 </r>
       <r>   -3.7825    1.0000 </r>
       <r>   -3.7327    1.0000 </r>
       <r>   -3.6798    1.0000 </r>
       <r>   -3.6467    1.0000 </r>
       <r>   -3.6182    1.0000 </r>
       <r>   -3.5995    1.0000 </r>
       <r>   -3.5781    1.0000 </r>
       <r>   -3.5640    1.0000 </r>
       <r>   -3.4982    1.0000 </r>
       <r>   -3.4501    1.0000 </r>
       <r>   -3.4226    1.0000 </r>
       <r>   -3.3947    1.0000 </r>
       <r>   -3.3697    1.0000 </r>
       <r>   -3.3603    1.0000 </r>
       <r>   -3.3301    1.0000 </r>
       <r>   -3.2581    1.0000 </r>
       <r>   -3.2317    1.0000 </r>
       <r>   -3.2016    1.0000 </r>
       <r>   -3.1844    1.0000 </r>
       <r>   -3.1457    1.0000 </r>
       <r>   -3.1239    1.0000 </r>
       <r>   -3.0983    1.0000 </r>
       <r>   -3.0788    1.0000 </r>
       <r>   -3.0211    1.0000 </r>
       <r>   -2.9565    1.0000 </r>
       <r>   -2.9439    1.0000 </r>
       <r>   -2.9179    1.0000 </r>
       <r>   -2.8525    1.0000 </r>
       <r>   -2.8413    1.0000 </r>
       <r>   -2.8200    1.0000 </r>
       <r>   -2.8056    1.0000 </r>
       <r>   -2.7705    1.0000 </r>
       <r>   -2.6980    1.0000 </r>
       <r>   -2.6362    1.0000 </r>
       <r>   -2.6202    1.0000 </r>
       <r>   -2.5581    1.0000 </r>
       <r>   -2.5056    1.0000 </r>
       <r>   -2.4846    1.0000 </r>
       <r>   -2.4372    1.0000 </r>
       <r>   -2.3693    1.0000 </r>
       <r>   -2.3347    1.0000 </r>
       <r>   -2.3016    1.0000 </r>
       <r>   -2.2311    1.0000 </r>
       <r>   -2.1961    1.0000 </r>
       <r>   -2.1466    1.0000 </r>
       <r>   -2.1148    1.0000 </r>
       <r>   -2.0955    1.0000 </r>
       <r>   -2.0309    1.0000 </r>
       <r>   -1.9738    1.0000 </r>
       <r>   -1.9445    1.0000 </r>
       <r>   -1.8989    1.0000 </r>
       <r>   -1.8626    1.0000 </r>
       <r>   -1.8440    1.0000 </r>
       <r>   -1.8107    1.0000 </r>
       <r>   -1.7506    1.0000 </r>
       <r>   -1.7285    1.0000 </r>
       <r>   -1.6831    1.0000 </r>
       <r>   -1.6490    1.0000 </r>
       <r>   -1.6009    1.0000 </r>
       <r>   -1.5979    1.0000 </r>
       <r>   -1.5826    1.0000 </r>
       <r>   -1.5649    1.0000 </r>
       <r>   -1.5030    1.0000 </r>
       <r>   -1.4918    1.0000 </r>
       <r>   -1.4610    1.0000 </r>
       <r>   -1.4513    1.0000 </r>
       <r>   -1.3986    1.0000 </r>
       <r>   -1.3819    1.0000 </r>
       <r>   -1.3598    1.0000 </r>
       <r>   -1.3189    1.0000 </r>
       <r>   -1.3099    1.0000 </r>
       <r>   -1.2894    1.0000 </r>
       <r>   -1.2535    1.0000 </r>
       <r>   -1.2172    1.0000 </r>
       <r>   -1.2083    1.0000 </r>
       <r>   -1.1766    1.0000 </r>
       <r>   -1.1583    1.0000 </r>
       <r>   -1.1496    1.0000 </r>
       <r>   -1.1195    1.0000 </r>
       <r>   -1.1054    1.0000 </r>
       <r>   -1.0754    1.0000 </r>
       <r>   -1.0684    1.0000 </r>
       <r>   -1.0604    1.0000 </r>
       <r>   -1.0255    1.0000 </r>
       <r>   -0.9938    1.0000 </r>
       <r>   -0.9619    1.0000 </r>
       <r>   -0.9586    1.0000 </r>
       <r>   -0.9459    1.0000 </r>
       <r>   -0.9208    1.0000 </r>
       <r>   -0.9114    1.0000 </r>
       <r>   -0.8948    1.0000 </r>
       <r>   -0.8820    1.0000 </r>
       <r>   -0.8502    1.0000 </r>
       <r>   -0.8355    1.0000 </r>
       <r>   -0.8110    1.0000 </r>
       <r>   -0.7986    1.0000 </r>
       <r>   -0.7761    1.0000 </r>
       <r>   -0.7570    1.0000 </r>
       <r>   -0.7512    1.0000 </r>
       <r>   -0.7410    1.0000 </r>
       <r>   -0.6990    1.0000 </r>
       <r>   -0.6963    1.0000 </r>
       <r>   -0.6742    1.0000 </r>
       <r>   -0.6633    1.0000 </r>
       <r>   -0.6591    1.0000 </r>
       <r>   -0.6400    1.0000 </r>
       <r>   -0.6314    1.0000 </r>
       <r>   -0.5950    1.0000 </r>
       <r>   -0.5891    1.0000 </r>
       <r>   -0.5734    1.0000 </r>
       <r>   -0.5645    1.0000 </r>
       <r>   -0.5502    1.0000 </r>
       <r>   -0.5284    1.0000 </r>
       <r>   -0.5144    1.0000 </r>
       <r>   -0.4873    1.0000 </r>
       <r>   -0.4803    1.0000 </r>
       <r>   -0.4744    1.0000 </r>
       <r>   -0.4517    1.0000 </r>
       <r>   -0.4432    1.0000 </r>
       <r>   -0.4217    1.0000 </r>
       <r>   -0.4171    1.0000 </r>
       <r>   -0.4019    1.0000 </r>
       <r>   -0.3922    1.0000 </r>
       <r>   -0.3825    1.0000 </r>
       <r>   -0.3580    1.0000 </r>
       <r>   -0.3514    1.0000 </r>
       <r>   -0.3214    1.0000 </r>
       <r>   -0.3123    1.0000 </r>
       <r>   -0.2966    1.0000 </r>
       <r>   -0.2798    1.0000 </r>
       <r>   -0.2610    1.0000 </r>
       <r>   -0.2516    1.0000 </r>
       <r>   -0.2451    1.0000 </r>
       <r>   -0.2290    1.0000 </r>
       <r>   -0.2103    1.0000 </r>
       <r>   -0.1958    1.0000 </r>
       <r>   -0.1699    1.0000 </r>
       <r>   -0.1557    1.0000 </r>
       <r>   -0.1451    1.0000 </r>
       <r>   -0.1255    1.0000 </r>
       <r>   -0.1052    1.0000 </r>
       <r>   -0.0937    1.0000 </r>
       <r>   -0.0874    1.0000 </r>
       <r>   -0.0788    1.0000 </r>
       <r>   -0.0605    1.0000 </r>
       <r>   -0.0493    1.0000 </r>
       <r>   -0.0301    1.0000 </r>
       <r>   -0.0163    1.0000 </r>
       <r>   -0.0018    1.0000 </r>
       <r>    0.0144    1.0000 </r>
       <r>    0.0249    1.0000 </r>
       <r>    0.0523    1.0000 </r>
       <r>    0.0576    1.0000 </r>
       <r>    0.0895    1.0000 </r>
       <r>    0.1103    1.0000 </r>
       <r>    0.1260    1.0000 </r>
       <r>    0.1331    1.0000 </r>
       <r>    0.1679    1.0000 </r>
       <r>    0.2235    1.0000 </r>
       <r>    0.2267    1.0000 </r>
       <r>    0.2434    1.0000 </r>
       <r>    0.2751    1.0000 </r>
       <r>    0.3066    1.0000 </r>
       <r>    0.3542    1.0000 </r>
       <r>    0.3659    1.0000 </r>
       <r>    0.3936    1.0000 </r>
       <r>    0.4386    1.0000 </r>
       <r>    0.4642    1.0000 </r>
       <r>    0.4669    1.0000 </r>
       <r>    0.5072    1.0000 </r>
       <r>    0.5227    1.0000 </r>
       <r>    0.5482    1.0000 </r>
       <r>    0.5706    1.0000 </r>
       <r>    0.6333    1.0000 </r>
       <r>    0.6509    1.0000 </r>
       <r>    0.6912    1.0000 </r>
       <r>    0.7087    1.0000 </r>
       <r>    0.7286    1.0000 </r>
       <r>    0.7598    1.0000 </r>
       <r>    0.8313    1.0000 </r>
       <r>    0.8530    1.0000 </r>
       <r>    0.8888    1.0000 </r>
       <r>    0.9356    1.0000 </r>
       <r>    0.9411    0.9999 </r>
       <r>    0.9811    0.9998 </r>
       <r>    1.0031    0.9997 </r>
       <r>    1.0648    0.9986 </r>
       <r>    1.1349    0.9938 </r>
       <r>    1.1679    0.9883 </r>
       <r>    1.2248    0.9690 </r>
       <r>    1.2711    0.9381 </r>
       <r>    1.3036    0.9047 </r>
       <r>    1.3444    0.8463 </r>
       <r>    1.3500    0.8367 </r>
       <r>    1.3830    0.7728 </r>
       <r>    1.4765    0.5344 </r>
       <r>    1.5288    0.3886 </r>
       <r>    1.5517    0.3282 </r>
       <r>    1.6061    0.2032 </r>
       <r>    1.6435    0.1368 </r>
       <r>    1.6947    0.0727 </r>
       <r>    1.7254    0.0471 </r>
       <r>    1.7856    0.0179 </r>
       <r>    1.8110    0.0113 </r>
       <r>    1.8354    0.0071 </r>
       <r>    1.8835    0.0026 </r>
       <r>    1.9033    0.0017 </r>
       <r>    1.9688    0.0003 </r>
       <r>    2.0610    0.0000 </r>
       <r>    2.0766    0.0000 </r>
       <r>    2.0967    0.0000 </r>
       <r>    2.1076    0.0000 </r>
       <r>    2.1458    0.0000 </r>
       <r>    2.2039    0.0000 </r>
       <r>    2.2513    0.0000 </r>
       <r>    2.3196    0.0000 </r>
       <r>    2.3228    0.0000 </r>
       <r>    2.3801    0.0000 </r>
       <r>    2.4075    0.0000 </r>
       <r>    2.4246    0.0000 </r>
       <r>    2.4794    0.0000 </r>
       <r>    2.5508    0.0000 </r>
       <r>    2.5601    0.0000 </r>
       <r>    2.6164    0.0000 </r>
       <r>    2.6756    0.0000 </r>
       <r>    2.7275    0.0000 </r>
       <r>    2.7436    0.0000 </r>
       <r>    2.7813    0.0000 </r>
       <r>    2.8822    0.0000 </r>
       <r>    2.9409    0.0000 </r>
       <r>    3.0209    0.0000 </r>
       <r>    3.2336    0.0000 </r>
       <r>    3.9147    0.0000 </r>
       <r>    4.5458    0.0000 </r>
       <r>    4.6264    0.0000 </r>
       <r>    4.7569    0.0000 </r>
       <r>    4.9506    0.0000 </r>
       <r>    5.0365    0.0000 </r>
       <r>    5.3680    0.0000 </r>
       <r>    5.4225    0.0000 </r>
       <r>    5.5249    0.0000 </r>
       <r>    5.5807    0.0000 </r>
       <r>    5.6497    0.0000 </r>
       <r>    5.7480    0.0000 </r>
       <r>    5.8053    0.0000 </r>
       <r>    5.8748    0.0000 </r>
       <r>    5.9264    0.0000 </r>
       <r>    5.9846    0.0000 </r>
       <r>    6.1020    0.0000 </r>
       <r>    6.1598    0.0000 </r>
       <r>    6.2977    0.0000 </r>
       <r>    6.3879    0.0000 </r>
       <r>    6.4252    0.0000 </r>
       <r>    6.4784    0.0000 </r>
       <r>    6.5281    0.0000 </r>
       <r>    6.5486    0.0000 </r>
       <r>    6.6153    0.0000 </r>
       <r>    6.6713    0.0000 </r>
       <r>    6.7388    0.0000 </r>
       <r>    6.8459    0.0000 </r>
       <r>    6.8663    0.0000 </r>
       <r>    6.8710    0.0000 </r>
       <r>    6.9153    0.0000 </r>
       <r>    6.9888    0.0000 </r>
       <r>    7.0181    0.0000 </r>
       <r>    7.0860    0.0000 </r>
       <r>    7.1572    0.0000 </r>
       <r>    7.1950    0.0000 </r>
       <r>    7.2469    0.0000 </r>
       <r>    7.2639    0.0000 </r>
       <r>    7.3214    0.0000 </r>
       <r>    7.3494    0.0000 </r>
       <r>    7.3779    0.0000 </r>
       <r>    7.4288    0.0000 </r>
       <r>    7.4688    0.0000 </r>
       <r>    7.4979    0.0000 </r>
      </set>
     </set>
    </set>
   </array>
  </eigenvalues>
  <separator name="orbital magnetization" >
   <v name="MAGDIPOLOUT">      0.00000000      0.00000000      0.00000000</v>
  </separator>
  <dos>
   <i name="efermi">      1.48873056 </i>
   <total>
    <array>
     <dimension dim="1">gridpoints</dimension>
     <dimension dim="2">spin</dimension>
     <field>energy</field>
     <field>total</field>
     <field>integrated</field>
     <set>
      <set comment="spin 1">
       <r>   -66.9729     0.0000     0.0000 </r>
       <r>   -66.7129     0.0000     0.0000 </r>
       <r>   -66.4528     0.0000     0.0000 </r>
       <r>   -66.1928     0.0000     0.0000 </r>
       <r>   -65.9327     0.0000     0.0000 </r>
       <r>   -65.6726     0.0000     0.0000 </r>
       <r>   -65.4126     0.0000     0.0000 </r>
       <r>   -65.1525     0.0000     0.0000 </r>
       <r>   -64.8925     0.0000     0.0000 </r>
       <r>   -64.6324     0.0000     0.0000 </r>
       <r>   -64.3724     0.0000     0.0000 </r>
       <r>   -64.1123     0.0000     0.0000 </r>
       <r>   -63.8522     0.0108     0.0028 </r>
       <r>   -63.5922     1.2496     0.3278 </r>
       <r>   -63.3321    15.6537     4.3986 </r>
       <r>   -63.0721    77.3087    24.5033 </r>
       <r>   -62.8120   195.1632    75.2569 </r>
       <r>   -62.5520   277.7747   147.4941 </r>
       <r>   -62.2919   176.6924   193.4442 </r>
       <r>   -62.0318    50.9905   206.7047 </r>
       <r>   -61.7718    20.0851   211.9279 </r>
       <r>   -61.5117    14.1837   215.6165 </r>
       <r>   -61.2517     1.4651   215.9975 </r>
       <r>   -60.9916     0.0095   216.0000 </r>
       <r>   -60.7316     0.0000   216.0000 </r>
       <r>   -60.4715     0.0000   216.0000 </r>
       <r>   -60.2114     0.0000   216.0000 </r>
       <r>   -59.9514     0.0000   216.0000 </r>
       <r>   -59.6913     0.0000   216.0000 </r>
       <r>   -59.4313     0.0000   216.0000 </r>
       <r>   -59.1712     0.0000   216.0000 </r>
       <r>   -58.9112     0.0000   216.0000 </r>
       <r>   -58.6511     0.0000   216.0000 </r>
       <r>   -58.3910     0.0000   216.0000 </r>
       <r>   -58.1310     0.0000   216.0000 </r>
       <r>   -57.8709     0.0000   216.0000 </r>
       <r>   -57.6109     0.0000   216.0000 </r>
       <r>   -57.3508     0.0000   216.0000 </r>
       <r>   -57.0908     0.0000   216.0000 </r>
       <r>   -56.8307     0.0000   216.0000 </r>
       <r>   -56.5706     0.0000   216.0000 </r>
       <r>   -56.3106     0.0000   216.0000 </r>
       <r>   -56.0505     0.0000   216.0000 </r>
       <r>   -55.7905     0.0000   216.0000 </r>
       <r>   -55.5304     0.0000   216.0000 </r>
       <r>   -55.2704     0.0000   216.0000 </r>
       <r>   -55.0103     0.0000   216.0000 </r>
       <r>   -54.7503     0.0000   216.0000 </r>
       <r>   -54.4902     0.0000   216.0000 </r>
       <r>   -54.2301     0.0000   216.0000 </r>
       <r>   -53.9701     0.0000   216.0000 </r>
       <r>   -53.7100     0.0000   216.0000 </r>
       <r>   -53.4500     0.0000   216.0000 </r>
       <r>   -53.1899     0.0000   216.0000 </r>
       <r>   -52.9299     0.0000   216.0000 </r>
       <r>   -52.6698     0.0000   216.0000 </r>
       <r>   -52.4097     0.0000   216.0000 </r>
       <r>   -52.1497     0.0000   216.0000 </r>
       <r>   -51.8896     0.0000   216.0000 </r>
       <r>   -51.6296     0.0000   216.0000 </r>
       <r>   -51.3695     0.0000   216.0000 </r>
       <r>   -51.1095     0.0000   216.0000 </r>
       <r>   -50.8494     0.0000   216.0000 </r>
       <r>   -50.5893     0.0000   216.0000 </r>
       <r>   -50.3293     0.0000   216.0000 </r>
       <r>   -50.0692     0.0000   216.0000 </r>
       <r>   -49.8092     0.0000   216.0000 </r>
       <r>   -49.5491     0.0000   216.0000 </r>
       <r>   -49.2891     0.0000   216.0000 </r>
       <r>   -49.0290     0.0000   216.0000 </r>
       <r>   -48.7689     0.0000   216.0000 </r>
       <r>   -48.5089     0.0000   216.0000 </r>
       <r>   -48.2488     0.0000   216.0000 </r>
       <r>   -47.9888     0.0000   216.0000 </r>
       <r>   -47.7287     0.0000   216.0000 </r>
       <r>   -47.4687     0.0000   216.0000 </r>
       <r>   -47.2086     0.0000   216.0000 </r>
       <r>   -46.9485     0.0000   216.0000 </r>
       <r>   -46.6885     0.0000   216.0000 </r>
       <r>   -46.4284     0.0000   216.0000 </r>
       <r>   -46.1684     0.0000   216.0000 </r>
       <r>   -45.9083     0.0000   216.0000 </r>
       <r>   -45.6483     0.0000   216.0000 </r>
       <r>   -45.3882     0.0000   216.0000 </r>
       <r>   -45.1281     0.0000   216.0000 </r>
       <r>   -44.8681     0.0000   216.0000 </r>
       <r>   -44.6080     0.0000   216.0000 </r>
       <r>   -44.3480     0.0000   216.0000 </r>
       <r>   -44.0879     0.0000   216.0000 </r>
       <r>   -43.8279     0.0000   216.0000 </r>
       <r>   -43.5678     0.0000   216.0000 </r>
       <r>   -43.3077     0.0000   216.0000 </r>
       <r>   -43.0477     0.0000   216.0000 </r>
       <r>   -42.7876     0.0000   216.0000 </r>
       <r>   -42.5276     0.0000   216.0000 </r>
       <r>   -42.2675     0.0000   216.0000 </r>
       <r>   -42.0075     0.0000   216.0000 </r>
       <r>   -41.7474     0.0000   216.0000 </r>
       <r>   -41.4873     0.0000   216.0000 </r>
       <r>   -41.2273     0.0000   216.0000 </r>
       <r>   -40.9672     0.0000   216.0000 </r>
       <r>   -40.7072     0.0000   216.0000 </r>
       <r>   -40.4471     0.0000   216.0000 </r>
       <r>   -40.1871     0.0000   216.0000 </r>
       <r>   -39.9270     0.0000   216.0000 </r>
       <r>   -39.6669     0.0000   216.0000 </r>
       <r>   -39.4069     0.0000   216.0000 </r>
       <r>   -39.1468     0.0000   216.0000 </r>
       <r>   -38.8868     0.0000   216.0000 </r>
       <r>   -38.6267     0.0000   216.0000 </r>
       <r>   -38.3667     0.0000   216.0000 </r>
       <r>   -38.1066     0.0000   216.0000 </r>
       <r>   -37.8465     0.0000   216.0000 </r>
       <r>   -37.5865     0.0000   216.0000 </r>
       <r>   -37.3264     0.0000   216.0000 </r>
       <r>   -37.0664     0.0000   216.0000 </r>
       <r>   -36.8063     0.0000   216.0000 </r>
       <r>   -36.5463     0.0000   216.0000 </r>
       <r>   -36.2862     0.0000   216.0000 </r>
       <r>   -36.0261     0.0000   216.0000 </r>
       <r>   -35.7661     0.0000   216.0000 </r>
       <r>   -35.5060     0.0000   216.0000 </r>
       <r>   -35.2460     0.0000   216.0000 </r>
       <r>   -34.9859     0.0000   216.0000 </r>
       <r>   -34.7259     0.0000   216.0000 </r>
       <r>   -34.4658     0.0000   216.0000 </r>
       <r>   -34.2057     0.0000   216.0000 </r>
       <r>   -33.9457     0.0000   216.0000 </r>
       <r>   -33.6856     0.0000   216.0000 </r>
       <r>   -33.4256     0.0000   216.0000 </r>
       <r>   -33.1655     0.0000   216.0000 </r>
       <r>   -32.9055     0.0000   216.0000 </r>
       <r>   -32.6454     0.0000   216.0000 </r>
       <r>   -32.3853     0.0000   216.0000 </r>
       <r>   -32.1253     0.0000   216.0000 </r>
       <r>   -31.8652     0.0000   216.0000 </r>
       <r>   -31.6052     0.0000   216.0000 </r>
       <r>   -31.3451     0.0000   216.0000 </r>
       <r>   -31.0851     0.0000   216.0000 </r>
       <r>   -30.8250     0.0000   216.0000 </r>
       <r>   -30.5649     0.0000   216.0000 </r>
       <r>   -30.3049     0.0000   216.0000 </r>
       <r>   -30.0448     0.0000   216.0000 </r>
       <r>   -29.7848     0.0000   216.0000 </r>
       <r>   -29.5247     0.0000   216.0000 </r>
       <r>   -29.2647     0.0000   216.0000 </r>
       <r>   -29.0046     0.0000   216.0000 </r>
       <r>   -28.7445     0.0000   216.0000 </r>
       <r>   -28.4845     0.0000   216.0000 </r>
       <r>   -28.2244     0.0000   216.0000 </r>
       <r>   -27.9644     0.0000   216.0000 </r>
       <r>   -27.7043     0.0000   216.0000 </r>
       <r>   -27.4443     0.0000   216.0000 </r>
       <r>   -27.1842     0.0000   216.0000 </r>
       <r>   -26.9241     0.0000   216.0000 </r>
       <r>   -26.6641     0.0000   216.0000 </r>
       <r>   -26.4040     0.0000   216.0000 </r>
       <r>   -26.1440     0.0000   216.0000 </r>
       <r>   -25.8839     0.0000   216.0000 </r>
       <r>   -25.6239     0.0000   216.0000 </r>
       <r>   -25.3638     0.0000   216.0000 </r>
       <r>   -25.1037     0.0000   216.0000 </r>
       <r>   -24.8437     0.0000   216.0000 </r>
       <r>   -24.5836     0.0000   216.0000 </r>
       <r>   -24.3236     0.0000   216.0000 </r>
       <r>   -24.0635     0.0000   216.0000 </r>
       <r>   -23.8035     0.0000   216.0000 </r>
       <r>   -23.5434     0.0000   216.0000 </r>
       <r>   -23.2834     0.0000   216.0000 </r>
       <r>   -23.0233     0.0000   216.0000 </r>
       <r>   -22.7632     0.0000   216.0000 </r>
       <r>   -22.5032     0.0000   216.0000 </r>
       <r>   -22.2431     0.0000   216.0000 </r>
       <r>   -21.9831     0.0000   216.0000 </r>
       <r>   -21.7230     0.0000   216.0000 </r>
       <r>   -21.4630     0.0000   216.0000 </r>
       <r>   -21.2029     0.0000   216.0000 </r>
       <r>   -20.9428     0.0000   216.0000 </r>
       <r>   -20.6828     0.0000   216.0000 </r>
       <r>   -20.4227     0.0000   216.0000 </r>
       <r>   -20.1627     0.0000   216.0000 </r>
       <r>   -19.9026     0.0000   216.0000 </r>
       <r>   -19.6426     0.0000   216.0000 </r>
       <r>   -19.3825     0.0000   216.0000 </r>
       <r>   -19.1224     0.0000   216.0000 </r>
       <r>   -18.8624     0.0000   216.0000 </r>
       <r>   -18.6023     0.0000   216.0000 </r>
       <r>   -18.3423     0.0000   216.0000 </r>
       <r>   -18.0822     0.0000   216.0000 </r>
       <r>   -17.8222     0.0000   216.0000 </r>
       <r>   -17.5621     0.0000   216.0000 </r>
       <r>   -17.3020     0.0000   216.0000 </r>
       <r>   -17.0420     0.0000   216.0000 </r>
       <r>   -16.7819     0.0000   216.0000 </r>
       <r>   -16.5219     0.0000   216.0000 </r>
       <r>   -16.2618     0.0000   216.0000 </r>
       <r>   -16.0018     0.0000   216.0000 </r>
       <r>   -15.7417     0.0000   216.0000 </r>
       <r>   -15.4816     0.0001   216.0000 </r>
       <r>   -15.2216     0.0552   216.0144 </r>
       <r>   -14.9615     2.0455   216.5463 </r>
       <r>   -14.7015     5.8358   218.0640 </r>
       <r>   -14.4414     5.9928   219.6224 </r>
       <r>   -14.1814     7.4935   221.5712 </r>
       <r>   -13.9213    18.3474   226.3425 </r>
       <r>   -13.6612    16.6655   230.6765 </r>
       <r>   -13.4012    17.8893   235.3288 </r>
       <r>   -13.1411    24.7962   241.7772 </r>
       <r>   -12.8811    25.5975   248.4340 </r>
       <r>   -12.6210    30.4623   256.3559 </r>
       <r>   -12.3610    28.1082   263.6657 </r>
       <r>   -12.1009    28.7350   271.1384 </r>
       <r>   -11.8408    25.4821   277.7652 </r>
       <r>   -11.5808    22.8400   283.7049 </r>
       <r>   -11.3207    10.6282   286.4688 </r>
       <r>   -11.0607     5.0589   287.7844 </r>
       <r>   -10.8006     0.8209   287.9979 </r>
       <r>   -10.5406     0.0080   288.0000 </r>
       <r>   -10.2805     0.0000   288.0000 </r>
       <r>   -10.0204     0.0000   288.0000 </r>
       <r>    -9.7604     0.0000   288.0000 </r>
       <r>    -9.5003     0.0000   288.0000 </r>
       <r>    -9.2403     0.0000   288.0000 </r>
       <r>    -8.9802     0.0000   288.0000 </r>
       <r>    -8.7202     0.0000   288.0000 </r>
       <r>    -8.4601     0.0000   288.0000 </r>
       <r>    -8.2000     0.0000   288.0000 </r>
       <r>    -7.9400     0.0000   288.0000 </r>
       <r>    -7.6799     0.0000   288.0000 </r>
       <r>    -7.4199     0.0000   288.0000 </r>
       <r>    -7.1598     0.0013   288.0003 </r>
       <r>    -6.8998     0.4017   288.1048 </r>
       <r>    -6.6397     6.8439   289.8846 </r>
       <r>    -6.3796    13.9102   293.5021 </r>
       <r>    -6.1196    21.3540   299.0553 </r>
       <r>    -5.8595    28.8802   306.5658 </r>
       <r>    -5.5995    41.7164   317.4145 </r>
       <r>    -5.3394    48.0285   329.9046 </r>
       <r>    -5.0794    43.3225   341.1710 </r>
       <r>    -4.8193    42.7821   352.2967 </r>
       <r>    -4.5592    39.1721   362.4837 </r>
       <r>    -4.2992    39.7917   372.8318 </r>
       <r>    -4.0391    49.0665   385.5919 </r>
       <r>    -3.7791    56.0184   400.1599 </r>
       <r>    -3.5190    60.4795   415.8880 </r>
       <r>    -3.2590    62.1817   432.0588 </r>
       <r>    -2.9989    61.1846   447.9703 </r>
       <r>    -2.7388    56.1920   462.5834 </r>
       <r>    -2.4788    46.5729   474.6950 </r>
       <r>    -2.2187    44.4741   486.2608 </r>
       <r>    -1.9587    47.7526   498.6792 </r>
       <r>    -1.6986    55.4382   513.0963 </r>
       <r>    -1.4386    69.1649   531.0831 </r>
       <r>    -1.1785    82.1126   552.4371 </r>
       <r>    -0.9184    99.5210   578.3182 </r>
       <r>    -0.6584   116.8160   608.6970 </r>
       <r>    -0.3983   132.4772   643.1487 </r>
       <r>    -0.1383   133.8494   677.9571 </r>
       <r>     0.1218   117.4984   708.5134 </r>
       <r>     0.3818    82.3514   729.9295 </r>
       <r>     0.6419    70.0879   748.1563 </r>
       <r>     0.9020    60.1353   763.7949 </r>
       <r>     1.1620    49.9474   776.7841 </r>
       <r>     1.4221    46.8572   788.9696 </r>
       <r>     1.6821    45.8346   800.8892 </r>
       <r>     1.9422    48.7622   813.5702 </r>
       <r>     2.2022    49.9233   826.5531 </r>
       <r>     2.4623    49.8541   839.5180 </r>
       <r>     2.7224    44.5343   851.0995 </r>
       <r>     2.9824    31.3423   859.2502 </r>
       <r>     3.2425    13.9856   862.8873 </r>
       <r>     3.5025     4.0696   863.9456 </r>
       <r>     3.7626     1.2936   864.2820 </r>
       <r>     4.0226     4.8953   865.5551 </r>
       <r>     4.2827     1.9777   866.0694 </r>
       <r>     4.5428     6.1589   867.6711 </r>
       <r>     4.8028    14.2142   871.3676 </r>
       <r>     5.0629    12.9349   874.7314 </r>
       <r>     5.3229    10.3601   877.4256 </r>
       <r>     5.5830    21.4426   883.0019 </r>
       <r>     5.8430    27.8099   890.2341 </r>
       <r>     6.1031    26.6861   897.1740 </r>
       <r>     6.3631    24.7659   903.6145 </r>
       <r>     6.6232    35.4835   912.8423 </r>
       <r>     6.8833    37.9330   922.7070 </r>
       <r>     7.1433    41.2472   933.4336 </r>
       <r>     7.4034    44.6010   945.0324 </r>
       <r>     7.6634    24.4759   951.3976 </r>
       <r>     7.9235     2.2989   951.9954 </r>
       <r>     8.1835     0.0176   952.0000 </r>
       <r>     8.4436     0.0000   952.0000 </r>
       <r>     8.7037     0.0000   952.0000 </r>
       <r>     8.9637     0.0000   952.0000 </r>
       <r>     9.2238     0.0000   952.0000 </r>
       <r>     9.4838     0.0000   952.0000 </r>
       <r>     9.7439     0.0000   952.0000 </r>
       <r>    10.0039     0.0000   952.0000 </r>
       <r>    10.2640     0.0000   952.0000 </r>
       <r>    10.5241     0.0000   952.0000 </r>
       <r>    10.7841     0.0000   952.0000 </r>
       <r>    11.0442     0.0000   952.0000 </r>
      </set>
     </set>
    </array>
   </total>
  </dos>
 </calculation>
 <structure name="finalpos" >
  <crystal>
   <varray name="basis" >
    <v>      10.07973298       0.00000000       0.00000000 </v>
    <v>       3.57329804       9.42510255       0.00000000 </v>
    <v>       0.00000000       0.00000000      20.68350356 </v>
   </varray>
   <i name="volume">   1964.98490008 </i>
   <varray name="rec_basis" >
    <v>       0.09920898      -0.03761267       0.00000000 </v>
    <v>       0.00000000       0.10609964       0.00000000 </v>
    <v>       0.00000000       0.00000000       0.04834771 </v>
   </varray>
  </crystal>
  <varray name="positions" >
   <v>       0.29990560       0.98899744       0.05735891 </v>
   <v>       0.39705889       0.79495179       0.12693702 </v>
   <v>       0.54732740       0.64468328       0.25387405 </v>
   <v>       0.69759592       0.49441476       0.38081107 </v>
   <v>       0.82637006       0.33896234       0.48038644 </v>
   <v>       0.11381506       0.41152895       0.16924937 </v>
   <v>       0.26408357       0.26126044       0.29618639 </v>
   <v>       0.41435209       0.11099193       0.42312341 </v>
   <v>       0.97209043       0.59118383       0.10579139 </v>
   <v>       0.10209329       0.79801999       0.45332566 </v>
   <v>       0.71302137       0.21540488       0.14596451 </v>
   <v>       0.83057123       0.02810611       0.21156171 </v>
   <v>       0.98083975       0.87783760       0.33849873 </v>
   <v>       0.34471303       0.47403762       0.13451603 </v>
   <v>       0.50762556       0.42017912       0.22033653 </v>
   <v>       0.65789407       0.26991061       0.34727355 </v>
   <v>       0.78108849       0.11921698       0.45634332 </v>
   <v>       0.07411322       0.18702479       0.13571184 </v>
   <v>       0.22438173       0.03675628       0.26264887 </v>
   <v>       0.37465025       0.88648777       0.38958589 </v>
   <v>       0.42613597       0.72171786       0.47127420 </v>
   <v>       0.58284638       0.88331449       0.09481756 </v>
   <v>       0.79086939       0.80360196       0.17802418 </v>
   <v>       0.94113790       0.65333344       0.30496121 </v>
   <v>       0.02661785       0.16104829       0.42570381 </v>
   <v>       0.58410531       0.59781767       0.08134062 </v>
   <v>       0.73212972       0.45988096       0.18679900 </v>
   <v>       0.88239823       0.30961245       0.31373603 </v>
   <v>       0.29861738       0.22672664       0.10217432 </v>
   <v>       0.44888589       0.07645812       0.22911134 </v>
   <v>       0.59915440       0.92618961       0.35604837 </v>
   <v>       0.76380396       0.80166985       0.43582212 </v>
   <v>       0.01537355       0.84330380       0.14448666 </v>
   <v>       0.16564206       0.69303529       0.27142369 </v>
   <v>       0.29348226       0.54730382       0.37990710 </v>
   <v>       0.76949690       0.99849969       0.08360338 </v>
   <v>       0.99218867       0.00670904       0.48465877 </v>
   <v>       0.58579929       0.40599939       0.11724657 </v>
   <v>       0.73606781       0.25573088       0.24418359 </v>
   <v>       0.88633632       0.10546236       0.37112062 </v>
   <v>       0.14902674       0.18625082       0.04404901 </v>
   <v>       0.30255546       0.02257655       0.15955891 </v>
   <v>       0.45282398       0.87230804       0.28649593 </v>
   <v>       0.60309249       0.72203952       0.41343296 </v>
   <v>       0.01931164       0.63915371       0.20187125 </v>
   <v>       0.15747781       0.50456128       0.31096724 </v>
   <v>       0.31183715       0.32914317       0.39692605 </v>
   <v>       0.86904312       0.78942223       0.07493423 </v>
   <v>       0.47365127       0.78935032       0.03429996 </v>
   <v>       0.63635413       0.69187455       0.15995199 </v>
   <v>       0.78662264       0.54160604       0.28688901 </v>
   <v>       0.92112280       0.38277310       0.40220112 </v>
   <v>       0.18377004       0.45015468       0.07967573 </v>
   <v>       0.35311030       0.30845171       0.20226433 </v>
   <v>       0.50337881       0.15818320       0.32920136 </v>
   <v>       0.63523815       0.01280229       0.44425093 </v>
   <v>       0.06986647       0.92502888       0.24457667 </v>
   <v>       0.22013498       0.77476036       0.37151370 </v>
   <v>       0.28318144       0.62305342       0.47485429 </v>
   <v>       0.91959796       0.07529739       0.11763965 </v>
   <v>       0.19090323       0.85128996       0.09038596 </v>
   <v>       0.35047896       0.64131972       0.20265741 </v>
   <v>       0.50074748       0.49105120       0.32959444 </v>
   <v>       0.64539756       0.33793815       0.44151869 </v>
   <v>       0.06723514       0.25789688       0.24496976 </v>
   <v>       0.21750365       0.10762837       0.37190678 </v>
   <v>       0.39351982       0.93930864       0.48166790 </v>
   <v>       0.92263696       0.40583200       0.13054437 </v>
   <v>       0.45944419       0.07480546       0.04892900 </v>
   <v>       0.63372279       0.02474255       0.16034507 </v>
   <v>       0.78399131       0.87447404       0.28728210 </v>
   <v>       0.96572866       0.71951302       0.40059306 </v>
  </varray>
 </structure>
</modeling>
