"Millerite NiS"                         
           1
    10.079733    0.000000    0.000000
     3.573298    9.425103    0.000000
     0.000000    0.000000   20.502010
   Ty   Ty
  36  36
Direct configuration=     1
   0.34182342  0.99308893  0.05663762
   0.39705889  0.79495179  0.12806073
   0.54732741  0.64468327  0.25612147
   0.69759592  0.49441476  0.38418220
   0.82547856  0.34250725  0.48797570
   0.11381506  0.41152895  0.17074765
   0.26408358  0.26126044  0.29880838
   0.41435209  0.11099192  0.42686911
   0.98038581  0.59483157  0.10616481
   0.08433916  0.80304273  0.45288004
   0.83057123  0.02810611  0.21343456
   0.98083975  0.87783760  0.34149529
   0.35941814  0.55864056  0.11283874
   0.50762556  0.42017912  0.22228705
   0.65789408  0.26991060  0.35034779
   0.78171301  0.12468556  0.46073782
   0.07411322  0.18702479  0.13691323
   0.22438173  0.03675628  0.26497396
   0.37465025  0.88648777  0.39303470
   0.07113080  0.37105873  0.04849326
   0.08951039  0.50973925  0.42505142
   0.59001948  0.88633739  0.10081557
   0.79086939  0.80360196  0.17960014
   0.94113790  0.65333344  0.30766088
   0.02491026  0.16597570  0.42908497
   0.58942496  0.59834493  0.08004639
   0.73212972  0.45988096  0.18845264
   0.88239823  0.30961245  0.31651337
   0.29861738  0.22672664  0.10307882
   0.44888589  0.07645812  0.23113955
   0.59915440  0.92618961  0.35920029
   0.72857426  0.80052662  0.45128314
   0.01537355  0.84330380  0.14576573
   0.16564206  0.69303528  0.27382646
   0.31591057  0.54276677  0.40188720
   0.77447296  0.99988110  0.09800966
   0.99226120  0.01148085  0.48894527
   0.57598887  0.42545456  0.12808360
   0.73606781  0.25573087  0.24634523
   0.88633632  0.10546236  0.37440596
   0.15643421  0.15829104  0.04204152
   0.30255547  0.02257655  0.16097140
   0.45282398  0.87230804  0.28903214
   0.59171173  0.73021934  0.40032516
   0.01931164  0.63915371  0.20365832
   0.16958015  0.48888520  0.33171905
   0.30299845  0.34160488  0.42959205
   0.86904312  0.78942222  0.07559758
   0.48822842  0.79184165  0.03507051
   0.63635413  0.69187455  0.16136797
   0.78662264  0.54160604  0.28942870
   0.93689116  0.39133753  0.41748943
   0.21018444  0.45981083  0.08681713
   0.35311030  0.30845171  0.20405488
   0.50337881  0.15818320  0.33211561
   0.63607144  0.01773611  0.44793834
   0.06986647  0.92502888  0.24674179
   0.22013498  0.77476036  0.37480252
   0.19711024  0.60218058  0.48498975
   0.93724976  0.06483697  0.13040759
   0.21161952  0.76597243  0.09500350
   0.35047897  0.64131971  0.20445144
   0.50074748  0.49105120  0.33251217
   0.64751983  0.34320270  0.44475219
   0.06723514  0.25789688  0.24713835
   0.21750365  0.10762836  0.37519908
   0.39158358  0.95695833  0.48266184
   0.91696662  0.40816539  0.11907761
   0.48966898  0.09104818  0.05944064
   0.63847061  0.01385630  0.17690517
   0.78399131  0.87447404  0.28982526
   0.93425982  0.72420553  0.41788599
