
96 atoms
2 atom types
   0.0000000000   11.2564630382 xlo xhi
   0.0000000000   10.0628203371 ylo yhi
   0.0000000000   21.3805384292 zlo zhi
   5.0445621212    0.0000000000    0.0000000000 xy xz yz

Atoms # atomic

     1      1    5.3522814431    4.8178808643    5.5084225044
     2      1    5.9359508271    3.8723796038    8.4444804635
     3      1    6.5196202049    2.9268783534   11.3805384225
     4      1    2.2463310804    0.7319720972    2.5723645453
     5      1    0.8913888575    0.5180280237   10.6048143027
     6      1    4.7686120570    3.3545317851    1.7966404255
     7      1    5.3522814460    2.4090305347    4.7326983845
     8      1    5.9359508187    1.4635292742    7.6687563436
     9      1    1.8774643571    3.7383592494    4.7326983845
    10      1    2.4611337299    2.7928579889    7.6687563436
    11      1    3.0448031189    1.8473567384   10.6048143027
    12      1    6.9220263184    4.6838604999    1.7966404255
    13      1   10.9805129622    4.8178808643    5.5084225044
    14      1   11.5641823462    3.8723796038    8.4444804635
    15      1   12.1478517240    2.9268783534   11.3805384225
    16      1    7.8745625995    0.7319720972    2.5723645453
    17      1    6.5196203766    0.5180280237   10.6048143027
    18      1   10.3968435761    3.3545317851    1.7966404255
    19      1   10.9805129651    2.4090305347    4.7326983845
    20      1   11.5641823378    1.4635292742    7.6687563436
    21      1    7.5056958763    3.7383592494    4.7326983845
    22      1    8.0893652490    2.7928579889    7.6687563436
    23      1    8.6730346380    1.8473567384   10.6048143027
    24      1   12.5502578375    4.6838604999    1.7966404255
    25      1    7.8745625037    9.8492910329    5.5084225044
    26      1    8.4582318877    8.9037897724    8.4444804635
    27      1    9.0419012655    7.9582885219   11.3805384225
    28      1    4.7686121410    5.7633822657    2.5723645453
    29      1    3.4136699181    5.5494381922   10.6048143027
    30      1    7.2908931175    8.3859419536    1.7966404255
    31      1    7.8745625066    7.4404407032    4.7326983845
    32      1    8.4582318793    6.4949394427    7.6687563436
    33      1    4.3997454177    8.7697694179    4.7326983845
    34      1    4.9834147905    7.8242681574    7.6687563436
    35      1    5.5670841795    6.8787669070   10.6048143027
    36      1    9.4443073790    9.7152706684    1.7966404255
    37      1   13.5027940228    9.8492910329    5.5084225044
    38      1   14.0864634068    8.9037897724    8.4444804635
    39      1   14.6701327846    7.9582885219   11.3805384225
    40      1   10.3968436601    5.7633822657    2.5723645453
    41      1    9.0419014372    5.5494381922   10.6048143027
    42      1   12.9191246367    8.3859419536    1.7966404255
    43      1   13.5027940257    7.4404407032    4.7326983845
    44      1   14.0864633984    6.4949394427    7.6687563436
    45      1   10.0279769369    8.7697694179    4.7326983845
    46      1   10.6116463096    7.8242681574    7.6687563436
    47      1   11.1953156986    6.8787669070   10.6048143027
    48      1   15.0725388981    9.7152706684    1.7966404255
    49      2    1.6618956013    1.6787143752    5.8721159181
    50      2    2.2455649853    0.7332131147    8.8081738772
    51      2    6.1227881848    3.5697168761    0.0000000000
    52      2    6.7064575738    2.6242156256    2.9360579591
    53      2    2.2455649749    3.8005526715    9.7959518663
    54      2    7.2901269524    4.7460539320    6.8598939072
    55      2    3.6005072007    1.6056464153    0.9877779891
    56      2    4.1841765897    0.6601451649    3.9238359481
    57      2    3.3807113250    4.9443391703    0.9877779891
    58      2    3.9643807089    3.9988379098    3.9238359481
    59      2    4.5480500867    3.0533366593    6.8598939072
    60      2    5.1317194707    2.1078353988    9.7959518663
    61      2    7.2901271205    1.6787143752    5.8721159181
    62      2    7.8737965044    0.7332131147    8.8081738772
    63      2   11.7510197039    3.5697168761    0.0000000000
    64      2   12.3346890930    2.6242156256    2.9360579591
    65      2    7.8737964940    3.8005526715    9.7959518663
    66      2   12.9183584715    4.7460539320    6.8598939072
    67      2    9.2287387198    1.6056464153    0.9877779891
    68      2    9.8124081088    0.6601451649    3.9238359481
    69      2    9.0089428441    4.9443391703    0.9877779891
    70      2    9.5926122281    3.9988379098    3.9238359481
    71      2   10.1762816058    3.0533366593    6.8598939072
    72      2   10.7599509898    2.1078353988    9.7959518663
    73      2    4.1841766619    6.7101245437    5.8721159181
    74      2    4.7678460459    5.7646232832    8.8081738772
    75      2    8.6450692454    8.6011270446    0.0000000000
    76      2    9.2287386344    7.6556257942    2.9360579591
    77      2    4.7678460354    8.8319628400    9.7959518663
    78      2    9.8124080130    9.7774641005    6.8598939072
    79      2    6.1227882613    6.6370565839    0.9877779891
    80      2    6.7064576503    5.6915553334    3.9238359481
    81      2    5.9029923855    9.9757493388    0.9877779891
    82      2    6.4866617695    9.0302480783    3.9238359481
    83      2    7.0703311473    8.0847468279    6.8598939072
    84      2    7.6540005313    7.1392455673    9.7959518663
    85      2    9.8124081810    6.7101245437    5.8721159181
    86      2   10.3960775650    5.7646232832    8.8081738772
    87      2   14.2733007645    8.6011270446    0.0000000000
    88      2   14.8569701535    7.6556257942    2.9360579591
    89      2   10.3960775546    8.8319628400    9.7959518663
    90      2   15.4406395321    9.7774641005    6.8598939072
    91      2   11.7510197804    6.6370565839    0.9877779891
    92      2   12.3346891694    5.6915553334    3.9238359481
    93      2   11.5312239047    9.9757493388    0.9877779891
    94      2   12.1148932887    9.0302480783    3.9238359481
    95      2   12.6985626664    8.0847468279    6.8598939072
    96      2   13.2822320504    7.1392455673    9.7959518663
