       N       E                     dE             d eps       ncg     rms          rms(c)
DAV:   1     0.148507841834E+05    0.14851E+05   -0.73669E+05  1656   0.170E+03
DAV:   2     0.102839713076E+04   -0.13822E+05   -0.13344E+05  1432   0.550E+02
DAV:   3    -0.481221766986E+03   -0.15096E+04   -0.14137E+04  1576   0.194E+02
DAV:   4    -0.590083548252E+03   -0.10886E+03   -0.10705E+03  1592   0.450E+01
DAV:   5    -0.594445274344E+03   -0.43617E+01   -0.43531E+01  1768   0.986E+00    0.999E+01
DAV:   6    -0.709981092691E+03   -0.11554E+03   -0.13943E+03  1688   0.117E+02    0.190E+02
DAV:   7    -0.568462814245E+03    0.14152E+03   -0.27600E+02  1608   0.704E+01    0.869E+01
DAV:   8    -0.779660571780E+03   -0.21120E+03   -0.19433E+02  1864   0.107E+02    0.195E+02
DAV:   9    -0.625775595284E+03    0.15388E+03   -0.14582E+02  1888   0.731E+01    0.174E+02
DAV:  10    -0.560196186242E+03    0.65579E+02   -0.14392E+02  1872   0.473E+01    0.800E+01
DAV:  11    -0.565733842756E+03   -0.55377E+01   -0.85598E+01  1888   0.522E+01    0.748E+01
DAV:  12    -0.539837610131E+03    0.25896E+02   -0.59209E+01  1744   0.410E+01    0.449E+01
DAV:  13    -0.534380235846E+03    0.54574E+01   -0.33498E+01  1792   0.331E+01    0.447E+01
DAV:  14    -0.527586803279E+03    0.67934E+01   -0.16434E+01  1808   0.199E+01    0.285E+01
DAV:  15    -0.526568369958E+03    0.10184E+01   -0.55801E+00  1816   0.111E+01    0.244E+01
DAV:  16    -0.524943573876E+03    0.16248E+01   -0.21674E+00  1832   0.734E+00    0.190E+01
DAV:  17    -0.525035549443E+03   -0.91976E-01   -0.22297E+00  1792   0.901E+00    0.191E+01
DAV:  18    -0.523711325615E+03    0.13242E+01   -0.18728E+00  1912   0.786E+00    0.112E+01
DAV:  19    -0.523300466284E+03    0.41086E+00   -0.66123E-01  1824   0.368E+00    0.726E+00
DAV:  20    -0.523176396951E+03    0.12407E+00   -0.27023E-01  1816   0.257E+00    0.512E+00
DAV:  21    -0.523147198785E+03    0.29198E-01   -0.13765E-01  1760   0.151E+00    0.339E+00
DAV:  22    -0.523143812081E+03    0.33867E-02   -0.95989E-02  1616   0.141E+00    0.234E+00
DAV:  23    -0.523130689822E+03    0.13122E-01   -0.40943E-02  1568   0.957E-01    0.198E+00
DAV:  24    -0.523125660775E+03    0.50290E-02   -0.31609E-02  1760   0.996E-01    0.157E+00
DAV:  25    -0.523125072658E+03    0.58812E-03   -0.44575E-02  1848   0.101E+00    0.174E+00
DAV:  26    -0.523115391215E+03    0.96814E-02   -0.19233E-02  1792   0.433E-01    0.409E-01
DAV:  27    -0.523116517358E+03   -0.11261E-02   -0.26990E-03  1480   0.173E-01    0.491E-01
DAV:  28    -0.523116282848E+03    0.23451E-03   -0.81323E-04  1488   0.913E-02    0.309E-01
DAV:  29    -0.523116756677E+03   -0.47383E-03   -0.37464E-04  1136   0.574E-02    0.173E-01
DAV:  30    -0.523117628296E+03   -0.87162E-03   -0.45783E-04   920   0.673E-02    0.814E-02
DAV:  31    -0.523118159933E+03   -0.53164E-03   -0.18403E-04  1008   0.314E-02    0.812E-02
DAV:  32    -0.523119095190E+03   -0.93526E-03   -0.61713E-05   888   0.233E-02    0.690E-02
DAV:  33    -0.523120292186E+03   -0.11970E-02   -0.18517E-04  1032   0.191E-02    0.374E-02
DAV:  34    -0.523120497986E+03   -0.20580E-03   -0.28658E-05   856   0.147E-02    0.344E-02
DAV:  35    -0.523120742660E+03   -0.24467E-03   -0.20253E-05   840   0.923E-03    0.256E-02
DAV:  36    -0.523120945011E+03   -0.20235E-03   -0.22309E-05   864   0.118E-02    0.186E-02
DAV:  37    -0.523120990199E+03   -0.45187E-04   -0.13996E-05   848   0.988E-03
   1 F= -.52312099E+03 E0= -.52240949E+03  d E =-.142300E+01
