"Millerite NiS"                         
           1
    10.062820    5.044562    0.000000
     0.000000   11.256463    0.000000
     0.000000    0.000000   22.107925
   Ni   S 
    52    52
Direct configuration=     1
   0.26092070  0.47878036  0.26561135
   0.35488056  0.38482049  0.39841703
   0.44884043  0.29086063  0.53122270
   0.07300096  0.16670011  0.00000000
   0.16696083  0.07274024  0.13280568
   0.05611868  0.05147940  0.49613465
   0.27423907  0.33335899  0.09771762
   0.36819893  0.23939913  0.23052330
   0.46215880  0.14543926  0.36332897
   0.00030194  0.37150212  0.23052330
   0.09426181  0.27754226  0.36332897
   0.18822168  0.18358239  0.49613465
   0.40634206  0.46546199  0.09771762
   0.76092070  0.47878036  0.26561135
   0.85488056  0.38482049  0.39841703
   0.94884043  0.29086063  0.53122270
   0.57300096  0.16670011  0.00000000
   0.66696083  0.07274024  0.13280568
   0.55611868  0.05147940  0.49613465
   0.77423907  0.33335899  0.09771762
   0.86819893  0.23939913  0.23052330
   0.96215880  0.14543926  0.36332897
   0.50030194  0.37150212  0.23052330
   0.59426181  0.27754226  0.36332897
   0.68822168  0.18358239  0.49613465
   0.90634206  0.46546199  0.09771762
   0.26092070  0.97878036  0.26561135
   0.35488056  0.88482049  0.39841703
   0.44884043  0.79086063  0.53122270
   0.07300096  0.66670011  0.00000000
   0.16696083  0.57274024  0.13280568
   0.05611868  0.55147940  0.49613465
   0.27423907  0.83335899  0.09771762
   0.36819893  0.73939913  0.23052330
   0.46215880  0.64543926  0.36332897
   0.00030194  0.87150212  0.23052330
   0.09426181  0.77754226  0.36332897
   0.18822168  0.68358239  0.49613465
   0.40634206  0.96546199  0.09771762
   0.76092070  0.97878036  0.26561135
   0.85488056  0.88482049  0.39841703
   0.94884043  0.79086063  0.53122270
   0.57300096  0.66670011  0.00000000
   0.66696083  0.57274024  0.13280568
   0.55611868  0.55147940  0.49613465
   0.77423907  0.83335899  0.09771762
   0.86819893  0.73939913  0.23052330
   0.96215880  0.64543926  0.36332897
   0.50030194  0.87150212  0.23052330
   0.59426181  0.77754226  0.36332897
   0.68822168  0.68358239  0.49613465
   0.90634206  0.96546199  0.09771762
   0.07287763  0.16682343  0.28206217
   0.16683750  0.07286357  0.41486784
   0.38495789  0.35474317  0.01645082
   0.47891775  0.26078330  0.14925649
   0.26079737  0.47890369  0.54767352
   0.03023342  0.37768264  0.45954766
   0.43627354  0.47164251  0.32674198
   0.24835381  0.15956225  0.06113063
   0.34231368  0.06560239  0.19393631
   0.08013882  0.49134725  0.06113063
   0.17409868  0.39738738  0.19393631
   0.26805855  0.30342751  0.32674198
   0.36201842  0.20946764  0.45954766
   0.57287763  0.16682343  0.28206217
   0.66683750  0.07286357  0.41486784
   0.88495789  0.35474317  0.01645082
   0.97891775  0.26078330  0.14925649
   0.76079737  0.47890369  0.54767352
   0.53023342  0.37768264  0.45954766
   0.93627354  0.47164251  0.32674198
   0.74835381  0.15956225  0.06113063
   0.84231368  0.06560239  0.19393631
   0.58013882  0.49134725  0.06113063
   0.67409868  0.39738738  0.19393631
   0.76805855  0.30342751  0.32674198
   0.86201842  0.20946764  0.45954766
   0.07287763  0.66682343  0.28206217
   0.16683750  0.57286357  0.41486784
   0.38495789  0.85474317  0.01645082
   0.47891775  0.76078330  0.14925649
   0.26079737  0.97890369  0.54767352
   0.03023342  0.87768264  0.45954766
   0.43627354  0.97164251  0.32674198
   0.24835381  0.65956225  0.06113063
   0.34231368  0.56560239  0.19393631
   0.08013882  0.99134725  0.06113063
   0.17409868  0.89738738  0.19393631
   0.26805855  0.80342751  0.32674198
   0.36201842  0.70946764  0.45954766
   0.57287763  0.66682343  0.28206217
   0.66683750  0.57286357  0.41486784
   0.88495789  0.85474317  0.01645082
   0.97891775  0.76078330  0.14925649
   0.76079737  0.97890369  0.54767352
   0.53023342  0.87768264  0.45954766
   0.93627354  0.97164251  0.32674198
   0.74835381  0.65956225  0.06113063
   0.84231368  0.56560239  0.19393631
   0.58013882  0.99134725  0.06113063
   0.67409868  0.89738738  0.19393631
   0.76805855  0.80342751  0.32674198
   0.86201842  0.70946764  0.45954766
