       N       E                     dE             d eps       ncg     rms          rms(c)
DAV:   1     0.961135857930E+04    0.96114E+04   -0.50774E+05  1168   0.162E+03
DAV:   2     0.573462665368E+03   -0.90379E+04   -0.87031E+04  1024   0.519E+02
DAV:   3    -0.344248235263E+03   -0.91771E+03   -0.86788E+03  1104   0.176E+02
DAV:   4    -0.403153561192E+03   -0.58905E+02   -0.58203E+02  1160   0.394E+01
DAV:   5    -0.404975420674E+03   -0.18219E+01   -0.18192E+01  1232   0.736E+00    0.825E+01
DAV:   6    -0.493805908902E+03   -0.88830E+02   -0.98479E+02  1168   0.119E+02    0.161E+02
DAV:   7    -0.375060276559E+03    0.11875E+03   -0.17607E+02  1128   0.628E+01    0.640E+01
DAV:   8    -0.461667298711E+03   -0.86607E+02   -0.16809E+02  1336   0.793E+01    0.167E+02
DAV:   9    -0.374654061351E+03    0.87013E+02   -0.11847E+02  1184   0.442E+01    0.813E+01
DAV:  10    -0.372173286870E+03    0.24808E+01   -0.79786E+01  1328   0.347E+01    0.496E+01
DAV:  11    -0.383634389207E+03   -0.11461E+02   -0.35217E+01  1320   0.421E+01    0.869E+01
DAV:  12    -0.363478061301E+03    0.20156E+02   -0.26747E+01  1304   0.236E+01    0.346E+01
DAV:  13    -0.361686527897E+03    0.17915E+01   -0.16912E+01  1280   0.282E+01    0.358E+01
DAV:  14    -0.358162236057E+03    0.35243E+01   -0.11903E+01  1296   0.207E+01    0.248E+01
DAV:  15    -0.356027879095E+03    0.21344E+01   -0.40365E+00  1232   0.137E+01    0.175E+01
DAV:  16    -0.355618099988E+03    0.40978E+00   -0.19337E+00  1304   0.758E+00    0.160E+01
DAV:  17    -0.354879594967E+03    0.73851E+00   -0.12141E+00  1232   0.674E+00    0.136E+01
DAV:  18    -0.354405003967E+03    0.47459E+00   -0.63979E-01  1320   0.450E+00    0.110E+01
DAV:  19    -0.354223459857E+03    0.18154E+00   -0.53370E-01  1312   0.458E+00    0.955E+00
DAV:  20    -0.354074487837E+03    0.14897E+00   -0.40044E-01  1312   0.311E+00    0.839E+00
DAV:  21    -0.353935605087E+03    0.13888E+00   -0.28660E-01  1328   0.321E+00    0.737E+00
DAV:  22    -0.353839238500E+03    0.96367E-01   -0.36384E-01  1352   0.359E+00    0.600E+00
DAV:  23    -0.353718150741E+03    0.12109E+00   -0.33303E-01  1328   0.345E+00    0.333E+00
DAV:  24    -0.353738005242E+03   -0.19855E-01   -0.19021E-01  1312   0.248E+00    0.374E+00
DAV:  25    -0.353710283657E+03    0.27722E-01   -0.90952E-02  1200   0.192E+00    0.268E+00
DAV:  26    -0.353701290680E+03    0.89930E-02   -0.38108E-02  1176   0.905E-01    0.216E+00
DAV:  27    -0.353693988390E+03    0.73023E-02   -0.19498E-02  1208   0.802E-01    0.171E+00
DAV:  28    -0.353695707630E+03   -0.17192E-02   -0.24247E-02  1208   0.115E+00    0.186E+00
DAV:  29    -0.353684360507E+03    0.11347E-01   -0.20736E-02  1376   0.965E-01    0.103E+00
DAV:  30    -0.353686400441E+03   -0.20399E-02   -0.16329E-02  1256   0.957E-01    0.115E+00
DAV:  31    -0.353682176604E+03    0.42238E-02   -0.11053E-02  1288   0.654E-01    0.617E-01
DAV:  32    -0.353681889978E+03    0.28663E-03   -0.40369E-03  1192   0.388E-01    0.408E-01
DAV:  33    -0.353682130701E+03   -0.24072E-03   -0.14210E-03  1048   0.214E-01    0.330E-01
DAV:  34    -0.353682095422E+03    0.35279E-04   -0.84170E-04   936   0.206E-01
   1 F= -.35368210E+03 E0= -.35312778E+03  d E =-.110863E+01
