"Millerite NiS"                         
           1
    16.884694    0.000000    0.000000
     0.000000    9.578410    0.000000
     0.000000    0.000000   16.654646
   Ty   Ty
  37  37
Direct configuration=     1
   0.78004630  0.14529696  0.12347080
   0.80211224  0.14529696  0.28470466
   0.22288804  0.64529696  0.09768613
   0.29733028  0.64529696  0.21607389
   0.46975828  0.14529696  0.24694159
   0.95247430  0.64529696  0.15433850
   0.97348734  0.64529696  0.31701747
   0.18240328  0.14529696  0.04898432
   0.12490229  0.14529696  0.18520619
   0.10871185  0.14529696  0.32597593
   0.64218627  0.64529696  0.27780929
   0.91069235  0.00411863  0.12047772
   0.94406119  0.01240330  0.27024075
   0.40049831  0.52013113  0.04553605
   0.42486675  0.51319396  0.19160760
   0.47016834  0.45643544  0.32208009
   0.55779400  0.01940787  0.08158516
   0.59729475  0.01319396  0.22247530
   0.08001077  0.51319396  0.12987220
   0.11183657  0.50722910  0.29560844
   0.25243876  0.01319396  0.16073990
   0.29210995  0.97765406  0.30475294
   0.77645146  0.43285113  0.12051911
   0.76972274  0.51319396  0.25334300
   0.91069235  0.28647528  0.12047772
   0.94406119  0.27819062  0.27024075
   0.40049831  0.77046278  0.04553605
   0.42486675  0.77739996  0.19160760
   0.47016834  0.83415848  0.32208009
   0.55779400  0.27118605  0.08158516
   0.59729475  0.27739996  0.22247530
   0.08001077  0.77739996  0.12987220
   0.11183657  0.78336481  0.29560844
   0.25243876  0.27739996  0.16073990
   0.29210995  0.31293985  0.30475294
   0.77645146  0.85774278  0.12051911
   0.76972274  0.77739996  0.25334300
   0.99220873  0.14529696  0.35462535
   0.99146120  0.14529696  0.18349304
   0.47817731  0.64529696  0.10277527
   0.50874518  0.64529696  0.27609614
   0.64660522  0.14529696  0.12175764
   0.67993816  0.14529696  0.28166716
   0.11722339  0.64529696  0.04031856
   0.16388920  0.64529696  0.21436074
   0.07611794  0.64529696  0.38224849
   0.29867393  0.14529696  0.07435910
   0.33631719  0.14529696  0.24522844
   0.81903321  0.64529696  0.15262534
   0.84938785  0.64529696  0.31497520
   0.81778510  0.29218699  0.04028266
   0.82906105  0.31351196  0.21464750
   0.31177707  0.81351196  0.12204440
   0.35249865  0.79346388  0.29594096
   0.48366785  0.32304273  0.17163557
   0.53148389  0.27905271  0.32805471
   0.00148905  0.81351196  0.24551520
   0.96781927  0.82055739  0.08308504
   0.14062466  0.32027523  0.10658364
   0.17391704  0.31351196  0.27638290
   0.66770601  0.82637704  0.18849298
   0.69475702  0.78818356  0.34850459
   0.31177707  0.47708196  0.12204440
   0.35249865  0.49713003  0.29594096
   0.81778510  0.99840692  0.04028266
   0.82906105  0.97708196  0.21464750
   0.00148905  0.47708196  0.24551520
   0.96781927  0.47003653  0.08308504
   0.48366785  0.96755119  0.17163557
   0.53148389  0.01154121  0.32805471
   0.66770601  0.46421687  0.18849298
   0.69475702  0.50241035  0.34850459
   0.14062466  0.97031868  0.10658364
   0.17391704  0.97708196  0.27638290
