 vasp.6.1.0 28Jan20 (build Mar 31 2020 17:42:31) gamma-only                     
  
 executed on             LinuxIFC date 2020.04.12  14:40:27
 running on   48 total cores
 distrk:  each k-point on   48 cores,    1 groups
 distr:  one band on NCORE=   6 cores,    8 groups


--------------------------------------------------------------------------------------------------------


 INCAR:
 POTCAR:    PAW_PBE Ni_pv 06Sep2000               
 POTCAR:    PAW_PBE S 06Sep2000                   
 POTCAR:    PAW_PBE Ni_pv 06Sep2000               
   VRHFIN =Ni:                                                                                      
   LEXCH  = PE                                                                                      
   EATOM  =  3501.1230 eV,  257.3253 Ry                                                             
                                                                                                    
   TITEL  = PAW_PBE Ni_pv 06Sep2000                                                                 
   LULTRA =        F    use ultrasoft PP ?                                                          
   IUNSCR =        1    unscreen: 0-lin 1-nonlin 2-no                                               
   RPACOR =    1.500    partial core radius                                                         
   POMASS =   58.690; ZVAL   =   16.000    mass and valenz                                          
   RCORE  =    2.000    outmost cutoff radius                                                       
   RWIGS  =    2.000; RWIGS  =    1.058    wigner-seitz radius (au A)                               
   ENMAX  =  367.986; ENMIN  =  275.989 eV                                                          
   RCLOC  =    1.301    cutoff for local pot                                                        
   LCOR   =        T    correct aug charges                                                         
   LPAW   =        T    paw PP                                                                      
   EAUG   =  703.443                                                                                
   DEXC   =    0.000                                                                                
   RMAX   =    2.041    core radius for proj-oper                                                   
   RAUG   =    1.300    factor for augmentation sphere                                              
   RDEP   =    2.103    radius for radial grids                                                     
   RDEPT  =    1.618    core radius for aug-charge                                                  
                                                                                                    
   Atomic configuration                                                                             
    8 entries                                                                                       
     n  l   j            E        occ.                                                              
     1  0  0.50     -8206.4253   2.0000                                                             
     2  0  0.50      -976.1748   2.0000                                                             
     2  1  1.50      -839.0571   6.0000                                                             
     3  0  0.50      -105.9991   2.0000                                                             
     3  1  1.50       -66.4603   6.0000                                                             
     3  2  2.50        -4.6458   9.0000                                                             
     4  0  0.50        -4.4926   1.0000                                                             
     4  3  2.50        -1.3606   0.0000                                                             
   Description                                                                                      
     l       E           TYP  RCUT    TYP  RCUT                                                     
     1    -66.4602962     23  1.700                                                                 
     1     -1.3605826     23  1.700                                                                 
     2     -4.6457867     23  2.000                                                                 
     2     -6.0063693     23  2.000                                                                 
     0     -4.4925576     23  1.900                                                                 
     0     16.3626226     23  1.900                                                                 
  local pseudopotential read in
  partial core-charges read in
  partial kinetic energy density read in
  atomic valenz-charges read in
  non local Contribution for L=           1  read in
    real space projection operators read in
  non local Contribution for L=           1  read in
    real space projection operators read in
  non local Contribution for L=           2  read in
    real space projection operators read in
  non local Contribution for L=           2  read in
    real space projection operators read in
  non local Contribution for L=           0  read in
    real space projection operators read in
  non local Contribution for L=           0  read in
    real space projection operators read in
    PAW grid and wavefunctions read in
 
   number of l-projection  operators is LMAX  =           6
   number of lm-projection operators is LMMAX =          18
 
 POTCAR:    PAW_PBE S 06Sep2000                   
   VRHFIN =S : s2p4                                                                                 
   LEXCH  = PE                                                                                      
   EATOM  =   276.8230 eV,   20.3459 Ry                                                             
                                                                                                    
   TITEL  = PAW_PBE S 06Sep2000                                                                     
   LULTRA =        F    use ultrasoft PP ?                                                          
   IUNSCR =        1    unscreen: 0-lin 1-nonlin 2-no                                               
   RPACOR =    1.500    partial core radius                                                         
   POMASS =   32.066; ZVAL   =    6.000    mass and valenz                                          
   RCORE  =    1.900    outmost cutoff radius                                                       
   RWIGS  =    2.200; RWIGS  =    1.164    wigner-seitz radius (au A)                               
   ENMAX  =  258.689; ENMIN  =  194.016 eV                                                          
   ICORE  =        2    local potential                                                             
   LCOR   =        T    correct aug charges                                                         
   LPAW   =        T    paw PP                                                                      
   EAUG   =  335.092                                                                                
   DEXC   =    0.000                                                                                
   RMAX   =    1.942    core radius for proj-oper                                                   
   RAUG   =    1.300    factor for augmentation sphere                                              
   RDEP   =    1.954    radius for radial grids                                                     
   RDEPT  =    1.744    core radius for aug-charge                                                  
                                                                                                    
   Atomic configuration                                                                             
    6 entries                                                                                       
     n  l   j            E        occ.                                                              
     1  0  0.50     -2405.8406   2.0000                                                             
     2  0  0.50      -211.7007   2.0000                                                             
     2  1  1.50      -156.4958   6.0000                                                             
     3  0  0.50       -17.2562   2.0000                                                             
     3  1  0.50        -7.0085   4.0000                                                             
     3  2  1.50        -6.8029   0.0000                                                             
   Description                                                                                      
     l       E           TYP  RCUT    TYP  RCUT                                                     
     0    -17.2561641     23  1.900                                                                 
     0    -15.8743224     23  1.900                                                                 
     1     -7.0085400     23  1.900                                                                 
     1     -2.7779785     23  1.900                                                                 
     2     -6.8029130     23  1.900                                                                 
  local pseudopotential read in
  partial core-charges read in
  partial kinetic energy density read in
  atomic valenz-charges read in
  non local Contribution for L=           0  read in
    real space projection operators read in
  non local Contribution for L=           0  read in
    real space projection operators read in
  non local Contribution for L=           1  read in
    real space projection operators read in
  non local Contribution for L=           1  read in
    real space projection operators read in
    PAW grid and wavefunctions read in
 
   number of l-projection  operators is LMAX  =           4
   number of lm-projection operators is LMMAX =           8
 
 Optimization of the real space projectors (new method)

 maximal supplied QI-value         = 18.90
 optimisation between [QCUT,QGAM] = [ 10.77, 21.73] = [ 32.49,132.25] Ry 
 Optimized for a Real-space Cutoff    1.38 Angstroem

   l    n(q)    QCUT    max X(q) W(low)/X(q) W(high)/X(q)  e(spline) 
   1      8    10.771     2.836    0.40E-04    0.29E-04    0.12E-06
   1      8    10.771     4.023    0.10E-03    0.48E-04    0.29E-06
   2      8    10.771    73.368    0.42E-03    0.97E-04    0.44E-06
   2      8    10.771    69.010    0.42E-03    0.99E-04    0.45E-06
   0      9    10.771    54.797    0.10E-03    0.56E-04    0.74E-07
   0      9    10.771    24.266    0.89E-04    0.49E-04    0.67E-07
 Optimization of the real space projectors (new method)

 maximal supplied QI-value         = 19.84
 optimisation between [QCUT,QGAM] = [ 10.71, 21.63] = [ 32.15,130.99] Ry 
 Optimized for a Real-space Cutoff    1.19 Angstroem

   l    n(q)    QCUT    max X(q) W(low)/X(q) W(high)/X(q)  e(spline) 
   0      8    10.715   187.594    0.41E-03    0.53E-04    0.66E-07
   0      8    10.715   164.243    0.41E-03    0.53E-04    0.65E-07
   1      7    10.715    67.533    0.19E-03    0.59E-03    0.68E-07
   1      7    10.715    50.729    0.19E-03    0.58E-03    0.67E-07
  PAW_PBE Ni_pv 06Sep2000               :
 energy of atom  1       EATOM=-3501.1230
 kinetic energy error for atom=    0.0925 (will be added to EATOM!!)
  PAW_PBE S 06Sep2000                   :
 energy of atom  2       EATOM= -276.8230
 kinetic energy error for atom=    0.0033 (will be added to EATOM!!)
 
 
 POSCAR: Structure 25 made from -120-5.xsd file
  positions in direct lattice
  No initial velocities read in
 exchange correlation table for  LEXCH =        8
   RHO(1)=    0.500       N(1)  =     2000
   RHO(2)=  100.500       N(2)  =     4000
 


--------------------------------------------------------------------------------------------------------


 ion  position               nearest neighbor table
   1  0.256  0.016  0.152-  75 2.25  65 2.26  81 2.26  53 2.36  93 2.36   5 2.53   9 2.53
   2  0.256  0.016  0.481-  76 2.25  66 2.26  82 2.26  54 2.36  94 2.36  10 2.53   6 2.53
   3  0.006  0.266  0.317-  62 2.25  68 2.26  72 2.26  55 2.36  59 2.36   7 2.53  23 2.53
   4  0.006  0.266  0.645-  69 2.26  73 2.26  56 2.36  60 2.36   8 2.53  24 2.53
   5  0.256  0.016  0.066-  79 2.25  61 2.26  81 2.26  49 2.36  93 2.36   9 2.53   1 2.53
   6  0.256  0.016  0.394-  80 2.25  62 2.26  82 2.26  50 2.36  94 2.36   2 2.53  10 2.53
   7  0.006  0.266  0.230-  65 2.25  72 2.26  63 2.26  59 2.36  51 2.36   3 2.53  23 2.53
   8  0.006  0.266  0.558-  66 2.25  73 2.26  64 2.26  60 2.36  52 2.36   4 2.53  24 2.53
   9  0.190  0.215  0.109-  57 2.25  61 2.26  65 2.26  49 2.36  53 2.36   5 2.53   1 2.53
  10  0.190  0.215  0.438-  58 2.25  66 2.26  62 2.26  54 2.36  50 2.36   2 2.53   6 2.53
  11  0.440  0.465  0.273-  83 2.25  51 2.26  55 2.26  63 2.36  68 2.36  19 2.53  15 2.53
  12  0.440  0.465  0.602-  84 2.25  56 2.26  52 2.26  69 2.36  64 2.36  20 2.53  16 2.53
  13  0.756  0.016  0.152-  87 2.25  53 2.26  93 2.26  65 2.36  81 2.36  17 2.53  21 2.53
  14  0.756  0.016  0.481-  88 2.25  54 2.26  94 2.26  66 2.36  82 2.36  22 2.53  18 2.53
  15  0.506  0.266  0.317-  50 2.25  55 2.26  59 2.26  68 2.36  72 2.36  19 2.53  11 2.53
  16  0.506  0.266  0.645-  56 2.26  60 2.26  69 2.36  73 2.36  20 2.53  12 2.53
  17  0.756  0.016  0.066-  91 2.25  49 2.26  93 2.26  61 2.36  81 2.36  21 2.53  13 2.53
  18  0.756  0.016  0.394-  92 2.25  50 2.26  94 2.26  62 2.36  82 2.36  14 2.53  22 2.53
  19  0.506  0.266  0.230-  53 2.25  59 2.26  51 2.26  72 2.36  63 2.36  15 2.53  11 2.53
  20  0.506  0.266  0.558-  54 2.25  60 2.26  52 2.26  73 2.36  64 2.36  16 2.53  12 2.53
  21  0.690  0.215  0.109-  70 2.25  49 2.26  53 2.26  61 2.36  65 2.36  17 2.53  13 2.53
  22  0.690  0.215  0.438-  71 2.25  54 2.26  50 2.26  66 2.36  62 2.36  14 2.53  18 2.53
  23  0.940  0.465  0.273-  95 2.25  63 2.26  68 2.26  51 2.36  55 2.36   7 2.53   3 2.53
  24  0.940  0.465  0.602-  96 2.25  69 2.26  64 2.26  56 2.36  52 2.36   8 2.53   4 2.53
  25  0.256  0.516  0.152-  51 2.25  89 2.26  57 2.26  77 2.36  70 2.36  29 2.53  33 2.53
  26  0.256  0.516  0.481-  52 2.25  90 2.26  58 2.26  78 2.36  71 2.36  34 2.53  30 2.53
  27  0.006  0.766  0.317-  86 2.25  92 2.26  95 2.26  80 2.36  83 2.36  31 2.53  47 2.53
  28  0.006  0.766  0.645-  96 2.26  84 2.36  32 2.53  48 2.53
  29  0.256  0.516  0.066-  85 2.26  57 2.26  70 2.36  33 2.53  25 2.53
  30  0.256  0.516  0.394-  55 2.25  86 2.26  58 2.26  74 2.36  71 2.36  26 2.53  34 2.53
  31  0.006  0.766  0.230-  89 2.25  95 2.26  87 2.26  83 2.36  75 2.36  27 2.53  47 2.53
  32  0.006  0.766  0.558-  90 2.25  96 2.26  88 2.26  84 2.36  76 2.36  28 2.53  48 2.53
  33  0.190  0.715  0.109-  81 2.25  85 2.26  89 2.26  77 2.36  29 2.53  25 2.53
  34  0.190  0.715  0.438-  82 2.25  90 2.26  86 2.26  78 2.36  74 2.36  26 2.53  30 2.53
  35  0.440  0.965  0.273-  59 2.25  75 2.26  80 2.26  87 2.36  92 2.36  43 2.53  39 2.53
  36  0.440  0.965  0.602-  60 2.25  76 2.26  88 2.36  44 2.53  40 2.53
  37  0.756  0.516  0.152-  63 2.25  77 2.26  70 2.26  89 2.36  57 2.36  41 2.53  45 2.53
  38  0.756  0.516  0.481-  64 2.25  78 2.26  71 2.26  90 2.36  58 2.36  46 2.53  42 2.53
  39  0.506  0.766  0.317-  74 2.25  80 2.26  83 2.26  92 2.36  95 2.36  43 2.53  35 2.53
  40  0.506  0.766  0.645-  84 2.26  96 2.36  44 2.53  36 2.53
  41  0.756  0.516  0.066-  67 2.25  70 2.26  85 2.36  57 2.36  45 2.53  37 2.53
  42  0.756  0.516  0.394-  68 2.25  74 2.26  71 2.26  86 2.36  58 2.36  38 2.53  46 2.53
  43  0.506  0.766  0.230-  77 2.25  83 2.26  75 2.26  95 2.36  87 2.36  39 2.53  35 2.53
  44  0.506  0.766  0.558-  78 2.25  84 2.26  76 2.26  96 2.36  88 2.36  40 2.53  36 2.53
  45  0.690  0.715  0.109-  93 2.25  77 2.26  85 2.36  89 2.36  41 2.53  37 2.53
  46  0.690  0.715  0.438-  94 2.25  78 2.26  74 2.26  90 2.36  86 2.36  38 2.53  42 2.53
  47  0.940  0.965  0.273-  72 2.25  87 2.26  92 2.26  75 2.36  80 2.36  31 2.53  27 2.53
  48  0.940  0.965  0.602-  73 2.25  88 2.26  76 2.36  32 2.53  28 2.53
  49  0.468  0.167  0.054-  21 2.26  17 2.26   9 2.36   5 2.36
  50  0.468  0.167  0.382-  15 2.25  18 2.26  22 2.26   6 2.36  10 2.36
  51  0.218  0.417  0.218-  25 2.25  11 2.26  19 2.26  23 2.36   7 2.36
  52  0.218  0.417  0.547-  26 2.25  12 2.26  20 2.26  24 2.36   8 2.36
  53  0.468  0.167  0.164-  19 2.25  13 2.26  21 2.26   1 2.36   9 2.36
  54  0.468  0.167  0.493-  20 2.25  22 2.26  14 2.26  10 2.36   2 2.36
  55  0.218  0.417  0.329-  30 2.25  15 2.26  11 2.26   3 2.36  23 2.36
  56  0.218  0.417  0.657-  12 2.26  16 2.26  24 2.36   4 2.36
  57  0.053  0.414  0.109-   9 2.25  29 2.26  25 2.26  41 2.36  37 2.36
  58  0.053  0.414  0.438-  10 2.25  26 2.26  30 2.26  38 2.36  42 2.36
  59  0.303  0.164  0.273-  35 2.25  19 2.26  15 2.26   7 2.36   3 2.36
  60  0.303  0.164  0.602-  36 2.25  20 2.26  16 2.26   8 2.36   4 2.36
  61  0.968  0.167  0.054-   9 2.26   5 2.26  21 2.36  17 2.36
  62  0.968  0.167  0.382-   3 2.25   6 2.26  10 2.26  18 2.36  22 2.36
  63  0.718  0.417  0.218-  37 2.25  23 2.26   7 2.26  11 2.36  19 2.36
  64  0.718  0.417  0.547-  38 2.25  24 2.26   8 2.26  12 2.36  20 2.36
  65  0.968  0.167  0.164-   7 2.25   1 2.26   9 2.26  13 2.36  21 2.36
  66  0.968  0.167  0.493-   8 2.25  10 2.26   2 2.26  22 2.36  14 2.36
  67  0.718  0.417  0.000-  41 2.25
  68  0.718  0.417  0.329-  42 2.25   3 2.26  23 2.26  15 2.36  11 2.36
  69  0.718  0.417  0.657-  24 2.26   4 2.26  12 2.36  16 2.36
  70  0.553  0.414  0.109-  21 2.25  41 2.26  37 2.26  29 2.36  25 2.36
  71  0.553  0.414  0.438-  22 2.25  38 2.26  42 2.26  26 2.36  30 2.36
  72  0.803  0.164  0.273-  47 2.25   7 2.26   3 2.26  19 2.36  15 2.36
  73  0.803  0.164  0.602-  48 2.25   8 2.26   4 2.26  20 2.36  16 2.36
  74  0.468  0.667  0.382-  39 2.25  42 2.26  46 2.26  30 2.36  34 2.36
  75  0.218  0.917  0.218-   1 2.25  35 2.26  43 2.26  47 2.36  31 2.36
  76  0.218  0.917  0.547-   2 2.25  36 2.26  44 2.26  48 2.36  32 2.36
  77  0.468  0.667  0.164-  43 2.25  37 2.26  45 2.26  25 2.36  33 2.36
  78  0.468  0.667  0.493-  44 2.25  46 2.26  38 2.26  34 2.36  26 2.36
  79  0.218  0.917  0.000-   5 2.25
  80  0.218  0.917  0.329-   6 2.25  39 2.26  35 2.26  27 2.36  47 2.36
  81  0.053  0.914  0.109-  33 2.25   5 2.26   1 2.26  17 2.36  13 2.36
  82  0.053  0.914  0.438-  34 2.25   2 2.26   6 2.26  14 2.36  18 2.36
  83  0.303  0.664  0.273-  11 2.25  43 2.26  39 2.26  31 2.36  27 2.36
  84  0.303  0.664  0.602-  12 2.25  44 2.26  40 2.26  32 2.36  28 2.36
  85  0.968  0.667  0.054-  33 2.26  29 2.26  45 2.36  41 2.36
  86  0.968  0.667  0.382-  27 2.25  30 2.26  34 2.26  42 2.36  46 2.36
  87  0.718  0.917  0.218-  13 2.25  47 2.26  31 2.26  35 2.36  43 2.36
  88  0.718  0.917  0.547-  14 2.25  48 2.26  32 2.26  36 2.36  44 2.36
  89  0.968  0.667  0.164-  31 2.25  25 2.26  33 2.26  37 2.36  45 2.36
  90  0.968  0.667  0.493-  32 2.25  34 2.26  26 2.26  46 2.36  38 2.36
  91  0.718  0.917  0.000-  17 2.25
  92  0.718  0.917  0.329-  18 2.25  27 2.26  47 2.26  39 2.36  35 2.36
  93  0.553  0.914  0.109-  45 2.25  17 2.26  13 2.26   5 2.36   1 2.36
  94  0.553  0.914  0.438-  46 2.25  14 2.26  18 2.26   2 2.36   6 2.36
  95  0.803  0.664  0.273-  23 2.25  31 2.26  27 2.26  43 2.36  39 2.36
  96  0.803  0.664  0.602-  24 2.25  32 2.26  28 2.26  44 2.36  40 2.36
 
  LATTYP: Found a simple monoclinic cell.
 ALAT       =    13.8711386352
 B/A-ratio  =     2.1019774055
 C/A-ratio  =     1.3233367991
 COS(beta)  =    -0.9620914447
  
  Lattice vectors:
  
 A1 = (  -6.1690871197, -12.4238017992,   0.0000000000)
 A2 = (   0.0000000000,   0.0000000000, -29.1568200000)
 A3 = (  12.3381742394,  13.5911405602,   0.0000000000)


Analysis of symmetry for initial positions (statically):
=====================================================================
 Subroutine PRICEL returns:
 Original cell was already a primitive cell.
 

 Routine SETGRP: Setting up the symmetry group for a 
 simple monoclinic supercell.


 Subroutine GETGRP returns: Found  1 space group operations
 (whereof  1 operations were pure point group operations)
 out of a pool of  4 trial point group operations.


The static configuration has the point symmetry C_1 .


Analysis of symmetry for dynamics (positions and initial velocities):
=====================================================================
 Subroutine PRICEL returns:
 Original cell was already a primitive cell.
 

 Routine SETGRP: Setting up the symmetry group for a 
 simple monoclinic supercell.


 Subroutine GETGRP returns: Found  1 space group operations
 (whereof  1 operations were pure point group operations)
 out of a pool of  4 trial point group operations.


The dynamic configuration has the point symmetry C_1 .


 Subroutine INISYM returns: Found  1 space group operations
 (whereof  1 operations are pure point group operations),
 and found     1 'primitive' translations


----------------------------------------------------------------------------------------

                                     Primitive cell                                     

  volume of cell :    2024.7108

  direct lattice vectors                    reciprocal lattice vectors
     6.169087120  1.167338761  0.000000000     0.162098538  0.000000000  0.000000000
     0.000000000 11.256463038  0.000000000    -0.016810245  0.088837852  0.000000000
     0.000000000  0.000000000 29.156820000     0.000000000  0.000000000  0.034297293

  length of vectors
     6.278560000 11.256463038 29.156820000     0.162098538  0.090414315  0.034297293

  position of ions in fractional coordinates (direct lattice)
     0.256309438  0.016458591  0.152393487
     0.256309438  0.016458591  0.480907021
     0.006309438  0.266458583  0.316650254
     0.006309438  0.266458583  0.645163789
     0.256309438  0.016458591  0.065598240
     0.256309438  0.016458591  0.394111774
     0.006309438  0.266458583  0.229855007
     0.006309438  0.266458583  0.558368542
     0.190257938  0.214613085  0.108995863
     0.190257938  0.214613085  0.437509398
     0.440257938  0.464613078  0.273252630
     0.440257938  0.464613078  0.601766165
     0.756309438  0.016458591  0.152393487
     0.756309438  0.016458591  0.480907021
     0.506309438  0.266458583  0.316650254
     0.506309438  0.266458583  0.645163789
     0.756309438  0.016458591  0.065598240
     0.756309438  0.016458591  0.394111774
     0.506309438  0.266458583  0.229855007
     0.506309438  0.266458583  0.558368542
     0.690257938  0.214613085  0.108995863
     0.690257938  0.214613085  0.437509398
     0.940257938  0.464613078  0.273252630
     0.940257938  0.464613078  0.601766165
     0.256309438  0.516458591  0.152393487
     0.256309438  0.516458591  0.480907021
     0.006309438  0.766458583  0.316650254
     0.006309438  0.766458583  0.645163789
     0.256309438  0.516458591  0.065598240
     0.256309438  0.516458591  0.394111774
     0.006309438  0.766458583  0.229855007
     0.006309438  0.766458583  0.558368542
     0.190257938  0.714613085  0.108995863
     0.190257938  0.714613085  0.437509398
     0.440257938  0.964613078  0.273252630
     0.440257938  0.964613078  0.601766165
     0.756309438  0.516458591  0.152393487
     0.756309438  0.516458591  0.480907021
     0.506309438  0.766458583  0.316650254
     0.506309438  0.766458583  0.645163789
     0.756309438  0.516458591  0.065598240
     0.756309438  0.516458591  0.394111774
     0.506309438  0.766458583  0.229855007
     0.506309438  0.766458583  0.558368542
     0.690257938  0.714613085  0.108995863
     0.690257938  0.714613085  0.437509398
     0.940257938  0.964613078  0.273252630
     0.940257938  0.964613078  0.601766165
     0.468404105  0.166617586  0.053734959
     0.468404105  0.166617586  0.382248494
     0.218404105  0.416617579  0.217991726
     0.218404105  0.416617579  0.546505261
     0.468404105  0.166617586  0.164256767
     0.468404105  0.166617586  0.492770302
     0.218404105  0.416617579  0.328513535
     0.218404105  0.416617579  0.657027069
     0.052511605  0.414295079  0.108995863
     0.052511605  0.414295079  0.437509398
     0.302511605  0.164295086  0.273252630
     0.302511605  0.164295086  0.601766165
     0.968404105  0.166617586  0.053734959
     0.968404105  0.166617586  0.382248494
     0.718404105  0.416617579  0.217991726
     0.718404105  0.416617579  0.546505261
     0.968404105  0.166617586  0.164256767
     0.968404105  0.166617586  0.492770302
     0.718404105  0.416617579  0.000000000
     0.718404105  0.416617579  0.328513535
     0.718404105  0.416617579  0.657027069
     0.552511605  0.414295079  0.108995863
     0.552511605  0.414295079  0.437509398
     0.802511605  0.164295086  0.273252630
     0.802511605  0.164295086  0.601766165
     0.468404105  0.666617586  0.382248494
     0.218404105  0.916617579  0.217991726
     0.218404105  0.916617579  0.546505261
     0.468404105  0.666617586  0.164256767
     0.468404105  0.666617586  0.492770302
     0.218404105  0.916617579  0.000000000
     0.218404105  0.916617579  0.328513535
     0.052511605  0.914295079  0.108995863
     0.052511605  0.914295079  0.437509398
     0.302511605  0.664295086  0.273252630
     0.302511605  0.664295086  0.601766165
     0.968404105  0.666617586  0.053734959
     0.968404105  0.666617586  0.382248494
     0.718404105  0.916617579  0.217991726
     0.718404105  0.916617579  0.546505261
     0.968404105  0.666617586  0.164256767
     0.968404105  0.666617586  0.492770302
     0.718404105  0.916617579  0.000000000
     0.718404105  0.916617579  0.328513535
     0.552511605  0.914295079  0.108995863
     0.552511605  0.914295079  0.437509398
     0.802511605  0.664295086  0.273252630
     0.802511605  0.664295086  0.601766165

  ion indices of the primitive-cell ions
   primitive index   ion index
                 1           1
                 2           2
                 3           3
                 4           4
                 5           5
                 6           6
                 7           7
                 8           8
                 9           9
                10          10
                11          11
                12          12
                13          13
                14          14
                15          15
                16          16
                17          17
                18          18
                19          19
                20          20
                21          21
                22          22
                23          23
                24          24
                25          25
                26          26
                27          27
                28          28
                29          29
                30          30
                31          31
                32          32
                33          33
                34          34
                35          35
                36          36
                37          37
                38          38
                39          39
                40          40
                41          41
                42          42
                43          43
                44          44
                45          45
                46          46
                47          47
                48          48
                49          49
                50          50
                51          51
                52          52
                53          53
                54          54
                55          55
                56          56
                57          57
                58          58
                59          59
                60          60
                61          61
                62          62
                63          63
                64          64
                65          65
                66          66
                67          67
                68          68
                69          69
                70          70
                71          71
                72          72
                73          73
                74          74
                75          75
                76          76
                77          77
                78          78
                79          79
                80          80
                81          81
                82          82
                83          83
                84          84
                85          85
                86          86
                87          87
                88          88
                89          89
                90          90
                91          91
                92          92
                93          93
                94          94
                95          95
                96          96

----------------------------------------------------------------------------------------

 
 
 KPOINTS: gamma-point-only calculation. no periodi

Automatic generation of k-mesh.
Space group operators:
 irot       det(A)        alpha          n_x          n_y          n_z        tau_x        tau_y        tau_z
    1     1.000000     0.000000     1.000000     0.000000     0.000000     0.000000     0.000000     0.000000
 
 Subroutine IBZKPT returns following result:
 ===========================================
 
 Found      1 irreducible k-points:
 
 Following reciprocal coordinates:
            Coordinates               Weight
  0.000000  0.000000  0.000000      1.000000
 
 Following cartesian coordinates:
            Coordinates               Weight
  0.000000  0.000000  0.000000      1.000000
 


--------------------------------------------------------------------------------------------------------




 Dimension of arrays:
   k-points           NKPTS =      1   k-points in BZ     NKDIM =      1   number of bands    NBANDS=    640
   number of dos      NEDOS =    301   number of ions     NIONS =     96
   non local maximal  LDIM  =      6   non local SUM 2l+1 LMDIM =     18
   total plane-waves  NPLWV = 345600
   max r-space proj   IRMAX =   1932   max aug-charges    IRDMAX=   5576
   dimension x,y,z NGX =    36 NGY =   60 NGZ =  160
   dimension x,y,z NGXF=    72 NGYF=  120 NGZF=  320
   support grid    NGXF=    72 NGYF=  120 NGZF=  320
   ions per type =              48  48
   NGX,Y,Z   is equivalent  to a cutoff of   9.53,  8.86,  9.12 a.u.
   NGXF,Y,Z  is equivalent  to a cutoff of  19.06, 17.72, 18.25 a.u.

 SYSTEM =  "Millerite NiS"                         
 POSCAR =  Structure 25 made from -120-5.xsd file  

 Startparameter for this run:
   NWRITE =      2    write-flag & timer
   PREC   = normal    normal or accurate (medium, high low for compatibility)
   ISTART =      0    job   : 0-new  1-cont  2-samecut
   ICHARG =      2    charge: 1-file 2-atom 10-const
   ISPIN  =      1    spin polarized calculation?
   LNONCOLLINEAR =      F non collinear calculations
   LSORBIT =      F    spin-orbit coupling
   INIWAV =      1    electr: 0-lowe 1-rand  2-diag
   LASPH  =      F    aspherical Exc in radial PAW
   METAGGA=      F    non-selfconsistent MetaGGA calc.

 Electronic Relaxation 1
   ENCUT  =  450.0 eV  33.07 Ry    5.75 a.u.  10.86 19.47 50.43*2*pi/ulx,y,z
   ENINI  =  450.0     initial cutoff
   ENAUG  =  703.4 eV  augmentation charge cutoff
   NELM   =    100;   NELMIN=  2; NELMDL= -5     # of ELM steps 
   EDIFF  = 0.1E-03   stopping-criterion for ELM
   LREAL  =      T    real-space projection
   NLSPLINE    = F    spline interpolate recip. space projectors
   LCOMPAT=      F    compatible to vasp.4.4
   GGA_COMPAT  = T    GGA compatible to vasp.4.4-vasp.4.6
   LMAXPAW     = -100 max onsite density
   LMAXMIX     =    2 max onsite mixed and CHGCAR
   VOSKOWN=      0    Vosko Wilk Nusair interpolation
   ROPT   =   -0.00050  -0.00050
 Ionic relaxation
   EDIFFG = 0.1E-02   stopping-criterion for IOM
   NSW    =      0    number of steps for IOM
   NBLOCK =      1;   KBLOCK =      1    inner block; outer block 
   IBRION =     -1    ionic relax: 0-MD 1-quasi-New 2-CG
   NFREE  =      0    steps in history (QN), initial steepest desc. (CG)
   ISIF   =      2    stress and relaxation
   IWAVPR =     10    prediction:  0-non 1-charg 2-wave 3-comb
   ISYM   =      2    0-nonsym 1-usesym 2-fastsym
   LCORR  =      T    Harris-Foulkes like correction to forces

   POTIM  = 0.5000    time-step for ionic-motion
   TEIN   =    0.0    initial temperature
   TEBEG  =    0.0;   TEEND  =   0.0 temperature during run
   SMASS  =  -3.00    Nose mass-parameter (am)
   estimated Nose-frequenzy (Omega)   =  0.10E-29 period in steps = 0.13E+47 mass=  -0.901E-27a.u.
   SCALEE = 1.0000    scale energy and forces
   NPACO  =    256;   APACO  = 16.0  distance and # of slots for P.C.
   PSTRESS=    0.0 pullay stress

  Mass of Ions in am
   POMASS =  58.69 32.07
  Ionic Valenz
   ZVAL   =  16.00  6.00
  Atomic Wigner-Seitz radii
   RWIGS  =  -1.00 -1.00
  virtual crystal weights 
   VCA    =   1.00  1.00
   NELECT =    1056.0000    total number of electrons
   NUPDOWN=      -1.0000    fix difference up-down

 DOS related values:
   EMIN   =  10.00;   EMAX   =-10.00  energy-range for DOS
   EFERMI =   0.00
   ISMEAR =     0;   SIGMA  =   0.20  broadening in eV -4-tet -1-fermi 0-gaus

 Electronic relaxation 2 (details)
   IALGO  =     38    algorithm
   LDIAG  =      T    sub-space diagonalisation (order eigenvalues)
   LSUBROT=      F    optimize rotation matrix (better conditioning)
   TURBO    =      0    0=normal 1=particle mesh
   IRESTART =      0    0=no restart 2=restart with 2 vectors
   NREBOOT  =      0    no. of reboots
   NMIN     =      0    reboot dimension
   EREF     =   0.00    reference energy to select bands
   IMIX   =      4    mixing-type and parameters
     AMIX     =   0.40;   BMIX     =  1.00
     AMIX_MAG =   1.60;   BMIX_MAG =  1.00
     AMIN     =   0.10
     WC   =   100.;   INIMIX=   1;  MIXPRE=   1;  MAXMIX= -45

 Intra band minimization:
   WEIMIN = 0.0000     energy-eigenvalue tresh-hold
   EBREAK =  0.39E-07  absolut break condition
   DEPER  =   0.30     relativ break condition  

   TIME   =   0.40     timestep for ELM

  volume/ion in A,a.u.               =      21.09       142.33
  Fermi-wavevector in a.u.,A,eV,Ry     =   1.317777  2.490237 23.626996  1.736535
  Thomas-Fermi vector in A             =   2.447794
 
 Write flags
   LWAVE        =      F    write WAVECAR
   LDOWNSAMPLE  =      F    k-point downsampling of WAVECAR
   LCHARG       =      F    write CHGCAR
   LVTOT        =      F    write LOCPOT, total local potential
   LVHAR        =      F    write LOCPOT, Hartree potential only
   LELF         =      F    write electronic localiz. function (ELF)
   LORBIT       =      0    0 simple, 1 ext, 2 COOP (PROOUT), +10 PAW based schemes


 Dipole corrections
   LMONO  =      F    monopole corrections only (constant potential shift)
   LDIPOL =      F    correct potential (dipole corrections)
   IDIPOL =      0    1-x, 2-y, 3-z, 4-all directions 
   EPSILON=  1.0000000 bulk dielectric constant

 Exchange correlation treatment:
   GGA     =    --    GGA type
   LEXCH   =     8    internal setting for exchange type
   VOSKOWN=      0    Vosko Wilk Nusair interpolation
   LHFCALC =     F    Hartree Fock is set to
   LHFONE  =     F    Hartree Fock one center treatment
   AEXX    =    0.0000 exact exchange contribution

 Linear response parameters
   LEPSILON=     F    determine dielectric tensor
   LRPA    =     F    only Hartree local field effects (RPA)
   LNABLA  =     F    use nabla operator in PAW spheres
   LVEL    =     F    velocity operator in full k-point grid
   LINTERFAST=   F  fast interpolation
   KINTER  =     0    interpolate to denser k-point grid
   CSHIFT  =0.1000    complex shift for real part using Kramers Kronig
   OMEGAMAX=  -1.0    maximum frequency
   DEG_THRESHOLD= 0.2000000E-02 threshold for treating states as degnerate
   RTIME   =   -0.100 relaxation time in fs
  (WPLASMAI=    0.000 imaginary part of plasma frequency in eV, 0.658/RTIME)
   DFIELD  = 0.0000000 0.0000000 0.0000000 field for delta impulse in time
 
 Orbital magnetization related:
   ORBITALMAG=     F  switch on orbital magnetization
   LCHIMAG   =     F  perturbation theory with respect to B field
   DQ        =  0.001000  dq finite difference perturbation B field
   LLRAUG    =     F  two centre corrections for induced B field



--------------------------------------------------------------------------------------------------------


 Static calculation
 charge density and potential will be updated during run
 non-spin polarized calculation
 Variant of blocked Davidson
 Davidson routine will perform the subspace rotation
 perform sub-space diagonalisation
    after iterative eigenvector-optimisation
 modified Broyden-mixing scheme, WC =      100.0
 initial mixing is a Kerker type mixing with AMIX =  0.4000 and BMIX =      1.0000
 Hartree-type preconditioning will be used
 using additional bands          112
 real space projection scheme for non local part
 use partial core corrections
 calculate Harris-corrections to forces 
   (improved forces if not selfconsistent)
 use gradient corrections 
 use of overlap-Matrix (Vanderbilt PP)
 Gauss-broadening in eV      SIGMA  =   0.20


--------------------------------------------------------------------------------------------------------


  energy-cutoff  :      450.00
  volume of cell :     2024.71
      direct lattice vectors                 reciprocal lattice vectors
     6.169087120  1.167338761  0.000000000     0.162098538  0.000000000  0.000000000
     0.000000000 11.256463038  0.000000000    -0.016810245  0.088837852  0.000000000
     0.000000000  0.000000000 29.156820000     0.000000000  0.000000000  0.034297293

  length of vectors
     6.278560000 11.256463038 29.156820000     0.162098538  0.090414315  0.034297293


 
 k-points in units of 2pi/SCALE and weight: gamma-point-only calculation. no periodi
   0.00000000  0.00000000  0.00000000       1.000
 
 k-points in reciprocal lattice and weights: gamma-point-only calculation. no periodi
   0.00000000  0.00000000  0.00000000       1.000
 
 position of ions in fractional coordinates (direct lattice) 
   0.25630944  0.01645859  0.15239349
   0.25630944  0.01645859  0.48090702
   0.00630944  0.26645858  0.31665025
   0.00630944  0.26645858  0.64516379
   0.25630944  0.01645859  0.06559824
   0.25630944  0.01645859  0.39411177
   0.00630944  0.26645858  0.22985501
   0.00630944  0.26645858  0.55836854
   0.19025794  0.21461309  0.10899586
   0.19025794  0.21461309  0.43750940
   0.44025794  0.46461308  0.27325263
   0.44025794  0.46461308  0.60176617
   0.75630944  0.01645859  0.15239349
   0.75630944  0.01645859  0.48090702
   0.50630944  0.26645858  0.31665025
   0.50630944  0.26645858  0.64516379
   0.75630944  0.01645859  0.06559824
   0.75630944  0.01645859  0.39411177
   0.50630944  0.26645858  0.22985501
   0.50630944  0.26645858  0.55836854
   0.69025794  0.21461309  0.10899586
   0.69025794  0.21461309  0.43750940
   0.94025794  0.46461308  0.27325263
   0.94025794  0.46461308  0.60176617
   0.25630944  0.51645859  0.15239349
   0.25630944  0.51645859  0.48090702
   0.00630944  0.76645858  0.31665025
   0.00630944  0.76645858  0.64516379
   0.25630944  0.51645859  0.06559824
   0.25630944  0.51645859  0.39411177
   0.00630944  0.76645858  0.22985501
   0.00630944  0.76645858  0.55836854
   0.19025794  0.71461309  0.10899586
   0.19025794  0.71461309  0.43750940
   0.44025794  0.96461308  0.27325263
   0.44025794  0.96461308  0.60176617
   0.75630944  0.51645859  0.15239349
   0.75630944  0.51645859  0.48090702
   0.50630944  0.76645858  0.31665025
   0.50630944  0.76645858  0.64516379
   0.75630944  0.51645859  0.06559824
   0.75630944  0.51645859  0.39411177
   0.50630944  0.76645858  0.22985501
   0.50630944  0.76645858  0.55836854
   0.69025794  0.71461309  0.10899586
   0.69025794  0.71461309  0.43750940
   0.94025794  0.96461308  0.27325263
   0.94025794  0.96461308  0.60176617
   0.46840410  0.16661759  0.05373496
   0.46840410  0.16661759  0.38224849
   0.21840410  0.41661758  0.21799173
   0.21840410  0.41661758  0.54650526
   0.46840410  0.16661759  0.16425677
   0.46840410  0.16661759  0.49277030
   0.21840410  0.41661758  0.32851353
   0.21840410  0.41661758  0.65702707
   0.05251160  0.41429508  0.10899586
   0.05251160  0.41429508  0.43750940
   0.30251160  0.16429509  0.27325263
   0.30251160  0.16429509  0.60176617
   0.96840410  0.16661759  0.05373496
   0.96840410  0.16661759  0.38224849
   0.71840410  0.41661758  0.21799173
   0.71840410  0.41661758  0.54650526
   0.96840410  0.16661759  0.16425677
   0.96840410  0.16661759  0.49277030
   0.71840410  0.41661758  0.00000000
   0.71840410  0.41661758  0.32851353
   0.71840410  0.41661758  0.65702707
   0.55251160  0.41429508  0.10899586
   0.55251160  0.41429508  0.43750940
   0.80251160  0.16429509  0.27325263
   0.80251160  0.16429509  0.60176617
   0.46840410  0.66661759  0.38224849
   0.21840410  0.91661758  0.21799173
   0.21840410  0.91661758  0.54650526
   0.46840410  0.66661759  0.16425677
   0.46840410  0.66661759  0.49277030
   0.21840410  0.91661758  0.00000000
   0.21840410  0.91661758  0.32851353
   0.05251160  0.91429508  0.10899586
   0.05251160  0.91429508  0.43750940
   0.30251160  0.66429509  0.27325263
   0.30251160  0.66429509  0.60176617
   0.96840410  0.66661759  0.05373496
   0.96840410  0.66661759  0.38224849
   0.71840410  0.91661758  0.21799173
   0.71840410  0.91661758  0.54650526
   0.96840410  0.66661759  0.16425677
   0.96840410  0.66661759  0.49277030
   0.71840410  0.91661758  0.00000000
   0.71840410  0.91661758  0.32851353
   0.55251160  0.91429508  0.10899586
   0.55251160  0.91429508  0.43750940
   0.80251160  0.66429509  0.27325263
   0.80251160  0.66429509  0.60176617
 
 position of ions in cartesian coordinates  (Angst):
   1.58119525  0.48446546  4.44330947
   1.58119525  0.48446546 14.02171945
   0.03892347  3.00674644  9.23251446
   0.03892347  3.00674644 18.81092447
   1.58119525  0.48446546  1.91263608
   1.58119525  0.48446546 11.49104605
   0.03892347  3.00674644  6.70184107
   0.03892347  3.00674644 16.28025107
   1.17371779  2.63787972  3.17797276
   1.17371779  2.63787972 12.75638277
   2.71598957  5.74383010  7.96717775
   2.71598957  5.74383010 17.54558775
   4.66573881  1.06813484  4.44330947
   4.66573881  1.06813484 14.02171945
   3.12346703  3.59041582  9.23251446
   3.12346703  3.59041582 18.81092447
   4.66573881  1.06813484  1.91263608
   4.66573881  1.06813484 11.49104605
   3.12346703  3.59041582  6.70184107
   3.12346703  3.59041582 16.28025107
   4.25826135  3.22154910  3.17797276
   4.25826135  3.22154910 12.75638277
   5.80053313  6.32749948  7.96717775
   5.80053313  6.32749948 17.54558775
   1.58119525  6.11269698  4.44330947
   1.58119525  6.11269698 14.02171945
   0.03892347  8.63497796  9.23251446
   0.03892347  8.63497796 18.81092447
   1.58119525  6.11269698  1.91263608
   1.58119525  6.11269698 11.49104605
   0.03892347  8.63497796  6.70184107
   0.03892347  8.63497796 16.28025107
   1.17371779  8.26611124  3.17797276
   1.17371779  8.26611124 12.75638277
   2.71598957 11.37206161  7.96717775
   2.71598957 11.37206161 17.54558775
   4.66573881  6.69636636  4.44330947
   4.66573881  6.69636636 14.02171945
   3.12346703  9.21864734  9.23251446
   3.12346703  9.21864734 18.81092447
   4.66573881  6.69636636  1.91263608
   4.66573881  6.69636636 11.49104605
   3.12346703  9.21864734  6.70184107
   3.12346703  9.21864734 16.28025107
   4.25826135  8.84978062  3.17797276
   4.25826135  8.84978062 12.75638277
   5.80053313 11.95573100  7.96717775
   5.80053313 11.95573100 17.54558775
   2.88962573  2.42231097  1.56674053
   2.88962573  2.42231097 11.14515053
   1.34735395  4.94459196  6.35594552
   1.34735395  4.94459196 15.93435552
   2.88962573  2.42231097  4.78920499
   2.88962573  2.42231097 14.36761500
   1.34735395  4.94459196  9.57841001
   1.34735395  4.94459196 19.15681999
   0.32394867  4.72479608  3.17797276
   0.32394867  4.72479608 12.75638277
   1.86622045  2.20251509  7.96717775
   1.86622045  2.20251509 17.54558775
   5.97416929  3.00598035  1.56674053
   5.97416929  3.00598035 11.14515053
   4.43189751  5.52826134  6.35594552
   4.43189751  5.52826134 15.93435552
   5.97416929  3.00598035  4.78920499
   5.97416929  3.00598035 14.36761500
   4.43189751  5.52826134  0.00000000
   4.43189751  5.52826134  9.57841001
   4.43189751  5.52826134 19.15681999
   3.40849223  5.30846546  3.17797276
   3.40849223  5.30846546 12.75638277
   4.95076401  2.78618447  7.96717775
   4.95076401  2.78618447 17.54558775
   2.88962573  8.05054249 11.14515053
   1.34735395 10.57282348  6.35594552
   1.34735395 10.57282348 15.93435552
   2.88962573  8.05054249  4.78920499
   2.88962573  8.05054249 14.36761500
   1.34735395 10.57282348  0.00000000
   1.34735395 10.57282348  9.57841001
   0.32394867 10.35302759  3.17797276
   0.32394867 10.35302759 12.75638277
   1.86622045  7.83074660  7.96717775
   1.86622045  7.83074660 17.54558775
   5.97416929  8.63421187  1.56674053
   5.97416929  8.63421187 11.14515053
   4.43189751 11.15649286  6.35594552
   4.43189751 11.15649286 15.93435552
   5.97416929  8.63421187  4.78920499
   5.97416929  8.63421187 14.36761500
   4.43189751 11.15649286  0.00000000
   4.43189751 11.15649286  9.57841001
   3.40849223 10.93669698  3.17797276
   3.40849223 10.93669698 12.75638277
   4.95076401  8.41441598  7.96717775
   4.95076401  8.41441598 17.54558775
 


--------------------------------------------------------------------------------------------------------


 use parallel FFT for orbitals z direction half grid
 k-point   1 :   0.0000 0.0000 0.0000  plane waves:   21935

 maximum and minimum number of plane-waves per node :      3657     3654

 maximum number of plane-waves:     21935
 maximum index in each direction: 
   IXMAX=   10   IYMAX=   19   IZMAX=   50
   IXMIN=  -10   IYMIN=  -19   IZMIN=    0


 real space projection operators:
  total allocation   :      15862.38 KBytes
  max/ min on nodes  :       2665.62       2628.50


 parallel 3D FFT for wavefunctions:
    minimum data exchange during FFTs selected (reduces bandwidth)
 parallel 3D FFT for charge:
    minimum data exchange during FFTs selected (reduces bandwidth)


 total amount of memory used by VASP MPI-rank0    48489. kBytes
=======================================================================

   base      :      30000. kBytes
   nonlr-proj:       3248. kBytes
   fftplans  :       3676. kBytes
   grid      :       6629. kBytes
   one-center:        124. kBytes
   wavefun   :       4812. kBytes
 
     INWAV:  cpu time    0.0000: real time    0.0000
 Broyden mixing: mesh for mixing (old mesh)
   NGX = 21   NGY = 39   NGZ =101
  (NGX  = 72   NGY  =120   NGZ  =320)
  gives a total of  82719 points

 initial charge density was supplied:
 charge density of overlapping atoms calculated
 number of electron    1056.0000000 magnetization 
 keeping initial charge density in first step


--------------------------------------------------------------------------------------------------------


 Maximum index for non-local projection operator          319
 Maximum index for augmentation-charges          334 (set IRDMAX)


--------------------------------------------------------------------------------------------------------


 First call to EWALD:  gamma=   0.140
 Maximum number of real-space cells 5x 3x 1
 Maximum number of reciprocal cells 2x 2x 6

    FEWALD:  cpu time    0.0035: real time    0.0035


--------------------------------------- Iteration      1(   1)  ---------------------------------------


    POTLOK:  cpu time    0.0541: real time    0.0547
    SETDIJ:  cpu time    0.0060: real time    0.0077
     EDDAV:  cpu time    3.3397: real time    3.3491
       DOS:  cpu time    0.0011: real time    0.0012
    --------------------------------------------
      LOOP:  cpu time    3.4010: real time    3.4126

 eigenvalue-minimisations  :  1528
 total energy-change (2. order) : 0.1456873E+05  (-0.6776481E+05)
 number of electron    1056.0000000 magnetization 
 augmentation part     1056.0000000 magnetization 

 Free energy of the ion-electron system (eV)
  ---------------------------------------------------
  alpha Z        PSCENC =      3266.22189492
  Ewald energy   TEWEN  =    316686.54997723
  -Hartree energ DENC   =   -482869.66069571
  -exchange      EXHF   =         0.00000000
  -V(xc)+E(xc)   XCENC  =      4881.04577399
  PAW double counting   =    150306.04444553  -156855.34918313
  entropy T*S    EENTRO =        -0.39988362
  eigenvalues    EBANDS =     -2182.53345489
  atomic energy  EATOM  =    181336.80673834
  Solvation  Ediel_sol  =         0.00000000
  ---------------------------------------------------
  free energy    TOTEN  =     14568.72561267 eV

  energy without entropy =    14569.12549629  energy(sigma->0) =    14568.92555448


--------------------------------------------------------------------------------------------------------




--------------------------------------- Iteration      1(   2)  ---------------------------------------


     EDDAV:  cpu time    3.0044: real time    3.0122
       DOS:  cpu time    0.0011: real time    0.0011
    --------------------------------------------
      LOOP:  cpu time    3.0055: real time    3.0134

 eigenvalue-minimisations  :  1296
 total energy-change (2. order) :-0.1338681E+05  (-0.1292997E+05)
 number of electron    1056.0000000 magnetization 
 augmentation part     1056.0000000 magnetization 

 Free energy of the ion-electron system (eV)
  ---------------------------------------------------
  alpha Z        PSCENC =      3266.22189492
  Ewald energy   TEWEN  =    316686.54997723
  -Hartree energ DENC   =   -482869.66069571
  -exchange      EXHF   =         0.00000000
  -V(xc)+E(xc)   XCENC  =      4881.04577399
  PAW double counting   =    150306.04444553  -156855.34918313
  entropy T*S    EENTRO =        -0.69347792
  eigenvalues    EBANDS =    -15569.04634136
  atomic energy  EATOM  =    181336.80673834
  Solvation  Ediel_sol  =         0.00000000
  ---------------------------------------------------
  free energy    TOTEN  =      1181.91913190 eV

  energy without entropy =     1182.61260981  energy(sigma->0) =     1182.26587086


--------------------------------------------------------------------------------------------------------




--------------------------------------- Iteration      1(   3)  ---------------------------------------


     EDDAV:  cpu time    3.3321: real time    3.3416
       DOS:  cpu time    0.0010: real time    0.0011
    --------------------------------------------
      LOOP:  cpu time    3.3331: real time    3.3427

 eigenvalue-minimisations  :  1448
 total energy-change (2. order) :-0.1588886E+04  (-0.1462313E+04)
 number of electron    1056.0000000 magnetization 
 augmentation part     1056.0000000 magnetization 

 Free energy of the ion-electron system (eV)
  ---------------------------------------------------
  alpha Z        PSCENC =      3266.22189492
  Ewald energy   TEWEN  =    316686.54997723
  -Hartree energ DENC   =   -482869.66069571
  -exchange      EXHF   =         0.00000000
  -V(xc)+E(xc)   XCENC  =      4881.04577399
  PAW double counting   =    150306.04444553  -156855.34918313
  entropy T*S    EENTRO =        -0.49210953
  eigenvalues    EBANDS =    -17158.13412865
  atomic energy  EATOM  =    181336.80673834
  Solvation  Ediel_sol  =         0.00000000
  ---------------------------------------------------
  free energy    TOTEN  =      -406.96728701 eV

  energy without entropy =     -406.47517747  energy(sigma->0) =     -406.72123224


--------------------------------------------------------------------------------------------------------




--------------------------------------- Iteration      1(   4)  ---------------------------------------


     EDDAV:  cpu time    3.3589: real time    3.3696
       DOS:  cpu time    0.0021: real time    0.0021
    --------------------------------------------
      LOOP:  cpu time    3.3610: real time    3.3716

 eigenvalue-minimisations  :  1488
 total energy-change (2. order) :-0.1345661E+03  (-0.1315059E+03)
 number of electron    1056.0000000 magnetization 
 augmentation part     1056.0000000 magnetization 

 Free energy of the ion-electron system (eV)
  ---------------------------------------------------
  alpha Z        PSCENC =      3266.22189492
  Ewald energy   TEWEN  =    316686.54997723
  -Hartree energ DENC   =   -482869.66069571
  -exchange      EXHF   =         0.00000000
  -V(xc)+E(xc)   XCENC  =      4881.04577399
  PAW double counting   =    150306.04444553  -156855.34918313
  entropy T*S    EENTRO =        -0.49986971
  eigenvalues    EBANDS =    -17292.69250919
  atomic energy  EATOM  =    181336.80673834
  Solvation  Ediel_sol  =         0.00000000
  ---------------------------------------------------
  free energy    TOTEN  =      -541.53342772 eV

  energy without entropy =     -541.03355801  energy(sigma->0) =     -541.28349286


--------------------------------------------------------------------------------------------------------




--------------------------------------- Iteration      1(   5)  ---------------------------------------


     EDDAV:  cpu time    3.6174: real time    3.6275
       DOS:  cpu time    0.0011: real time    0.0011
    CHARGE:  cpu time    0.0501: real time    0.0502
    MIXING:  cpu time    0.0025: real time    0.0028
    --------------------------------------------
      LOOP:  cpu time    3.6711: real time    3.6816

 eigenvalue-minimisations  :  1624
 total energy-change (2. order) :-0.4920243E+01  (-0.4906934E+01)
 number of electron    1056.0001265 magnetization 
 augmentation part      381.9610138 magnetization 

 Broyden mixing:
  rms(total) = 0.95990E+01    rms(broyden)= 0.95768E+01
  rms(prec ) = 0.99382E+01
  weight for this iteration     100.00

 Free energy of the ion-electron system (eV)
  ---------------------------------------------------
  alpha Z        PSCENC =      3266.22189492
  Ewald energy   TEWEN  =    316686.54997723
  -Hartree energ DENC   =   -482869.66069571
  -exchange      EXHF   =         0.00000000
  -V(xc)+E(xc)   XCENC  =      4881.04577399
  PAW double counting   =    150306.04444553  -156855.34918313
  entropy T*S    EENTRO =        -0.50355515
  eigenvalues    EBANDS =    -17297.60906724
  atomic energy  EATOM  =    181336.80673834
  Solvation  Ediel_sol  =         0.00000000
  ---------------------------------------------------
  free energy    TOTEN  =      -546.45367121 eV

  energy without entropy =     -545.95011606  energy(sigma->0) =     -546.20189364


--------------------------------------------------------------------------------------------------------




--------------------------------------- Iteration      1(   6)  ---------------------------------------


    POTLOK:  cpu time    0.0557: real time    0.0569
    SETDIJ:  cpu time    0.0057: real time    0.0075
     EDDAV:  cpu time    3.6129: real time    3.6216
       DOS:  cpu time    0.0009: real time    0.0009
    CHARGE:  cpu time    0.0473: real time    0.0474
    MIXING:  cpu time    0.0021: real time    0.0022
    --------------------------------------------
      LOOP:  cpu time    3.7246: real time    3.7367

 eigenvalue-minimisations  :  1688
 total energy-change (2. order) :-0.3568785E+03  (-0.1207371E+03)
 number of electron    1056.0001200 magnetization 
 augmentation part      443.8764110 magnetization 

 Broyden mixing:
  rms(total) = 0.25668E+02    rms(broyden)= 0.25661E+02
  rms(prec ) = 0.28527E+02
  weight for this iteration     100.00

 eigenvalues of (default mixing * dielectric matrix)
  average eigenvalue GAMMA=   0.1240
  0.1240

 Free energy of the ion-electron system (eV)
  ---------------------------------------------------
  alpha Z        PSCENC =      3266.22189492
  Ewald energy   TEWEN  =    316686.54997723
  -Hartree energ DENC   =   -477950.39217129
  -exchange      EXHF   =         0.00000000
  -V(xc)+E(xc)   XCENC  =      4778.25039920
  PAW double counting   =    152826.36440574  -159053.57355975
  entropy T*S    EENTRO =        -0.87655250
  eigenvalues    EBANDS =    -22792.68330331
  atomic energy  EATOM  =    181336.80673834
  Solvation  Ediel_sol  =         0.00000000
  ---------------------------------------------------
  free energy    TOTEN  =      -903.33217143 eV

  energy without entropy =     -902.45561893  energy(sigma->0) =     -902.89389518


--------------------------------------------------------------------------------------------------------




--------------------------------------- Iteration      1(   7)  ---------------------------------------


    POTLOK:  cpu time    0.0542: real time    0.0543
    SETDIJ:  cpu time    0.0055: real time    0.0055
     EDDAV:  cpu time    3.4959: real time    3.5043
       DOS:  cpu time    0.0011: real time    0.0011
    CHARGE:  cpu time    0.0481: real time    0.0482
    MIXING:  cpu time    0.0019: real time    0.0019
    --------------------------------------------
      LOOP:  cpu time    3.6067: real time    3.6153

 eigenvalue-minimisations  :  1544
 total energy-change (2. order) : 0.2989958E+03  (-0.3101963E+02)
 number of electron    1056.0001346 magnetization 
 augmentation part      463.6350992 magnetization 

 Broyden mixing:
  rms(total) = 0.13755E+02    rms(broyden)= 0.13754E+02
  rms(prec ) = 0.14107E+02
  weight for this iteration     100.00

 eigenvalues of (default mixing * dielectric matrix)
  average eigenvalue GAMMA=   0.2161
  0.2161  0.2161

 Free energy of the ion-electron system (eV)
  ---------------------------------------------------
  alpha Z        PSCENC =      3266.22189492
  Ewald energy   TEWEN  =    316686.54997723
  -Hartree energ DENC   =   -479660.79424752
  -exchange      EXHF   =         0.00000000
  -V(xc)+E(xc)   XCENC  =      4789.30826731
  PAW double counting   =    155333.38983889  -161631.81547575
  entropy T*S    EENTRO =        -1.08519704
  eigenvalues    EBANDS =    -20722.91818274
  atomic energy  EATOM  =    181336.80673834
  Solvation  Ediel_sol  =         0.00000000
  ---------------------------------------------------
  free energy    TOTEN  =      -604.33638637 eV

  energy without entropy =     -603.25118933  energy(sigma->0) =     -603.79378785


--------------------------------------------------------------------------------------------------------




--------------------------------------- Iteration      1(   8)  ---------------------------------------


    POTLOK:  cpu time    0.0552: real time    0.0554
    SETDIJ:  cpu time    0.0055: real time    0.0055
     EDDAV:  cpu time    3.7191: real time    3.7279
       DOS:  cpu time    0.0012: real time    0.0012
    CHARGE:  cpu time    0.0480: real time    0.0481
    MIXING:  cpu time    0.0019: real time    0.0019
    --------------------------------------------
      LOOP:  cpu time    3.8308: real time    3.8400

 eigenvalue-minimisations  :  1656
 total energy-change (2. order) : 0.3708311E+01  (-0.2478511E+02)
 number of electron    1056.0001165 magnetization 
 augmentation part      423.1699020 magnetization 

 Broyden mixing:
  rms(total) = 0.18390E+02    rms(broyden)= 0.18388E+02
  rms(prec ) = 0.21226E+02
  weight for this iteration     100.00

 eigenvalues of (default mixing * dielectric matrix)
  average eigenvalue GAMMA=   0.3458
  0.4621  0.4621  0.1132

 Free energy of the ion-electron system (eV)
  ---------------------------------------------------
  alpha Z        PSCENC =      3266.22189492
  Ewald energy   TEWEN  =    316686.54997723
  -Hartree energ DENC   =   -480612.19474423
  -exchange      EXHF   =         0.00000000
  -V(xc)+E(xc)   XCENC  =      4828.27583896
  PAW double counting   =    160603.49393838  -167085.35769829
  entropy T*S    EENTRO =        -1.11554884
  eigenvalues    EBANDS =    -19623.30847225
  atomic energy  EATOM  =    181336.80673834
  Solvation  Ediel_sol  =         0.00000000
  ---------------------------------------------------
  free energy    TOTEN  =      -600.62807578 eV

  energy without entropy =     -599.51252694  energy(sigma->0) =     -600.07030136


--------------------------------------------------------------------------------------------------------




--------------------------------------- Iteration      1(   9)  ---------------------------------------


    POTLOK:  cpu time    0.0544: real time    0.0545
    SETDIJ:  cpu time    0.0055: real time    0.0055
     EDDAV:  cpu time    3.9179: real time    3.9287
       DOS:  cpu time    0.0010: real time    0.0010
    CHARGE:  cpu time    0.0488: real time    0.0489
    MIXING:  cpu time    0.0020: real time    0.0021
    --------------------------------------------
      LOOP:  cpu time    4.0296: real time    4.0406

 eigenvalue-minimisations  :  1744
 total energy-change (2. order) :-0.9240892E+02  (-0.4145047E+02)
 number of electron    1056.0001413 magnetization 
 augmentation part      405.8578797 magnetization 

 Broyden mixing:
  rms(total) = 0.18393E+02    rms(broyden)= 0.18388E+02
  rms(prec ) = 0.23643E+02
  weight for this iteration     100.00

 eigenvalues of (default mixing * dielectric matrix)
  average eigenvalue GAMMA=   0.3113
  0.5214  0.5214  0.1232  0.0793

 Free energy of the ion-electron system (eV)
  ---------------------------------------------------
  alpha Z        PSCENC =      3266.22189492
  Ewald energy   TEWEN  =    316686.54997723
  -Hartree energ DENC   =   -481319.39781174
  -exchange      EXHF   =         0.00000000
  -V(xc)+E(xc)   XCENC  =      4840.20288105
  PAW double counting   =    164448.82438937  -171002.52662612
  entropy T*S    EENTRO =        -1.11946001
  eigenvalues    EBANDS =    -18948.59897949
  atomic energy  EATOM  =    181336.80673834
  Solvation  Ediel_sol  =         0.00000000
  ---------------------------------------------------
  free energy    TOTEN  =      -693.03699647 eV

  energy without entropy =     -691.91753645  energy(sigma->0) =     -692.47726646


--------------------------------------------------------------------------------------------------------




--------------------------------------- Iteration      1(  10)  ---------------------------------------


    POTLOK:  cpu time    0.0543: real time    0.0555
    SETDIJ:  cpu time    0.0055: real time    0.0075
     EDDAV:  cpu time    4.0039: real time    4.0134
       DOS:  cpu time    0.0023: real time    0.0023
    CHARGE:  cpu time    0.0492: real time    0.0493
    MIXING:  cpu time    0.0020: real time    0.0020
    --------------------------------------------
      LOOP:  cpu time    4.1172: real time    4.1301

 eigenvalue-minimisations  :  1808
 total energy-change (2. order) : 0.1156373E+03  (-0.1829807E+02)
 number of electron    1056.0001321 magnetization 
 augmentation part      408.3448801 magnetization 

 Broyden mixing:
  rms(total) = 0.13034E+02    rms(broyden)= 0.13030E+02
  rms(prec ) = 0.14988E+02
  weight for this iteration     100.00

 eigenvalues of (default mixing * dielectric matrix)
  average eigenvalue GAMMA=   0.2888
  0.5490  0.5490  0.1835  0.1001  0.0623

 Free energy of the ion-electron system (eV)
  ---------------------------------------------------
  alpha Z        PSCENC =      3266.22189492
  Ewald energy   TEWEN  =    316686.54997723
  -Hartree energ DENC   =   -481612.92563396
  -exchange      EXHF   =         0.00000000
  -V(xc)+E(xc)   XCENC  =      4840.14236242
  PAW double counting   =    166146.55120978  -172717.58047783
  entropy T*S    EENTRO =        -1.73039518
  eigenvalues    EBANDS =    -18521.43535675
  atomic energy  EATOM  =    181336.80673834
  Solvation  Ediel_sol  =         0.00000000
  ---------------------------------------------------
  free energy    TOTEN  =      -577.39968104 eV

  energy without entropy =     -575.66928586  energy(sigma->0) =     -576.53448345


--------------------------------------------------------------------------------------------------------




--------------------------------------- Iteration      1(  11)  ---------------------------------------


    POTLOK:  cpu time    0.0540: real time    0.0541
    SETDIJ:  cpu time    0.0055: real time    0.0055
     EDDAV:  cpu time    3.9471: real time    3.9564
       DOS:  cpu time    0.0007: real time    0.0007
    CHARGE:  cpu time    0.0483: real time    0.0484
    MIXING:  cpu time    0.0021: real time    0.0021
    --------------------------------------------
      LOOP:  cpu time    4.0576: real time    4.0671

 eigenvalue-minimisations  :  1800
 total energy-change (2. order) : 0.3287881E+02  (-0.1086843E+02)
 number of electron    1056.0001122 magnetization 
 augmentation part      411.7265659 magnetization 

 Broyden mixing:
  rms(total) = 0.94231E+01    rms(broyden)= 0.94181E+01
  rms(prec ) = 0.10205E+02
  weight for this iteration     100.00

 eigenvalues of (default mixing * dielectric matrix)
  average eigenvalue GAMMA=   0.2950
  0.6821  0.5066  0.2041  0.2041  0.1140  0.0589

 Free energy of the ion-electron system (eV)
  ---------------------------------------------------
  alpha Z        PSCENC =      3266.22189492
  Ewald energy   TEWEN  =    316686.54997723
  -Hartree energ DENC   =   -481432.59774017
  -exchange      EXHF   =         0.00000000
  -V(xc)+E(xc)   XCENC  =      4839.77077611
  PAW double counting   =    168704.38323588  -175303.32709551
  entropy T*S    EENTRO =        -1.56401404
  eigenvalues    EBANDS =    -18640.76464240
  atomic energy  EATOM  =    181336.80673834
  Solvation  Ediel_sol  =         0.00000000
  ---------------------------------------------------
  free energy    TOTEN  =      -544.52086964 eV

  energy without entropy =     -542.95685560  energy(sigma->0) =     -543.73886262


--------------------------------------------------------------------------------------------------------




--------------------------------------- Iteration      1(  12)  ---------------------------------------


    POTLOK:  cpu time    0.0540: real time    0.0541
    SETDIJ:  cpu time    0.0055: real time    0.0055
     EDDAV:  cpu time    3.9716: real time    3.9810
       DOS:  cpu time    0.0009: real time    0.0009
    CHARGE:  cpu time    0.0485: real time    0.0486
    MIXING:  cpu time    0.0022: real time    0.0022
    --------------------------------------------
      LOOP:  cpu time    4.0827: real time    4.0923

 eigenvalue-minimisations  :  1784
 total energy-change (2. order) : 0.2970559E+00  (-0.1029539E+02)
 number of electron    1056.0001430 magnetization 
 augmentation part      409.2705069 magnetization 

 Broyden mixing:
  rms(total) = 0.10208E+02    rms(broyden)= 0.10204E+02
  rms(prec ) = 0.11240E+02
  weight for this iteration     100.00

 eigenvalues of (default mixing * dielectric matrix)
  average eigenvalue GAMMA=   0.3904
  1.2906  0.4985  0.3304  0.3304  0.1200  0.1045  0.0583

 Free energy of the ion-electron system (eV)
  ---------------------------------------------------
  alpha Z        PSCENC =      3266.22189492
  Ewald energy   TEWEN  =    316686.54997723
  -Hartree energ DENC   =   -481493.37947008
  -exchange      EXHF   =         0.00000000
  -V(xc)+E(xc)   XCENC  =      4840.26024364
  PAW double counting   =    170977.98055215  -177601.31227315
  entropy T*S    EENTRO =        -1.67626391
  eigenvalues    EBANDS =    -18555.67521289
  atomic energy  EATOM  =    181336.80673834
  Solvation  Ediel_sol  =         0.00000000
  ---------------------------------------------------
  free energy    TOTEN  =      -544.22381376 eV

  energy without entropy =     -542.54754984  energy(sigma->0) =     -543.38568180


--------------------------------------------------------------------------------------------------------




--------------------------------------- Iteration      1(  13)  ---------------------------------------


    POTLOK:  cpu time    0.0542: real time    0.0543
    SETDIJ:  cpu time    0.0055: real time    0.0055
     EDDAV:  cpu time    3.9674: real time    3.9768
       DOS:  cpu time    0.0008: real time    0.0008
    CHARGE:  cpu time    0.0489: real time    0.0490
    MIXING:  cpu time    0.0022: real time    0.0022
    --------------------------------------------
      LOOP:  cpu time    4.0791: real time    4.0887

 eigenvalue-minimisations  :  1752
 total energy-change (2. order) :-0.1545328E+02  (-0.7029276E+01)
 number of electron    1056.0001278 magnetization 
 augmentation part      405.4235817 magnetization 

 Broyden mixing:
  rms(total) = 0.11313E+02    rms(broyden)= 0.11307E+02
  rms(prec ) = 0.13508E+02
  weight for this iteration     100.00

 eigenvalues of (default mixing * dielectric matrix)
  average eigenvalue GAMMA=   0.4037
  1.6058  0.4745  0.3607  0.3607  0.1369  0.1163  0.1163  0.0581

 Free energy of the ion-electron system (eV)
  ---------------------------------------------------
  alpha Z        PSCENC =      3266.22189492
  Ewald energy   TEWEN  =    316686.54997723
  -Hartree energ DENC   =   -481708.58010871
  -exchange      EXHF   =         0.00000000
  -V(xc)+E(xc)   XCENC  =      4840.17488785
  PAW double counting   =    174621.26819317  -181277.05031689
  entropy T*S    EENTRO =        -2.17078260
  eigenvalues    EBANDS =    -18322.89757633
  atomic energy  EATOM  =    181336.80673834
  Solvation  Ediel_sol  =         0.00000000
  ---------------------------------------------------
  free energy    TOTEN  =      -559.67709302 eV

  energy without entropy =     -557.50631042  energy(sigma->0) =     -558.59170172


--------------------------------------------------------------------------------------------------------




--------------------------------------- Iteration      1(  14)  ---------------------------------------


    POTLOK:  cpu time    0.0542: real time    0.0544
    SETDIJ:  cpu time    0.0055: real time    0.0055
     EDDAV:  cpu time    4.0575: real time    4.0690
       DOS:  cpu time    0.0008: real time    0.0008
    CHARGE:  cpu time    0.0496: real time    0.0498
    MIXING:  cpu time    0.0026: real time    0.0026
    --------------------------------------------
      LOOP:  cpu time    4.1702: real time    4.1819

 eigenvalue-minimisations  :  1824
 total energy-change (2. order) : 0.3173258E+02  (-0.7144778E+01)
 number of electron    1056.0001390 magnetization 
 augmentation part      415.0172362 magnetization 

 Broyden mixing:
  rms(total) = 0.67889E+01    rms(broyden)= 0.67828E+01
  rms(prec ) = 0.72150E+01
  weight for this iteration     100.00

 eigenvalues of (default mixing * dielectric matrix)
  average eigenvalue GAMMA=   0.4019
  1.6853  0.4709  0.3995  0.3995  0.2596  0.0581  0.1317  0.1063  0.1063

 Free energy of the ion-electron system (eV)
  ---------------------------------------------------
  alpha Z        PSCENC =      3266.22189492
  Ewald energy   TEWEN  =    316686.54997723
  -Hartree energ DENC   =   -481436.15378964
  -exchange      EXHF   =         0.00000000
  -V(xc)+E(xc)   XCENC  =      4838.78106176
  PAW double counting   =    176446.54245047  -183117.25050714
  entropy T*S    EENTRO =        -1.21938401
  eigenvalues    EBANDS =    -18548.22295600
  atomic energy  EATOM  =    181336.80673834
  Solvation  Ediel_sol  =         0.00000000
  ---------------------------------------------------
  free energy    TOTEN  =      -527.94451406 eV

  energy without entropy =     -526.72513005  energy(sigma->0) =     -527.33482206


--------------------------------------------------------------------------------------------------------




--------------------------------------- Iteration      1(  15)  ---------------------------------------


    POTLOK:  cpu time    0.0549: real time    0.0572
    SETDIJ:  cpu time    0.0056: real time    0.0077
     EDDAV:  cpu time    3.8924: real time    3.9033
       DOS:  cpu time    0.0007: real time    0.0007
    CHARGE:  cpu time    0.0486: real time    0.0487
    MIXING:  cpu time    0.0027: real time    0.0027
    --------------------------------------------
      LOOP:  cpu time    4.0049: real time    4.0202

 eigenvalue-minimisations  :  1712
 total energy-change (2. order) : 0.8393606E+01  (-0.4521480E+01)
 number of electron    1056.0001362 magnetization 
 augmentation part      413.4938126 magnetization 

 Broyden mixing:
  rms(total) = 0.67182E+01    rms(broyden)= 0.67158E+01
  rms(prec ) = 0.75429E+01
  weight for this iteration     100.00

 eigenvalues of (default mixing * dielectric matrix)
  average eigenvalue GAMMA=   0.4053
  1.8397  0.4614  0.4614  0.3682  0.3682  0.0581  0.1383  0.1383  0.1099  0.1099

 Free energy of the ion-electron system (eV)
  ---------------------------------------------------
  alpha Z        PSCENC =      3266.22189492
  Ewald energy   TEWEN  =    316686.54997723
  -Hartree energ DENC   =   -481519.89957734
  -exchange      EXHF   =         0.00000000
  -V(xc)+E(xc)   XCENC  =      4839.24129097
  PAW double counting   =    177020.32959203  -183698.19734616
  entropy T*S    EENTRO =        -1.25093136
  eigenvalues    EBANDS =    -18449.35254636
  atomic energy  EATOM  =    181336.80673834
  Solvation  Ediel_sol  =         0.00000000
  ---------------------------------------------------
  free energy    TOTEN  =      -519.55090773 eV

  energy without entropy =     -518.29997638  energy(sigma->0) =     -518.92544206


--------------------------------------------------------------------------------------------------------




--------------------------------------- Iteration      1(  16)  ---------------------------------------


    POTLOK:  cpu time    0.0547: real time    0.0551
    SETDIJ:  cpu time    0.0056: real time    0.0071
     EDDAV:  cpu time    3.9250: real time    3.9343
       DOS:  cpu time    0.0007: real time    0.0007
    CHARGE:  cpu time    0.0486: real time    0.0487
    MIXING:  cpu time    0.0026: real time    0.0026
    --------------------------------------------
      LOOP:  cpu time    4.0372: real time    4.0485

 eigenvalue-minimisations  :  1784
 total energy-change (2. order) : 0.1188261E+02  (-0.4230003E+01)
 number of electron    1056.0001335 magnetization 
 augmentation part      415.5725424 magnetization 

 Broyden mixing:
  rms(total) = 0.46787E+01    rms(broyden)= 0.46766E+01
  rms(prec ) = 0.50713E+01
  weight for this iteration     100.00

 eigenvalues of (default mixing * dielectric matrix)
  average eigenvalue GAMMA=   0.4025
  1.8839  0.5369  0.5369  0.3350  0.3350  0.2718  0.0581  0.1259  0.1259  0.1091
  0.1091

 Free energy of the ion-electron system (eV)
  ---------------------------------------------------
  alpha Z        PSCENC =      3266.22189492
  Ewald energy   TEWEN  =    316686.54997723
  -Hartree energ DENC   =   -481433.62289294
  -exchange      EXHF   =         0.00000000
  -V(xc)+E(xc)   XCENC  =      4839.09147042
  PAW double counting   =    177696.31440024  -184380.01555039
  entropy T*S    EENTRO =        -0.97288148
  eigenvalues    EBANDS =    -18518.04145509
  atomic energy  EATOM  =    181336.80673834
  Solvation  Ediel_sol  =         0.00000000
  ---------------------------------------------------
  free energy    TOTEN  =      -507.66829877 eV

  energy without entropy =     -506.69541728  energy(sigma->0) =     -507.18185802


--------------------------------------------------------------------------------------------------------




--------------------------------------- Iteration      1(  17)  ---------------------------------------


    POTLOK:  cpu time    0.0542: real time    0.0544
    SETDIJ:  cpu time    0.0055: real time    0.0055
     EDDAV:  cpu time    3.8060: real time    3.8150
       DOS:  cpu time    0.0008: real time    0.0008
    CHARGE:  cpu time    0.0490: real time    0.0491
    MIXING:  cpu time    0.0027: real time    0.0027
    --------------------------------------------
      LOOP:  cpu time    3.9182: real time    3.9274

 eigenvalue-minimisations  :  1696
 total energy-change (2. order) : 0.6924503E+01  (-0.1116504E+01)
 number of electron    1056.0001343 magnetization 
 augmentation part      416.4617685 magnetization 

 Broyden mixing:
  rms(total) = 0.39904E+01    rms(broyden)= 0.39894E+01
  rms(prec ) = 0.44163E+01
  weight for this iteration     100.00

 eigenvalues of (default mixing * dielectric matrix)
  average eigenvalue GAMMA=   0.4048
  1.8225  0.6405  0.6405  0.3404  0.3404  0.3587  0.1726  0.0581  0.1342  0.1342
  0.1080  0.1080

 Free energy of the ion-electron system (eV)
  ---------------------------------------------------
  alpha Z        PSCENC =      3266.22189492
  Ewald energy   TEWEN  =    316686.54997723
  -Hartree energ DENC   =   -481425.56775891
  -exchange      EXHF   =         0.00000000
  -V(xc)+E(xc)   XCENC  =      4839.15413050
  PAW double counting   =    177795.20794369  -184479.29424097
  entropy T*S    EENTRO =        -0.66460481
  eigenvalues    EBANDS =    -18519.15787606
  atomic energy  EATOM  =    181336.80673834
  Solvation  Ediel_sol  =         0.00000000
  ---------------------------------------------------
  free energy    TOTEN  =      -500.74379607 eV

  energy without entropy =     -500.07919127  energy(sigma->0) =     -500.41149367


--------------------------------------------------------------------------------------------------------




--------------------------------------- Iteration      1(  18)  ---------------------------------------


    POTLOK:  cpu time    0.0544: real time    0.0545
    SETDIJ:  cpu time    0.0055: real time    0.0055
     EDDAV:  cpu time    3.8940: real time    3.9032
       DOS:  cpu time    0.0009: real time    0.0009
    CHARGE:  cpu time    0.0491: real time    0.0492
    MIXING:  cpu time    0.0027: real time    0.0027
    --------------------------------------------
      LOOP:  cpu time    4.0066: real time    4.0160

 eigenvalue-minimisations  :  1736
 total energy-change (2. order) : 0.3074653E+01  (-0.7628072E+00)
 number of electron    1056.0001320 magnetization 
 augmentation part      416.6442059 magnetization 

 Broyden mixing:
  rms(total) = 0.36838E+01    rms(broyden)= 0.36831E+01
  rms(prec ) = 0.40746E+01
  weight for this iteration     100.00

 eigenvalues of (default mixing * dielectric matrix)
  average eigenvalue GAMMA=   0.3888
  1.7740  0.6828  0.6828  0.3442  0.3442  0.3710  0.0581  0.1663  0.1505  0.1505
  0.1095  0.1095  0.1112

 Free energy of the ion-electron system (eV)
  ---------------------------------------------------
  alpha Z        PSCENC =      3266.22189492
  Ewald energy   TEWEN  =    316686.54997723
  -Hartree energ DENC   =   -481450.73578046
  -exchange      EXHF   =         0.00000000
  -V(xc)+E(xc)   XCENC  =      4839.85164676
  PAW double counting   =    177421.99204597  -184103.06525162
  entropy T*S    EENTRO =        -0.77400058
  eigenvalues    EBANDS =    -18494.51641336
  atomic energy  EATOM  =    181336.80673834
  Solvation  Ediel_sol  =         0.00000000
  ---------------------------------------------------
  free energy    TOTEN  =      -497.66914280 eV

  energy without entropy =     -496.89514222  energy(sigma->0) =     -497.28214251


--------------------------------------------------------------------------------------------------------




--------------------------------------- Iteration      1(  19)  ---------------------------------------


    POTLOK:  cpu time    0.0543: real time    0.0545
    SETDIJ:  cpu time    0.0055: real time    0.0055
     EDDAV:  cpu time    3.7812: real time    3.7901
       DOS:  cpu time    0.0008: real time    0.0008
    CHARGE:  cpu time    0.0493: real time    0.0494
[...]
   0.565E+02 -.519E+03 0.173E+04   -.574E+02 0.520E+03 -.173E+04   0.117E+01 -.109E+01 -.676E-02   0.260E-01 -.118E-01 0.459E+00
   0.717E+02 -.587E+03 -.569E+04   -.726E+02 0.588E+03 0.569E+04   0.109E+01 -.950E+00 -.115E+01   0.139E-01 -.407E-01 0.370E+00
   -.101E+03 0.211E+03 0.409E+04   0.100E+03 -.211E+03 -.409E+04   0.128E+01 0.368E+00 0.335E+00   -.140E-01 0.919E-02 0.146E+00
   -.857E+02 0.231E+03 -.347E+04   0.849E+02 -.231E+03 0.347E+04   0.935E+00 0.878E+00 -.157E+01   0.102E-01 -.851E-01 0.152E+01
   -.889E+02 0.247E+03 0.285E+03   0.881E+02 -.248E+03 -.286E+03   0.853E+00 0.721E+00 -.899E+00   0.389E-02 -.405E-01 0.749E+00
   -.174E+02 0.995E+01 -.699E+04   0.154E+02 -.821E+01 0.698E+04   0.224E+01 -.268E+01 0.875E+01   -.628E-01 0.228E+00 -.184E+00
   -.175E+03 0.202E+03 0.686E+04   0.171E+03 -.197E+03 -.685E+04   0.439E+01 -.464E+01 -.586E+01   -.684E-01 -.450E-02 -.231E+00
   -.877E+02 0.241E+03 -.597E+03   0.869E+02 -.242E+03 0.595E+03   0.832E+00 0.752E+00 0.948E+00   0.158E-01 -.109E+00 0.127E+01
   -.918E+02 0.257E+03 0.318E+04   0.911E+02 -.258E+03 -.318E+04   0.708E+00 0.136E+01 0.195E+01   0.385E-01 -.747E-01 0.136E+00
   -.719E+02 0.159E+03 -.441E+04   0.707E+02 -.158E+03 0.441E+04   0.132E+01 -.208E+00 -.125E+01   -.490E-01 0.266E+00 0.127E+01
   -.833E+02 -.474E+03 0.561E+04   0.812E+02 0.472E+03 -.561E+04   0.197E+01 0.171E+01 0.276E+01   -.739E-01 0.111E+00 -.161E-01
   0.577E+02 -.526E+03 -.205E+04   -.586E+02 0.527E+03 0.205E+04   0.113E+01 -.985E+00 -.152E+00   -.537E-01 0.214E+00 0.152E+01
   0.545E+02 -.508E+03 0.172E+04   -.553E+02 0.509E+03 -.172E+04   0.109E+01 -.920E+00 0.197E-01   -.172E-02 0.411E-01 0.454E+00
   0.523E+02 -.435E+03 -.603E+04   -.543E+02 0.434E+03 0.603E+04   0.168E+01 0.212E+01 -.116E+01   0.618E-01 -.407E+00 0.459E+00
   -.634E+02 0.215E+03 0.409E+04   0.623E+02 -.214E+03 -.409E+04   0.125E+01 -.456E+00 0.462E+00   0.310E-01 -.116E+00 0.252E+00
   -.857E+02 0.231E+03 -.347E+04   0.849E+02 -.231E+03 0.347E+04   0.927E+00 0.881E+00 -.156E+01   0.178E-01 -.826E-01 0.150E+01
   -.887E+02 0.247E+03 0.286E+03   0.879E+02 -.248E+03 -.286E+03   0.878E+00 0.786E+00 -.926E+00   0.722E-02 -.372E-01 0.769E+00
   -.174E+02 0.998E+01 -.699E+04   0.154E+02 -.821E+01 0.698E+04   0.224E+01 -.268E+01 0.875E+01   -.607E-01 0.195E+00 -.129E+00
   0.494E+02 0.128E+03 0.670E+04   -.507E+02 -.128E+03 -.671E+04   0.154E+01 -.262E+00 0.731E+01   0.791E-01 -.375E-01 -.254E+00
   -.877E+02 0.241E+03 -.597E+03   0.869E+02 -.242E+03 0.595E+03   0.822E+00 0.749E+00 0.953E+00   0.145E-01 -.106E+00 0.127E+01
   -.897E+02 0.258E+03 0.318E+04   0.890E+02 -.259E+03 -.318E+04   0.847E+00 0.912E+00 0.163E+01   0.198E-03 -.635E-01 0.184E+00
   -.719E+02 0.159E+03 -.441E+04   0.707E+02 -.158E+03 0.441E+04   0.132E+01 -.212E+00 -.125E+01   -.421E-01 0.240E+00 0.131E+01
   0.184E+03 -.423E+03 0.562E+04   -.185E+03 0.422E+03 -.563E+04   0.537E+00 0.123E+01 0.358E+01   0.117E-01 0.161E+00 0.111E-01
   0.578E+02 -.526E+03 -.205E+04   -.586E+02 0.527E+03 0.205E+04   0.111E+01 -.975E+00 -.146E+00   -.502E-01 0.206E+00 0.151E+01
   0.542E+02 -.509E+03 0.172E+04   -.551E+02 0.509E+03 -.172E+04   0.106E+01 -.829E+00 0.112E+00   0.914E-02 0.444E-01 0.440E+00
   0.523E+02 -.436E+03 -.603E+04   -.543E+02 0.434E+03 0.603E+04   0.168E+01 0.211E+01 -.116E+01   0.572E-01 -.370E+00 0.427E+00
   0.731E+02 -.222E+03 0.265E+04   -.740E+02 0.226E+03 -.266E+04   0.352E+00 -.359E+01 0.651E+01   -.191E-01 -.127E-01 -.138E+00
   0.540E+02 -.728E+02 -.148E+03   -.551E+02 0.737E+02 0.145E+03   0.982E+00 -.119E+01 0.276E+01   -.256E-02 -.246E-02 0.524E+00
   0.551E+02 -.800E+02 0.127E+04   -.559E+02 0.810E+02 -.127E+04   0.727E+00 -.124E+01 0.241E+01   -.375E-02 0.149E-01 0.828E-01
   0.547E+02 -.773E+02 -.154E+04   -.559E+02 0.780E+02 0.153E+04   0.106E+01 -.102E+01 0.247E+01   0.148E-01 -.712E-01 0.439E+00
   0.566E+02 -.831E+02 0.143E+04   -.576E+02 0.840E+02 -.143E+04   0.862E+00 -.123E+01 -.277E+01   -.873E-02 0.123E-01 0.693E-02
   0.522E+02 -.620E+02 -.139E+04   -.530E+02 0.630E+02 0.139E+04   0.771E+00 -.131E+01 -.297E+01   0.132E-01 -.351E-01 0.510E+00
   0.546E+02 -.755E+02 0.291E+02   -.556E+02 0.765E+02 -.271E+02   0.902E+00 -.123E+01 -.267E+01   -.587E-02 -.382E-01 0.297E+00
   0.579E+02 -.187E+03 -.268E+04   -.587E+02 0.191E+03 0.268E+04   0.421E+00 -.440E+01 -.585E+01   0.642E-02 0.405E-02 -.184E+00
   0.120E+01 0.162E+03 0.206E+04   -.205E+01 -.164E+03 -.207E+04   0.107E+01 0.236E+01 0.185E+01   0.472E-01 -.517E-01 0.172E-01
   0.788E+01 0.171E+03 -.763E+03   -.832E+01 -.173E+03 0.762E+03   0.160E+00 0.293E+01 0.979E-02   0.154E-01 -.115E+00 0.564E+00
   0.792E+01 0.170E+03 0.646E+03   -.839E+01 -.173E+03 -.646E+03   0.223E+00 0.286E+01 0.845E-01   -.126E-01 0.189E-01 0.200E+00
   -.608E+01 0.250E+03 -.216E+04   0.596E+01 -.252E+03 0.216E+04   0.309E-01 0.249E+01 0.699E+00   0.984E-02 -.218E-01 0.984E-01
   0.558E+02 -.217E+03 0.264E+04   -.564E+02 0.220E+03 -.265E+04   -.283E-01 -.297E+01 0.648E+01   0.261E-01 -.222E-01 -.131E+00
   0.540E+02 -.728E+02 -.148E+03   -.551E+02 0.737E+02 0.145E+03   0.964E+00 -.118E+01 0.274E+01   0.483E-02 0.319E-02 0.519E+00
   0.563E+02 -.802E+02 0.127E+04   -.571E+02 0.812E+02 -.127E+04   0.773E+00 -.118E+01 0.251E+01   -.275E-03 0.484E-03 0.103E+00
   0.547E+02 -.773E+02 -.154E+04   -.559E+02 0.780E+02 0.153E+04   0.105E+01 -.102E+01 0.247E+01   0.161E-01 -.720E-01 0.439E+00
   0.555E+02 -.829E+02 0.143E+04   -.564E+02 0.839E+02 -.143E+04   0.786E+00 -.129E+01 -.263E+01   0.698E-02 0.626E-02 0.947E-02
   0.522E+02 -.620E+02 -.139E+04   -.530E+02 0.630E+02 0.139E+04   0.763E+00 -.132E+01 -.294E+01   0.150E-01 -.342E-01 0.513E+00
   0.124E+02 0.790E+02 0.236E+04   -.121E+02 -.803E+02 -.236E+04   -.615E+00 0.213E+01 0.415E+01   0.116E-01 -.363E-01 -.322E+00
   0.546E+02 -.754E+02 0.290E+02   -.556E+02 0.765E+02 -.271E+02   0.933E+00 -.127E+01 -.263E+01   0.106E-01 -.333E-01 0.301E+00
   0.579E+02 -.187E+03 -.268E+04   -.587E+02 0.191E+03 0.268E+04   0.421E+00 -.440E+01 -.585E+01   -.206E-02 0.590E-02 -.184E+00
   0.202E+02 0.148E+03 0.206E+04   -.212E+02 -.150E+03 -.207E+04   0.909E+00 0.334E+01 -.295E+00   -.273E-01 -.765E-01 0.344E-01
   0.787E+01 0.171E+03 -.763E+03   -.832E+01 -.173E+03 0.762E+03   0.167E+00 0.293E+01 0.167E-01   0.230E-01 -.111E+00 0.563E+00
   0.799E+01 0.170E+03 0.646E+03   -.845E+01 -.173E+03 -.646E+03   0.207E+00 0.287E+01 -.555E-01   0.193E-02 0.242E-01 0.202E+00
   -.610E+01 0.250E+03 -.216E+04   0.596E+01 -.252E+03 0.216E+04   0.297E-01 0.249E+01 0.695E+00   0.206E-01 -.353E-01 0.969E-01
   0.549E+02 -.764E+02 -.147E+03   -.557E+02 0.773E+02 0.144E+03   0.823E+00 -.122E+01 0.265E+01   -.532E-02 0.383E-01 0.466E+00
   0.527E+02 -.681E+02 0.127E+04   -.536E+02 0.690E+02 -.127E+04   0.820E+00 -.117E+01 0.255E+01   0.157E-02 -.418E-01 0.471E-01
   0.543E+02 -.761E+02 -.160E+04   -.558E+02 0.779E+02 0.160E+04   0.176E+01 -.186E+01 0.708E+00   -.955E-02 -.327E-02 0.485E+00
   0.537E+02 -.711E+02 0.147E+04   -.553E+02 0.721E+02 -.147E+04   0.175E+01 -.101E+01 -.304E+01   -.769E-01 0.565E-03 0.105E+00
   0.567E+02 -.860E+02 -.139E+04   -.576E+02 0.871E+02 0.139E+04   0.822E+00 -.128E+01 -.289E+01   -.858E-02 0.633E-01 0.584E+00
   -.180E+02 0.149E+03 0.236E+04   0.187E+02 -.151E+03 -.236E+04   0.141E+00 0.183E+01 0.359E+01   -.707E-02 0.109E-01 -.271E+00
   0.543E+02 -.736E+02 0.267E+02   -.552E+02 0.745E+02 -.247E+02   0.899E+00 -.122E+01 -.281E+01   -.858E-02 0.640E-01 0.385E+00
   -.722E+01 0.213E+03 0.203E+04   0.693E+01 -.216E+03 -.203E+04   0.113E+00 0.316E+01 0.271E+00   0.306E-01 -.653E-02 -.394E-01
   0.781E+01 0.171E+03 -.773E+03   -.828E+01 -.174E+03 0.772E+03   0.239E+00 0.299E+01 0.552E+00   -.152E-01 0.823E-01 0.595E+00
   0.741E+01 0.172E+03 0.651E+03   -.798E+01 -.174E+03 -.651E+03   0.294E+00 0.284E+01 -.316E+00   0.448E-02 -.298E-01 0.104E+00
   0.166E+02 0.124E+03 -.216E+04   -.172E+02 -.125E+03 0.216E+04   0.613E+00 0.228E+01 -.105E+01   -.104E-01 0.191E+00 0.286E+00
   0.429E+02 -.153E+03 0.265E+04   -.434E+02 0.156E+03 -.266E+04   0.824E-01 -.369E+01 0.633E+01   0.642E-01 0.744E-01 -.175E+00
   0.548E+02 -.764E+02 -.147E+03   -.557E+02 0.773E+02 0.144E+03   0.830E+00 -.123E+01 0.273E+01   -.167E-01 0.314E-01 0.472E+00
   0.541E+02 -.682E+02 0.127E+04   -.548E+02 0.691E+02 -.127E+04   0.681E+00 -.112E+01 0.241E+01   0.122E-01 -.398E-01 0.624E-01
   0.543E+02 -.761E+02 -.160E+04   -.558E+02 0.779E+02 0.160E+04   0.176E+01 -.186E+01 0.704E+00   0.249E-01 0.200E-02 0.486E+00
   0.526E+02 -.692E+02 0.145E+04   -.541E+02 0.720E+02 -.145E+04   0.162E+01 -.299E+01 0.122E+00   0.791E-01 0.311E-01 0.961E-01
   0.567E+02 -.860E+02 -.139E+04   -.576E+02 0.871E+02 0.139E+04   0.819E+00 -.130E+01 -.287E+01   -.105E-01 0.685E-01 0.592E+00
   -.414E+00 0.143E+03 0.236E+04   0.105E+01 -.144E+03 -.236E+04   0.182E+00 0.165E+01 0.370E+01   -.711E-03 0.110E-01 -.288E+00
   0.543E+02 -.736E+02 0.267E+02   -.552E+02 0.745E+02 -.247E+02   0.979E+00 -.120E+01 -.282E+01   -.235E-01 0.592E-01 0.383E+00
   0.755E+01 0.224E+03 0.204E+04   -.779E+01 -.227E+03 -.204E+04   0.956E-01 0.254E+01 0.278E+00   -.441E-01 0.601E-01 -.349E-01
   0.782E+01 0.171E+03 -.773E+03   -.828E+01 -.174E+03 0.772E+03   0.236E+00 0.300E+01 0.526E+00   -.176E-01 0.792E-01 0.593E+00
   0.783E+01 0.172E+03 0.651E+03   -.838E+01 -.174E+03 -.651E+03   0.321E+00 0.282E+01 -.323E+00   0.867E-02 -.315E-01 0.107E+00
   0.166E+02 0.124E+03 -.216E+04   -.172E+02 -.125E+03 0.216E+04   0.609E+00 0.228E+01 -.105E+01   -.399E-01 0.186E+00 0.282E+00
 -----------------------------------------------------------------------------------------------
   -.869E+02 -.361E+00 -.962E+02   0.764E-12 -.522E-11 0.455E-12   0.868E+02 0.770E-01 0.589E+02   -.458E-02 0.388E+00 0.373E+02
 
 
 POSITION                                       TOTAL-FORCE (eV/Angst)
 -----------------------------------------------------------------------------------
      1.58120      0.48447      4.44331        -0.020031      0.162933     -0.312335
      1.58120      0.48447     14.02172         0.036075      0.111287     -0.429071
      0.03892      3.00675      9.23251         0.056174      0.174876     -0.363046
      0.03892      3.00675     18.81092         0.261964      0.696665     -1.231995
      1.58120      0.48447      1.91264        -0.189498      0.226938      0.339602
      1.58120      0.48447     11.49105         0.033702      0.242227      0.285391
      0.03892      3.00675      6.70184         0.083805      0.196882      0.354541
      0.03892      3.00675     16.28025         0.065250      0.191170      0.037066
      1.17372      2.63788      3.17797         0.211808     -0.410174      0.079183
      1.17372      2.63788     12.75638         0.223752     -0.333797     -0.088397
      2.71599      5.74383      7.96718         0.228968     -0.328759     -0.006890
      2.71599      5.74383     17.54559         0.247518     -0.349225     -0.388099
      4.66574      1.06813      4.44331         0.023563      0.189511     -0.271410
      4.66574      1.06813     14.02172         0.036035      0.111622     -0.428218
      3.12347      3.59042      9.23251         0.065254      0.165190     -0.366144
      3.12347      3.59042     18.81092         0.261918      0.696361     -1.232352
      4.66574      1.06813      1.91264        -0.154453      0.237999      0.331142
      4.66574      1.06813     11.49105         0.030645      0.246796      0.292102
      3.12347      3.59042      6.70184         0.099464      0.166797      0.350734
      3.12347      3.59042     16.28025         0.065808      0.191279      0.037255
      4.25826      3.22155      3.17797         0.292277     -0.597253      0.133501
      4.25826      3.22155     12.75638         0.224039     -0.338153     -0.086066
      5.80053      6.32750      7.96718         0.227844     -0.357991     -0.005311
      5.80053      6.32750     17.54559         0.247502     -0.349756     -0.387936
      1.58120      6.11270      4.44331        -0.063679     -0.095399      0.123573
      1.58120      6.11270     14.02172         0.109458      0.187325     -0.377205
      0.03892      8.63498      9.23251         0.047298      0.197725     -0.351444
      0.03892      8.63498     18.81092         0.180673     -0.712215     -1.617087
      1.58120      6.11270      1.91264         0.141614     -0.256866      1.199937
      1.58120      6.11270     11.49105         0.056582      0.186693      0.359904
      0.03892      8.63498      6.70184         0.040183      0.018293      0.405211
      0.03892      8.63498     16.28025         0.005715      0.165334     -0.406312
      1.17372      8.26611      3.17797        -0.205216      0.031985      0.603056
      1.17372      8.26611     12.75638         0.255618     -0.374583     -0.017758
      2.71599     11.37206      7.96718         0.223704     -0.333281      0.010089
      2.71599     11.37206     17.54559        -0.301080     -0.099855     -1.317124
      4.66574      6.69637      4.44331         0.136422      0.145811      0.066360
      4.66574      6.69637     14.02172         0.108874      0.188781     -0.372314
      3.12347      9.21865      9.23251         0.043423      0.168743     -0.381851
      3.12347      9.21865     18.81092         0.180188     -0.713178     -1.623563
      4.66574      6.69637      1.91264         0.349213     -1.063809     -0.796004
      4.66574      6.69637     11.49105         0.060859      0.181393      0.365421
      3.12347      9.21865      6.70184         0.059076      0.190646      0.440432
      3.12347      9.21865     16.28025         0.006300      0.165727     -0.407272
      4.25826      8.84978      3.17797        -0.033604     -0.048965      0.797212
      4.25826      8.84978     12.75638         0.258370     -0.374997     -0.022325
      5.80053     11.95573      7.96718         0.230446     -0.330674      0.033160
      5.80053     11.95573     17.54559        -0.300670     -0.100902     -1.319627
      2.88963      2.42231      1.56674        -0.594753     -0.278475      0.219816
      2.88963      2.42231     11.14515        -0.056595     -0.296708      0.442007
      1.34735      4.94459      6.35595        -0.052816     -0.160796      0.184045
      1.34735      4.94459     15.93436        -0.063543     -0.372282      0.695357
      2.88963      2.42231      4.78920        -0.153897     -0.350770     -0.574905
      2.88963      2.42231     14.36761        -0.072087     -0.281825     -0.255718
      1.34735      4.94459      9.57841        -0.031372     -0.274882     -0.423527
      1.34735      4.94459     19.15682        -0.417034     -0.819277      0.210013
      0.32395      4.72480      3.17797         0.270220      0.831942     -0.606306
      0.32395      4.72480     12.75638        -0.261945      0.503165      0.014119
      1.86622      2.20252      7.96718        -0.259682      0.505651      0.013028
      1.86622      2.20252     17.54559        -0.081626     -0.079862      1.022995
      5.97417      3.00598      1.56674        -0.615278     -0.187401      0.125643
      5.97417      3.00598     11.14515        -0.059470     -0.301577      0.444774
      4.43190      5.52826      6.35595        -0.061625     -0.155530      0.291382
      4.43190      5.52826     15.93436        -0.063345     -0.372357      0.695432
      5.97417      3.00598      4.78920        -0.116178     -0.357347     -0.540604
      5.97417      3.00598     14.36761        -0.072526     -0.281688     -0.253646
      4.43190      5.52826      0.00000        -0.261544      0.822426      1.560723
      4.43190      5.52826      9.57841        -0.037698     -0.261457     -0.424876
      4.43190      5.52826     19.15682        -0.416816     -0.819490      0.210111
      3.40849      5.30847      3.17797        -0.209745      1.138250     -1.038900
      3.40849      5.30847     12.75638        -0.259074      0.504196      0.014273
      4.95076      2.78618      7.96718        -0.252462      0.522973      0.026099
      4.95076      2.78618     17.54559        -0.081997     -0.079912      1.022668
      2.88963      8.05054     11.14515        -0.067636     -0.281330      0.388693
      1.34735     10.57282      6.35595        -0.050489     -0.314400      0.286506
      1.34735     10.57282     15.93436         0.214813     -0.030939      1.625053
      2.88963      8.05054      4.78920         0.077480      0.012876     -1.533415
      2.88963      8.05054     14.36761        -0.104945     -0.139797     -0.242600
      1.34735     10.57282      0.00000         0.769926      0.216455      0.248653
      1.34735     10.57282      9.57841        -0.044083     -0.265624     -0.432949
      0.32395     10.35303      3.17797        -0.145560      0.276569     -0.131762
      0.32395     10.35303     12.75638        -0.243990      0.547251      0.108486
      1.86622      7.83075      7.96718        -0.263582      0.536199     -0.008826
      1.86622      7.83075     17.54559        -0.034960      1.362489      1.737318
      5.97417      8.63421      1.56674        -0.380287     -0.515600      0.061927
      5.97417      8.63421     11.14515        -0.082268     -0.289466      0.407440
      4.43190     11.15649      6.35595         0.018188     -0.246251      0.314981
      4.43190     11.15649     15.93436         0.217671     -0.030429      1.625052
      5.97417      8.63421      4.78920         0.156997     -0.207143     -0.573436
      5.97417      8.63421     14.36761        -0.105078     -0.138600     -0.240841
      4.43190     11.15649      0.00000         0.822527      0.138375      0.236562
      4.43190     11.15649      9.57841        -0.031458     -0.268734     -0.407426
      3.40849     10.93670      3.17797        -0.188088     -0.176461     -0.350090
      3.40849     10.93670     12.75638        -0.244826      0.551756      0.108741
      4.95076      8.41442      7.96718        -0.220807      0.535748     -0.076467
      4.95076      8.41442     17.54559        -0.035802      1.362931      1.736680
 -----------------------------------------------------------------------------------
    total drift:                               -0.101573      0.104601      0.040973


--------------------------------------------------------------------------------------------------------



  FREE ENERGIE OF THE ION-ELECTRON SYSTEM (eV)
  ---------------------------------------------------
  free  energy   TOTEN  =      -480.31435335 eV

  energy  without entropy=     -479.01805111  energy(sigma->0) =     -479.66620223
 


--------------------------------------------------------------------------------------------------------


    POTLOK:  cpu time    0.0588: real time    0.0589


--------------------------------------------------------------------------------------------------------


     LOOP+:  cpu time  180.5615: real time  181.0782
    4ORBIT:  cpu time    0.0000: real time    0.0000

 total amount of memory used by VASP MPI-rank0    48489. kBytes
=======================================================================

   base      :      30000. kBytes
   nonlr-proj:       3248. kBytes
   fftplans  :       3676. kBytes
   grid      :       6629. kBytes
   one-center:        124. kBytes
   wavefun   :       4812. kBytes
 
  
  
 General timing and accounting informations for this job:
 ========================================================
  
                  Total CPU time used (sec):      183.060
                            User time (sec):      181.712
                          System time (sec):        1.349
                         Elapsed time (sec):      184.066
  
                   Maximum memory used (kb):      242944.
                   Average memory used (kb):           0.
  
                          Minor page faults:       171914
                          Major page faults:            0
                 Voluntary context switches:          985
