"Millerite NiS"                         
           1
     6.169087    1.167339    0.000000
     0.000000   11.256463    0.000000
     0.000000    0.000000   29.156820
   Ni   S 
    48    48
Direct configuration=     1
   0.25630944  0.01645859  0.15239349
   0.25630944  0.01645859  0.48090702
   0.00630944  0.26645858  0.31665025
   0.00630944  0.26645858  0.64516379
   0.25630944  0.01645859  0.06559824
   0.25630944  0.01645859  0.39411177
   0.00630944  0.26645858  0.22985501
   0.00630944  0.26645858  0.55836854
   0.19025794  0.21461309  0.10899586
   0.19025794  0.21461309  0.43750940
   0.44025794  0.46461308  0.27325263
   0.44025794  0.46461308  0.60176617
   0.75630944  0.01645859  0.15239349
   0.75630944  0.01645859  0.48090702
   0.50630944  0.26645858  0.31665025
   0.50630944  0.26645858  0.64516379
   0.75630944  0.01645859  0.06559824
   0.75630944  0.01645859  0.39411177
   0.50630944  0.26645858  0.22985501
   0.50630944  0.26645858  0.55836854
   0.69025794  0.21461309  0.10899586
   0.69025794  0.21461309  0.43750940
   0.94025794  0.46461308  0.27325263
   0.94025794  0.46461308  0.60176617
   0.25630944  0.51645859  0.15239349
   0.25630944  0.51645859  0.48090702
   0.00630944  0.76645858  0.31665025
   0.00630944  0.76645858  0.64516379
   0.25630944  0.51645859  0.06559824
   0.25630944  0.51645859  0.39411177
   0.00630944  0.76645858  0.22985501
   0.00630944  0.76645858  0.55836854
   0.19025794  0.71461309  0.10899586
   0.19025794  0.71461309  0.43750940
   0.44025794  0.96461308  0.27325263
   0.44025794  0.96461308  0.60176617
   0.75630944  0.51645859  0.15239349
   0.75630944  0.51645859  0.48090702
   0.50630944  0.76645858  0.31665025
   0.50630944  0.76645858  0.64516379
   0.75630944  0.51645859  0.06559824
   0.75630944  0.51645859  0.39411177
   0.50630944  0.76645858  0.22985501
   0.50630944  0.76645858  0.55836854
   0.69025794  0.71461309  0.10899586
   0.69025794  0.71461309  0.43750940
   0.94025794  0.96461308  0.27325263
   0.94025794  0.96461308  0.60176617
   0.46840410  0.16661759  0.05373496
   0.46840410  0.16661759  0.38224849
   0.21840410  0.41661758  0.21799173
   0.21840410  0.41661758  0.54650526
   0.46840410  0.16661759  0.16425677
   0.46840410  0.16661759  0.49277030
   0.21840410  0.41661758  0.32851353
   0.21840410  0.41661758  0.65702707
   0.05251160  0.41429508  0.10899586
   0.05251160  0.41429508  0.43750940
   0.30251160  0.16429509  0.27325263
   0.30251160  0.16429509  0.60176617
   0.96840410  0.16661759  0.05373496
   0.96840410  0.16661759  0.38224849
   0.71840410  0.41661758  0.21799173
   0.71840410  0.41661758  0.54650526
   0.96840410  0.16661759  0.16425677
   0.96840410  0.16661759  0.49277030
   0.71840410  0.41661758  0.00000000
   0.71840410  0.41661758  0.32851353
   0.71840410  0.41661758  0.65702707
   0.55251160  0.41429508  0.10899586
   0.55251160  0.41429508  0.43750940
   0.80251160  0.16429509  0.27325263
   0.80251160  0.16429509  0.60176617
   0.46840410  0.66661759  0.38224849
   0.21840410  0.91661758  0.21799173
   0.21840410  0.91661758  0.54650526
   0.46840410  0.66661759  0.16425677
   0.46840410  0.66661759  0.49277030
   0.21840410  0.91661758  0.00000000
   0.21840410  0.91661758  0.32851353
   0.05251160  0.91429508  0.10899586
   0.05251160  0.91429508  0.43750940
   0.30251160  0.66429509  0.27325263
   0.30251160  0.66429509  0.60176617
   0.96840410  0.66661759  0.05373496
   0.96840410  0.66661759  0.38224849
   0.71840410  0.91661758  0.21799173
   0.71840410  0.91661758  0.54650526
   0.96840410  0.66661759  0.16425677
   0.96840410  0.66661759  0.49277030
   0.71840410  0.91661758  0.00000000
   0.71840410  0.91661758  0.32851353
   0.55251160  0.91429508  0.10899586
   0.55251160  0.91429508  0.43750940
   0.80251160  0.66429509  0.27325263
   0.80251160  0.66429509  0.60176617
