       N       E                     dE             d eps       ncg     rms          rms(c)
DAV:   1     0.647103367686E+04    0.64710E+04   -0.36594E+05   848   0.154E+03
DAV:   2     0.346574754535E+03   -0.61245E+04   -0.59107E+04   736   0.492E+02
DAV:   3    -0.255347425999E+03   -0.60192E+03   -0.58087E+03   800   0.164E+02
DAV:   4    -0.284824499083E+03   -0.29477E+02   -0.29196E+02   792   0.346E+01
DAV:   5    -0.285961291657E+03   -0.11368E+01   -0.11347E+01   872   0.696E+00    0.838E+01
DAV:   6    -0.334248182422E+03   -0.48287E+02   -0.73751E+02   856   0.124E+02    0.131E+02
DAV:   7    -0.261097564083E+03    0.73151E+02   -0.15805E+02   792   0.742E+01    0.557E+01
DAV:   8    -0.330665587371E+03   -0.69568E+02   -0.18463E+02   920   0.967E+01    0.110E+02
DAV:   9    -0.259382870627E+03    0.71283E+02   -0.64465E+01   920   0.394E+01    0.380E+01
DAV:  10    -0.277482287787E+03   -0.18099E+02   -0.78667E+01   928   0.576E+01    0.701E+01
DAV:  11    -0.255278378215E+03    0.22204E+02   -0.31520E+01   888   0.419E+01    0.273E+01
DAV:  12    -0.253080754885E+03    0.21976E+01   -0.12949E+01   944   0.212E+01    0.181E+01
DAV:  13    -0.251132015386E+03    0.19487E+01   -0.32102E+00   936   0.130E+01    0.141E+01
DAV:  14    -0.250749884869E+03    0.38213E+00   -0.14197E+00   960   0.863E+00    0.125E+01
DAV:  15    -0.250281169466E+03    0.46872E+00   -0.53146E-01   936   0.506E+00    0.106E+01
DAV:  16    -0.250072818688E+03    0.20835E+00   -0.17009E-01   936   0.277E+00    0.961E+00
DAV:  17    -0.249665520533E+03    0.40730E+00   -0.20699E-01  1016   0.409E+00    0.798E+00
DAV:  18    -0.249282441758E+03    0.38308E+00   -0.35628E-01   976   0.483E+00    0.483E+00
DAV:  19    -0.249206135649E+03    0.76306E-01   -0.44528E-01   944   0.435E+00    0.422E+00
DAV:  20    -0.249180567185E+03    0.25568E-01   -0.23287E-01   904   0.286E+00    0.323E+00
DAV:  21    -0.249168920599E+03    0.11647E-01   -0.98572E-02   776   0.172E+00    0.258E+00
DAV:  22    -0.249158291794E+03    0.10629E-01   -0.61827E-02   840   0.194E+00    0.203E+00
DAV:  23    -0.249147994565E+03    0.10297E-01   -0.42027E-02   944   0.166E+00    0.166E+00
DAV:  24    -0.249138030861E+03    0.99637E-02   -0.28078E-02   920   0.149E+00    0.881E-01
DAV:  25    -0.249137842396E+03    0.18847E-03   -0.21805E-02   984   0.998E-01    0.931E-01
DAV:  26    -0.249136257221E+03    0.15852E-02   -0.97562E-03   912   0.715E-01    0.680E-01
DAV:  27    -0.249135086631E+03    0.11706E-02   -0.46851E-03   872   0.516E-01    0.472E-01
DAV:  28    -0.249134565621E+03    0.52101E-03   -0.21930E-03   808   0.390E-01    0.223E-01
DAV:  29    -0.249134878257E+03   -0.31264E-03   -0.59279E-04   720   0.146E-01    0.181E-01
DAV:  30    -0.249134946340E+03   -0.68083E-04   -0.32888E-04   576   0.166E-01
   1 F= -.24913495E+03 E0= -.24875588E+03  d E =-.758134E+00
