 vasp.6.1.0 28Jan20 (build Mar 31 2020 17:42:31) gamma-only                     
  
 executed on             LinuxIFC date 2020.04.12  17:32:19
 running on   48 total cores
 distrk:  each k-point on   48 cores,    1 groups
 distr:  one band on NCORE=   6 cores,    8 groups


--------------------------------------------------------------------------------------------------------


 INCAR:
 POTCAR:    PAW_PBE Ni_pv 06Sep2000               
 POTCAR:    PAW_PBE S 06Sep2000                   
 POTCAR:    PAW_PBE Ni_pv 06Sep2000               
   VRHFIN =Ni:                                                                                      
   LEXCH  = PE                                                                                      
   EATOM  =  3501.1230 eV,  257.3253 Ry                                                             
                                                                                                    
   TITEL  = PAW_PBE Ni_pv 06Sep2000                                                                 
   LULTRA =        F    use ultrasoft PP ?                                                          
   IUNSCR =        1    unscreen: 0-lin 1-nonlin 2-no                                               
   RPACOR =    1.500    partial core radius                                                         
   POMASS =   58.690; ZVAL   =   16.000    mass and valenz                                          
   RCORE  =    2.000    outmost cutoff radius                                                       
   RWIGS  =    2.000; RWIGS  =    1.058    wigner-seitz radius (au A)                               
   ENMAX  =  367.986; ENMIN  =  275.989 eV                                                          
   RCLOC  =    1.301    cutoff for local pot                                                        
   LCOR   =        T    correct aug charges                                                         
   LPAW   =        T    paw PP                                                                      
   EAUG   =  703.443                                                                                
   DEXC   =    0.000                                                                                
   RMAX   =    2.041    core radius for proj-oper                                                   
   RAUG   =    1.300    factor for augmentation sphere                                              
   RDEP   =    2.103    radius for radial grids                                                     
   RDEPT  =    1.618    core radius for aug-charge                                                  
                                                                                                    
   Atomic configuration                                                                             
    8 entries                                                                                       
     n  l   j            E        occ.                                                              
     1  0  0.50     -8206.4253   2.0000                                                             
     2  0  0.50      -976.1748   2.0000                                                             
     2  1  1.50      -839.0571   6.0000                                                             
     3  0  0.50      -105.9991   2.0000                                                             
     3  1  1.50       -66.4603   6.0000                                                             
     3  2  2.50        -4.6458   9.0000                                                             
     4  0  0.50        -4.4926   1.0000                                                             
     4  3  2.50        -1.3606   0.0000                                                             
   Description                                                                                      
     l       E           TYP  RCUT    TYP  RCUT                                                     
     1    -66.4602962     23  1.700                                                                 
     1     -1.3605826     23  1.700                                                                 
     2     -4.6457867     23  2.000                                                                 
     2     -6.0063693     23  2.000                                                                 
     0     -4.4925576     23  1.900                                                                 
     0     16.3626226     23  1.900                                                                 
  local pseudopotential read in
  partial core-charges read in
  partial kinetic energy density read in
  atomic valenz-charges read in
  non local Contribution for L=           1  read in
    real space projection operators read in
  non local Contribution for L=           1  read in
    real space projection operators read in
  non local Contribution for L=           2  read in
    real space projection operators read in
  non local Contribution for L=           2  read in
    real space projection operators read in
  non local Contribution for L=           0  read in
    real space projection operators read in
  non local Contribution for L=           0  read in
    real space projection operators read in
    PAW grid and wavefunctions read in
 
   number of l-projection  operators is LMAX  =           6
   number of lm-projection operators is LMMAX =          18
 
 POTCAR:    PAW_PBE S 06Sep2000                   
   VRHFIN =S : s2p4                                                                                 
   LEXCH  = PE                                                                                      
   EATOM  =   276.8230 eV,   20.3459 Ry                                                             
                                                                                                    
   TITEL  = PAW_PBE S 06Sep2000                                                                     
   LULTRA =        F    use ultrasoft PP ?                                                          
   IUNSCR =        1    unscreen: 0-lin 1-nonlin 2-no                                               
   RPACOR =    1.500    partial core radius                                                         
   POMASS =   32.066; ZVAL   =    6.000    mass and valenz                                          
   RCORE  =    1.900    outmost cutoff radius                                                       
   RWIGS  =    2.200; RWIGS  =    1.164    wigner-seitz radius (au A)                               
   ENMAX  =  258.689; ENMIN  =  194.016 eV                                                          
   ICORE  =        2    local potential                                                             
   LCOR   =        T    correct aug charges                                                         
   LPAW   =        T    paw PP                                                                      
   EAUG   =  335.092                                                                                
   DEXC   =    0.000                                                                                
   RMAX   =    1.942    core radius for proj-oper                                                   
   RAUG   =    1.300    factor for augmentation sphere                                              
   RDEP   =    1.954    radius for radial grids                                                     
   RDEPT  =    1.744    core radius for aug-charge                                                  
                                                                                                    
   Atomic configuration                                                                             
    6 entries                                                                                       
     n  l   j            E        occ.                                                              
     1  0  0.50     -2405.8406   2.0000                                                             
     2  0  0.50      -211.7007   2.0000                                                             
     2  1  1.50      -156.4958   6.0000                                                             
     3  0  0.50       -17.2562   2.0000                                                             
     3  1  0.50        -7.0085   4.0000                                                             
     3  2  1.50        -6.8029   0.0000                                                             
   Description                                                                                      
     l       E           TYP  RCUT    TYP  RCUT                                                     
     0    -17.2561641     23  1.900                                                                 
     0    -15.8743224     23  1.900                                                                 
     1     -7.0085400     23  1.900                                                                 
     1     -2.7779785     23  1.900                                                                 
     2     -6.8029130     23  1.900                                                                 
  local pseudopotential read in
  partial core-charges read in
  partial kinetic energy density read in
  atomic valenz-charges read in
  non local Contribution for L=           0  read in
    real space projection operators read in
  non local Contribution for L=           0  read in
    real space projection operators read in
  non local Contribution for L=           1  read in
    real space projection operators read in
  non local Contribution for L=           1  read in
    real space projection operators read in
    PAW grid and wavefunctions read in
 
   number of l-projection  operators is LMAX  =           4
   number of lm-projection operators is LMMAX =           8
 
 Optimization of the real space projectors (new method)

 maximal supplied QI-value         = 18.90
 optimisation between [QCUT,QGAM] = [ 10.77, 21.73] = [ 32.49,132.25] Ry 
 Optimized for a Real-space Cutoff    1.38 Angstroem

   l    n(q)    QCUT    max X(q) W(low)/X(q) W(high)/X(q)  e(spline) 
   1      8    10.771     2.836    0.40E-04    0.29E-04    0.12E-06
   1      8    10.771     4.023    0.10E-03    0.48E-04    0.29E-06
   2      8    10.771    73.368    0.42E-03    0.97E-04    0.44E-06
   2      8    10.771    69.010    0.42E-03    0.99E-04    0.45E-06
   0      9    10.771    54.797    0.10E-03    0.56E-04    0.74E-07
   0      9    10.771    24.266    0.89E-04    0.49E-04    0.67E-07
 Optimization of the real space projectors (new method)

 maximal supplied QI-value         = 19.84
 optimisation between [QCUT,QGAM] = [ 10.71, 21.63] = [ 32.15,130.99] Ry 
 Optimized for a Real-space Cutoff    1.19 Angstroem

   l    n(q)    QCUT    max X(q) W(low)/X(q) W(high)/X(q)  e(spline) 
   0      8    10.715   187.594    0.41E-03    0.53E-04    0.66E-07
   0      8    10.715   164.243    0.41E-03    0.53E-04    0.65E-07
   1      7    10.715    67.533    0.19E-03    0.59E-03    0.68E-07
   1      7    10.715    50.729    0.19E-03    0.58E-03    0.67E-07
  PAW_PBE Ni_pv 06Sep2000               :
 energy of atom  1       EATOM=-3501.1230
 kinetic energy error for atom=    0.0925 (will be added to EATOM!!)
  PAW_PBE S 06Sep2000                   :
 energy of atom  2       EATOM= -276.8230
 kinetic energy error for atom=    0.0033 (will be added to EATOM!!)
 
 
 POSCAR: Structure 26 made from -211-7.xsd file
  positions in direct lattice
  No initial velocities read in
 exchange correlation table for  LEXCH =        8
   RHO(1)=    0.500       N(1)  =     2000
   RHO(2)=  100.500       N(2)  =     4000
 


--------------------------------------------------------------------------------------------------------


 ion  position               nearest neighbor table
   1  0.247  0.945  0.000-  41 2.25  49 2.36  61 2.36
   2  0.397  0.795  0.127-  42 2.25  49 2.26  61 2.26  50 2.36  62 2.36  14 2.53  27 2.53
   3  0.547  0.645  0.254-  43 2.25  62 2.26  50 2.26  63 2.36  51 2.36  28 2.53  15 2.53
   4  0.698  0.494  0.381-  44 2.25  51 2.26  63 2.26  52 2.36  64 2.36  16 2.53  29 2.53
   5  0.848  0.344  0.508-  64 2.26  52 2.26  17 2.53
   6  0.114  0.412  0.169-  45 2.25  68 2.26  53 2.26  65 2.36  54 2.36  30 2.53  18 2.53
   7  0.264  0.261  0.296-  46 2.25  65 2.26  54 2.26  55 2.36  66 2.36  19 2.53  31 2.53
   8  0.414  0.111  0.423-  47 2.25  55 2.26  66 2.26  56 2.36  67 2.36  32 2.53  20 2.53
   9  0.964  0.562  0.042-  48 2.25  53 2.36  68 2.36  22 2.53
  10  0.131  0.728  0.465-  37 2.25  72 2.26  58 2.26  59 2.36  23 2.53  36 2.53
  11  0.680  0.178  0.085-  38 2.25  69 2.26  70 2.36  60 2.36  24 2.53
  12  0.831  0.028  0.212-  39 2.25  60 2.26  70 2.26  57 2.36  71 2.36  25 2.53  34 2.53
  13  0.981  0.878  0.338-  40 2.25  57 2.26  71 2.26  58 2.36  72 2.36  35 2.53  26 2.53
  14  0.357  0.570  0.093-  53 2.25  61 2.26  62 2.36  38 2.36   2 2.53  27 2.53
  15  0.508  0.420  0.220-  54 2.25  62 2.26  38 2.26  39 2.36  63 2.36  28 2.53   3 2.53
  16  0.658  0.270  0.347-  55 2.25  63 2.26  39 2.26  64 2.36  40 2.36   4 2.53  29 2.53
  17  0.808  0.120  0.474-  56 2.25  40 2.26  64 2.26  37 2.36   5 2.53
  18  0.074  0.187  0.136-  60 2.25  68 2.26  41 2.26  42 2.36  65 2.36   6 2.53  30 2.53
  19  0.224  0.037  0.263-  57 2.25  42 2.26  65 2.26  66 2.36  43 2.36   7 2.53  31 2.53
  20  0.375  0.886  0.390-  58 2.25  66 2.26  43 2.26  44 2.36  67 2.36  32 2.53   8 2.53
  21  0.525  0.736  0.517-  59 2.25  67 2.26  44 2.26  33 2.53
  22  0.924  0.337  0.009-  41 2.36  68 2.36   9 2.53
  23  0.091  0.503  0.432-  52 2.25  72 2.26  46 2.26  47 2.36  36 2.53  10 2.53
  24  0.641  0.954  0.051-  49 2.25  69 2.26  48 2.36  70 2.36  11 2.53
  25  0.791  0.804  0.178-  50 2.25  70 2.26  48 2.26  71 2.36  45 2.36  12 2.53  34 2.53
  26  0.941  0.653  0.305-  51 2.25  71 2.26  45 2.26  46 2.36  72 2.36  35 2.53  13 2.53
  27  0.582  0.610  0.060-  49 2.26  50 2.36  38 2.36   2 2.53  14 2.53
  28  0.732  0.460  0.187-  68 2.25  50 2.26  38 2.26  51 2.36  39 2.36  15 2.53   3 2.53
  29  0.882  0.310  0.314-  65 2.25  39 2.26  51 2.26  40 2.36  52 2.36   4 2.53  16 2.53
  30  0.299  0.227  0.102-  69 2.25  53 2.26  41 2.26  54 2.36  42 2.36   6 2.53  18 2.53
  31  0.449  0.076  0.229-  70 2.25  42 2.26  54 2.26  55 2.36  43 2.36  19 2.53   7 2.53
  32  0.599  0.926  0.356-  71 2.25  55 2.26  43 2.26  56 2.36  44 2.36   8 2.53  20 2.53
  33  0.749  0.776  0.483-  72 2.25  56 2.26  44 2.26  21 2.53
  34  0.015  0.843  0.144-  61 2.25  48 2.26  60 2.26  45 2.36  57 2.36  25 2.53  12 2.53
  35  0.166  0.693  0.271-  62 2.25  57 2.26  45 2.26  46 2.36  58 2.36  13 2.53  26 2.53
  36  0.316  0.543  0.398-  63 2.25  58 2.26  46 2.26  47 2.36  59 2.36  23 2.53  10 2.53
  37  0.037  0.955  0.498-  10 2.25  17 2.36
  38  0.586  0.406  0.117-  11 2.25  15 2.26  28 2.26  27 2.36  14 2.36
  39  0.736  0.256  0.244-  12 2.25  29 2.26  16 2.26  15 2.36  28 2.36
  40  0.886  0.105  0.371-  13 2.25  17 2.26  16 2.36  29 2.36
  41  0.152  0.173  0.033-   1 2.25  18 2.26  30 2.26  22 2.36
  42  0.303  0.023  0.160-   2 2.25  31 2.26  19 2.26  18 2.36  30 2.36
  43  0.453  0.872  0.286-   3 2.25  20 2.26  32 2.26  19 2.36  31 2.36
  44  0.603  0.722  0.413-   4 2.25  21 2.26  33 2.26  32 2.36  20 2.36
  45  0.019  0.639  0.202-   6 2.25  26 2.26  35 2.26  25 2.36  34 2.36
  46  0.170  0.489  0.329-   7 2.25  36 2.26  23 2.26  35 2.36  26 2.36
  47  0.320  0.339  0.456-   8 2.25  36 2.36  23 2.36
  48  0.869  0.789  0.075-   9 2.25  34 2.26  25 2.26  24 2.36
  49  0.486  0.842  0.033-  24 2.25   2 2.26  27 2.26   1 2.36
  50  0.636  0.692  0.160-  25 2.25  28 2.26   3 2.26   2 2.36  27 2.36
  51  0.787  0.542  0.287-  26 2.25   4 2.26  29 2.26  28 2.36   3 2.36
  52  0.937  0.391  0.414-  23 2.25   5 2.26   4 2.36  29 2.36
  53  0.203  0.459  0.075-  14 2.25  30 2.26   6 2.26   9 2.36
  54  0.353  0.308  0.202-  15 2.25   7 2.26  31 2.26  30 2.36   6 2.36
  55  0.503  0.158  0.329-  16 2.25   8 2.26  32 2.26   7 2.36  31 2.36
  56  0.654  0.008  0.456-  17 2.25  33 2.26  32 2.36   8 2.36
  57  0.070  0.925  0.245-  19 2.25  35 2.26  13 2.26  12 2.36  34 2.36
  58  0.220  0.775  0.372-  20 2.25  10 2.26  36 2.26  35 2.36  13 2.36
  59  0.370  0.624  0.498-  21 2.25  36 2.36  10 2.36
  60  0.920  0.075  0.118-  18 2.25  12 2.26  34 2.26  11 2.36
  61  0.200  0.792  0.076-  34 2.25  14 2.26   2 2.26   1 2.36
  62  0.350  0.641  0.203-  35 2.25  15 2.26   3 2.26  14 2.36   2 2.36
  63  0.501  0.491  0.330-  36 2.25   4 2.26  16 2.26   3 2.36  15 2.36
  64  0.651  0.341  0.457-   5 2.26  17 2.26  16 2.36   4 2.36
  65  0.067  0.258  0.245-  29 2.25   7 2.26  19 2.26   6 2.36  18 2.36
  66  0.218  0.108  0.372-  20 2.26   8 2.26  19 2.36   7 2.36
  67  0.368  0.957  0.499-  21 2.26  20 2.36   8 2.36
  68  0.917  0.408  0.118-  28 2.25  18 2.26   6 2.26  22 2.36   9 2.36
  69  0.483  0.175  0.033-  30 2.25  11 2.26  24 2.26
  70  0.634  0.025  0.160-  31 2.25  12 2.26  25 2.26  11 2.36  24 2.36
  71  0.784  0.874  0.287-  32 2.25  26 2.26  13 2.26  25 2.36  12 2.36
  72  0.934  0.724  0.414-  33 2.25  10 2.26  23 2.26  13 2.36  26 2.36
 
  LATTYP: Found a base centered orthorhombic cell.
 ALAT       =    11.4527836704
 B/A-ratio  =     1.4485816945
 C/A-ratio  =     1.8059804630
  
  Lattice vectors:
  
 A1 = (   9.4251025535,   3.5732980427,   0.0000000000)
 A2 = (   0.0000000000, -10.0797329849,   0.0000000000)
 A3 = (   0.0000000000,   0.0000000000, -20.6835035552)


Analysis of symmetry for initial positions (statically):
=====================================================================
 Subroutine PRICEL returns:
 Original cell was already a primitive cell.
 

 Routine SETGRP: Setting up the symmetry group for a 
 base centered orthorhombic supercell.


 Subroutine GETGRP returns: Found  1 space group operations
 (whereof  1 operations were pure point group operations)
 out of a pool of  8 trial point group operations.


The static configuration has the point symmetry C_1 .


Analysis of symmetry for dynamics (positions and initial velocities):
=====================================================================
 Subroutine PRICEL returns:
 Original cell was already a primitive cell.
 

 Routine SETGRP: Setting up the symmetry group for a 
 base centered orthorhombic supercell.


 Subroutine GETGRP returns: Found  1 space group operations
 (whereof  1 operations were pure point group operations)
 out of a pool of  8 trial point group operations.


The dynamic configuration has the point symmetry C_1 .


 Subroutine INISYM returns: Found  1 space group operations
 (whereof  1 operations are pure point group operations),
 and found     1 'primitive' translations


----------------------------------------------------------------------------------------

                                     Primitive cell                                     

  volume of cell :    1964.9849

  direct lattice vectors                    reciprocal lattice vectors
     9.425102554  3.573298043  0.000000000     0.106099641  0.000000000  0.000000000
     0.000000000 10.079732985  0.000000000    -0.037612667  0.099208977  0.000000000
     0.000000000  0.000000000 20.683503555     0.000000000  0.000000000  0.048347708

  length of vectors
    10.079732985 10.079732985 20.683503555     0.106099641  0.106099641  0.048347708

  position of ions in fractional coordinates (direct lattice)
     0.246790380  0.945220301  0.000000000
     0.397058892  0.794951789  0.126937024
     0.547327404  0.644683277  0.253874049
     0.697595917  0.494414764  0.380811073
     0.847864429  0.344146252  0.507748097
     0.113815063  0.411528951  0.169249366
     0.264083575  0.261260439  0.296186390
     0.414352088  0.110991927  0.423123414
     0.963546550  0.561797464  0.042312341
     0.131108258  0.727569089  0.465435756
     0.680302721  0.178374626  0.084624683
     0.830571234  0.028106114  0.211561707
     0.980839746  0.877837602  0.338498732
     0.357357049  0.570447632  0.093399501
     0.507625562  0.420179119  0.220336525
     0.657894074  0.269910607  0.347273550
     0.808162587  0.119642094  0.474210574
     0.074113220  0.187024794  0.135711842
     0.224381733  0.036756282  0.262648867
     0.374650245  0.886487769  0.389585891
     0.524918757  0.736219257  0.516522915
     0.923844708  0.337293306  0.008774818
     0.091406416  0.503064932  0.431898232
     0.640600879  0.953870469  0.051087159
     0.790869391  0.803601957  0.178024184
     0.941137903  0.653333444  0.304961208
     0.581861207  0.610149474  0.059861977
     0.732129719  0.459880962  0.186799002
     0.882398232  0.309612449  0.313736026
     0.298617378  0.226726637  0.102174319
     0.448885890  0.076458124  0.229111343
     0.599154402  0.926189612  0.356048368
     0.749422915  0.775921099  0.482985392
     0.015373548  0.843303799  0.144486660
     0.165642061  0.693035287  0.271423685
     0.315910573  0.542766774  0.398360709
     0.036604831  0.955193850  0.498057640
     0.585799294  0.405999387  0.117246567
     0.736067806  0.255730875  0.244183592
     0.886336318  0.105462363  0.371120616
     0.152286952  0.172845062  0.032621884
     0.302555464  0.022576550  0.159558909
     0.452823977  0.872308037  0.286495933
     0.603092489  0.722039525  0.413432957
     0.019311635  0.639153712  0.201871250
     0.169580148  0.488885200  0.328808274
     0.319848660  0.338616688  0.455745299
     0.869043123  0.789422225  0.074934226
     0.486085617  0.842143064  0.033014966
     0.636354129  0.691874552  0.159951990
     0.786622642  0.541606039  0.286889015
     0.936891154  0.391337527  0.413826039
     0.202841788  0.458720227  0.075327307
     0.353110300  0.308451714  0.202264332
     0.503378812  0.158183202  0.329201356
     0.653647325  0.007914689  0.456138380
     0.069866471  0.925028877  0.244576673
     0.220134983  0.774760364  0.371513698
     0.370403496  0.624491852  0.498450722
     0.919597958  0.075297389  0.117639649
     0.200210452  0.791588228  0.075720389
     0.350478965  0.641319716  0.202657413
     0.500747477  0.491051204  0.329594438
     0.651015990  0.340782691  0.456531462
     0.067235136  0.257896879  0.244969755
     0.217503648  0.107628366  0.371906779
     0.367772160  0.957359854  0.498843804
     0.916966623  0.408165391  0.118032731
     0.483454282  0.175011066  0.033408048
     0.633722794  0.024742554  0.160345072
     0.783991306  0.874474041  0.287282096
     0.934259819  0.724205529  0.414219121

  ion indices of the primitive-cell ions
   primitive index   ion index
                 1           1
                 2           2
                 3           3
                 4           4
                 5           5
                 6           6
                 7           7
                 8           8
                 9           9
                10          10
                11          11
                12          12
                13          13
                14          14
                15          15
                16          16
                17          17
                18          18
                19          19
                20          20
                21          21
                22          22
                23          23
                24          24
                25          25
                26          26
                27          27
                28          28
                29          29
                30          30
                31          31
                32          32
                33          33
                34          34
                35          35
                36          36
                37          37
                38          38
                39          39
                40          40
                41          41
                42          42
                43          43
                44          44
                45          45
                46          46
                47          47
                48          48
                49          49
                50          50
                51          51
                52          52
                53          53
                54          54
                55          55
                56          56
                57          57
                58          58
                59          59
                60          60
                61          61
                62          62
                63          63
                64          64
                65          65
                66          66
                67          67
                68          68
                69          69
                70          70
                71          71
                72          72

----------------------------------------------------------------------------------------

 
 
 KPOINTS: gamma-point-only calculation. no periodi

Automatic generation of k-mesh.
Space group operators:
 irot       det(A)        alpha          n_x          n_y          n_z        tau_x        tau_y        tau_z
    1     1.000000     0.000000     1.000000     0.000000     0.000000     0.000000     0.000000     0.000000
 
 Subroutine IBZKPT returns following result:
 ===========================================
 
 Found      1 irreducible k-points:
 
 Following reciprocal coordinates:
            Coordinates               Weight
  0.000000  0.000000  0.000000      1.000000
 
 Following cartesian coordinates:
            Coordinates               Weight
  0.000000  0.000000  0.000000      1.000000
 


--------------------------------------------------------------------------------------------------------




 Dimension of arrays:
   k-points           NKPTS =      1   k-points in BZ     NKDIM =      1   number of bands    NBANDS=    480
   number of dos      NEDOS =    301   number of ions     NIONS =     72
   non local maximal  LDIM  =      6   non local SUM 2l+1 LMDIM =     18
   total plane-waves  NPLWV = 314928
   max r-space proj   IRMAX =   1817   max aug-charges    IRDMAX=   5248
   dimension x,y,z NGX =    54 NGY =   54 NGZ =  108
   dimension x,y,z NGXF=   108 NGYF=  108 NGZF=  216
   support grid    NGXF=   108 NGYF=  108 NGZF=  216
   ions per type =              36  36
   NGX,Y,Z   is equivalent  to a cutoff of   8.91,  8.91,  8.68 a.u.
   NGXF,Y,Z  is equivalent  to a cutoff of  17.81, 17.81, 17.36 a.u.

 SYSTEM =  "Millerite NiS"                         
 POSCAR =  Structure 26 made from -211-7.xsd file  

 Startparameter for this run:
   NWRITE =      2    write-flag & timer
   PREC   = normal    normal or accurate (medium, high low for compatibility)
   ISTART =      0    job   : 0-new  1-cont  2-samecut
   ICHARG =      2    charge: 1-file 2-atom 10-const
   ISPIN  =      1    spin polarized calculation?
   LNONCOLLINEAR =      F non collinear calculations
   LSORBIT =      F    spin-orbit coupling
   INIWAV =      1    electr: 0-lowe 1-rand  2-diag
   LASPH  =      F    aspherical Exc in radial PAW
   METAGGA=      F    non-selfconsistent MetaGGA calc.

 Electronic Relaxation 1
   ENCUT  =  450.0 eV  33.07 Ry    5.75 a.u.  17.43 17.43 35.78*2*pi/ulx,y,z
   ENINI  =  450.0     initial cutoff
   ENAUG  =  703.4 eV  augmentation charge cutoff
   NELM   =    100;   NELMIN=  2; NELMDL= -5     # of ELM steps 
   EDIFF  = 0.1E-03   stopping-criterion for ELM
   LREAL  =      T    real-space projection
   NLSPLINE    = F    spline interpolate recip. space projectors
   LCOMPAT=      F    compatible to vasp.4.4
   GGA_COMPAT  = T    GGA compatible to vasp.4.4-vasp.4.6
   LMAXPAW     = -100 max onsite density
   LMAXMIX     =    2 max onsite mixed and CHGCAR
   VOSKOWN=      0    Vosko Wilk Nusair interpolation
   ROPT   =   -0.00050  -0.00050
 Ionic relaxation
   EDIFFG = 0.1E-02   stopping-criterion for IOM
   NSW    =      0    number of steps for IOM
   NBLOCK =      1;   KBLOCK =      1    inner block; outer block 
   IBRION =     -1    ionic relax: 0-MD 1-quasi-New 2-CG
   NFREE  =      0    steps in history (QN), initial steepest desc. (CG)
   ISIF   =      2    stress and relaxation
   IWAVPR =     10    prediction:  0-non 1-charg 2-wave 3-comb
   ISYM   =      2    0-nonsym 1-usesym 2-fastsym
   LCORR  =      T    Harris-Foulkes like correction to forces

   POTIM  = 0.5000    time-step for ionic-motion
   TEIN   =    0.0    initial temperature
   TEBEG  =    0.0;   TEEND  =   0.0 temperature during run
   SMASS  =  -3.00    Nose mass-parameter (am)
   estimated Nose-frequenzy (Omega)   =  0.10E-29 period in steps = 0.13E+47 mass=  -0.232E-26a.u.
   SCALEE = 1.0000    scale energy and forces
   NPACO  =    256;   APACO  = 16.0  distance and # of slots for P.C.
   PSTRESS=    0.0 pullay stress

  Mass of Ions in am
   POMASS =  58.69 32.07
  Ionic Valenz
   ZVAL   =  16.00  6.00
  Atomic Wigner-Seitz radii
   RWIGS  =  -1.00 -1.00
  virtual crystal weights 
   VCA    =   1.00  1.00
   NELECT =     792.0000    total number of electrons
   NUPDOWN=      -1.0000    fix difference up-down

 DOS related values:
   EMIN   =  10.00;   EMAX   =-10.00  energy-range for DOS
   EFERMI =   0.00
   ISMEAR =     0;   SIGMA  =   0.20  broadening in eV -4-tet -1-fermi 0-gaus

 Electronic relaxation 2 (details)
   IALGO  =     38    algorithm
   LDIAG  =      T    sub-space diagonalisation (order eigenvalues)
   LSUBROT=      F    optimize rotation matrix (better conditioning)
   TURBO    =      0    0=normal 1=particle mesh
   IRESTART =      0    0=no restart 2=restart with 2 vectors
   NREBOOT  =      0    no. of reboots
   NMIN     =      0    reboot dimension
   EREF     =   0.00    reference energy to select bands
   IMIX   =      4    mixing-type and parameters
     AMIX     =   0.40;   BMIX     =  1.00
     AMIX_MAG =   1.60;   BMIX_MAG =  1.00
     AMIN     =   0.10
     WC   =   100.;   INIMIX=   1;  MIXPRE=   1;  MAXMIX= -45

 Intra band minimization:
   WEIMIN = 0.0000     energy-eigenvalue tresh-hold
   EBREAK =  0.52E-07  absolut break condition
   DEPER  =   0.30     relativ break condition  

   TIME   =   0.40     timestep for ELM

  volume/ion in A,a.u.               =      27.29       184.17
  Fermi-wavevector in a.u.,A,eV,Ry     =   1.209289  2.285225 19.896891  1.462380
  Thomas-Fermi vector in A             =   2.344871
 
 Write flags
   LWAVE        =      F    write WAVECAR
   LDOWNSAMPLE  =      F    k-point downsampling of WAVECAR
   LCHARG       =      F    write CHGCAR
   LVTOT        =      F    write LOCPOT, total local potential
   LVHAR        =      F    write LOCPOT, Hartree potential only
   LELF         =      F    write electronic localiz. function (ELF)
   LORBIT       =      0    0 simple, 1 ext, 2 COOP (PROOUT), +10 PAW based schemes


 Dipole corrections
   LMONO  =      F    monopole corrections only (constant potential shift)
   LDIPOL =      F    correct potential (dipole corrections)
   IDIPOL =      0    1-x, 2-y, 3-z, 4-all directions 
   EPSILON=  1.0000000 bulk dielectric constant

 Exchange correlation treatment:
   GGA     =    --    GGA type
   LEXCH   =     8    internal setting for exchange type
   VOSKOWN=      0    Vosko Wilk Nusair interpolation
   LHFCALC =     F    Hartree Fock is set to
   LHFONE  =     F    Hartree Fock one center treatment
   AEXX    =    0.0000 exact exchange contribution

 Linear response parameters
   LEPSILON=     F    determine dielectric tensor
   LRPA    =     F    only Hartree local field effects (RPA)
   LNABLA  =     F    use nabla operator in PAW spheres
   LVEL    =     F    velocity operator in full k-point grid
   LINTERFAST=   F  fast interpolation
   KINTER  =     0    interpolate to denser k-point grid
   CSHIFT  =0.1000    complex shift for real part using Kramers Kronig
   OMEGAMAX=  -1.0    maximum frequency
   DEG_THRESHOLD= 0.2000000E-02 threshold for treating states as degnerate
   RTIME   =   -0.100 relaxation time in fs
  (WPLASMAI=    0.000 imaginary part of plasma frequency in eV, 0.658/RTIME)
   DFIELD  = 0.0000000 0.0000000 0.0000000 field for delta impulse in time
 
 Orbital magnetization related:
   ORBITALMAG=     F  switch on orbital magnetization
   LCHIMAG   =     F  perturbation theory with respect to B field
   DQ        =  0.001000  dq finite difference perturbation B field
   LLRAUG    =     F  two centre corrections for induced B field



--------------------------------------------------------------------------------------------------------


 Static calculation
 charge density and potential will be updated during run
 non-spin polarized calculation
 Variant of blocked Davidson
 Davidson routine will perform the subspace rotation
 perform sub-space diagonalisation
    after iterative eigenvector-optimisation
 modified Broyden-mixing scheme, WC =      100.0
 initial mixing is a Kerker type mixing with AMIX =  0.4000 and BMIX =      1.0000
 Hartree-type preconditioning will be used
 using additional bands           84
 real space projection scheme for non local part
 use partial core corrections
 calculate Harris-corrections to forces 
   (improved forces if not selfconsistent)
 use gradient corrections 
 use of overlap-Matrix (Vanderbilt PP)
 Gauss-broadening in eV      SIGMA  =   0.20


--------------------------------------------------------------------------------------------------------


  energy-cutoff  :      450.00
  volume of cell :     1964.98
      direct lattice vectors                 reciprocal lattice vectors
     9.425102554  3.573298043  0.000000000     0.106099641  0.000000000  0.000000000
     0.000000000 10.079732985  0.000000000    -0.037612667  0.099208977  0.000000000
     0.000000000  0.000000000 20.683503555     0.000000000  0.000000000  0.048347708

  length of vectors
    10.079732985 10.079732985 20.683503555     0.106099641  0.106099641  0.048347708


 
 k-points in units of 2pi/SCALE and weight: gamma-point-only calculation. no periodi
   0.00000000  0.00000000  0.00000000       1.000
 
 k-points in reciprocal lattice and weights: gamma-point-only calculation. no periodi
   0.00000000  0.00000000  0.00000000       1.000
 
 position of ions in fractional coordinates (direct lattice) 
   0.24679038  0.94522030  0.00000000
   0.39705889  0.79495179  0.12693702
   0.54732740  0.64468328  0.25387405
   0.69759592  0.49441476  0.38081107
   0.84786443  0.34414625  0.50774810
   0.11381506  0.41152895  0.16924937
   0.26408358  0.26126044  0.29618639
   0.41435209  0.11099193  0.42312341
   0.96354655  0.56179746  0.04231234
   0.13110826  0.72756909  0.46543576
   0.68030272  0.17837463  0.08462468
   0.83057123  0.02810611  0.21156171
   0.98083975  0.87783760  0.33849873
   0.35735705  0.57044763  0.09339950
   0.50762556  0.42017912  0.22033653
   0.65789407  0.26991061  0.34727355
   0.80816259  0.11964209  0.47421057
   0.07411322  0.18702479  0.13571184
   0.22438173  0.03675628  0.26264887
   0.37465024  0.88648777  0.38958589
   0.52491876  0.73621926  0.51652292
   0.92384471  0.33729331  0.00877482
   0.09140642  0.50306493  0.43189823
   0.64060088  0.95387047  0.05108716
   0.79086939  0.80360196  0.17802418
   0.94113790  0.65333344  0.30496121
   0.58186121  0.61014947  0.05986198
   0.73212972  0.45988096  0.18679900
   0.88239823  0.30961245  0.31373603
   0.29861738  0.22672664  0.10217432
   0.44888589  0.07645812  0.22911134
   0.59915440  0.92618961  0.35604837
   0.74942291  0.77592110  0.48298539
   0.01537355  0.84330380  0.14448666
   0.16564206  0.69303529  0.27142369
   0.31591057  0.54276677  0.39836071
   0.03660483  0.95519385  0.49805764
   0.58579929  0.40599939  0.11724657
   0.73606781  0.25573087  0.24418359
   0.88633632  0.10546236  0.37112062
   0.15228695  0.17284506  0.03262188
   0.30255546  0.02257655  0.15955891
   0.45282398  0.87230804  0.28649593
   0.60309249  0.72203952  0.41343296
   0.01931164  0.63915371  0.20187125
   0.16958015  0.48888520  0.32880827
   0.31984866  0.33861669  0.45574530
   0.86904312  0.78942223  0.07493423
   0.48608562  0.84214306  0.03301497
   0.63635413  0.69187455  0.15995199
   0.78662264  0.54160604  0.28688901
   0.93689115  0.39133753  0.41382604
   0.20284179  0.45872023  0.07532731
   0.35311030  0.30845171  0.20226433
   0.50337881  0.15818320  0.32920136
   0.65364733  0.00791469  0.45613838
   0.06986647  0.92502888  0.24457667
   0.22013498  0.77476036  0.37151370
   0.37040350  0.62449185  0.49845072
   0.91959796  0.07529739  0.11763965
   0.20021045  0.79158823  0.07572039
   0.35047897  0.64131972  0.20265741
   0.50074748  0.49105120  0.32959444
   0.65101599  0.34078269  0.45653146
   0.06723514  0.25789688  0.24496975
   0.21750365  0.10762837  0.37190678
   0.36777216  0.95735985  0.49884380
   0.91696662  0.40816539  0.11803273
   0.48345428  0.17501107  0.03340805
   0.63372279  0.02474255  0.16034507
   0.78399131  0.87447404  0.28728210
   0.93425982  0.72420553  0.41421912
 
 position of ions in cartesian coordinates  (Angst):
   2.32602464 10.40942383  0.00000000
   3.74232078  9.43171153  2.62550239
   5.15861691  8.45399923  5.25100480
   6.57491306  7.47628693  7.87650718
   7.99120919  6.49857463 10.50200957
   1.07271864  4.55479708  3.50066986
   2.48901478  3.57708479  6.12617225
   3.90531092  2.59937249  8.75167464
   9.08152505  9.10580743  0.87516746
   1.23570878  7.80219103  9.62684211
   6.41192291  4.22889298  1.75033493
   7.82821906  3.25118069  4.37583732
   9.24451519 12.35320138  7.00133973
   3.36812684  7.02690306  1.93182891
   4.78442298  6.04919075  4.55733130
   6.20071912  5.07147846  7.18283371
   7.61701526  4.09376615  9.80833609
   0.69852470  2.14998861  2.80699637
   2.11482084  1.17227632  5.43249877
   3.53111698 10.27429699  8.05800116
   4.94741312  9.29658470 10.68350355
   8.70733112  6.70099895  0.18149398
   0.86151484  5.39738256  8.93316862
   6.03772898 11.90381750  1.05666143
   7.45402512 10.92610520  3.68216384
   8.87032125  9.94839289  6.30766623
   5.48410155  8.22930729  1.23815541
   6.90039768  7.25159499  3.86365782
   8.31669383  6.27388269  6.48916021
   2.81449941  3.35239285  2.11332289
   4.23079555  2.37468055  4.73882528
   5.64709168 11.47670123  7.36432769
   7.06338783 10.49898893  9.98983007
   0.14489727  8.55521139  2.98849035
   1.56119341  7.57749909  5.61399275
   2.97748955  6.59978679  8.23949514
   0.34500429  9.75889893 10.30157697
   5.52121842  6.18560088  2.42506979
   6.93751456  5.20788859  5.05057219
   8.35381069  4.23017629  7.67607458
   1.43532014  2.28639874  0.67473485
   2.85161628  1.30868644  3.30023726
   4.26791242 10.41070712  5.92573965
   5.68420856  9.43299483  8.55124204
   0.18201414  6.51150498  4.17540472
   1.59831029  5.53379269  6.80090710
   3.01460642  4.55608039  9.42640951
   8.19082056 11.06251533  1.54990233
   4.58140679 10.22550600  0.68286517
   5.99770293  9.24779371  3.30836755
   7.41399907  8.27008140  5.93386996
   8.83029521  7.29236911  8.55937235
   1.91180465  5.34859157  1.55803262
   3.32810079  4.37087926  4.18353503
   4.74439693  3.39316696  6.80903742
   6.16069307  2.41545466  9.43453980
   0.65849865  9.57369781  5.05870249
   2.07479479  8.59598550  7.68420489
   3.49109094  7.61827321 10.30970728
   8.66730506  4.04497516  2.43320010
   1.88700404  8.69440959  1.56616294
   3.30330019  7.71669729  4.19166532
   4.71959632  6.73898500  6.81716773
   6.13589247  5.76127269  9.44267012
   0.63369805  2.83978286  5.06683280
   2.04999419  1.86207055  7.69233519
   3.46629032 10.96409124 10.31783759
   8.64250446  7.39079319  2.44133041
   4.55660619  3.49159105  0.69099548
   5.97290232  2.51387876  3.31649787
   7.38919846 11.61589943  5.94200025
   8.80549461 10.63818714  8.56750266
 


--------------------------------------------------------------------------------------------------------


 use parallel FFT for orbitals z direction half grid
 k-point   1 :   0.0000 0.0000 0.0000  plane waves:   21301

 maximum and minimum number of plane-waves per node :      3554     3548

 maximum number of plane-waves:     21301
 maximum index in each direction: 
   IXMAX=   17   IYMAX=   17   IZMAX=   35
   IXMIN=  -17   IYMIN=  -17   IZMIN=    0


 real space projection operators:
  total allocation   :      11160.33 KBytes
  max/ min on nodes  :       1861.92       1858.17


 parallel 3D FFT for wavefunctions:
    minimum data exchange during FFTs selected (reduces bandwidth)
 parallel 3D FFT for charge:
    minimum data exchange during FFTs selected (reduces bandwidth)


 total amount of memory used by VASP MPI-rank0    45297. kBytes
=======================================================================

   base      :      30000. kBytes
   nonlr-proj:       2283. kBytes
   fftplans  :       3383. kBytes
   grid      :       6052. kBytes
   one-center:         93. kBytes
   wavefun   :       3486. kBytes
 
     INWAV:  cpu time    0.0000: real time    0.0000
 Broyden mixing: mesh for mixing (old mesh)
   NGX = 35   NGY = 35   NGZ = 71
  (NGX  =108   NGY  =108   NGZ  =216)
  gives a total of  86975 points

 initial charge density was supplied:
 charge density of overlapping atoms calculated
 number of electron     792.0000000 magnetization 
 keeping initial charge density in first step


--------------------------------------------------------------------------------------------------------


 Maximum index for non-local projection operator          301
 Maximum index for augmentation-charges          468 (set IRDMAX)


--------------------------------------------------------------------------------------------------------


 First call to EWALD:  gamma=   0.142
 Maximum number of real-space cells 3x 3x 2
 Maximum number of reciprocal cells 2x 2x 4

    FEWALD:  cpu time    0.0057: real time    0.0057


--------------------------------------- Iteration      1(   1)  ---------------------------------------


    POTLOK:  cpu time    0.0479: real time    0.0519
    SETDIJ:  cpu time    0.0053: real time    0.0069
     EDDAV:  cpu time    2.1083: real time    2.1153
       DOS:  cpu time    0.0007: real time    0.0008
    --------------------------------------------
      LOOP:  cpu time    2.1622: real time    2.1749

 eigenvalue-minimisations  :  1184
 total energy-change (2. order) : 0.9687684E+04  (-0.5084401E+05)
 number of electron     792.0000000 magnetization 
 augmentation part      792.0000000 magnetization 

 Free energy of the ion-electron system (eV)
  ---------------------------------------------------
  alpha Z        PSCENC =      1893.09323658
  Ewald energy   TEWEN  =    164145.68039049
  -Hartree energ DENC   =   -286727.40425452
  -exchange      EXHF   =         0.00000000
  -V(xc)+E(xc)   XCENC  =      3651.62204839
  PAW double counting   =    112729.53333415  -117641.51188735
  entropy T*S    EENTRO =        -0.45693322
  eigenvalues    EBANDS =     -4365.47748371
  atomic energy  EATOM  =    136002.60505376
  Solvation  Ediel_sol  =         0.00000000
  ---------------------------------------------------
  free energy    TOTEN  =      9687.68350458 eV

  energy without entropy =     9688.14043779  energy(sigma->0) =     9687.91197119


--------------------------------------------------------------------------------------------------------




--------------------------------------- Iteration      1(   2)  ---------------------------------------


     EDDAV:  cpu time    1.8523: real time    1.8611
       DOS:  cpu time    0.0006: real time    0.0006
    --------------------------------------------
      LOOP:  cpu time    1.8530: real time    1.8617

 eigenvalue-minimisations  :  1016
 total energy-change (2. order) :-0.9095733E+04  (-0.8770367E+04)
 number of electron     792.0000000 magnetization 
 augmentation part      792.0000000 magnetization 

 Free energy of the ion-electron system (eV)
  ---------------------------------------------------
  alpha Z        PSCENC =      1893.09323658
  Ewald energy   TEWEN  =    164145.68039049
  -Hartree energ DENC   =   -286727.40425452
  -exchange      EXHF   =         0.00000000
  -V(xc)+E(xc)   XCENC  =      3651.62204839
  PAW double counting   =    112729.53333415  -117641.51188735
  entropy T*S    EENTRO =        -0.83779229
  eigenvalues    EBANDS =    -13460.82975428
  atomic energy  EATOM  =    136002.60505376
  Solvation  Ediel_sol  =         0.00000000
  ---------------------------------------------------
  free energy    TOTEN  =       591.95037493 eV

  energy without entropy =      592.78816722  energy(sigma->0) =      592.36927108


--------------------------------------------------------------------------------------------------------




--------------------------------------- Iteration      1(   3)  ---------------------------------------


     EDDAV:  cpu time    1.9497: real time    1.9559
       DOS:  cpu time    0.0006: real time    0.0006
    --------------------------------------------
      LOOP:  cpu time    1.9503: real time    1.9564

 eigenvalue-minimisations  :  1096
 total energy-change (2. order) :-0.9353079E+03  (-0.8800765E+03)
 number of electron     792.0000000 magnetization 
 augmentation part      792.0000000 magnetization 

 Free energy of the ion-electron system (eV)
  ---------------------------------------------------
  alpha Z        PSCENC =      1893.09323658
  Ewald energy   TEWEN  =    164145.68039049
  -Hartree energ DENC   =   -286727.40425452
  -exchange      EXHF   =         0.00000000
  -V(xc)+E(xc)   XCENC  =      3651.62204839
  PAW double counting   =    112729.53333415  -117641.51188735
  entropy T*S    EENTRO =        -1.25594871
  eigenvalues    EBANDS =    -14395.71950479
  atomic energy  EATOM  =    136002.60505376
  Solvation  Ediel_sol  =         0.00000000
  ---------------------------------------------------
  free energy    TOTEN  =      -343.35753200 eV

  energy without entropy =     -342.10158329  energy(sigma->0) =     -342.72955764


--------------------------------------------------------------------------------------------------------




--------------------------------------- Iteration      1(   4)  ---------------------------------------


     EDDAV:  cpu time    2.0096: real time    2.0158
       DOS:  cpu time    0.0006: real time    0.0006
    --------------------------------------------
      LOOP:  cpu time    2.0102: real time    2.0164

 eigenvalue-minimisations  :  1120
 total energy-change (2. order) :-0.6005513E+02  (-0.5936405E+02)
 number of electron     792.0000000 magnetization 
 augmentation part      792.0000000 magnetization 

 Free energy of the ion-electron system (eV)
  ---------------------------------------------------
  alpha Z        PSCENC =      1893.09323658
  Ewald energy   TEWEN  =    164145.68039049
  -Hartree energ DENC   =   -286727.40425452
  -exchange      EXHF   =         0.00000000
  -V(xc)+E(xc)   XCENC  =      3651.62204839
  PAW double counting   =    112729.53333415  -117641.51188735
  entropy T*S    EENTRO =        -1.32067642
  eigenvalues    EBANDS =    -14455.70990869
  atomic energy  EATOM  =    136002.60505376
  Solvation  Ediel_sol  =         0.00000000
  ---------------------------------------------------
  free energy    TOTEN  =      -403.41266361 eV

  energy without entropy =     -402.09198719  energy(sigma->0) =     -402.75232540


--------------------------------------------------------------------------------------------------------




--------------------------------------- Iteration      1(   5)  ---------------------------------------


     EDDAV:  cpu time    2.2103: real time    2.2178
       DOS:  cpu time    0.0006: real time    0.0006
    CHARGE:  cpu time    0.0443: real time    0.0445
    MIXING:  cpu time    0.0026: real time    0.0028
    --------------------------------------------
      LOOP:  cpu time    2.2577: real time    2.2657

 eigenvalue-minimisations  :  1288
 total energy-change (2. order) :-0.2225239E+01  (-0.2222648E+01)
 number of electron     792.0000029 magnetization 
 augmentation part      286.2867791 magnetization 

 Broyden mixing:
  rms(total) = 0.82050E+01    rms(broyden)= 0.81904E+01
  rms(prec ) = 0.86181E+01
  weight for this iteration     100.00

 Free energy of the ion-electron system (eV)
  ---------------------------------------------------
  alpha Z        PSCENC =      1893.09323658
  Ewald energy   TEWEN  =    164145.68039049
  -Hartree energ DENC   =   -286727.40425452
  -exchange      EXHF   =         0.00000000
  -V(xc)+E(xc)   XCENC  =      3651.62204839
  PAW double counting   =    112729.53333415  -117641.51188735
  entropy T*S    EENTRO =        -1.32130108
  eigenvalues    EBANDS =    -14457.93452280
  atomic energy  EATOM  =    136002.60505376
  Solvation  Ediel_sol  =         0.00000000
  ---------------------------------------------------
  free energy    TOTEN  =      -405.63790237 eV

  energy without entropy =     -404.31660130  energy(sigma->0) =     -404.97725183


--------------------------------------------------------------------------------------------------------




--------------------------------------- Iteration      1(   6)  ---------------------------------------


    POTLOK:  cpu time    0.0430: real time    0.0431
    SETDIJ:  cpu time    0.0046: real time    0.0064
     EDDAV:  cpu time    2.0248: real time    2.0298
       DOS:  cpu time    0.0006: real time    0.0006
    CHARGE:  cpu time    0.0375: real time    0.0376
    MIXING:  cpu time    0.0020: real time    0.0021
    --------------------------------------------
      LOOP:  cpu time    2.1125: real time    2.1196

 eigenvalue-minimisations  :  1152
 total energy-change (2. order) :-0.8303625E+02  (-0.9677757E+02)
 number of electron     792.0000046 magnetization 
 augmentation part      353.3130296 magnetization 

 Broyden mixing:
  rms(total) = 0.15594E+02    rms(broyden)= 0.15591E+02
  rms(prec ) = 0.16268E+02
  weight for this iteration     100.00

 eigenvalues of (default mixing * dielectric matrix)
  average eigenvalue GAMMA=   0.2302
  0.2302

 Free energy of the ion-electron system (eV)
  ---------------------------------------------------
  alpha Z        PSCENC =      1893.09323658
  Ewald energy   TEWEN  =    164145.68039049
  -Hartree energ DENC   =   -284017.39189083
  -exchange      EXHF   =         0.00000000
  -V(xc)+E(xc)   XCENC  =      3574.72173223
  PAW double counting   =    114537.11457060  -119208.98976216
  entropy T*S    EENTRO =        -0.92451269
  eigenvalues    EBANDS =    -17414.58296926
  atomic energy  EATOM  =    136002.60505376
  Solvation  Ediel_sol  =         0.00000000
  ---------------------------------------------------
  free energy    TOTEN  =      -488.67415129 eV

  energy without entropy =     -487.74963860  energy(sigma->0) =     -488.21189495


--------------------------------------------------------------------------------------------------------




--------------------------------------- Iteration      1(   7)  ---------------------------------------


    POTLOK:  cpu time    0.0423: real time    0.0424
    SETDIJ:  cpu time    0.0049: real time    0.0049
     EDDAV:  cpu time    2.0677: real time    2.0739
       DOS:  cpu time    0.0006: real time    0.0006
    CHARGE:  cpu time    0.0383: real time    0.0384
    MIXING:  cpu time    0.0018: real time    0.0018
    --------------------------------------------
      LOOP:  cpu time    2.1557: real time    2.1621

 eigenvalue-minimisations  :  1160
 total energy-change (2. order) : 0.1134152E+03  (-0.1741031E+02)
 number of electron     792.0000046 magnetization 
 augmentation part      331.1235644 magnetization 

 Broyden mixing:
  rms(total) = 0.63645E+01    rms(broyden)= 0.63630E+01
  rms(prec ) = 0.68238E+01
  weight for this iteration     100.00

 eigenvalues of (default mixing * dielectric matrix)
  average eigenvalue GAMMA=   0.5018
  0.5018  0.5018

 Free energy of the ion-electron system (eV)
  ---------------------------------------------------
  alpha Z        PSCENC =      1893.09323658
  Ewald energy   TEWEN  =    164145.68039049
  -Hartree energ DENC   =   -285243.32162439
  -exchange      EXHF   =         0.00000000
  -V(xc)+E(xc)   XCENC  =      3604.62140605
  PAW double counting   =    118675.95755645  -123495.26298264
  entropy T*S    EENTRO =        -0.91685763
  eigenvalues    EBANDS =    -15957.71511734
  atomic energy  EATOM  =    136002.60505376
  Solvation  Ediel_sol  =         0.00000000
  ---------------------------------------------------
  free energy    TOTEN  =      -375.25893866 eV

  energy without entropy =     -374.34208103  energy(sigma->0) =     -374.80050984


--------------------------------------------------------------------------------------------------------




--------------------------------------- Iteration      1(   8)  ---------------------------------------


    POTLOK:  cpu time    0.0451: real time    0.0472
    SETDIJ:  cpu time    0.0056: real time    0.0082
     EDDAV:  cpu time    2.0928: real time    2.0995
       DOS:  cpu time    0.0011: real time    0.0012
    CHARGE:  cpu time    0.0371: real time    0.0372
    MIXING:  cpu time    0.0022: real time    0.0022
    --------------------------------------------
      LOOP:  cpu time    2.1839: real time    2.1954

 eigenvalue-minimisations  :  1176
 total energy-change (2. order) :-0.1508220E+03  (-0.1385539E+02)
 number of electron     792.0000052 magnetization 
 augmentation part      303.8903993 magnetization 

 Broyden mixing:
  rms(total) = 0.18109E+02    rms(broyden)= 0.18107E+02
  rms(prec ) = 0.23025E+02
  weight for this iteration     100.00

 eigenvalues of (default mixing * dielectric matrix)
  average eigenvalue GAMMA=   0.4094
  0.6962  0.4479  0.0842

 Free energy of the ion-electron system (eV)
  ---------------------------------------------------
  alpha Z        PSCENC =      1893.09323658
  Ewald energy   TEWEN  =    164145.68039049
  -Hartree energ DENC   =   -285733.51841903
  -exchange      EXHF   =         0.00000000
  -V(xc)+E(xc)   XCENC  =      3622.20302558
  PAW double counting   =    123378.48056457  -128290.26982908
  entropy T*S    EENTRO =        -0.94193258
  eigenvalues    EBANDS =    -15543.41305752
  atomic energy  EATOM  =    136002.60505376
  Solvation  Ediel_sol  =         0.00000000
  ---------------------------------------------------
  free energy    TOTEN  =      -526.08096723 eV

  energy without entropy =     -525.13903465  energy(sigma->0) =     -525.61000094


--------------------------------------------------------------------------------------------------------




--------------------------------------- Iteration      1(   9)  ---------------------------------------


    POTLOK:  cpu time    0.0425: real time    0.0446
    SETDIJ:  cpu time    0.0048: real time    0.0057
     EDDAV:  cpu time    2.1844: real time    2.1897
       DOS:  cpu time    0.0006: real time    0.0006
    CHARGE:  cpu time    0.0374: real time    0.0375
    MIXING:  cpu time    0.0018: real time    0.0018
    --------------------------------------------
      LOOP:  cpu time    2.2714: real time    2.2799

 eigenvalue-minimisations  :  1256
 total energy-change (2. order) : 0.1328689E+03  (-0.1627454E+02)
 number of electron     792.0000026 magnetization 
 augmentation part      310.3342429 magnetization 

 Broyden mixing:
  rms(total) = 0.78168E+01    rms(broyden)= 0.78108E+01
  rms(prec ) = 0.94527E+01
  weight for this iteration     100.00

 eigenvalues of (default mixing * dielectric matrix)
  average eigenvalue GAMMA=   0.3828
  0.8711  0.3906  0.1767  0.0926

 Free energy of the ion-electron system (eV)
  ---------------------------------------------------
  alpha Z        PSCENC =      1893.09323658
  Ewald energy   TEWEN  =    164145.68039049
  -Hartree energ DENC   =   -285910.46390804
  -exchange      EXHF   =         0.00000000
  -V(xc)+E(xc)   XCENC  =      3622.83461159
  PAW double counting   =    125474.09995621  -130408.72259279
  entropy T*S    EENTRO =        -1.30912163
  eigenvalues    EBANDS =    -15211.02965790
  atomic energy  EATOM  =    136002.60505376
  Solvation  Ediel_sol  =         0.00000000
  ---------------------------------------------------
  free energy    TOTEN  =      -393.21203173 eV

  energy without entropy =     -391.90291010  energy(sigma->0) =     -392.55747092


--------------------------------------------------------------------------------------------------------




--------------------------------------- Iteration      1(  10)  ---------------------------------------


    POTLOK:  cpu time    0.0424: real time    0.0425
    SETDIJ:  cpu time    0.0049: real time    0.0049
     EDDAV:  cpu time    2.4184: real time    2.4243
       DOS:  cpu time    0.0006: real time    0.0006
    CHARGE:  cpu time    0.0377: real time    0.0378
    MIXING:  cpu time    0.0021: real time    0.0021
    --------------------------------------------
      LOOP:  cpu time    2.5061: real time    2.5121

 eigenvalue-minimisations  :  1424
 total energy-change (2. order) : 0.1900539E+02  (-0.6552387E+01)
 number of electron     792.0000054 magnetization 
 augmentation part      308.5571221 magnetization 

 Broyden mixing:
  rms(total) = 0.74709E+01    rms(broyden)= 0.74656E+01
  rms(prec ) = 0.87222E+01
  weight for this iteration     100.00

 eigenvalues of (default mixing * dielectric matrix)
  average eigenvalue GAMMA=   0.4149
  1.1885  0.3489  0.3489  0.0940  0.0940

 Free energy of the ion-electron system (eV)
  ---------------------------------------------------
  alpha Z        PSCENC =      1893.09323658
  Ewald energy   TEWEN  =    164145.68039049
  -Hartree energ DENC   =   -285855.99956858
  -exchange      EXHF   =         0.00000000
  -V(xc)+E(xc)   XCENC  =      3624.23440281
  PAW double counting   =    126857.13464390  -131808.80533022
  entropy T*S    EENTRO =        -1.29489817
  eigenvalues    EBANDS =    -15230.85456766
  atomic energy  EATOM  =    136002.60505376
  Solvation  Ediel_sol  =         0.00000000
  ---------------------------------------------------
  free energy    TOTEN  =      -374.20663709 eV

  energy without entropy =     -372.91173892  energy(sigma->0) =     -373.55918801


--------------------------------------------------------------------------------------------------------




--------------------------------------- Iteration      1(  11)  ---------------------------------------


    POTLOK:  cpu time    0.0426: real time    0.0427
    SETDIJ:  cpu time    0.0048: real time    0.0048
     EDDAV:  cpu time    2.2638: real time    2.2694
       DOS:  cpu time    0.0006: real time    0.0006
    CHARGE:  cpu time    0.0381: real time    0.0382
    MIXING:  cpu time    0.0019: real time    0.0019
    --------------------------------------------
      LOOP:  cpu time    2.3519: real time    2.3577

 eigenvalue-minimisations  :  1320
 total energy-change (2. order) :-0.4102822E+01  (-0.8007444E+01)
 number of electron     792.0000056 magnetization 
 augmentation part      307.1432589 magnetization 

 Broyden mixing:
  rms(total) = 0.85243E+01    rms(broyden)= 0.85221E+01
  rms(prec ) = 0.99165E+01
  weight for this iteration     100.00

 eigenvalues of (default mixing * dielectric matrix)
  average eigenvalue GAMMA=   0.4840
  1.7841  0.4118  0.4118  0.1058  0.1058  0.0847

 Free energy of the ion-electron system (eV)
  ---------------------------------------------------
  alpha Z        PSCENC =      1893.09323658
  Ewald energy   TEWEN  =    164145.68039049
  -Hartree energ DENC   =   -285910.30243138
  -exchange      EXHF   =         0.00000000
  -V(xc)+E(xc)   XCENC  =      3622.89825699
  PAW double counting   =    128681.98256442  -133647.40787769
  entropy T*S    EENTRO =        -1.23575526
  eigenvalues    EBANDS =    -15165.62289703
  atomic energy  EATOM  =    136002.60505376
  Solvation  Ediel_sol  =         0.00000000
  ---------------------------------------------------
  free energy    TOTEN  =      -378.30945912 eV

  energy without entropy =     -377.07370386  energy(sigma->0) =     -377.69158149


--------------------------------------------------------------------------------------------------------




--------------------------------------- Iteration      1(  12)  ---------------------------------------


    POTLOK:  cpu time    0.0420: real time    0.0421
    SETDIJ:  cpu time    0.0048: real time    0.0048
     EDDAV:  cpu time    2.2712: real time    2.2783
       DOS:  cpu time    0.0006: real time    0.0006
    CHARGE:  cpu time    0.0381: real time    0.0382
    MIXING:  cpu time    0.0022: real time    0.0022
    --------------------------------------------
      LOOP:  cpu time    2.3588: real time    2.3662

 eigenvalue-minimisations  :  1312
 total energy-change (2. order) :-0.1422357E+00  (-0.4845501E+01)
 number of electron     792.0000029 magnetization 
 augmentation part      311.7293011 magnetization 

 Broyden mixing:
  rms(total) = 0.50563E+01    rms(broyden)= 0.50536E+01
  rms(prec ) = 0.58016E+01
  weight for this iteration     100.00

 eigenvalues of (default mixing * dielectric matrix)
  average eigenvalue GAMMA=   0.4546
  1.9018  0.4163  0.4163  0.1253  0.1253  0.0986  0.0986

 Free energy of the ion-electron system (eV)
  ---------------------------------------------------
  alpha Z        PSCENC =      1893.09323658
  Ewald energy   TEWEN  =    164145.68039049
  -Hartree energ DENC   =   -285908.35666020
  -exchange      EXHF   =         0.00000000
  -V(xc)+E(xc)   XCENC  =      3619.46206068
  PAW double counting   =    131093.67950420  -136073.39629094
  entropy T*S    EENTRO =        -0.98462397
  eigenvalues    EBANDS =    -15150.23436541
  atomic energy  EATOM  =    136002.60505376
  Solvation  Ediel_sol  =         0.00000000
  ---------------------------------------------------
  free energy    TOTEN  =      -378.45169482 eV

  energy without entropy =     -377.46707085  energy(sigma->0) =     -377.95938283


--------------------------------------------------------------------------------------------------------




--------------------------------------- Iteration      1(  13)  ---------------------------------------


    POTLOK:  cpu time    0.0427: real time    0.0457
    SETDIJ:  cpu time    0.0052: real time    0.0068
     EDDAV:  cpu time    2.1850: real time    2.1903
       DOS:  cpu time    0.0006: real time    0.0006
    CHARGE:  cpu time    0.0388: real time    0.0389
    MIXING:  cpu time    0.0021: real time    0.0021
    --------------------------------------------
      LOOP:  cpu time    2.2743: real time    2.2843

 eigenvalue-minimisations  :  1264
 total energy-change (2. order) : 0.1424919E+02  (-0.1980209E+01)
 number of electron     792.0000045 magnetization 
 augmentation part      314.2396819 magnetization 

 Broyden mixing:
  rms(total) = 0.33235E+01    rms(broyden)= 0.33212E+01
  rms(prec ) = 0.37600E+01
  weight for this iteration     100.00

 eigenvalues of (default mixing * dielectric matrix)
  average eigenvalue GAMMA=   0.4490
  1.8956  0.3819  0.3819  0.3841  0.2446  0.1059  0.1059  0.0923

 Free energy of the ion-electron system (eV)
  ---------------------------------------------------
  alpha Z        PSCENC =      1893.09323658
  Ewald energy   TEWEN  =    164145.68039049
  -Hartree energ DENC   =   -285841.10215465
  -exchange      EXHF   =         0.00000000
  -V(xc)+E(xc)   XCENC  =      3619.52927958
  PAW double counting   =    131905.00849918  -136894.91282049
  entropy T*S    EENTRO =        -0.93236960
  eigenvalues    EBANDS =    -15193.17161584
  atomic energy  EATOM  =    136002.60505376
  Solvation  Ediel_sol  =         0.00000000
  ---------------------------------------------------
  free energy    TOTEN  =      -364.20250098 eV

  energy without entropy =     -363.27013138  energy(sigma->0) =     -363.73631618


--------------------------------------------------------------------------------------------------------




--------------------------------------- Iteration      1(  14)  ---------------------------------------


    POTLOK:  cpu time    0.0423: real time    0.0424
    SETDIJ:  cpu time    0.0048: real time    0.0048
     EDDAV:  cpu time    2.3056: real time    2.3142
       DOS:  cpu time    0.0009: real time    0.0009
    CHARGE:  cpu time    0.0381: real time    0.0382
    MIXING:  cpu time    0.0027: real time    0.0027
    --------------------------------------------
      LOOP:  cpu time    2.3944: real time    2.4032

 eigenvalue-minimisations  :  1336
 total energy-change (2. order) :-0.1077875E+01  (-0.2197646E+01)
 number of electron     792.0000017 magnetization 
 augmentation part      313.4359176 magnetization 

 Broyden mixing:
  rms(total) = 0.35060E+01    rms(broyden)= 0.35042E+01
  rms(prec ) = 0.40442E+01
  weight for this iteration     100.00

 eigenvalues of (default mixing * dielectric matrix)
  average eigenvalue GAMMA=   0.4345
  1.8427  0.4392  0.4392  0.4461  0.2853  0.1566  0.1045  0.1045  0.0927

 Free energy of the ion-electron system (eV)
  ---------------------------------------------------
  alpha Z        PSCENC =      1893.09323658
  Ewald energy   TEWEN  =    164145.68039049
  -Hartree energ DENC   =   -285890.62001190
  -exchange      EXHF   =         0.00000000
  -V(xc)+E(xc)   XCENC  =      3620.53092710
  PAW double counting   =    132096.20720919  -137089.94528520
  entropy T*S    EENTRO =        -1.00967549
  eigenvalues    EBANDS =    -15141.82222087
  atomic energy  EATOM  =    136002.60505376
  Solvation  Ediel_sol  =         0.00000000
  ---------------------------------------------------
  free energy    TOTEN  =      -365.28037635 eV

  energy without entropy =     -364.27070086  energy(sigma->0) =     -364.77553861


--------------------------------------------------------------------------------------------------------




--------------------------------------- Iteration      1(  15)  ---------------------------------------


    POTLOK:  cpu time    0.0429: real time    0.0437
    SETDIJ:  cpu time    0.0043: real time    0.0061
     EDDAV:  cpu time    2.2305: real time    2.2359
       DOS:  cpu time    0.0007: real time    0.0007
    CHARGE:  cpu time    0.0382: real time    0.0383
    MIXING:  cpu time    0.0023: real time    0.0023
    --------------------------------------------
      LOOP:  cpu time    2.3190: real time    2.3270

 eigenvalue-minimisations  :  1296
 total energy-change (2. order) : 0.5281473E+01  (-0.7286447E+00)
 number of electron     792.0000024 magnetization 
 augmentation part      313.0113393 magnetization 

 Broyden mixing:
  rms(total) = 0.24597E+01    rms(broyden)= 0.24586E+01
  rms(prec ) = 0.28155E+01
  weight for this iteration     100.00

 eigenvalues of (default mixing * dielectric matrix)
  average eigenvalue GAMMA=   0.4116
  1.8482  0.4490  0.4490  0.3558  0.3558  0.1780  0.1780  0.1049  0.1049  0.0926

 Free energy of the ion-electron system (eV)
  ---------------------------------------------------
  alpha Z        PSCENC =      1893.09323658
  Ewald energy   TEWEN  =    164145.68039049
  -Hartree energ DENC   =   -285905.33789428
  -exchange      EXHF   =         0.00000000
  -V(xc)+E(xc)   XCENC  =      3621.68533877
  PAW double counting   =    131903.93872579  -136897.44812836
  entropy T*S    EENTRO =        -0.98937061
  eigenvalues    EBANDS =    -15123.22625516
  atomic energy  EATOM  =    136002.60505376
  Solvation  Ediel_sol  =         0.00000000
  ---------------------------------------------------
  free energy    TOTEN  =      -359.99890303 eV

  energy without entropy =     -359.00953241  energy(sigma->0) =     -359.50421772


--------------------------------------------------------------------------------------------------------




--------------------------------------- Iteration      1(  16)  ---------------------------------------


    POTLOK:  cpu time    0.0424: real time    0.0425
    SETDIJ:  cpu time    0.0048: real time    0.0048
     EDDAV:  cpu time    2.2622: real time    2.2677
       DOS:  cpu time    0.0007: real time    0.0007
    CHARGE:  cpu time    0.0422: real time    0.0423
    MIXING:  cpu time    0.0024: real time    0.0024
    --------------------------------------------
      LOOP:  cpu time    2.3545: real time    2.3603

 eigenvalue-minimisations  :  1320
 total energy-change (2. order) : 0.1425956E+01  (-0.3331029E+00)
 number of electron     792.0000029 magnetization 
 augmentation part      312.8036357 magnetization 

 Broyden mixing:
  rms(total) = 0.20381E+01    rms(broyden)= 0.20374E+01
  rms(prec ) = 0.24474E+01
  weight for this iteration     100.00

 eigenvalues of (default mixing * dielectric matrix)
  average eigenvalue GAMMA=   0.4313
  1.8326  0.6195  0.6195  0.3932  0.3932  0.2241  0.2241  0.1049  0.1049  0.0927
  0.1356

 Free energy of the ion-electron system (eV)
  ---------------------------------------------------
  alpha Z        PSCENC =      1893.09323658
  Ewald energy   TEWEN  =    164145.68039049
  -Hartree energ DENC   =   -285921.04128500
  -exchange      EXHF   =         0.00000000
  -V(xc)+E(xc)   XCENC  =      3621.89300454
  PAW double counting   =    131848.57394745  -136841.13669470
  entropy T*S    EENTRO =        -0.99909805
  eigenvalues    EBANDS =    -15107.24150175
  atomic energy  EATOM  =    136002.60505376
  Solvation  Ediel_sol  =         0.00000000
  ---------------------------------------------------
  free energy    TOTEN  =      -358.57294668 eV

  energy without entropy =     -357.57384863  energy(sigma->0) =     -358.07339766


--------------------------------------------------------------------------------------------------------




--------------------------------------- Iteration      1(  17)  ---------------------------------------


    POTLOK:  cpu time    0.0426: real time    0.0427
    SETDIJ:  cpu time    0.0048: real time    0.0048
     EDDAV:  cpu time    2.2640: real time    2.2695
       DOS:  cpu time    0.0006: real time    0.0006
    CHARGE:  cpu time    0.0427: real time    0.0429
    MIXING:  cpu time    0.0025: real time    0.0025
    --------------------------------------------
      LOOP:  cpu time    2.3571: real time    2.3629

 eigenvalue-minimisations  :  1320
 total energy-change (2. order) : 0.1590906E+01  (-0.2100226E+00)
 number of electron     792.0000029 magnetization 
 augmentation part      312.2720461 magnetization 

 Broyden mixing:
  rms(total) = 0.14342E+01    rms(broyden)= 0.14334E+01
  rms(prec ) = 0.16338E+01
  weight for this iteration     100.00

 eigenvalues of (default mixing * dielectric matrix)
  average eigenvalue GAMMA=   0.4404
  1.8844  0.7346  0.7346  0.3918  0.3918  0.2691  0.2691  0.1049  0.1049  0.0926
  0.1591  0.1477

 Free energy of the ion-electron system (eV)
  ---------------------------------------------------
  alpha Z        PSCENC =      1893.09323658
  Ewald energy   TEWEN  =    164145.68039049
  -Hartree energ DENC   =   -285931.77247527
  -exchange      EXHF   =         0.00000000
  -V(xc)+E(xc)   XCENC  =      3622.39184834
  PAW double counting   =    131597.94438591  -136587.14238151
  entropy T*S    EENTRO =        -1.01657201
  eigenvalues    EBANDS =    -15098.76552676
  atomic energy  EATOM  =    136002.60505376
  Solvation  Ediel_sol  =         0.00000000
  ---------------------------------------------------
  free energy    TOTEN  =      -356.98204048 eV

  energy without entropy =     -355.96546847  energy(sigma->0) =     -356.47375447


--------------------------------------------------------------------------------------------------------




--------------------------------------- Iteration      1(  18)  ---------------------------------------


    POTLOK:  cpu time    0.0427: real time    0.0428
    SETDIJ:  cpu time    0.0047: real time    0.0048
     EDDAV:  cpu time    2.1619: real time    2.1672
       DOS:  cpu time    0.0006: real time    0.0006
    CHARGE:  cpu time    0.0429: real time    0.0430
    MIXING:  cpu time    0.0026: real time    0.0026
    --------------------------------------------
      LOOP:  cpu time    2.2554: real time    2.2609

 eigenvalue-minimisations  :  1248
 total energy-change (2. order) : 0.2168467E+00  (-0.1292271E+00)
 number of electron     792.0000042 magnetization 
 augmentation part      312.2827904 magnetization 

 Broyden mixing:
  rms(total) = 0.12650E+01    rms(broyden)= 0.12642E+01
  rms(prec ) = 0.14355E+01
  weight for this iteration     100.00

 eigenvalues of (default mixing * dielectric matrix)
  average eigenvalue GAMMA=   0.4909
  2.0193  1.0242  1.0242  0.4167  0.4167  0.3508  0.3508  0.1049  0.1049  0.0927
  0.1808  0.1617  0.1342

 Free energy of the ion-electron system (eV)
  ---------------------------------------------------
  alpha Z        PSCENC =      1893.09323658
  Ewald energy   TEWEN  =    164145.68039049
  -Hartree energ DENC   =   -285933.20436003
  -exchange      EXHF   =         0.00000000
  -V(xc)+E(xc)   XCENC  =      3622.27181768
  PAW double counting   =    131561.89177672  -136548.86654025
  entropy T*S    EENTRO =        -0.99529739
  eigenvalues    EBANDS =    -15099.24127133
  atomic energy  EATOM  =    136002.60505376
  Solvation  Ediel_sol  =         0.00000000
  ---------------------------------------------------
  free energy    TOTEN  =      -356.76519378 eV

  energy without entropy =     -355.76989639  energy(sigma->0) =     -356.26754508


--------------------------------------------------------------------------------------------------------




--------------------------------------- Iteration      1(  19)  ---------------------------------------


    POTLOK:  cpu time    0.0427: real time    0.0428
    SETDIJ:  cpu time    0.0048: real time    0.0048
     EDDAV:  cpu time    2.3055: real time    2.3134
       DOS:  cpu time    0.0006: real time    0.0006
    CHARGE:  cpu time    0.0428: real time    0.0429
    MIXING:  cpu time    0.0032: real time    0.0032
    --------------------------------------------
      LOOP:  cpu time    2.3994: real time    2.4076

 eigenvalue-minimisations  :  1344
 total energy-change (2. order) : 0.4364894E+00  (-0.7188617E-01)
 number of electron     792.0000035 magnetization 
 augmentation part      312.4693048 magnetization 

 Broyden mixing:
  rms(total) = 0.93539E+00    rms(broyden)= 0.93441E+00
  rms(prec ) = 0.10364E+01
  weight for this iteration     100.00

 eigenvalues of (default mixing * dielectric matrix)
  average eigenvalue GAMMA=   0.4836
  2.0313  1.1041  1.1041  0.4307  0.4307  0.3380  0.3380  0.2177  0.1049  0.1049
  0.0927  0.1771  0.1560  0.1403

 Free energy of the ion-electron system (eV)
  ---------------------------------------------------
  alpha Z        PSCENC =      1893.09323658
  Ewald energy   TEWEN  =    164145.68039049
  -Hartree energ DENC   =   -285926.29059152
  -exchange      EXHF   =         0.00000000
  -V(xc)+E(xc)   XCENC  =      3622.06096430
  PAW double counting   =    131501.31139195  -136483.84497046
  entropy T*S    EENTRO =        -1.05597627
  eigenvalues    EBANDS =    -15109.88820323
  atomic energy  EATOM  =    136002.60505376
  Solvation  Ediel_sol  =         0.00000000
  ---------------------------------------------------
  free energy    TOTEN  =      -356.32870441 eV

  energy without entropy =     -355.27272814  energy(sigma->0) =     -355.80071628


--------------------------------------------------------------------------------------------------------




--------------------------------------- Iteration      1(  20)  ---------------------------------------


    POTLOK:  cpu time    0.0435: real time    0.0437
    SETDIJ:  cpu time    0.0047: real time    0.0047
     EDDAV:  cpu time    2.0820: real time    2.0874
       DOS:  cpu time    0.0006: real time    0.0006
    CHARGE:  cpu time    0.0432: real time    0.0433
    MIXING:  cpu time    0.0029: real time    0.0029
    --------------------------------------------
      LOOP:  cpu time    2.1770: real time    2.1827

 eigenvalue-minimisations  :  1184
 total energy-change (2. order) : 0.1088578E+00  (-0.4536918E-01)
 number of electron     792.0000038 magnetization 
 augmentation part      312.6522277 magnetization 

 Broyden mixing:
  rms(total) = 0.78848E+00    rms(broyden)= 0.78796E+00
  rms(prec ) = 0.88115E+00
  weight for this iteration     100.00

 eigenvalues of (default mixing * dielectric matrix)
  average eigenvalue GAMMA=   0.4929
  1.9844  1.2275  1.2275  0.4779  0.4779  0.3614  0.3614  0.3251  0.2039  0.1049
  0.1049  0.0927  0.1550  0.1550  0.1340

 Free energy of the ion-electron system (eV)
  ---------------------------------------------------
  alpha Z        PSCENC =      1893.09323658
  Ewald energy   TEWEN  =    164145.68039049
  -Hartree energ DENC   =   -285927.83584208
  -exchange      EXHF   =         0.00000000
  -V(xc)+E(xc)   XCENC  =      3621.98771566
  PAW double counting   =    131405.39214461  -136385.90223353
  entropy T*S    EENTRO =        -1.02113953
  eigenvalues    EBANDS =    -15110.21917258
  atomic energy  EATOM  =    136002.60505376
  Solvation  Ediel_sol  =         0.00000000
  ---------------------------------------------------
  free energy    TOTEN  =      -356.21984663 eV

  energy without entropy =     -355.19870710  energy(sigma->0) =     -355.70927687


--------------------------------------------------------------------------------------------------------




--------------------------------------- Iteration      1(  21)  ---------------------------------------


    POTLOK:  cpu time    0.0435: real time    0.0458
    SETDIJ:  cpu time    0.0047: real time    0.0047
     EDDAV:  cpu time    2.2361: real time    2.2416
       DOS:  cpu time    0.0006: real time    0.0006
    CHARGE:  cpu time    0.0381: real time    0.0382
    MIXING:  cpu time    0.0028: real time    0.0028
    --------------------------------------------
      LOOP:  cpu time    2.3258: real time    2.3336

 eigenvalue-minimisations  :  1296
 total energy-change (2. order) : 0.7599644E-01  (-0.2158297E-01)
 number of electron     792.0000038 magnetization 
 augmentation part      312.5210858 magnetization 

 Broyden mixing:
  rms(total) = 0.68475E+00    rms(broyden)= 0.68443E+00
  rms(prec ) = 0.76045E+00
  weight for this iteration     100.00

 eigenvalues of (default mixing * dielectric matrix)
  average eigenvalue GAMMA=   0.5055
  1.8966  1.3505  1.3505  0.5941  0.5941  0.3897  0.3897  0.3013  0.3013  0.1049
  0.1049  0.0927  0.1832  0.1581  0.1428  0.1334

 Free energy of the ion-electron system (eV)
  ---------------------------------------------------
  alpha Z        PSCENC =      1893.09323658
  Ewald energy   TEWEN  =    164145.68039049
  -Hartree energ DENC   =   -285942.80644865
  -exchange      EXHF   =         0.00000000
  -V(xc)+E(xc)   XCENC  =      3622.15696748
  PAW double counting   =    131135.78014857  -136112.97411990
  entropy T*S    EENTRO =        -1.03541801
  eigenvalues    EBANDS =    -15098.64366051
  atomic energy  EATOM  =    136002.60505376
  Solvation  Ediel_sol  =         0.00000000
  ---------------------------------------------------
  free energy    TOTEN  =      -356.14385019 eV

  energy without entropy =     -355.10843218  energy(sigma->0) =     -355.62614119


--------------------------------------------------------------------------------------------------------




--------------------------------------- Iteration      1(  22)  ---------------------------------------


    POTLOK:  cpu time    0.0431: real time    0.0432
    SETDIJ:  cpu time    0.0047: real time    0.0047
[...]
    FORCOR:  cpu time    0.0545: real time    0.0548
    FORHAR:  cpu time    0.0241: real time    0.0242
    MIXING:  cpu time    0.0055: real time    0.0056
    OFIELD:  cpu time    0.0001: real time    0.0001

  FORCE on cell =-STRESS in cart. coord.  units (eV):
  Direction    XX          YY          ZZ          XY          YZ          ZX
  --------------------------------------------------------------------------------------
  Alpha Z  1893.09324  1893.09324  1893.09324
  Ewald  212851.43359214255.83856************  -267.24989    74.23328  1519.85154
  Hartree250049.65534251221.26181************  -118.23016    81.64787  1115.82769
  E(xc)   -5026.31949 -5026.27722 -5030.95252    -0.67396    -0.24156     1.24910
  Local  ************************465191.19583   363.17487  -169.46318 -2600.31607
  n-local  -687.89673  -686.57207  -695.56713    -3.66928    -1.64049     3.83648
  augment  5789.60066  5788.89617  5807.08436    11.04775     6.06471   -13.83319
  Kinetic 10959.71858 10963.14554 11008.81723    21.48063    14.95853   -38.33866
  Fock        0.00000     0.00000     0.00000     0.00000     0.00000     0.00000
  -------------------------------------------------------------------------------------
  Total     -36.38085   -29.35891   -23.56637     5.87997     5.55915   -11.72310
  in kB     -29.66362   -23.93819   -19.21516     4.79431     4.53273    -9.55859
  external pressure =      -24.27 kB  Pullay stress =        0.00 kB


 VOLUME and BASIS-vectors are now :
 -----------------------------------------------------------------------------
  energy-cutoff  :      450.00
  volume of cell :     1964.98
      direct lattice vectors                 reciprocal lattice vectors
     9.425102554  3.573298043  0.000000000     0.106099641  0.000000000  0.000000000
     0.000000000 10.079732985  0.000000000    -0.037612667  0.099208977  0.000000000
     0.000000000  0.000000000 20.683503555     0.000000000  0.000000000  0.048347708

  length of vectors
    10.079732985 10.079732985 20.683503555     0.106099641  0.106099641  0.048347708


 FORCES acting on ions
    electron-ion (+dipol)            ewald-force                    non-local-force                 convergence-correction
 -----------------------------------------------------------------------------------------------
   0.211E+03 0.148E+03 0.473E+04   -.210E+03 -.144E+03 -.472E+04   -.822E+00 -.343E+01 -.926E+01   0.337E-01 0.120E-01 0.445E-01
   0.184E+03 -.321E+03 0.268E+04   -.185E+03 0.322E+03 -.268E+04   0.123E+01 -.127E+01 0.195E+01   0.337E-01 0.427E-01 0.290E-01
   0.144E+03 -.390E+03 -.166E+03   -.145E+03 0.391E+03 0.165E+03   0.118E+01 -.116E+01 0.875E+00   0.701E-02 0.129E-01 -.452E-01
   0.522E+02 -.287E+03 -.299E+04   -.516E+02 0.287E+03 0.299E+04   -.304E+00 -.664E+00 -.694E+00   -.268E-02 -.670E-02 -.109E+00
   -.368E+03 -.175E+03 -.474E+04   0.364E+03 0.170E+03 0.472E+04   0.297E+01 0.489E+01 0.147E+02   0.325E-02 -.238E-02 -.353E-01
   0.138E+03 -.428E+03 0.175E+04   -.138E+03 0.430E+03 -.175E+04   0.244E+00 -.160E+01 0.101E+01   0.876E-02 -.266E-01 0.312E-01
   0.208E+03 -.367E+03 -.126E+04   -.209E+03 0.367E+03 0.126E+04   0.841E+00 -.479E+00 -.537E+00   -.328E-02 -.120E-01 -.569E-01
   0.334E+03 -.516E+03 -.404E+04   -.336E+03 0.517E+03 0.404E+04   0.170E+01 -.121E+01 -.220E+01   -.137E-01 0.109E-01 -.677E-01
   -.961E+00 -.432E+03 0.452E+04   0.378E+00 0.432E+03 -.451E+04   0.747E+00 -.139E-01 -.430E+01   -.335E-01 0.190E-01 0.277E-01
   0.100E+03 -.291E+03 -.464E+04   -.100E+03 0.295E+03 0.464E+04   -.586E-01 -.335E+01 -.148E+01   0.580E-02 -.318E-02 -.457E-01
   -.123E+03 -.318E+03 0.397E+04   0.120E+03 0.318E+03 -.397E+04   0.283E+01 0.828E-01 -.113E-01   -.109E-01 -.997E-01 0.110E-01
   0.119E+03 -.433E+03 0.861E+03   -.119E+03 0.435E+03 -.863E+03   0.666E+00 -.129E+01 0.158E+01   -.108E-01 -.124E-01 -.251E-01
   0.109E+03 -.568E+03 -.212E+04   -.110E+03 0.570E+03 0.212E+04   0.932E+00 -.242E+01 0.332E+00   -.733E-02 0.111E-01 -.827E-01
   0.290E+03 0.448E+03 0.391E+04   -.293E+03 -.448E+03 -.391E+04   0.196E+01 0.126E+00 0.130E+01   0.173E-01 0.172E-01 0.370E-01
   0.266E+03 0.462E+03 0.849E+03   -.267E+03 -.462E+03 -.849E+03   0.129E+01 0.377E+00 0.390E-01   0.170E-01 -.371E-02 -.581E-02
   0.212E+03 0.441E+03 -.210E+04   -.212E+03 -.443E+03 0.210E+04   -.160E-01 0.120E+01 -.663E-01   0.673E-02 -.885E-02 -.880E-01
   -.119E+03 0.192E+03 -.437E+04   0.122E+03 -.193E+03 0.437E+04   -.225E+01 0.802E+00 0.198E+01   -.957E-02 -.335E-01 -.690E-01
   0.346E+03 0.468E+03 0.268E+04   -.348E+03 -.470E+03 -.268E+04   0.150E+01 0.155E+01 0.135E+01   0.102E-01 -.549E-02 0.473E-01
   0.353E+03 0.407E+03 -.249E+03   -.354E+03 -.407E+03 0.250E+03   0.103E+01 0.236E+00 -.446E+00   0.399E-03 0.691E-02 -.465E-01
   0.460E+03 0.289E+03 -.295E+04   -.461E+03 -.289E+03 0.295E+04   0.185E+01 -.530E+00 -.143E+01   -.114E-01 0.930E-02 -.835E-01
   0.115E+03 0.219E+03 -.479E+04   -.120E+03 -.215E+03 0.479E+04   0.369E+01 -.323E+01 0.678E+01   -.358E-01 -.134E-02 -.628E-02
   0.329E+03 0.301E+03 0.478E+04   -.320E+03 -.295E+03 -.477E+04   -.714E+01 -.629E+01 -.914E+01   -.357E-01 -.273E-01 0.354E-02
   0.950E+02 0.664E+03 -.403E+04   -.932E+02 -.667E+03 0.403E+04   -.178E+01 0.147E+01 0.621E+00   0.132E-01 -.144E-01 -.703E-01
   -.157E+03 0.885E+02 0.453E+04   0.153E+03 -.881E+02 -.453E+04   0.346E+01 -.657E-01 -.805E+00   0.957E-02 -.920E-03 0.248E-01
   0.227E+03 0.363E+03 0.185E+04   -.228E+03 -.364E+03 -.186E+04   0.109E+01 0.215E+00 0.150E+01   -.348E-01 0.322E-01 -.268E-01
   0.237E+03 0.460E+03 -.108E+04   -.238E+03 -.461E+03 0.108E+04   0.108E+01 0.533E+00 0.866E+00   -.315E-02 0.277E-02 -.653E-01
   -.418E+03 0.173E+03 0.464E+04   0.412E+03 -.170E+03 -.463E+04   0.621E+01 -.279E+01 -.344E+01   0.316E-02 0.429E-01 0.273E-01
   -.484E+03 0.571E+02 0.184E+04   0.484E+03 -.564E+02 -.184E+04   -.585E+00 -.564E+00 0.108E+01   -.308E-03 0.311E-02 0.124E-01
   -.625E+03 0.117E+03 -.125E+04   0.626E+03 -.118E+03 0.125E+04   -.118E+01 0.413E+00 0.297E+00   0.511E-02 -.110E-01 -.721E-01
   -.462E+03 -.132E+03 0.371E+04   0.464E+03 0.133E+03 -.372E+04   -.252E+01 -.722E+00 0.358E+01   0.338E-01 -.246E-01 0.417E-01
   -.464E+03 -.143E+02 0.844E+03   0.464E+03 0.148E+02 -.845E+03   -.246E+00 -.383E+00 0.119E+01   0.719E-02 -.957E-02 -.408E-01
   -.429E+03 -.543E+02 -.198E+04   0.430E+03 0.551E+02 0.198E+04   -.104E+01 -.724E+00 0.317E+00   -.106E-02 0.105E-01 -.975E-01
   -.405E+03 -.664E+02 -.454E+04   0.399E+03 0.687E+02 0.454E+04   0.574E+01 -.190E+01 0.564E+01   0.512E-02 0.153E-01 -.462E-01
   -.379E+03 -.469E+02 0.297E+04   0.380E+03 0.477E+02 -.297E+04   -.890E+00 -.690E+00 0.291E+01   -.365E-01 0.192E-01 0.267E-01
   -.458E+03 0.313E+01 -.812E+02   0.459E+03 -.274E+01 0.804E+02   -.866E+00 -.378E+00 0.936E+00   -.112E-01 0.704E-02 -.369E-01
   -.499E+03 0.202E+03 -.306E+04   0.500E+03 -.203E+03 0.306E+04   -.190E+01 0.104E+01 -.195E+01   -.225E-02 -.146E-01 -.701E-01
   -.858E+02 -.171E+03 -.172E+04   0.872E+02 0.173E+03 0.172E+04   -.218E+01 -.203E+01 -.197E+01   0.729E-02 0.171E-02 -.775E-02
   -.309E+02 0.155E+03 0.135E+04   0.311E+02 -.156E+03 -.135E+04   -.215E+00 0.188E+01 -.241E+00   0.852E-02 -.580E-02 0.923E-02
   -.509E+02 0.132E+03 0.228E+03   0.510E+02 -.134E+03 -.230E+03   -.104E+00 0.226E+01 0.191E+01   0.337E-02 -.490E-02 -.104E-01
   -.186E+03 0.212E+01 -.960E+03   0.188E+03 -.177E+01 0.960E+03   -.283E+01 -.455E-01 -.193E+00   0.271E-02 -.585E-03 -.415E-01
   -.371E+01 0.122E+02 0.183E+04   0.441E+01 -.118E+02 -.183E+04   -.140E+01 -.135E+01 0.166E+01   0.748E-02 0.553E-02 0.217E-01
   -.219E+02 0.126E+03 0.924E+03   0.225E+02 -.127E+03 -.925E+03   -.479E+00 0.158E+01 0.131E+01   0.107E-01 -.610E-03 0.280E-02
   -.147E+02 0.112E+03 -.130E+03   0.156E+02 -.114E+03 0.130E+03   -.840E+00 0.208E+01 0.100E+01   0.132E-02 0.296E-02 -.281E-01
   -.379E+02 0.116E+03 -.114E+04   0.381E+02 -.118E+03 0.114E+04   0.260E+00 0.168E+01 0.241E+01   -.510E-02 -.606E-03 -.407E-01
   -.372E+02 0.117E+03 0.607E+03   0.376E+02 -.118E+03 -.608E+03   -.390E+00 0.160E+01 0.129E+01   -.609E-02 0.173E-02 0.294E-02
   -.381E+02 0.160E+03 -.513E+03   0.388E+02 -.162E+03 0.511E+03   -.424E+00 0.222E+01 0.151E+01   -.450E-02 -.538E-02 -.246E-01
   -.426E+02 0.902E+02 -.173E+04   0.434E+02 -.898E+02 0.173E+04   -.139E+01 0.406E+00 -.454E+01   -.184E-02 -.225E-02 -.156E-01
   -.565E+02 -.341E+02 0.170E+04   0.572E+02 0.344E+02 -.170E+04   -.107E+01 -.114E+01 0.202E+01   -.502E-01 0.308E-01 0.870E-02
   -.629E+02 -.683E+02 0.182E+04   0.635E+02 0.683E+02 -.182E+04   -.536E+00 -.527E+00 0.618E+00   0.411E-01 0.320E-01 0.266E-01
   -.855E+02 -.144E+03 0.870E+03   0.867E+02 0.147E+03 -.870E+03   -.119E+01 -.265E+01 0.698E-01   -.725E-02 0.145E-01 -.175E-02
   -.954E+02 -.128E+03 -.212E+03   0.967E+02 0.130E+03 0.212E+03   -.124E+01 -.213E+01 -.203E+00   -.103E-03 -.725E-03 -.238E-01
   -.220E+03 0.641E+02 -.129E+04   0.223E+03 -.651E+02 0.129E+04   -.250E+01 0.954E+00 0.650E+00   0.145E-01 0.562E-02 -.497E-01
   -.644E+02 -.147E+03 0.166E+04   0.650E+02 0.147E+03 -.166E+04   -.521E+00 -.190E+00 0.234E+01   0.117E-01 -.111E-01 0.185E-01
   -.771E+02 -.154E+03 0.509E+03   0.782E+02 0.156E+03 -.509E+03   -.114E+01 -.256E+01 0.457E+00   0.117E-02 -.112E-01 -.388E-02
   -.578E+02 -.160E+03 -.588E+03   0.592E+02 0.162E+03 0.589E+03   -.151E+01 -.215E+01 -.445E+00   0.198E-02 -.261E-03 -.302E-01
   0.656E+01 -.147E+03 -.163E+04   -.644E+01 0.147E+03 0.163E+04   0.205E+00 -.119E+01 -.162E+01   -.814E-02 0.625E-02 -.238E-01
   -.643E+02 -.166E+03 0.141E+03   0.657E+02 0.168E+03 -.141E+03   -.137E+01 -.245E+01 0.680E+00   -.493E-02 0.415E-02 -.111E-01
   -.488E+02 -.184E+03 -.914E+03   0.500E+02 0.187E+03 0.914E+03   -.122E+01 -.306E+01 0.312E+00   -.344E-02 0.577E-02 -.348E-01
   -.413E+02 0.149E+03 -.181E+04   0.419E+02 -.150E+03 0.181E+04   -.130E+01 0.158E+01 -.299E+01   -.235E-02 -.686E-02 -.283E-02
   -.101E+02 -.597E+02 0.136E+04   0.112E+02 0.604E+02 -.137E+04   -.166E+01 -.286E+00 0.186E+01   -.114E-01 -.911E-02 0.125E-01
   0.206E+03 0.588E+02 0.159E+04   -.207E+03 -.600E+02 -.159E+04   0.197E+01 0.140E+01 0.145E+01   -.289E-03 0.625E-02 0.242E-01
   0.173E+03 -.477E+01 0.440E+03   -.176E+03 0.491E+01 -.440E+03   0.239E+01 0.114E+00 0.156E+00   0.550E-02 0.117E-01 0.133E-02
   0.167E+03 0.140E+02 -.660E+03   -.169E+03 -.137E+02 0.661E+03   0.211E+01 -.253E+00 -.125E+01   0.481E-02 -.128E-02 -.307E-01
   0.278E+03 0.386E+02 -.166E+04   -.283E+03 -.384E+02 0.167E+04   0.635E+01 -.444E-01 -.204E+01   -.227E-01 -.782E-02 -.321E-01
   0.169E+03 0.185E+01 0.221E+02   -.172E+03 -.157E+01 -.216E+02   0.268E+01 -.195E+00 -.576E+00   0.596E-03 -.303E-02 -.111E-01
   0.353E+03 -.224E+02 -.116E+04   -.359E+03 0.226E+02 0.117E+04   0.585E+01 -.255E-01 -.363E+01   -.326E-02 0.161E-02 -.314E-01
   0.267E+03 -.159E+03 -.186E+04   -.270E+03 0.160E+03 0.186E+04   0.356E+01 -.138E+01 -.392E+01   -.805E-02 0.700E-02 -.566E-02
   0.167E+03 -.130E+02 0.114E+04   -.169E+03 0.131E+02 -.114E+04   0.132E+01 0.246E-01 -.241E+01   -.358E-02 -.104E-01 0.258E-01
   0.645E+02 -.145E+03 0.186E+04   -.653E+02 0.145E+03 -.186E+04   0.207E+01 -.116E+01 0.420E+01   0.331E-01 -.341E-01 0.176E-01
   0.124E+03 -.387E+02 0.819E+03   -.126E+03 0.389E+02 -.818E+03   0.247E+01 -.283E+00 -.107E+01   0.245E-02 -.128E-01 -.308E-01
   0.155E+03 -.314E+02 -.281E+03   -.157E+03 0.315E+02 0.282E+03   0.234E+01 -.257E-01 -.107E+01   0.197E-03 0.416E-02 -.262E-01
   0.136E+03 -.396E+01 -.132E+04   -.138E+03 0.433E+01 0.132E+04   0.288E+01 -.611E+00 -.356E+00   0.600E-02 -.647E-03 -.389E-01
 -----------------------------------------------------------------------------------------------
   -.315E+02 0.304E+02 -.112E+02   -.284E-13 0.101E-11 -.341E-11   0.316E+02 -.302E+02 0.124E+02   -.216E-01 -.311E-01 -.131E+01
 
 
 POSITION                                       TOTAL-FORCE (eV/Angst)
 -----------------------------------------------------------------------------------
      2.32602     10.40942      0.00000         0.281574      0.233019      1.844702
      3.74232      9.43171      2.62550        -0.270748     -0.066841     -0.133423
      5.15862      8.45400      5.25100        -0.047670     -0.116769     -0.080246
      6.57491      7.47629      7.87651         0.291892     -0.034202      0.304478
      7.99121      6.49857     10.50201        -0.462025     -0.171672     -2.099782
      1.07272      4.55480      3.50067         0.026852      0.188130     -0.186540
      2.48901      3.57708      6.12617         0.029395     -0.389148     -0.009763
      3.90531      2.59937      8.75167        -0.174775      0.069183      0.507518
      9.08153      9.10581      0.87517         0.130131     -0.222558      1.434416
      1.23571      7.80219      9.62684         0.238309      0.996208     -0.288147
      6.41192      4.22889      1.75033        -0.532704     -0.337719      0.440753
      7.82822      3.25118      4.37584         0.011077      0.087886     -0.066921
      9.24452     12.35320      7.00134        -0.028593     -0.163064     -0.125290
      3.36813      7.02690      1.93183        -0.582342     -0.190133      0.401443
      4.78442      6.04919      4.55733        -0.079163      0.138349     -0.008555
      6.20072      5.07148      7.18283         0.402428     -0.124532      0.153493
      7.61702      4.09377      9.80834         0.613511     -0.521360     -0.964808
      0.69852      2.14999      2.80700        -0.110717     -0.108721     -0.139779
      2.11482      1.17228      5.43250         0.137949      0.153380      0.202710
      3.53112     10.27430      8.05800         0.028410      0.067689      0.428137
      4.94741      9.29658     10.68350        -1.302224      0.392287     -1.741688
      8.70733      6.70100      0.18149         1.215517      0.250729      1.842480
      0.86151      5.39738      8.93317        -0.017429     -0.676453     -0.675266
      6.03773     11.90382      1.05666        -0.575693      0.239740      0.684930
      7.45403     10.92611      3.68216         0.051165     -0.090087     -0.108293
      8.87032      9.94839      6.30767         0.112661      0.071136      0.072650
      5.48410      8.22931      1.23816        -0.122870      0.138214      0.992847
      6.90040      7.25159      3.86366        -0.172415      0.134352     -0.160377
      8.31669      6.27388      6.48916         0.000154     -0.304102      0.157236
      2.81450      3.35239      2.11332         0.058137      0.217588     -0.342946
      4.23080      2.37468      4.73883        -0.056477      0.064167     -0.141901
      5.64709     11.47670      7.36433         0.165071      0.101645      0.147648
      7.06339     10.49899      9.98983        -0.668394      0.491181     -1.610014
      0.14490      8.55521      2.98849        -0.151356      0.163324     -0.379206
      1.56119      7.57750      5.61399        -0.037080      0.014983      0.027182
      2.97749      6.59979      8.23950        -0.059659     -0.145828      0.510593
      0.34500      9.75890     10.30158        -0.806464     -0.036227      0.450566
      5.52122      6.18560      2.42507         0.029610      0.261058     -1.644852
      6.93751      5.20789      5.05057         0.023987      0.149293      0.080024
      8.35381      4.23018      7.67607        -0.217056      0.300932      0.164348
      1.43532      2.28640      0.67473        -0.695850     -0.887421     -1.151807
      2.85162      1.30869      3.30024         0.117444      0.081183     -0.024924
      4.26791     10.41071      5.92574         0.016733     -0.015699      0.173289
      5.68421      9.43299      8.55124         0.409724      0.151998      1.081043
      0.18201      6.51150      4.17540         0.000671      0.127367     -0.082998
      1.59831      5.53379      6.80091         0.212342      0.259610      0.090676
      3.01461      4.55608      9.42641        -0.647038      0.780883      0.387871
      8.19082     11.06252      1.54990        -0.421040     -0.807435     -1.000486
      4.58141     10.22551      0.68287         0.044397     -0.525534     -0.560059
      5.99770      9.24779      3.30837        -0.095616     -0.125422     -0.001226
      7.41400      8.27008      5.93387         0.048174      0.091814      0.126796
      8.83030      7.29237      8.55937        -0.196188     -0.093749      1.511519
      1.91180      5.34859      1.55803         0.039186      0.453033     -0.275963
      3.32810      4.37088      4.18354        -0.002622     -0.157512      0.096008
      4.74440      3.39317      6.80904        -0.027109     -0.058302      0.071692
      6.16069      2.41545      9.43454         0.322205     -0.422540      0.698226
      0.65850      9.57370      5.05870         0.078104      0.025312      0.137140
      2.07479      8.59599      7.68420        -0.011070     -0.281697     -0.025310
      3.49109      7.61827     10.30971        -0.610186     -0.086174      0.090488
      8.66731      4.04498      2.43320        -0.584709      0.369465      0.051068
      1.88700      8.69441      1.56616         0.589514      0.266554     -0.769175
      3.30330      7.71670      4.19167         0.265848      0.260947      0.077943
      4.71960      6.73898      6.81717         0.159966      0.019141      0.082144
      6.13589      5.76127      9.44267         0.884509      0.112853      0.649279
      0.63370      2.83978      5.06683         0.030899      0.084284     -0.104490
      2.04999      1.86207      7.69234         0.105397      0.169018     -0.459190
      3.46629     10.96409     10.31784         0.306580     -0.419582     -0.667632
      8.64250      7.39079      2.44133        -0.173644      0.129542     -1.365510
      4.55661      3.49159      0.69100         1.345253     -0.427590      0.397614
      5.97290      2.51388      3.31650         0.531990     -0.083149     -0.086372
      7.38920     11.61590      5.94200         0.144654      0.030216     -0.150059
      8.80549     10.63819      8.56750         0.439509     -0.246473      1.062045
 -----------------------------------------------------------------------------------
    total drift:                                0.070094      0.159284     -0.041377


--------------------------------------------------------------------------------------------------------



  FREE ENERGIE OF THE ION-ELECTRON SYSTEM (eV)
  ---------------------------------------------------
  free  energy   TOTEN  =      -355.94075540 eV

  energy  without entropy=     -354.87556857  energy(sigma->0) =     -355.40816199
 


--------------------------------------------------------------------------------------------------------


    POTLOK:  cpu time    0.0470: real time    0.0478


--------------------------------------------------------------------------------------------------------


     LOOP+:  cpu time   92.8499: real time   93.1869
    4ORBIT:  cpu time    0.0000: real time    0.0000

 total amount of memory used by VASP MPI-rank0    45297. kBytes
=======================================================================

   base      :      30000. kBytes
   nonlr-proj:       2283. kBytes
   fftplans  :       3383. kBytes
   grid      :       6052. kBytes
   one-center:         93. kBytes
   wavefun   :       3486. kBytes
 
  
  
 General timing and accounting informations for this job:
 ========================================================
  
                  Total CPU time used (sec):       94.901
                            User time (sec):       94.194
                          System time (sec):        0.707
                         Elapsed time (sec):       95.640
  
                   Maximum memory used (kb):      229240.
                   Average memory used (kb):           0.
  
                          Minor page faults:        86879
                          Major page faults:            0
                 Voluntary context switches:         1129
