  72  72   0   0
  0.2729146E+02  0.1007973E-08  0.1007973E-08  0.2068350E-08  0.5000000E-15
  1.000000000000000E-004
  CAR 
 "Millerite NiS"                         
     11.05962270    -66.97782958  301      1.47785354      1.00000000
    -66.978  0.0000E+00  0.0000E+00
    -66.718  0.0000E+00  0.0000E+00
    -66.458  0.0000E+00  0.0000E+00
    -66.197  0.0000E+00  0.0000E+00
    -65.937  0.0000E+00  0.0000E+00
    -65.677  0.0000E+00  0.0000E+00
    -65.417  0.0000E+00  0.0000E+00
    -65.157  0.0000E+00  0.0000E+00
    -64.897  0.0000E+00  0.0000E+00
    -64.637  0.0000E+00  0.0000E+00
    -64.377  0.8804E-10  0.2290E-10
    -64.116  0.4985E-05  0.1297E-05
    -63.856  0.1139E-01  0.2964E-02
    -63.596  0.1343E+01  0.3522E+00
    -63.336  0.1880E+02  0.5242E+01
    -63.076  0.9202E+02  0.2918E+02
    -62.816  0.1986E+03  0.8085E+02
    -62.556  0.2746E+03  0.1523E+03
    -62.296  0.1780E+03  0.1986E+03
    -62.035  0.4618E+02  0.2106E+03
    -61.775  0.1858E+02  0.2154E+03
    -61.515  0.2116E+01  0.2160E+03
    -61.255  0.1607E-01  0.2160E+03
    -60.995  0.5744E-05  0.2160E+03
    -60.735  0.8329E-10  0.2160E+03
    -60.475  0.0000E+00  0.2160E+03
    -60.215  0.0000E+00  0.2160E+03
    -59.954  0.0000E+00  0.2160E+03
    -59.694  0.0000E+00  0.2160E+03
    -59.434  0.0000E+00  0.2160E+03
    -59.174  0.0000E+00  0.2160E+03
    -58.914  0.0000E+00  0.2160E+03
    -58.654  0.0000E+00  0.2160E+03
    -58.394  0.0000E+00  0.2160E+03
    -58.134  0.0000E+00  0.2160E+03
    -57.873  0.0000E+00  0.2160E+03
    -57.613  0.0000E+00  0.2160E+03
    -57.353  0.0000E+00  0.2160E+03
    -57.093  0.0000E+00  0.2160E+03
    -56.833  0.0000E+00  0.2160E+03
    -56.573  0.0000E+00  0.2160E+03
    -56.313  0.0000E+00  0.2160E+03
    -56.053  0.0000E+00  0.2160E+03
    -55.792  0.0000E+00  0.2160E+03
    -55.532  0.0000E+00  0.2160E+03
    -55.272  0.0000E+00  0.2160E+03
    -55.012  0.0000E+00  0.2160E+03
    -54.752  0.0000E+00  0.2160E+03
    -54.492  0.0000E+00  0.2160E+03
    -54.232  0.0000E+00  0.2160E+03
    -53.972  0.0000E+00  0.2160E+03
    -53.711  0.0000E+00  0.2160E+03
    -53.451  0.0000E+00  0.2160E+03
    -53.191  0.0000E+00  0.2160E+03
    -52.931  0.0000E+00  0.2160E+03
    -52.671  0.0000E+00  0.2160E+03
    -52.411  0.0000E+00  0.2160E+03
    -52.151  0.0000E+00  0.2160E+03
    -51.891  0.0000E+00  0.2160E+03
    -51.630  0.0000E+00  0.2160E+03
    -51.370  0.0000E+00  0.2160E+03
    -51.110  0.0000E+00  0.2160E+03
    -50.850  0.0000E+00  0.2160E+03
    -50.590  0.0000E+00  0.2160E+03
    -50.330  0.0000E+00  0.2160E+03
    -50.070  0.0000E+00  0.2160E+03
    -49.810  0.0000E+00  0.2160E+03
    -49.549  0.0000E+00  0.2160E+03
    -49.289  0.0000E+00  0.2160E+03
    -49.029  0.0000E+00  0.2160E+03
    -48.769  0.0000E+00  0.2160E+03
    -48.509  0.0000E+00  0.2160E+03
    -48.249  0.0000E+00  0.2160E+03
    -47.989  0.0000E+00  0.2160E+03
    -47.729  0.0000E+00  0.2160E+03
    -47.468  0.0000E+00  0.2160E+03
    -47.208  0.0000E+00  0.2160E+03
    -46.948  0.0000E+00  0.2160E+03
    -46.688  0.0000E+00  0.2160E+03
    -46.428  0.0000E+00  0.2160E+03
    -46.168  0.0000E+00  0.2160E+03
    -45.908  0.0000E+00  0.2160E+03
    -45.648  0.0000E+00  0.2160E+03
    -45.387  0.0000E+00  0.2160E+03
    -45.127  0.0000E+00  0.2160E+03
    -44.867  0.0000E+00  0.2160E+03
    -44.607  0.0000E+00  0.2160E+03
    -44.347  0.0000E+00  0.2160E+03
    -44.087  0.0000E+00  0.2160E+03
    -43.827  0.0000E+00  0.2160E+03
    -43.567  0.0000E+00  0.2160E+03
    -43.306  0.0000E+00  0.2160E+03
    -43.046  0.0000E+00  0.2160E+03
    -42.786  0.0000E+00  0.2160E+03
    -42.526  0.0000E+00  0.2160E+03
    -42.266  0.0000E+00  0.2160E+03
    -42.006  0.0000E+00  0.2160E+03
    -41.746  0.0000E+00  0.2160E+03
    -41.486  0.0000E+00  0.2160E+03
    -41.225  0.0000E+00  0.2160E+03
    -40.965  0.0000E+00  0.2160E+03
    -40.705  0.0000E+00  0.2160E+03
    -40.445  0.0000E+00  0.2160E+03
    -40.185  0.0000E+00  0.2160E+03
    -39.925  0.0000E+00  0.2160E+03
    -39.665  0.0000E+00  0.2160E+03
    -39.405  0.0000E+00  0.2160E+03
    -39.144  0.0000E+00  0.2160E+03
    -38.884  0.0000E+00  0.2160E+03
    -38.624  0.0000E+00  0.2160E+03
    -38.364  0.0000E+00  0.2160E+03
    -38.104  0.0000E+00  0.2160E+03
    -37.844  0.0000E+00  0.2160E+03
    -37.584  0.0000E+00  0.2160E+03
    -37.324  0.0000E+00  0.2160E+03
    -37.063  0.0000E+00  0.2160E+03
    -36.803  0.0000E+00  0.2160E+03
    -36.543  0.0000E+00  0.2160E+03
    -36.283  0.0000E+00  0.2160E+03
    -36.023  0.0000E+00  0.2160E+03
    -35.763  0.0000E+00  0.2160E+03
    -35.503  0.0000E+00  0.2160E+03
    -35.243  0.0000E+00  0.2160E+03
    -34.982  0.0000E+00  0.2160E+03
    -34.722  0.0000E+00  0.2160E+03
    -34.462  0.0000E+00  0.2160E+03
    -34.202  0.0000E+00  0.2160E+03
    -33.942  0.0000E+00  0.2160E+03
    -33.682  0.0000E+00  0.2160E+03
    -33.422  0.0000E+00  0.2160E+03
    -33.162  0.0000E+00  0.2160E+03
    -32.901  0.0000E+00  0.2160E+03
    -32.641  0.0000E+00  0.2160E+03
    -32.381  0.0000E+00  0.2160E+03
    -32.121  0.0000E+00  0.2160E+03
    -31.861  0.0000E+00  0.2160E+03
    -31.601  0.0000E+00  0.2160E+03
    -31.341  0.0000E+00  0.2160E+03
    -31.081  0.0000E+00  0.2160E+03
    -30.820  0.0000E+00  0.2160E+03
    -30.560  0.0000E+00  0.2160E+03
    -30.300  0.0000E+00  0.2160E+03
    -30.040  0.0000E+00  0.2160E+03
    -29.780  0.0000E+00  0.2160E+03
    -29.520  0.0000E+00  0.2160E+03
    -29.260  0.0000E+00  0.2160E+03
    -29.000  0.0000E+00  0.2160E+03
    -28.739  0.0000E+00  0.2160E+03
    -28.479  0.0000E+00  0.2160E+03
    -28.219  0.0000E+00  0.2160E+03
    -27.959  0.0000E+00  0.2160E+03
    -27.699  0.0000E+00  0.2160E+03
    -27.439  0.0000E+00  0.2160E+03
    -27.179  0.0000E+00  0.2160E+03
    -26.919  0.0000E+00  0.2160E+03
    -26.658  0.0000E+00  0.2160E+03
    -26.398  0.0000E+00  0.2160E+03
    -26.138  0.0000E+00  0.2160E+03
    -25.878  0.0000E+00  0.2160E+03
    -25.618  0.0000E+00  0.2160E+03
    -25.358  0.0000E+00  0.2160E+03
    -25.098  0.0000E+00  0.2160E+03
    -24.838  0.0000E+00  0.2160E+03
    -24.577  0.0000E+00  0.2160E+03
    -24.317  0.0000E+00  0.2160E+03
    -24.057  0.0000E+00  0.2160E+03
    -23.797  0.0000E+00  0.2160E+03
    -23.537  0.0000E+00  0.2160E+03
    -23.277  0.0000E+00  0.2160E+03
    -23.017  0.0000E+00  0.2160E+03
    -22.757  0.0000E+00  0.2160E+03
    -22.496  0.0000E+00  0.2160E+03
    -22.236  0.0000E+00  0.2160E+03
    -21.976  0.0000E+00  0.2160E+03
    -21.716  0.0000E+00  0.2160E+03
    -21.456  0.0000E+00  0.2160E+03
    -21.196  0.0000E+00  0.2160E+03
    -20.936  0.0000E+00  0.2160E+03
    -20.676  0.0000E+00  0.2160E+03
    -20.415  0.0000E+00  0.2160E+03
    -20.155  0.0000E+00  0.2160E+03
    -19.895  0.0000E+00  0.2160E+03
    -19.635  0.0000E+00  0.2160E+03
    -19.375  0.0000E+00  0.2160E+03
    -19.115  0.0000E+00  0.2160E+03
    -18.855  0.0000E+00  0.2160E+03
    -18.595  0.0000E+00  0.2160E+03
    -18.334  0.0000E+00  0.2160E+03
    -18.074  0.0000E+00  0.2160E+03
    -17.814  0.0000E+00  0.2160E+03
    -17.554  0.0000E+00  0.2160E+03
    -17.294  0.0000E+00  0.2160E+03
    -17.034  0.0000E+00  0.2160E+03
    -16.774  0.0000E+00  0.2160E+03
    -16.514  0.0000E+00  0.2160E+03
    -16.253  0.0000E+00  0.2160E+03
    -15.993  0.4268E-15  0.2160E+03
    -15.733  0.3093E-09  0.2160E+03
    -15.473  0.1213E-04  0.2160E+03
    -15.213  0.1840E-01  0.2160E+03
    -14.953  0.1253E+01  0.2163E+03
    -14.693  0.6139E+01  0.2179E+03
    -14.433  0.6999E+01  0.2197E+03
    -14.172  0.7636E+01  0.2217E+03
    -13.912  0.1449E+02  0.2255E+03
    -13.652  0.1771E+02  0.2301E+03
    -13.392  0.2121E+02  0.2356E+03
    -13.132  0.2316E+02  0.2417E+03
    -12.872  0.2695E+02  0.2487E+03
    -12.612  0.3198E+02  0.2570E+03
    -12.352  0.3031E+02  0.2649E+03
    -12.091  0.2342E+02  0.2710E+03
    -11.831  0.2519E+02  0.2775E+03
    -11.571  0.2268E+02  0.2834E+03
    -11.311  0.1461E+02  0.2872E+03
    -11.051  0.2963E+01  0.2880E+03
    -10.791  0.6574E-01  0.2880E+03
    -10.531  0.8037E-04  0.2880E+03
    -10.271  0.4085E-08  0.2880E+03
    -10.010  0.7682E-14  0.2880E+03
     -9.750  0.0000E+00  0.2880E+03
     -9.490  0.0000E+00  0.2880E+03
     -9.230  0.0000E+00  0.2880E+03
     -8.970  0.0000E+00  0.2880E+03
     -8.710  0.0000E+00  0.2880E+03
     -8.450  0.0000E+00  0.2880E+03
     -8.190  0.0000E+00  0.2880E+03
     -7.929  0.0000E+00  0.2880E+03
     -7.669  0.2625E-12  0.2880E+03
     -7.409  0.6206E-07  0.2880E+03
     -7.149  0.5629E-03  0.2880E+03
     -6.889  0.2225E+00  0.2881E+03
     -6.629  0.5095E+01  0.2894E+03
     -6.369  0.1383E+02  0.2930E+03
     -6.109  0.2370E+02  0.2991E+03
     -5.848  0.3297E+02  0.3077E+03
     -5.588  0.3974E+02  0.3181E+03
     -5.328  0.4242E+02  0.3291E+03
     -5.068  0.4450E+02  0.3407E+03
     -4.808  0.4263E+02  0.3518E+03
     -4.548  0.3728E+02  0.3615E+03
     -4.288  0.4618E+02  0.3735E+03
     -4.028  0.4847E+02  0.3861E+03
     -3.767  0.5057E+02  0.3992E+03
     -3.507  0.6481E+02  0.4161E+03
     -3.247  0.6759E+02  0.4337E+03
     -2.987  0.6470E+02  0.4505E+03
     -2.727  0.5965E+02  0.4660E+03
     -2.467  0.4918E+02  0.4788E+03
     -2.207  0.3894E+02  0.4889E+03
     -1.947  0.4566E+02  0.5008E+03
     -1.686  0.5584E+02  0.5153E+03
     -1.426  0.7443E+02  0.5347E+03
     -1.166  0.8826E+02  0.5577E+03
     -0.906  0.9905E+02  0.5834E+03
     -0.646  0.1160E+03  0.6136E+03
     -0.386  0.1365E+03  0.6491E+03
     -0.126  0.1435E+03  0.6864E+03
      0.134  0.1115E+03  0.7155E+03
      0.395  0.7877E+02  0.7359E+03
      0.655  0.6276E+02  0.7523E+03
      0.915  0.5442E+02  0.7664E+03
      1.175  0.4424E+02  0.7779E+03
      1.435  0.4579E+02  0.7899E+03
      1.695  0.5328E+02  0.8037E+03
      1.955  0.5526E+02  0.8181E+03
      2.215  0.5266E+02  0.8318E+03
      2.476  0.4882E+02  0.8445E+03
      2.736  0.3585E+02  0.8538E+03
      2.996  0.2603E+02  0.8606E+03
      3.256  0.1207E+02  0.8637E+03
      3.516  0.1076E+01  0.8640E+03
      3.776  0.8347E-02  0.8640E+03
      4.036  0.3952E-01  0.8640E+03
      4.296  0.2523E+01  0.8647E+03
      4.557  0.1286E+02  0.8680E+03
      4.817  0.1543E+02  0.8720E+03
      5.077  0.1853E+02  0.8768E+03
      5.337  0.1518E+02  0.8808E+03
      5.597  0.1820E+02  0.8855E+03
      5.857  0.2127E+02  0.8911E+03
      6.117  0.2794E+02  0.8983E+03
      6.377  0.3336E+02  0.9070E+03
      6.638  0.3090E+02  0.9150E+03
      6.898  0.3284E+02  0.9236E+03
      7.158  0.4137E+02  0.9344E+03
      7.418  0.4272E+02  0.9455E+03
      7.678  0.2305E+02  0.9515E+03
      7.938  0.2056E+01  0.9520E+03
      8.198  0.1530E-01  0.9520E+03
      8.458  0.6035E-05  0.9520E+03
      8.718  0.9956E-10  0.9520E+03
      8.979  0.0000E+00  0.9520E+03
      9.239  0.0000E+00  0.9520E+03
      9.499  0.0000E+00  0.9520E+03
      9.759  0.0000E+00  0.9520E+03
     10.019  0.0000E+00  0.9520E+03
     10.279  0.0000E+00  0.9520E+03
     10.539  0.0000E+00  0.9520E+03
     10.799  0.0000E+00  0.9520E+03
     11.060  0.0000E+00  0.9520E+03
