       N       E                     dE             d eps       ncg     rms          rms(c)
DAV:   1     0.992541224949E+04    0.99254E+04   -0.51310E+05  1160   0.165E+03
DAV:   2     0.599944569609E+03   -0.93255E+04   -0.89967E+04  1012   0.532E+02
DAV:   3    -0.341112090175E+03   -0.94106E+03   -0.89816E+03  1088   0.185E+02
DAV:   4    -0.397081132616E+03   -0.55969E+02   -0.55380E+02  1112   0.406E+01
DAV:   5    -0.399158907084E+03   -0.20778E+01   -0.20750E+01  1264   0.821E+00    0.956E+01
DAV:   6    -0.466474408199E+03   -0.67316E+02   -0.91581E+02  1200   0.122E+02    0.157E+02
DAV:   7    -0.374308891131E+03    0.92166E+02   -0.20366E+02  1088   0.825E+01    0.746E+01
DAV:   8    -0.417811130289E+03   -0.43502E+02   -0.21443E+02  1320   0.869E+01    0.118E+02
DAV:   9    -0.415186491363E+03    0.26246E+01   -0.19361E+02  1184   0.987E+01    0.112E+02
DAV:  10    -0.416940650584E+03   -0.17542E+01   -0.12676E+02  1312   0.758E+01    0.110E+02
DAV:  11    -0.392710794775E+03    0.24230E+02   -0.77096E+01  1272   0.460E+01    0.708E+01
DAV:  12    -0.372928588259E+03    0.19782E+02   -0.51877E+01  1264   0.483E+01    0.470E+01
DAV:  13    -0.374634657881E+03   -0.17061E+01   -0.49317E+01  1296   0.493E+01    0.639E+01
DAV:  14    -0.364525362418E+03    0.10109E+02   -0.32791E+01  1312   0.309E+01    0.395E+01
DAV:  15    -0.356643212390E+03    0.78822E+01   -0.10026E+01  1280   0.210E+01    0.237E+01
DAV:  16    -0.355267810747E+03    0.13754E+01   -0.33928E+00  1320   0.865E+00    0.221E+01
DAV:  17    -0.354923163656E+03    0.34465E+00   -0.70194E-01  1056   0.359E+00    0.209E+01
DAV:  18    -0.354724554923E+03    0.19861E+00   -0.90070E-02  1144   0.138E+00    0.203E+01
DAV:  19    -0.354309263770E+03    0.41529E+00   -0.22993E-01  1376   0.379E+00    0.199E+01
DAV:  20    -0.352700008075E+03    0.16093E+01   -0.94958E-01  1360   0.814E+00    0.169E+01
DAV:  21    -0.351033048183E+03    0.16670E+01   -0.19544E+00  1328   0.996E+00    0.103E+01
DAV:  22    -0.350844609600E+03    0.18844E+00   -0.99604E-01  1312   0.408E+00    0.793E+00
DAV:  23    -0.350808926653E+03    0.35683E-01   -0.16804E-01  1104   0.163E+00    0.724E+00
DAV:  24    -0.350795449029E+03    0.13478E-01   -0.82329E-02  1088   0.178E+00    0.692E+00
DAV:  25    -0.350792712915E+03    0.27361E-02   -0.10748E-01  1248   0.241E+00    0.650E+00
DAV:  26    -0.350870560796E+03   -0.77848E-01   -0.30754E-01  1352   0.420E+00    0.724E+00
DAV:  27    -0.350703818091E+03    0.16674E+00   -0.50252E-01  1184   0.462E+00    0.400E+00
DAV:  28    -0.350671284925E+03    0.32533E-01   -0.14754E-01  1312   0.240E+00    0.291E+00
DAV:  29    -0.350660222843E+03    0.11062E-01   -0.32926E-02  1096   0.107E+00    0.235E+00
DAV:  30    -0.350665748035E+03   -0.55252E-02   -0.20035E-02  1232   0.108E+00    0.241E+00
DAV:  31    -0.350670100541E+03   -0.43525E-02   -0.20349E-02  1296   0.107E+00    0.225E+00
DAV:  32    -0.350656335141E+03    0.13765E-01   -0.18493E-02  1200   0.961E-01    0.146E+00
DAV:  33    -0.350651785914E+03    0.45492E-02   -0.16115E-02  1320   0.837E-01    0.943E-01
DAV:  34    -0.350651046580E+03    0.73933E-03   -0.75061E-03  1224   0.614E-01    0.890E-01
DAV:  35    -0.350650771569E+03    0.27501E-03   -0.14573E-03  1184   0.257E-01    0.829E-01
DAV:  36    -0.350649305436E+03    0.14661E-02   -0.14275E-03  1120   0.257E-01    0.519E-01
DAV:  37    -0.350650022793E+03   -0.71736E-03   -0.11582E-03  1152   0.255E-01    0.553E-01
DAV:  38    -0.350649544127E+03    0.47867E-03   -0.92379E-04  1072   0.208E-01    0.373E-01
DAV:  39    -0.350649419254E+03    0.12487E-03   -0.80387E-04  1088   0.188E-01    0.239E-01
DAV:  40    -0.350649402585E+03    0.16669E-04   -0.47274E-04   928   0.150E-01
   1 F= -.35064940E+03 E0= -.35014177E+03  d E =-.101527E+01
