 vasp.5.4.4.18Apr17-6-g9f103f2a35 (build Aug 13 2019 17:33:20) gamma-only       
  
 executed on             LinuxIFC date 2020.05.12  22:41:12
 running on   12 total cores
 distrk:  each k-point on   12 cores,    1 groups
 distr:  one band on NCORES_PER_BAND=   6 cores,    2 groups


--------------------------------------------------------------------------------------------------------


 INCAR:
 POTCAR:    PAW_PBE Ni_pv 06Sep2000               
 POTCAR:    PAW_PBE S 06Sep2000                   
 POTCAR:    PAW_PBE Ni_pv 06Sep2000               
   VRHFIN =Ni:                                                                  
   LEXCH  = PE                                                                  
   EATOM  =  3501.1230 eV,  257.3253 Ry                                         
                                                                                
   TITEL  = PAW_PBE Ni_pv 06Sep2000                                             
   LULTRA =        F    use ultrasoft PP ?                                      
   IUNSCR =        1    unscreen: 0-lin 1-nonlin 2-no                           
   RPACOR =    1.500    partial core radius                                     
   POMASS =   58.690; ZVAL   =   16.000    mass and valenz                      
   RCORE  =    2.000    outmost cutoff radius                                   
   RWIGS  =    2.000; RWIGS  =    1.058    wigner-seitz radius (au A)           
   ENMAX  =  367.986; ENMIN  =  275.989 eV                                      
   RCLOC  =    1.301    cutoff for local pot                                    
   LCOR   =        T    correct aug charges                                     
   LPAW   =        T    paw PP                                                  
   EAUG   =  703.443                                                            
   DEXC   =    0.000                                                            
   RMAX   =    2.041    core radius for proj-oper                               
   RAUG   =    1.300    factor for augmentation sphere                          
   RDEP   =    2.103    radius for radial grids                                 
   RDEPT  =    1.618    core radius for aug-charge                              
                                                                                
   Atomic configuration                                                         
    8 entries                                                                   
     n  l   j            E        occ.                                          
     1  0  0.50     -8206.4253   2.0000                                         
     2  0  0.50      -976.1748   2.0000                                         
     2  1  1.50      -839.0571   6.0000                                         
     3  0  0.50      -105.9991   2.0000                                         
     3  1  1.50       -66.4603   6.0000                                         
     3  2  2.50        -4.6458   9.0000                                         
     4  0  0.50        -4.4926   1.0000                                         
     4  3  2.50        -1.3606   0.0000                                         
   Description                                                                  
     l       E           TYP  RCUT    TYP  RCUT                                 
     1    -66.4602962     23  1.700                                             
     1     -1.3605826     23  1.700                                             
     2     -4.6457867     23  2.000                                             
     2     -6.0063693     23  2.000                                             
     0     -4.4925576     23  1.900                                             
     0     16.3626226     23  1.900                                             
  local pseudopotential read in
  partial core-charges read in
  partial kinetic energy density read in
  atomic valenz-charges read in
  non local Contribution for L=           1  read in
    real space projection operators read in
  non local Contribution for L=           1  read in
    real space projection operators read in
  non local Contribution for L=           2  read in
    real space projection operators read in
  non local Contribution for L=           2  read in
    real space projection operators read in
  non local Contribution for L=           0  read in
    real space projection operators read in
  non local Contribution for L=           0  read in
    real space projection operators read in
    PAW grid and wavefunctions read in
 
   number of l-projection  operators is LMAX  =           6
   number of lm-projection operators is LMMAX =          18
 
 POTCAR:    PAW_PBE S 06Sep2000                   
   VRHFIN =S : s2p4                                                             
   LEXCH  = PE                                                                  
   EATOM  =   276.8230 eV,   20.3459 Ry                                         
                                                                                
   TITEL  = PAW_PBE S 06Sep2000                                                 
   LULTRA =        F    use ultrasoft PP ?                                      
   IUNSCR =        1    unscreen: 0-lin 1-nonlin 2-no                           
   RPACOR =    1.500    partial core radius                                     
   POMASS =   32.066; ZVAL   =    6.000    mass and valenz                      
   RCORE  =    1.900    outmost cutoff radius                                   
   RWIGS  =    2.200; RWIGS  =    1.164    wigner-seitz radius (au A)           
   ENMAX  =  258.689; ENMIN  =  194.016 eV                                      
   ICORE  =        2    local potential                                         
   LCOR   =        T    correct aug charges                                     
   LPAW   =        T    paw PP                                                  
   EAUG   =  335.092                                                            
   DEXC   =    0.000                                                            
   RMAX   =    1.942    core radius for proj-oper                               
   RAUG   =    1.300    factor for augmentation sphere                          
   RDEP   =    1.954    radius for radial grids                                 
   RDEPT  =    1.744    core radius for aug-charge                              
                                                                                
   Atomic configuration                                                         
    6 entries                                                                   
     n  l   j            E        occ.                                          
     1  0  0.50     -2405.8406   2.0000                                         
     2  0  0.50      -211.7007   2.0000                                         
     2  1  1.50      -156.4958   6.0000                                         
     3  0  0.50       -17.2562   2.0000                                         
     3  1  0.50        -7.0085   4.0000                                         
     3  2  1.50        -6.8029   0.0000                                         
   Description                                                                  
     l       E           TYP  RCUT    TYP  RCUT                                 
     0    -17.2561641     23  1.900                                             
     0    -15.8743224     23  1.900                                             
     1     -7.0085400     23  1.900                                             
     1     -2.7779785     23  1.900                                             
     2     -6.8029130     23  1.900                                             
  local pseudopotential read in
  partial core-charges read in
  partial kinetic energy density read in
  atomic valenz-charges read in
  non local Contribution for L=           0  read in
    real space projection operators read in
  non local Contribution for L=           0  read in
    real space projection operators read in
  non local Contribution for L=           1  read in
    real space projection operators read in
  non local Contribution for L=           1  read in
    real space projection operators read in
    PAW grid and wavefunctions read in
 
   number of l-projection  operators is LMAX  =           4
   number of lm-projection operators is LMMAX =           8
 
 Optimization of the real space projectors (new method)

 maximal supplied QI-value         = 18.90
 optimisation between [QCUT,QGAM] = [ 10.77, 21.73] = [ 32.49,132.25] Ry 
 Optimized for a Real-space Cutoff    1.38 Angstroem

   l    n(q)    QCUT    max X(q) W(low)/X(q) W(high)/X(q)  e(spline) 
   1      8    10.771     2.836    0.40E-04    0.29E-04    0.12E-06
   1      8    10.771     4.023    0.10E-03    0.48E-04    0.29E-06
   2      8    10.771    73.368    0.42E-03    0.97E-04    0.44E-06
   2      8    10.771    69.010    0.42E-03    0.99E-04    0.45E-06
   0      9    10.771    54.797    0.10E-03    0.56E-04    0.74E-07
   0      9    10.771    24.266    0.89E-04    0.49E-04    0.67E-07
 Optimization of the real space projectors (new method)

 maximal supplied QI-value         = 19.84
 optimisation between [QCUT,QGAM] = [ 10.71, 21.63] = [ 32.15,130.99] Ry 
 Optimized for a Real-space Cutoff    1.19 Angstroem

   l    n(q)    QCUT    max X(q) W(low)/X(q) W(high)/X(q)  e(spline) 
   0      8    10.715   187.594    0.41E-03    0.53E-04    0.66E-07
   0      8    10.715   164.243    0.41E-03    0.53E-04    0.65E-07
   1      7    10.715    67.533    0.19E-03    0.59E-03    0.68E-07
   1      7    10.715    50.729    0.19E-03    0.58E-03    0.67E-07
  PAW_PBE Ni_pv 06Sep2000               :
 energy of atom  1       EATOM=-3501.1230
 kinetic energy error for atom=    0.0925 (will be added to EATOM!!)
  PAW_PBE S 06Sep2000                   :
 energy of atom  2       EATOM= -276.8230
 kinetic energy error for atom=    0.0033 (will be added to EATOM!!)
 
 
 POSCAR: Type_036 Type_136                       
  positions in cartesian coordinates
  No initial velocities read in
 exchange correlation table for  LEXCH =        8
   RHO(1)=    0.500       N(1)  =     2000
   RHO(2)=  100.500       N(2)  =     4000
 


--------------------------------------------------------------------------------------------------------


 ion  position               nearest neighbor table
   1  0.397  0.795  0.118-  49 2.04  61 2.11  42 2.25  50 2.36  62 2.36  25 2.46
   2  0.547  0.645  0.245-  43 2.25  62 2.26  50 2.26  63 2.36  51 2.36  26 2.53  13 2.53
   3  0.698  0.494  0.372-  52 2.09  64 2.22  44 2.25  51 2.26  63 2.26  14 2.53  27 2.53
   4  0.114  0.412  0.160-  53 2.13  45 2.25  68 2.26   7 2.28  54 2.36  65 2.36  28 2.53  16 2.53

   5  0.264  0.261  0.287-  46 2.25  65 2.26  54 2.26  55 2.36  66 2.36  17 2.53  29 2.53
   6  0.414  0.111  0.414-  67 2.01  47 2.17  56 2.18  55 2.26  66 2.26  30 2.53  18 2.53
   7  0.994  0.595  0.094-  48 2.00  45 2.13  53 2.21   4 2.28  68 2.30  19 2.46
   8  0.098  0.780  0.442-  58 2.05  72 2.07  59 2.13  37 2.13
   9  0.708  0.214  0.138-  38 1.99  39 2.10  60 2.18  10 2.28  70 2.30  36 2.41
  10  0.831  0.028  0.203-  39 2.25  60 2.26  70 2.26   9 2.28  57 2.36  71 2.36  22 2.53  32 2.53

  11  0.981  0.878  0.330-  40 2.25  57 2.26  71 2.26  58 2.36  72 2.36  33 2.53  23 2.53
  12  0.363  0.553  0.104-  62 2.04  61 2.12  53 2.16  38 2.21
  13  0.508  0.420  0.212-  54 2.25  62 2.26  38 2.26  39 2.36  63 2.36  26 2.53   2 2.53
  14  0.658  0.270  0.338-  64 2.10  55 2.25  63 2.26  39 2.26  40 2.36   3 2.53  27 2.53
  15  0.779  0.137  0.447-  40 2.02  56 2.12  64 2.14  37 2.14
  16  0.074  0.187  0.127-  41 2.06  60 2.25  68 2.26  42 2.36  65 2.36  19 2.53  28 2.53   4 2.53

  17  0.224  0.037  0.254-  57 2.25  42 2.26  65 2.26  66 2.36  43 2.36   5 2.53  29 2.53
  18  0.375  0.886  0.381-  67 2.00  44 2.22  58 2.25  66 2.26  43 2.26  30 2.53   6 2.53
  19  0.073  0.363  0.040-  41 2.01  68 2.06  53 2.08   7 2.46  28 2.46  16 2.53
  20  0.100  0.526  0.417-  46 2.11  72 2.12  59 2.15  47 2.23  34 2.31
  21  0.625  0.847  0.079-  69 2.02  49 2.07  50 2.14  48 2.34  70 2.36  22 2.45  36 2.48
  22  0.791  0.804  0.169-  50 2.25  70 2.26  48 2.26  71 2.36  45 2.36  21 2.45  10 2.53  32 2.53

  23  0.941  0.653  0.296-  51 2.25  71 2.26  45 2.26  46 2.36  72 2.36  33 2.53  11 2.53
  24  0.027  0.158  0.417-  40 2.02  37 2.10  52 2.10  66 2.13
  25  0.591  0.594  0.072-  49 2.03  50 2.05  38 2.06   1 2.46
  26  0.732  0.460  0.178-  68 2.25  50 2.26  38 2.26  51 2.36  39 2.36  13 2.53   2 2.53
  27  0.882  0.310  0.305-  52 2.06  65 2.25  39 2.26  51 2.26  40 2.36   3 2.53  14 2.53
  28  0.299  0.227  0.093-  41 2.03  53 2.16  54 2.36  42 2.36  19 2.46   4 2.53  16 2.53
  29  0.449  0.076  0.220-  70 2.25  42 2.26  54 2.26  43 2.36  55 2.36  17 2.53   5 2.53
  30  0.599  0.926  0.347-  56 2.14  44 2.17  71 2.25  43 2.26  55 2.26  31 2.38   6 2.53  18 2.53

  31  0.728  0.803  0.439-  44 2.05  56 2.06  72 2.07  30 2.38
  32  0.015  0.843  0.136-  61 2.11  48 2.26  60 2.26  45 2.36  57 2.36  22 2.53  10 2.53
  33  0.166  0.693  0.263-  62 2.25  57 2.26  45 2.26  46 2.36  58 2.36  11 2.53  23 2.53
  34  0.316  0.543  0.390-  59 2.05  63 2.25  47 2.26  58 2.26  46 2.26  20 2.31  35 2.33
  35  0.433  0.403  0.477-  47 2.02  64 2.09  59 2.17  34 2.33
  36  0.768  0.002  0.073-  69 2.02  48 2.02  60 2.05  70 2.08   9 2.41  21 2.48
  37  0.988  0.996  0.469-  24 2.10   8 2.13  15 2.14  40 2.52
  38  0.586  0.406  0.108-   9 1.99  25 2.06  12 2.21  13 2.26  26 2.26
  39  0.736  0.256  0.235-   9 2.10  10 2.25  27 2.26  14 2.26  13 2.36  26 2.36
  40  0.886  0.105  0.362-  24 2.02  15 2.02  11 2.25  14 2.36  27 2.36  37 2.52
  41  0.174  0.152  0.038-  19 2.01  28 2.03  16 2.06  42 2.76
  42  0.303  0.023  0.151-   1 2.25  29 2.26  17 2.26  16 2.36  28 2.36  41 2.76
  43  0.453  0.872  0.278-   2 2.25  30 2.26  18 2.26  29 2.36  17 2.36  44 2.79
  44  0.594  0.729  0.387-  31 2.05  30 2.17  18 2.22   3 2.25  43 2.79
  45  0.019  0.639  0.193-   7 2.13   4 2.25  23 2.26  33 2.26  22 2.36  32 2.36
  46  0.170  0.489  0.320-  20 2.11   5 2.25  34 2.26  33 2.36  23 2.36  47 2.70
  47  0.299  0.337  0.425-  35 2.02   6 2.17  20 2.23  34 2.26  59 2.63  46 2.70
  48  0.869  0.789  0.066-   7 2.00  36 2.02  32 2.26  22 2.26  21 2.34
  49  0.482  0.781  0.028-  25 2.03   1 2.04  21 2.07
  50  0.636  0.692  0.151-  25 2.05  21 2.14  22 2.25  26 2.26   2 2.26   1 2.36
  51  0.787  0.542  0.278-  23 2.25   3 2.26  27 2.26  26 2.36   2 2.36
  52  0.906  0.372  0.398-  27 2.06   3 2.09  24 2.10
  53  0.215  0.453  0.076-  19 2.08   4 2.13  28 2.16  12 2.16   7 2.21
  54  0.353  0.308  0.193-  13 2.25   5 2.26  29 2.26  28 2.36   4 2.36
  55  0.503  0.158  0.320-  14 2.25   6 2.26  30 2.26   5 2.36  29 2.36
  56  0.641  0.021  0.434-  31 2.06  15 2.12  30 2.14   6 2.18
  57  0.070  0.925  0.236-  17 2.25  33 2.26  11 2.26  10 2.36  32 2.36
  58  0.220  0.775  0.363-   8 2.05  18 2.25  34 2.26  33 2.36  11 2.36
  59  0.237  0.585  0.481-  34 2.05   8 2.13  20 2.15  35 2.17  47 2.63
  60  0.920  0.075  0.109-  36 2.05   9 2.18  16 2.25  10 2.26  32 2.26
  61  0.213  0.759  0.088-  32 2.11   1 2.11  12 2.12  62 2.63
  62  0.350  0.641  0.194-  12 2.04  33 2.25  13 2.26   2 2.26   1 2.36  61 2.63
  63  0.501  0.491  0.321-  34 2.25   3 2.26  14 2.26   2 2.36  13 2.36
  64  0.633  0.348  0.434-  35 2.09  14 2.10  15 2.14   3 2.22
  65  0.067  0.258  0.236-  27 2.25   5 2.26  17 2.26   4 2.36  16 2.36
  66  0.218  0.108  0.363-  24 2.13  18 2.26   6 2.26  17 2.36   5 2.36
  67  0.407  0.949  0.469-  18 2.00   6 2.01
  68  0.917  0.408  0.109-  19 2.06  26 2.25  16 2.26   4 2.26   7 2.30
  69  0.606  0.005  0.015-  36 2.02  21 2.02
  70  0.634  0.025  0.152-  36 2.08  29 2.25  10 2.26  22 2.26   9 2.30  21 2.36
  71  0.784  0.874  0.279-  30 2.25  23 2.26  11 2.26  22 2.36  10 2.36
  72  0.934  0.724  0.405-  31 2.07   8 2.07  20 2.12  11 2.36  23 2.36
 
  LATTYP: Found a base centered orthorhombic cell.
 ALAT       =    11.4527836704
 B/A-ratio  =     1.4485816945
 C/A-ratio  =     1.8059804630
  
  Lattice vectors:
  
 A1 = (  10.0797329849,   0.0000000000,   0.0000000000)
 A2 = (  -3.5732980427,  -9.4251025535,   0.0000000000)
 A3 = (   0.0000000000,   0.0000000000, -20.6835035552)


Analysis of symmetry for initial positions (statically):
=====================================================================
 Subroutine PRICEL returns:
 Original cell was already a primitive cell.
 

 Routine SETGRP: Setting up the symmetry group for a 
 base centered orthorhombic supercell.


 Subroutine GETGRP returns: Found  1 space group operations
 (whereof  1 operations were pure point group operations)
 out of a pool of  8 trial point group operations.


The static configuration has the point symmetry C_1 .


Analysis of symmetry for dynamics (positions and initial velocities):
=====================================================================
 Subroutine PRICEL returns:
 Original cell was already a primitive cell.
 

 Routine SETGRP: Setting up the symmetry group for a 
 base centered orthorhombic supercell.


 Subroutine GETGRP returns: Found  1 space group operations
 (whereof  1 operations were pure point group operations)
 out of a pool of  8 trial point group operations.


The dynamic configuration has the point symmetry C_1 .


 Subroutine INISYM returns: Found  1 space group operations
 (whereof  1 operations are pure point group operations),
 and found     1 'primitive' translations

 
 
 KPOINTS: gamma-point-only calculation. no periodi

Automatic generation of k-mesh.
Space group operators:
 irot       det(A)        alpha          n_x          n_y          n_z        tau_x        tau_y        tau_z
    1     1.000000     0.000000     1.000000     0.000000     0.000000     0.000000     0.000000     0.000000
 
 Subroutine IBZKPT returns following result:
 ===========================================
 
 Found      1 irreducible k-points:
 
 Following reciprocal coordinates:
            Coordinates               Weight
  0.000000  0.000000  0.000000      1.000000
 
 Following cartesian coordinates:
            Coordinates               Weight
  0.000000  0.000000  0.000000      1.000000
 


--------------------------------------------------------------------------------------------------------




 Dimension of arrays:
   k-points           NKPTS =      1   k-points in BZ     NKDIM =      1   number of bands    NBANDS=    476
   number of dos      NEDOS =    301   number of ions     NIONS =     72
   non local maximal  LDIM  =      6   non local SUM 2l+1 LMDIM =     18
   total plane-waves  NPLWV = 314928
   max r-space proj   IRMAX =   1817   max aug-charges    IRDMAX=   5248
   dimension x,y,z NGX =    54 NGY =   54 NGZ =  108
   dimension x,y,z NGXF=   108 NGYF=  108 NGZF=  216
   support grid    NGXF=   108 NGYF=  108 NGZF=  216
   ions per type =              36  36
   NGX,Y,Z   is equivalent  to a cutoff of   8.91,  8.91,  8.68 a.u.
   NGXF,Y,Z  is equivalent  to a cutoff of  17.81, 17.81, 17.36 a.u.

 SYSTEM =  "Millerite NiS"                         
 POSCAR =  Type_036 Type_136                       

 Startparameter for this run:
   NWRITE =      2    write-flag & timer
   PREC   = normal    normal or accurate (medium, high low for compatibility)
   ISTART =      0    job   : 0-new  1-cont  2-samecut
   ICHARG =      2    charge: 1-file 2-atom 10-const
   ISPIN  =      1    spin polarized calculation?
   LNONCOLLINEAR =      F non collinear calculations
   LSORBIT =      F    spin-orbit coupling
   INIWAV =      1    electr: 0-lowe 1-rand  2-diag
   LASPH  =      F    aspherical Exc in radial PAW
   METAGGA=      F    non-selfconsistent MetaGGA calc.

 Electronic Relaxation 1
   ENCUT  =  450.0 eV  33.07 Ry    5.75 a.u.  17.43 17.43 35.78*2*pi/ulx,y,z
   ENINI  =  450.0     initial cutoff
   ENAUG  =  703.4 eV  augmentation charge cutoff
   NELM   =    100;   NELMIN=  2; NELMDL= -5     # of ELM steps 
   EDIFF  = 0.1E-03   stopping-criterion for ELM
   LREAL  =      T    real-space projection
   NLSPLINE    = F    spline interpolate recip. space projectors
   LCOMPAT=      F    compatible to vasp.4.4
   GGA_COMPAT  = T    GGA compatible to vasp.4.4-vasp.4.6
   LMAXPAW     = -100 max onsite density
   LMAXMIX     =    2 max onsite mixed and CHGCAR
   VOSKOWN=      0    Vosko Wilk Nusair interpolation
   ROPT   =   -0.00050  -0.00050
 Ionic relaxation
   EDIFFG = 0.1E-02   stopping-criterion for IOM
   NSW    =      0    number of steps for IOM
   NBLOCK =      1;   KBLOCK =      1    inner block; outer block 
   IBRION =     -1    ionic relax: 0-MD 1-quasi-New 2-CG
   NFREE  =      0    steps in history (QN), initial steepest desc. (CG)
   ISIF   =      2    stress and relaxation
   IWAVPR =     10    prediction:  0-non 1-charg 2-wave 3-comb
   ISYM   =      2    0-nonsym 1-usesym 2-fastsym
   LCORR  =      T    Harris-Foulkes like correction to forces

   POTIM  = 0.5000    time-step for ionic-motion
   TEIN   =    0.0    initial temperature
   TEBEG  =    0.0;   TEEND  =   0.0 temperature during run
   SMASS  =  -3.00    Nose mass-parameter (am)
   estimated Nose-frequenzy (Omega)   =  0.10E-29 period in steps =****** mass=  -0.232E-26a.u.
   SCALEE = 1.0000    scale energy and forces
   NPACO  =    256;   APACO  = 16.0  distance and # of slots for P.C.
   PSTRESS=    0.0 pullay stress

  Mass of Ions in am
   POMASS =  58.69 32.07
  Ionic Valenz
   ZVAL   =  16.00  6.00
  Atomic Wigner-Seitz radii
   RWIGS  =  -1.00 -1.00
  virtual crystal weights 
   VCA    =   1.00  1.00
   NELECT =     792.0000    total number of electrons
   NUPDOWN=      -1.0000    fix difference up-down

 DOS related values:
   EMIN   =  10.00;   EMAX   =-10.00  energy-range for DOS
   EFERMI =   0.00
   ISMEAR =     0;   SIGMA  =   0.20  broadening in eV -4-tet -1-fermi 0-gaus

 Electronic relaxation 2 (details)
   IALGO  =     38    algorithm
   LDIAG  =      T    sub-space diagonalisation (order eigenvalues)
   LSUBROT=      F    optimize rotation matrix (better conditioning)
   TURBO    =      0    0=normal 1=particle mesh
   IRESTART =      0    0=no restart 2=restart with 2 vectors
   NREBOOT  =      0    no. of reboots
   NMIN     =      0    reboot dimension
   EREF     =   0.00    reference energy to select bands
   IMIX   =      4    mixing-type and parameters
     AMIX     =   0.40;   BMIX     =  1.00
     AMIX_MAG =   1.60;   BMIX_MAG =  1.00
     AMIN     =   0.10
     WC   =   100.;   INIMIX=   1;  MIXPRE=   1;  MAXMIX= -45

 Intra band minimization:
   WEIMIN = 0.0000     energy-eigenvalue tresh-hold
   EBREAK =  0.53E-07  absolut break condition
   DEPER  =   0.30     relativ break condition  

   TIME   =   0.40     timestep for ELM

  volume/ion in A,a.u.               =      27.29       184.17
  Fermi-wavevector in a.u.,A,eV,Ry     =   1.209289  2.285225 19.896891  1.462380
  Thomas-Fermi vector in A             =   2.344871
 
 Write flags
   LWAVE        =      F    write WAVECAR
   LDOWNSAMPLE  =      F    k-point downsampling of WAVECAR
   LCHARG       =      F    write CHGCAR
   LVTOT        =      F    write LOCPOT, total local potential
   LVHAR        =      F    write LOCPOT, Hartree potential only
   LELF         =      F    write electronic localiz. function (ELF)
   LORBIT       =      0    0 simple, 1 ext, 2 COOP (PROOUT), +10 PAW based schemes


 Dipole corrections
   LMONO  =      F    monopole corrections only (constant potential shift)
   LDIPOL =      F    correct potential (dipole corrections)
   IDIPOL =      0    1-x, 2-y, 3-z, 4-all directions 
   EPSILON=  1.0000000 bulk dielectric constant

 Exchange correlation treatment:
   GGA     =    --    GGA type
   LEXCH   =     8    internal setting for exchange type
   VOSKOWN=      0    Vosko Wilk Nusair interpolation
   LHFCALC =     F    Hartree Fock is set to
   LHFONE  =     F    Hartree Fock one center treatment
   AEXX    =    0.0000 exact exchange contribution

 Linear response parameters
   LEPSILON=     F    determine dielectric tensor
   LRPA    =     F    only Hartree local field effects (RPA)
   LNABLA  =     F    use nabla operator in PAW spheres
   LVEL    =     F    velocity operator in full k-point grid
   LINTERFAST=   F  fast interpolation
   KINTER  =     0    interpolate to denser k-point grid
   CSHIFT  =0.1000    complex shift for real part using Kramers Kronig
   OMEGAMAX=  -1.0    maximum frequency
   DEG_THRESHOLD= 0.2000000E-02 threshold for treating states as degnerate
   RTIME   =   -0.100 relaxation time in fs
  (WPLASMAI=    0.000 imaginary part of plasma frequency in eV, 0.658/RTIME)
   DFIELD  = 0.0000000 0.0000000 0.0000000 field for delta impulse in time
 
 Orbital magnetization related:
   ORBITALMAG=     F  switch on orbital magnetization
   LCHIMAG   =     F  perturbation theory with respect to B field
   DQ        =  0.001000  dq finite difference perturbation B field
   LLRAUG    =     F  two centre corrections for induced B field



--------------------------------------------------------------------------------------------------------


 Static calculation
 charge density and potential will be updated during run
 non-spin polarized calculation
 Variant of blocked Davidson
 Davidson routine will perform the subspace rotation
 perform sub-space diagonalisation
    after iterative eigenvector-optimisation
 modified Broyden-mixing scheme, WC =      100.0
 initial mixing is a Kerker type mixing with AMIX =  0.4000 and BMIX =      1.0000
 Hartree-type preconditioning will be used
 using additional bands           80
 real space projection scheme for non local part
 use partial core corrections
 calculate Harris-corrections to forces 
   (improved forces if not selfconsistent)
 use gradient corrections 
 use of overlap-Matrix (Vanderbilt PP)
 Gauss-broadening in eV      SIGMA  =   0.20


--------------------------------------------------------------------------------------------------------


  energy-cutoff  :      450.00
  volume of cell :     1964.98
      direct lattice vectors                 reciprocal lattice vectors
    10.079732985  0.000000000  0.000000000     0.099208977 -0.037612667  0.000000000
     3.573298043  9.425102554  0.000000000     0.000000000  0.106099641  0.000000000
     0.000000000  0.000000000 20.683503555     0.000000000  0.000000000  0.048347708

  length of vectors
    10.079732985 10.079732985 20.683503555     0.106099641  0.106099641  0.048347708


 
 k-points in units of 2pi/SCALE and weight: gamma-point-only calculation. no periodi
   0.00000000  0.00000000  0.00000000       1.000
 
 k-points in reciprocal lattice and weights: gamma-point-only calculation. no periodi
   0.00000000  0.00000000  0.00000000       1.000
 
 position of ions in fractional coordinates (direct lattice) 
   0.39705889  0.79495179  0.11816221
   0.54732740  0.64468328  0.24509923
   0.69759592  0.49441477  0.37203626
   0.11381506  0.41152895  0.16047455
   0.26408357  0.26126044  0.28741157
   0.41435209  0.11099193  0.41434860
   0.99400949  0.59528309  0.09405631
   0.09766287  0.78014750  0.44235814
   0.70845073  0.21392978  0.13786664
   0.83057123  0.02810612  0.20278689
   0.98083974  0.87783760  0.32972391
   0.36328943  0.55291011  0.10414781
   0.50762556  0.42017912  0.21156171
   0.65789407  0.26991061  0.33849873
   0.77882456  0.13657275  0.44680237
   0.07411322  0.18702480  0.12693702
   0.22438173  0.03675628  0.25387405
   0.37465024  0.88648777  0.38081107
   0.07342779  0.36325510  0.03988042
   0.09997124  0.52568288  0.41674423
   0.62471085  0.84739895  0.07868412
   0.79086939  0.80360196  0.16924937
   0.94113790  0.65333345  0.29618639
   0.02651315  0.15756562  0.41706488
   0.59114319  0.59386135  0.07150286
   0.73212972  0.45988096  0.17802418
   0.88239823  0.30961245  0.30496121
   0.29861738  0.22672664  0.09339950
   0.44888589  0.07645813  0.22033653
   0.59915440  0.92618961  0.34727355
   0.72762901  0.80298690  0.43866896
   0.01537355  0.84330380  0.13571184
   0.16564206  0.69303529  0.26264887
   0.31591057  0.54276678  0.38958589
   0.43317938  0.40304077  0.47673871
   0.76841803  0.00202740  0.07288245
   0.98846062  0.99589737  0.46930366
   0.58579929  0.40599939  0.10847175
   0.73606780  0.25573088  0.23540877
   0.88633632  0.10546237  0.36234580
   0.17369996  0.15163832  0.03819032
   0.30255546  0.02257655  0.15078409
   0.45282397  0.87230804  0.27772112
   0.59442809  0.72934153  0.38736755
   0.01931163  0.63915371  0.19309643
   0.16958015  0.48888520  0.32003346
   0.29915791  0.33731091  0.42453235
   0.86904312  0.78942223  0.06615941
   0.48239322  0.78141200  0.02781541
   0.63635413  0.69187455  0.15117717
   0.78662264  0.54160604  0.27811420
   0.90574650  0.37151713  0.39792798
   0.21451390  0.45261947  0.07619320
   0.35311030  0.30845172  0.19348951
   0.50337881  0.15818320  0.32042654
   0.64108698  0.02080541  0.43358343
   0.06986647  0.92502888  0.23580185
   0.22013498  0.77476037  0.36273888
   0.23666185  0.58506769  0.48138634
   0.91959796  0.07529739  0.10886483
   0.21256531  0.75949531  0.08834775
   0.35047896  0.64131972  0.19388260
   0.50074747  0.49105121  0.32081962
   0.63275021  0.34812127  0.43364190
   0.06723513  0.25789688  0.23619494
   0.21750365  0.10762837  0.36313196
   0.40677782  0.94926910  0.46922103
   0.91696662  0.40816539  0.10925791
   0.60635872  0.00510686  0.01476699
   0.63372279  0.02474256  0.15157025
   0.78399130  0.87447404  0.27850728
   0.93425982  0.72420553  0.40544430
 
 position of ions in cartesian coordinates  (Angst):
   6.84284727  7.49250216  2.44400841
   7.82055957  6.07620602  5.06951082
   8.79827187  4.65990987  7.69501320
   2.61774103  3.87870260  3.31917588
   3.59545332  2.46240645  5.94467827
   4.57316563  1.04611031  8.57018066
  12.14647412  5.61060418  1.94541404
   3.77211523  7.35297022  9.14951625
   7.90542910  2.01631013  2.85156513
   8.47236777  0.26490303  4.19434334
  13.02337811  8.27370944  6.81984575
   5.63757310  5.21123445  2.15414168
   6.61815533  3.96023131  4.37583732
   7.59586763  2.54393517  7.00133973
   8.33835870  1.28721218  9.24143842
   1.41533679  1.76272788  2.62550239
   2.39304909  0.34643175  5.25100480
   6.94405943  8.35523815  7.87650718
   2.03815129  3.42371657  0.82486678
   2.88610500  4.95461505  8.61973082
   9.32492755  7.98682197  1.62746320
  10.84326157  7.57403088  3.50066986
  11.82097387  6.15773473  6.12617225
   0.83027438  1.48507211  8.62636291
   8.08060911  5.59720416  1.47892962
   9.02296381  4.33442525  3.68216384
  10.00067611  2.91812910  6.30766623
   3.82014527  2.13692182  1.93182891
   4.79785756  0.72062568  4.55733130
   9.34886790  8.72943210  7.18283371
  10.20361770  7.56823391  9.07321098
   3.16833706  7.94822481  2.80699637
   4.14604937  6.53192867  5.43249877
   5.12376166  5.11563253  8.05800116
   5.80651725  3.79870059  9.86062684
   7.75269309  0.01910847  1.50746432
  13.52205718  9.38643481  9.70684400
   7.35545727  3.82658588  2.24357581
   8.33316957  2.41028974  4.86907821
   9.31088186  0.99399361  7.49458060
   2.29269818  1.42920673  0.78990960
   3.13035102  0.21278632  3.11874328
   7.68136137  8.22159274  5.74424567
   8.59783112  6.87411868  8.01211810
   2.47854282  6.02408930  3.99391074
   3.45625513  4.60779317  6.61941313
   4.22074425  3.17918989  8.78081629
  11.58056351  7.44038545  1.36840835
   7.65461280  7.36488827  0.57532008
   8.88655367  6.52098863  3.12687357
   9.86426598  5.10469248  5.75237598
  10.45722432  3.50158706  8.23054471
   3.77958715  4.26598493  1.57594239
   4.66144743  2.90718906  4.00204105
   5.63915973  1.49089292  6.62754344
   6.53632955  0.19609311  8.96802450
   4.00963923  8.71849205  4.87720851
   4.98735153  7.30219590  7.50271091
   4.47610950  5.51432298  9.95675597
   9.53836187  0.70968563  2.25170612
   4.85650467  7.15832115  1.82734108
   5.82436086  6.04450411  4.01017134
   6.80207315  4.62820798  6.63567375
   7.62189423  3.28107865  8.96923387
   1.59925462  2.43070455  4.88533882
   2.57696691  1.01440841  7.51084121
   7.49223322  8.94695862  9.70513484
  10.70127530  3.84700069  2.25983643
   6.13018230  0.04813271  0.30543308
   6.47616906  0.23320113  3.13500389
  11.02717939  8.24200754  5.76050627
  12.00489170  6.82571140  8.38600868
 


--------------------------------------------------------------------------------------------------------


 use parallel FFT for orbitals z direction half grid
 k-point  1 :   0.0000 0.0000 0.0000  plane waves:   21301

 maximum and minimum number of plane-waves per node :      3554     3548

 maximum number of plane-waves:     21301
 maximum index in each direction: 
   IXMAX=   17   IYMAX=   17   IZMAX=   35
   IXMIN=  -17   IYMIN=  -17   IZMIN=    0


 real space projection operators:
  total allocation   :      11160.03 KBytes
  max/ min on nodes  :       1867.11       1853.42


 parallel 3D FFT for wavefunctions:
    minimum data exchange during FFTs selected (reduces bandwidth)
 parallel 3D FFT for charge:
    minimum data exchange during FFTs selected (reduces bandwidth)


 total amount of memory used by VASP MPI-rank0    68409. kBytes
=======================================================================

   base      :      30000. kBytes
   nonlr-proj:       2294. kBytes
   fftplans  :       8265. kBytes
   grid      :      13942. kBytes
   one-center:         93. kBytes
   wavefun   :      13815. kBytes
 
     INWAV:  cpu time    0.0000: real time    0.0000
 Broyden mixing: mesh for mixing (old mesh)
   NGX = 35   NGY = 35   NGZ = 71
  (NGX  =108   NGY  =108   NGZ  =216)
  gives a total of  86975 points

 initial charge density was supplied:
 charge density of overlapping atoms calculated
 number of electron     792.0000000 magnetization 
 keeping initial charge density in first step


--------------------------------------------------------------------------------------------------------


 Maximum index for non-local projection operator          302
 Maximum index for augmentation-charges          468 (set IRDMAX)


--------------------------------------------------------------------------------------------------------


 First call to EWALD:  gamma=   0.142
 Maximum number of real-space cells 3x 3x 2
 Maximum number of reciprocal cells 2x 2x 4

    FEWALD:  cpu time    0.0050: real time    0.0050


--------------------------------------- Iteration      1(   1)  ---------------------------------------


    POTLOK:  cpu time    0.2563: real time    0.2573
    SETDIJ:  cpu time    0.0174: real time    0.0174
     EDDAV:  cpu time    6.8181: real time    6.8228
       DOS:  cpu time    0.0023: real time    0.0023
    --------------------------------------------
      LOOP:  cpu time    7.0943: real time    7.1000

 eigenvalue-minimisations  :  1160
 total energy-change (2. order) : 0.9925412E+04  (-0.5131017E+05)
 number of electron     792.0000000 magnetization 
 augmentation part      792.0000000 magnetization 

 Free energy of the ion-electron system (eV)
  ---------------------------------------------------
  alpha Z        PSCENC =      1893.09323658
  Ewald energy   TEWEN  =    220477.29606185
  -Hartree energ DENC   =   -342674.93640081
  -exchange      EXHF   =         0.00000000
  -V(xc)+E(xc)   XCENC  =      3680.03525953
  PAW double counting   =    112729.53333415  -117641.51188735
  entropy T*S    EENTRO =        -0.46735151
  eigenvalues    EBANDS =     -4540.23505671
  atomic energy  EATOM  =    136002.60505376
  Solvation  Ediel_sol  =         0.00000000
  ---------------------------------------------------
  free energy    TOTEN  =      9925.41224949 eV

  energy without entropy =     9925.87960100  energy(sigma->0) =     9925.64592524


--------------------------------------------------------------------------------------------------------




--------------------------------------- Iteration      1(   2)  ---------------------------------------


     EDDAV:  cpu time    6.1521: real time    6.1534
       DOS:  cpu time    0.0014: real time    0.0014
    --------------------------------------------
      LOOP:  cpu time    6.1534: real time    6.1547

 eigenvalue-minimisations  :  1012
 total energy-change (2. order) :-0.9325468E+04  (-0.8996663E+04)
 number of electron     792.0000000 magnetization 
 augmentation part      792.0000000 magnetization 

 Free energy of the ion-electron system (eV)
  ---------------------------------------------------
  alpha Z        PSCENC =      1893.09323658
  Ewald energy   TEWEN  =    220477.29606185
  -Hartree energ DENC   =   -342674.93640081
  -exchange      EXHF   =         0.00000000
  -V(xc)+E(xc)   XCENC  =      3680.03525953
  PAW double counting   =    112729.53333415  -117641.51188735
  entropy T*S    EENTRO =        -0.59430313
  eigenvalues    EBANDS =    -13865.57578498
  atomic energy  EATOM  =    136002.60505376
  Solvation  Ediel_sol  =         0.00000000
  ---------------------------------------------------
  free energy    TOTEN  =       599.94456961 eV

  energy without entropy =      600.53887273  energy(sigma->0) =      600.24172117


--------------------------------------------------------------------------------------------------------




--------------------------------------- Iteration      1(   3)  ---------------------------------------


     EDDAV:  cpu time    6.4897: real time    6.4905
       DOS:  cpu time    0.0012: real time    0.0012
    --------------------------------------------
      LOOP:  cpu time    6.4909: real time    6.4917

 eigenvalue-minimisations  :  1088
 total energy-change (2. order) :-0.9410567E+03  (-0.8981587E+03)
 number of electron     792.0000000 magnetization 
 augmentation part      792.0000000 magnetization 

 Free energy of the ion-electron system (eV)
  ---------------------------------------------------
  alpha Z        PSCENC =      1893.09323658
  Ewald energy   TEWEN  =    220477.29606185
  -Hartree energ DENC   =   -342674.93640081
  -exchange      EXHF   =         0.00000000
  -V(xc)+E(xc)   XCENC  =      3680.03525953
  PAW double counting   =    112729.53333415  -117641.51188735
  entropy T*S    EENTRO =        -0.98616151
  eigenvalues    EBANDS =    -14806.24058637
  atomic energy  EATOM  =    136002.60505376
  Solvation  Ediel_sol  =         0.00000000
  ---------------------------------------------------
  free energy    TOTEN  =      -341.11209018 eV

  energy without entropy =     -340.12592866  energy(sigma->0) =     -340.61900942


--------------------------------------------------------------------------------------------------------




--------------------------------------- Iteration      1(   4)  ---------------------------------------


     EDDAV:  cpu time    6.6582: real time    6.6598
       DOS:  cpu time    0.0011: real time    0.0011
    --------------------------------------------
      LOOP:  cpu time    6.6594: real time    6.6610

 eigenvalue-minimisations  :  1112
 total energy-change (2. order) :-0.5596904E+02  (-0.5537965E+02)
 number of electron     792.0000000 magnetization 
 augmentation part      792.0000000 magnetization 

 Free energy of the ion-electron system (eV)
  ---------------------------------------------------
  alpha Z        PSCENC =      1893.09323658
  Ewald energy   TEWEN  =    220477.29606185
  -Hartree energ DENC   =   -342674.93640081
  -exchange      EXHF   =         0.00000000
  -V(xc)+E(xc)   XCENC  =      3680.03525953
  PAW double counting   =    112729.53333415  -117641.51188735
  entropy T*S    EENTRO =        -1.02308790
  eigenvalues    EBANDS =    -14862.17270243
  atomic energy  EATOM  =    136002.60505376
  Solvation  Ediel_sol  =         0.00000000
  ---------------------------------------------------
  free energy    TOTEN  =      -397.08113262 eV

  energy without entropy =     -396.05804472  energy(sigma->0) =     -396.56958867


--------------------------------------------------------------------------------------------------------




--------------------------------------- Iteration      1(   5)  ---------------------------------------


     EDDAV:  cpu time    7.4997: real time    7.5014
       DOS:  cpu time    0.0012: real time    0.0012
    CHARGE:  cpu time    0.2150: real time    0.2150
    MIXING:  cpu time    0.0078: real time    0.0078
    --------------------------------------------
      LOOP:  cpu time    7.7239: real time    7.7255

 eigenvalue-minimisations  :  1264
 total energy-change (2. order) :-0.2077774E+01  (-0.2074987E+01)
 number of electron     791.9999922 magnetization 
 augmentation part      287.0240256 magnetization 

 Broyden mixing:
  rms(total) = 0.95585E+01    rms(broyden)= 0.95491E+01
  rms(prec ) = 0.98970E+01
  weight for this iteration     100.00

 Free energy of the ion-electron system (eV)
  ---------------------------------------------------
  alpha Z        PSCENC =      1893.09323658
  Ewald energy   TEWEN  =    220477.29606185
  -Hartree energ DENC   =   -342674.93640081
  -exchange      EXHF   =         0.00000000
  -V(xc)+E(xc)   XCENC  =      3680.03525953
  PAW double counting   =    112729.53333415  -117641.51188735
  entropy T*S    EENTRO =        -1.02454024
  eigenvalues    EBANDS =    -14864.24902455
  atomic energy  EATOM  =    136002.60505376
  Solvation  Ediel_sol  =         0.00000000
  ---------------------------------------------------
  free energy    TOTEN  =      -399.15890708 eV

  energy without entropy =     -398.13436684  energy(sigma->0) =     -398.64663696


--------------------------------------------------------------------------------------------------------




--------------------------------------- Iteration      1(   6)  ---------------------------------------


    POTLOK:  cpu time    0.2438: real time    0.2438
    SETDIJ:  cpu time    0.0172: real time    0.0172
     EDDAV:  cpu time    6.9914: real time    6.9928
       DOS:  cpu time    0.0012: real time    0.0012
    CHARGE:  cpu time    0.2049: real time    0.2049
    MIXING:  cpu time    0.0086: real time    0.0086
    --------------------------------------------
      LOOP:  cpu time    7.4672: real time    7.4687

 eigenvalue-minimisations  :  1200
 total energy-change (2. order) :-0.6731550E+02  (-0.9158059E+02)
 number of electron     791.9999930 magnetization 
 augmentation part      344.3224703 magnetization 

 Broyden mixing:
  rms(total) = 0.15731E+02    rms(broyden)= 0.15728E+02
  rms(prec ) = 0.16399E+02
  weight for this iteration     100.00

 eigenvalues of (default mixing * dielectric matrix)
  average eigenvalue GAMMA=   0.2434
  0.2434

 Free energy of the ion-electron system (eV)
  ---------------------------------------------------
  alpha Z        PSCENC =      1893.09323658
  Ewald energy   TEWEN  =    220477.29606185
  -Hartree energ DENC   =   -339997.76606628
  -exchange      EXHF   =         0.00000000
  -V(xc)+E(xc)   XCENC  =      3606.85777395
  PAW double counting   =    117427.32715913  -122110.68086904
  entropy T*S    EENTRO =        -0.98138104
  eigenvalues    EBANDS =    -17764.22537710
  atomic energy  EATOM  =    136002.60505376
  Solvation  Ediel_sol  =         0.00000000
  ---------------------------------------------------
  free energy    TOTEN  =      -466.47440820 eV

  energy without entropy =     -465.49302715  energy(sigma->0) =     -465.98371768


--------------------------------------------------------------------------------------------------------




--------------------------------------- Iteration      1(   7)  ---------------------------------------


    POTLOK:  cpu time    0.2419: real time    0.2419
    SETDIJ:  cpu time    0.0171: real time    0.0172
     EDDAV:  cpu time    6.5705: real time    6.5718
       DOS:  cpu time    0.0011: real time    0.0011
    CHARGE:  cpu time    0.4254: real time    0.4254
    MIXING:  cpu time    0.0176: real time    0.0177
    --------------------------------------------
      LOOP:  cpu time    7.2736: real time    7.2750

 eigenvalue-minimisations  :  1088
 total energy-change (2. order) : 0.9216552E+02  (-0.2036598E+02)
 number of electron     791.9999913 magnetization 
 augmentation part      331.3777182 magnetization 

 Broyden mixing:
  rms(total) = 0.74635E+01    rms(broyden)= 0.74622E+01
  rms(prec ) = 0.77657E+01
  weight for this iteration     100.00

 eigenvalues of (default mixing * dielectric matrix)
  average eigenvalue GAMMA=   0.4421
  0.4421  0.4421

 Free energy of the ion-electron system (eV)
  ---------------------------------------------------
  alpha Z        PSCENC =      1893.09323658
  Ewald energy   TEWEN  =    220477.29606185
  -Hartree energ DENC   =   -341096.92197198
  -exchange      EXHF   =         0.00000000
  -V(xc)+E(xc)   XCENC  =      3631.25011409
  PAW double counting   =    121685.38713659  -126500.63241600
  entropy T*S    EENTRO =        -0.87270812
  eigenvalues    EBANDS =    -16465.51339790
  atomic energy  EATOM  =    136002.60505376
  Solvation  Ediel_sol  =         0.00000000
  ---------------------------------------------------
  free energy    TOTEN  =      -374.30889113 eV

  energy without entropy =     -373.43618301  energy(sigma->0) =     -373.87253707


--------------------------------------------------------------------------------------------------------




--------------------------------------- Iteration      1(   8)  ---------------------------------------


    POTLOK:  cpu time    0.2594: real time    0.2594
    SETDIJ:  cpu time    0.0172: real time    0.0172
     EDDAV:  cpu time    7.5367: real time    7.5383
       DOS:  cpu time    0.0012: real time    0.0012
    CHARGE:  cpu time    0.2055: real time    0.2055
    MIXING:  cpu time    0.0093: real time    0.0093
    --------------------------------------------
      LOOP:  cpu time    8.0293: real time    8.0309

 eigenvalue-minimisations  :  1320
 total energy-change (2. order) :-0.4350224E+02  (-0.2144304E+02)
 number of electron     791.9999948 magnetization 
 augmentation part      308.0404823 magnetization 

 Broyden mixing:
  rms(total) = 0.11808E+02    rms(broyden)= 0.11805E+02
  rms(prec ) = 0.14155E+02
  weight for this iteration     100.00

 eigenvalues of (default mixing * dielectric matrix)
  average eigenvalue GAMMA=   0.4868
  0.7986  0.4681  0.1939

 Free energy of the ion-electron system (eV)
  ---------------------------------------------------
  alpha Z        PSCENC =      1893.09323658
  Ewald energy   TEWEN  =    220477.29606185
  -Hartree energ DENC   =   -341820.95367833
  -exchange      EXHF   =         0.00000000
  -V(xc)+E(xc)   XCENC  =      3654.76782889
  PAW double counting   =    127500.85675667  -132442.11089361
  entropy T*S    EENTRO =        -1.05639591
  eigenvalues    EBANDS =    -15682.30910019
  atomic energy  EATOM  =    136002.60505376
  Solvation  Ediel_sol  =         0.00000000
  ---------------------------------------------------
  free energy    TOTEN  =      -417.81113029 eV

  energy without entropy =     -416.75473438  energy(sigma->0) =     -417.28293233


--------------------------------------------------------------------------------------------------------




--------------------------------------- Iteration      1(   9)  ---------------------------------------


    POTLOK:  cpu time    0.2432: real time    0.2432
    SETDIJ:  cpu time    0.0172: real time    0.0172
     EDDAV:  cpu time    6.8970: real time    6.8984
       DOS:  cpu time    0.0011: real time    0.0011
    CHARGE:  cpu time    0.2066: real time    0.2066
    MIXING:  cpu time    0.0097: real time    0.0097
    --------------------------------------------
      LOOP:  cpu time    7.3748: real time    7.3762

 eigenvalue-minimisations  :  1184
 total energy-change (2. order) : 0.2624639E+01  (-0.1936085E+02)
 number of electron     791.9999928 magnetization 
 augmentation part      304.2766685 magnetization 

 Broyden mixing:
  rms(total) = 0.11190E+02    rms(broyden)= 0.11184E+02
  rms(prec ) = 0.13799E+02
  weight for this iteration     100.00

 eigenvalues of (default mixing * dielectric matrix)
  average eigenvalue GAMMA=   0.5351
  1.3418  0.3424  0.3424  0.1137

 Free energy of the ion-electron system (eV)
  ---------------------------------------------------
  alpha Z        PSCENC =      1893.09323658
  Ewald energy   TEWEN  =    220477.29606185
  -Hartree energ DENC   =   -341909.65988080
  -exchange      EXHF   =         0.00000000
  -V(xc)+E(xc)   XCENC  =      3654.84261362
  PAW double counting   =    131549.13786503  -136518.61300498
  entropy T*S    EENTRO =        -0.92994435
  eigenvalues    EBANDS =    -15562.95849208
  atomic energy  EATOM  =    136002.60505376
  Solvation  Ediel_sol  =         0.00000000
  ---------------------------------------------------
  free energy    TOTEN  =      -415.18649136 eV

  energy without entropy =     -414.25654701  energy(sigma->0) =     -414.72151919


--------------------------------------------------------------------------------------------------------




--------------------------------------- Iteration      1(  10)  ---------------------------------------


    POTLOK:  cpu time    0.2378: real time    0.2379
    SETDIJ:  cpu time    0.0171: real time    0.0171
     EDDAV:  cpu time    7.7266: real time    7.7279
       DOS:  cpu time    0.0012: real time    0.0012
    CHARGE:  cpu time    0.2088: real time    0.2088
    MIXING:  cpu time    0.0095: real time    0.0095
    --------------------------------------------
      LOOP:  cpu time    8.2010: real time    8.2023

 eigenvalue-minimisations  :  1312
 total energy-change (2. order) :-0.1754159E+01  (-0.1267608E+02)
 number of electron     791.9999915 magnetization 
 augmentation part      302.8261551 magnetization 

 Broyden mixing:
  rms(total) = 0.10979E+02    rms(broyden)= 0.10975E+02
  rms(prec ) = 0.12432E+02
  weight for this iteration     100.00

 eigenvalues of (default mixing * dielectric matrix)
  average eigenvalue GAMMA=   0.5525
  1.7862  0.3714  0.3714  0.1254  0.1080

 Free energy of the ion-electron system (eV)
  ---------------------------------------------------
  alpha Z        PSCENC =      1893.09323658
  Ewald energy   TEWEN  =    220477.29606185
  -Hartree energ DENC   =   -341992.90410852
  -exchange      EXHF   =         0.00000000
  -V(xc)+E(xc)   XCENC  =      3652.16342872
  PAW double counting   =    135823.66138809  -140818.95493773
  entropy T*S    EENTRO =        -1.15067026
  eigenvalues    EBANDS =    -15452.75010308
  atomic energy  EATOM  =    136002.60505376
  Solvation  Ediel_sol  =         0.00000000
  ---------------------------------------------------
  free energy    TOTEN  =      -416.94065058 eV

  energy without entropy =     -415.78998032  energy(sigma->0) =     -416.36531545


--------------------------------------------------------------------------------------------------------




--------------------------------------- Iteration      1(  11)  ---------------------------------------


    POTLOK:  cpu time    0.2440: real time    0.2443
    SETDIJ:  cpu time    0.0185: real time    0.0185
     EDDAV:  cpu time    7.2701: real time    7.2711
       DOS:  cpu time    0.0013: real time    0.0013
    CHARGE:  cpu time    0.2160: real time    0.2160
    MIXING:  cpu time    0.0100: real time    0.0100
    --------------------------------------------
      LOOP:  cpu time    7.7600: real time    7.7612

 eigenvalue-minimisations  :  1272
 total energy-change (2. order) : 0.2422986E+02  (-0.7709600E+01)
 number of electron     791.9999919 magnetization 
 augmentation part      308.6004928 magnetization 

 Broyden mixing:
  rms(total) = 0.70834E+01    rms(broyden)= 0.70801E+01
  rms(prec ) = 0.76990E+01
  weight for this iteration     100.00

 eigenvalues of (default mixing * dielectric matrix)
  average eigenvalue GAMMA=   0.5535
  2.0973  0.3956  0.3956  0.1668  0.1668  0.0989

 Free energy of the ion-electron system (eV)
  ---------------------------------------------------
  alpha Z        PSCENC =      1893.09323658
  Ewald energy   TEWEN  =    220477.29606185
  -Hartree energ DENC   =   -341823.05516703
  -exchange      EXHF   =         0.00000000
  -V(xc)+E(xc)   XCENC  =      3650.28034889
  PAW double counting   =    139597.67916523  -144619.41535645
  entropy T*S    EENTRO =        -0.97689144
  eigenvalues    EBANDS =    -15570.21724617
  atomic energy  EATOM  =    136002.60505376
  Solvation  Ediel_sol  =         0.00000000
  ---------------------------------------------------
  free energy    TOTEN  =      -392.71079478 eV

  energy without entropy =     -391.73390334  energy(sigma->0) =     -392.22234906


--------------------------------------------------------------------------------------------------------




--------------------------------------- Iteration      1(  12)  ---------------------------------------


    POTLOK:  cpu time    0.2421: real time    0.2423
    SETDIJ:  cpu time    0.0172: real time    0.0172
     EDDAV:  cpu time    7.5331: real time    7.5342
       DOS:  cpu time    0.0013: real time    0.0013
    CHARGE:  cpu time    0.2247: real time    0.2247
    MIXING:  cpu time    0.0120: real time    0.0120
    --------------------------------------------
      LOOP:  cpu time    8.0305: real time    8.0317

 eigenvalue-minimisations  :  1264
 total energy-change (2. order) : 0.1978221E+02  (-0.5187744E+01)
 number of electron     791.9999909 magnetization 
 augmentation part      311.9593502 magnetization 

 Broyden mixing:
  rms(total) = 0.46970E+01    rms(broyden)= 0.46920E+01
  rms(prec ) = 0.52520E+01
  weight for this iteration     100.00

 eigenvalues of (default mixing * dielectric matrix)
  average eigenvalue GAMMA=   0.5589
  2.2760  0.3769  0.3769  0.3249  0.3249  0.1337  0.0989

 Free energy of the ion-electron system (eV)
  ---------------------------------------------------
  alpha Z        PSCENC =      1893.09323658
  Ewald energy   TEWEN  =    220477.29606185
  -Hartree energ DENC   =   -341773.31366408
  -exchange      EXHF   =         0.00000000
  -V(xc)+E(xc)   XCENC  =      3648.63240778
  PAW double counting   =    142091.25445088  -147127.37780719
  entropy T*S    EENTRO =        -0.97800081
  eigenvalues    EBANDS =    -15584.14032703
  atomic energy  EATOM  =    136002.60505376
  Solvation  Ediel_sol  =         0.00000000
  ---------------------------------------------------
  free energy    TOTEN  =      -372.92858826 eV

  energy without entropy =     -371.95058744  energy(sigma->0) =     -372.43958785


--------------------------------------------------------------------------------------------------------




--------------------------------------- Iteration      1(  13)  ---------------------------------------


    POTLOK:  cpu time    0.2455: real time    0.2457
    SETDIJ:  cpu time    0.0171: real time    0.0171
     EDDAV:  cpu time    7.3809: real time    7.3822
       DOS:  cpu time    0.0015: real time    0.0015
    CHARGE:  cpu time    0.2170: real time    0.2170
    MIXING:  cpu time    0.0116: real time    0.0115
    --------------------------------------------
      LOOP:  cpu time    7.8736: real time    7.8751

 eigenvalue-minimisations  :  1296
 total energy-change (2. order) :-0.1706070E+01  (-0.4931679E+01)
 number of electron     791.9999911 magnetization 
 augmentation part      311.5707138 magnetization 

 Broyden mixing:
  rms(total) = 0.63920E+01    rms(broyden)= 0.63890E+01
  rms(prec ) = 0.71569E+01
  weight for this iteration     100.00

 eigenvalues of (default mixing * dielectric matrix)
  average eigenvalue GAMMA=   0.5339
  2.3397  0.4589  0.3849  0.3849  0.3277  0.1372  0.1372  0.1009

 Free energy of the ion-electron system (eV)
  ---------------------------------------------------
  alpha Z        PSCENC =      1893.09323658
  Ewald energy   TEWEN  =    220477.29606185
  -Hartree energ DENC   =   -341783.43516941
  -exchange      EXHF   =         0.00000000
  -V(xc)+E(xc)   XCENC  =      3647.70473269
  PAW double counting   =    142970.09822607  -148005.44652598
  entropy T*S    EENTRO =        -0.95992911
  eigenvalues    EBANDS =    -15575.59034432
  atomic energy  EATOM  =    136002.60505376
  Solvation  Ediel_sol  =         0.00000000
  ---------------------------------------------------
  free energy    TOTEN  =      -374.63465788 eV

  energy without entropy =     -373.67472877  energy(sigma->0) =     -374.15469333


--------------------------------------------------------------------------------------------------------




--------------------------------------- Iteration      1(  14)  ---------------------------------------


    POTLOK:  cpu time    0.2424: real time    0.2424
    SETDIJ:  cpu time    0.0171: real time    0.0171
     EDDAV:  cpu time    7.6971: real time    7.6985
       DOS:  cpu time    0.0013: real time    0.0013
    CHARGE:  cpu time    0.2165: real time    0.2165
    MIXING:  cpu time    0.0114: real time    0.0114
    --------------------------------------------
      LOOP:  cpu time    8.1859: real time    8.1873

 eigenvalue-minimisations  :  1312
 total energy-change (2. order) : 0.1010930E+02  (-0.3279140E+01)
 number of electron     791.9999917 magnetization 
 augmentation part      312.9711577 magnetization 

 Broyden mixing:
  rms(total) = 0.39524E+01    rms(broyden)= 0.39505E+01
  rms(prec ) = 0.44166E+01
  weight for this iteration     100.00

 eigenvalues of (default mixing * dielectric matrix)
  average eigenvalue GAMMA=   0.4955
  2.3020  0.4030  0.4030  0.4151  0.4151  0.1480  0.1480  0.0994  0.1261

 Free energy of the ion-electron system (eV)
  ---------------------------------------------------
  alpha Z        PSCENC =      1893.09323658
  Ewald energy   TEWEN  =    220477.29606185
  -Hartree energ DENC   =   -341781.23561900
  -exchange      EXHF   =         0.00000000
  -V(xc)+E(xc)   XCENC  =      3647.72090429
  PAW double counting   =    143099.91389921  -148133.96164842
  entropy T*S    EENTRO =        -0.96793277
  eigenvalues    EBANDS =    -15568.98931792
  atomic energy  EATOM  =    136002.60505376
  Solvation  Ediel_sol  =         0.00000000
  ---------------------------------------------------
  free energy    TOTEN  =      -364.52536242 eV

  energy without entropy =     -363.55742965  energy(sigma->0) =     -364.04139603


--------------------------------------------------------------------------------------------------------




--------------------------------------- Iteration      1(  15)  ---------------------------------------


    POTLOK:  cpu time    0.2444: real time    0.2444
    SETDIJ:  cpu time    0.0172: real time    0.0172
     EDDAV:  cpu time    7.3488: real time    7.3506
       DOS:  cpu time    0.0013: real time    0.0013
    CHARGE:  cpu time    0.2169: real time    0.2170
    MIXING:  cpu time    0.0124: real time    0.0124
    --------------------------------------------
      LOOP:  cpu time    7.8411: real time    7.8429

 eigenvalue-minimisations  :  1280
 total energy-change (2. order) : 0.7882150E+01  (-0.1002591E+01)
 number of electron     791.9999912 magnetization 
 augmentation part      313.6599222 magnetization 

 Broyden mixing:
  rms(total) = 0.23727E+01    rms(broyden)= 0.23717E+01
  rms(prec ) = 0.26547E+01
  weight for this iteration     100.00

 eigenvalues of (default mixing * dielectric matrix)
  average eigenvalue GAMMA=   0.4676
  2.2042  0.4554  0.4554  0.3957  0.3957  0.2000  0.2000  0.1000  0.1350  0.1350

 Free energy of the ion-electron system (eV)
  ---------------------------------------------------
  alpha Z        PSCENC =      1893.09323658
  Ewald energy   TEWEN  =    220477.29606185
  -Hartree energ DENC   =   -341785.03560806
  -exchange      EXHF   =         0.00000000
  -V(xc)+E(xc)   XCENC  =      3648.21176858
  PAW double counting   =    142795.79933198  -147828.22801141
  entropy T*S    EENTRO =        -0.94059755
  eigenvalues    EBANDS =    -15559.44444813
  atomic energy  EATOM  =    136002.60505376
  Solvation  Ediel_sol  =         0.00000000
  ---------------------------------------------------
  free energy    TOTEN  =      -356.64321239 eV

  energy without entropy =     -355.70261484  energy(sigma->0) =     -356.17291362


--------------------------------------------------------------------------------------------------------




--------------------------------------- Iteration      1(  16)  ---------------------------------------


    POTLOK:  cpu time    0.2485: real time    0.2485
    SETDIJ:  cpu time    0.0174: real time    0.0174
     EDDAV:  cpu time    7.7745: real time    7.7759
       DOS:  cpu time    0.0012: real time    0.0012
    CHARGE:  cpu time    0.2133: real time    0.2133
    MIXING:  cpu time    0.0122: real time    0.0122
    --------------------------------------------
      LOOP:  cpu time    8.2672: real time    8.2686

 eigenvalue-minimisations  :  1320
 total energy-change (2. order) : 0.1375402E+01  (-0.3392841E+00)
 number of electron     791.9999917 magnetization 
 augmentation part      312.9312957 magnetization 

 Broyden mixing:
  rms(total) = 0.22056E+01    rms(broyden)= 0.22054E+01
  rms(prec ) = 0.24683E+01
  weight for this iteration     100.00

 eigenvalues of (default mixing * dielectric matrix)
  average eigenvalue GAMMA=   0.4315
  2.1872  0.4492  0.4492  0.3835  0.3835  0.2100  0.2100  0.1328  0.1328  0.0995
  0.1093

 Free energy of the ion-electron system (eV)
  ---------------------------------------------------
  alpha Z        PSCENC =      1893.09323658
  Ewald energy   TEWEN  =    220477.29606185
  -Hartree energ DENC   =   -341808.59615668
  -exchange      EXHF   =         0.00000000
  -V(xc)+E(xc)   XCENC  =      3648.95842243
  PAW double counting   =    142271.70947693  -147301.30479590
  entropy T*S    EENTRO =        -0.96193186
  eigenvalues    EBANDS =    -15538.06717786
  atomic energy  EATOM  =    136002.60505376
  Solvation  Ediel_sol  =         0.00000000
  ---------------------------------------------------
  free energy    TOTEN  =      -355.26781075 eV

  energy without entropy =     -354.30587888  energy(sigma->0) =     -354.78684482


--------------------------------------------------------------------------------------------------------




--------------------------------------- Iteration      1(  17)  ---------------------------------------


    POTLOK:  cpu time    0.2428: real time    0.2428
    SETDIJ:  cpu time    0.0172: real time    0.0172
     EDDAV:  cpu time    6.3400: real time    6.3410
       DOS:  cpu time    0.0011: real time    0.0011
    CHARGE:  cpu time    0.2116: real time    0.2116
    MIXING:  cpu time    0.0124: real time    0.0124
    --------------------------------------------
      LOOP:  cpu time    6.8251: real time    6.8262

 eigenvalue-minimisations  :  1056
 total energy-change (2. order) : 0.3446471E+00  (-0.7019382E-01)
 number of electron     791.9999916 magnetization 
 augmentation part      312.7474624 magnetization 

 Broyden mixing:
  rms(total) = 0.20864E+01    rms(broyden)= 0.20864E+01
  rms(prec ) = 0.23339E+01
  weight for this iteration     100.00

 eigenvalues of (default mixing * dielectric matrix)
  average eigenvalue GAMMA=   0.4241
  2.1803  0.3368  0.3368  0.4202  0.4202  0.3566  0.3566  0.1595  0.1595  0.1000
  0.1314  0.1314

 Free energy of the ion-electron system (eV)
  ---------------------------------------------------
  alpha Z        PSCENC =      1893.09323658
  Ewald energy   TEWEN  =    220477.29606185
  -Hartree energ DENC   =   -341813.39083717
  -exchange      EXHF   =         0.00000000
  -V(xc)+E(xc)   XCENC  =      3649.13347869
  PAW double counting   =    142137.72583808  -147166.60677387
  entropy T*S    EENTRO =        -0.95302435
  eigenvalues    EBANDS =    -15533.82619722
  atomic energy  EATOM  =    136002.60505376
  Solvation  Ediel_sol  =         0.00000000
  ---------------------------------------------------
  free energy    TOTEN  =      -354.92316366 eV

  energy without entropy =     -353.97013931  energy(sigma->0) =     -354.44665148


--------------------------------------------------------------------------------------------------------




--------------------------------------- Iteration      1(  18)  ---------------------------------------


    POTLOK:  cpu time    0.2481: real time    0.2484
    SETDIJ:  cpu time    0.0171: real time    0.0171
     EDDAV:  cpu time    6.7138: real time    6.7151
       DOS:  cpu time    0.0011: real time    0.0011
    CHARGE:  cpu time    0.2127: real time    0.2127
    MIXING:  cpu time    0.0125: real time    0.0125
    --------------------------------------------
      LOOP:  cpu time    7.2053: real time    7.2070

 eigenvalue-minimisations  :  1144
 total energy-change (2. order) : 0.1986087E+00  (-0.9006968E-02)
 number of electron     791.9999915 magnetization 
 augmentation part      312.6526636 magnetization 

 Broyden mixing:
  rms(total) = 0.20347E+01    rms(broyden)= 0.20347E+01
  rms(prec ) = 0.22815E+01
  weight for this iteration     100.00

 eigenvalues of (default mixing * dielectric matrix)
  average eigenvalue GAMMA=   0.4524
  2.1776  0.5708  0.5708  0.4442  0.4442  0.3740  0.3740  0.2073  0.2073  0.0999
  0.1412  0.1412  0.1281

 Free energy of the ion-electron system (eV)
  ---------------------------------------------------
  alpha Z        PSCENC =      1893.09323658
  Ewald energy   TEWEN  =    220477.29606185
  -Hartree energ DENC   =   -341817.97721579
  -exchange      EXHF   =         0.00000000
  -V(xc)+E(xc)   XCENC  =      3649.23249159
  PAW double counting   =    141994.03826390  -147021.66982537
  entropy T*S    EENTRO =        -0.96009296
  eigenvalues    EBANDS =    -15530.38252849
  atomic energy  EATOM  =    136002.60505376
  Solvation  Ediel_sol  =         0.00000000
  ---------------------------------------------------
  free energy    TOTEN  =      -354.72455492 eV

  energy without entropy =     -353.76446197  energy(sigma->0) =     -354.24450844


--------------------------------------------------------------------------------------------------------




--------------------------------------- Iteration      1(  19)  ---------------------------------------


    POTLOK:  cpu time    0.2451: real time    0.2451
    SETDIJ:  cpu time    0.0171: real time    0.0171
     EDDAV:  cpu time    7.9914: real time    7.9931
       DOS:  cpu time    0.0011: real time    0.0011
    CHARGE:  cpu time    0.2102: real time    0.2102
    MIXING:  cpu time    0.0132: real time    0.0132
    --------------------------------------------
      LOOP:  cpu time    8.4781: real time    8.4798

 eigenvalue-minimisations  :  1376
 total energy-change (2. order) : 0.4152912E+00  (-0.2299284E-01)
 number of electron     791.9999918 magnetization 
 augmentation part      312.5921179 magnetization 

 Broyden mixing:
  rms(total) = 0.19939E+01    rms(broyden)= 0.19939E+01
  rms(prec ) = 0.22322E+01
  weight for this iteration     100.00

 eigenvalues of (default mixing * dielectric matrix)
  average eigenvalue GAMMA=   0.5221
  2.1881  1.0699  1.0699  0.5076  0.5076  0.4195  0.4195  0.2283  0.2283  0.0999
  0.1511  0.1511  0.1342  0.1342

 Free energy of the ion-electron system (eV)
  ---------------------------------------------------
  alpha Z        PSCENC =      1893.09323658
  Ewald energy   TEWEN  =    220477.29606185
  -Hartree energ DENC   =   -341823.59759933
  -exchange      EXHF   =         0.00000000
  -V(xc)+E(xc)   XCENC  =      3649.33248341
  PAW double counting   =    141696.83200338  -146721.23622541
  entropy T*S    EENTRO =        -0.95118697
  eigenvalues    EBANDS =    -15527.68309103
  atomic energy  EATOM  =    136002.60505376
  Solvation  Ediel_sol  =         0.00000000
  ---------------------------------------------------
  free energy    TOTEN  =      -354.30926377 eV

  energy without entropy =     -353.35807680  energy(sigma->0) =     -353.83367029


--------------------------------------------------------------------------------------------------------




--------------------------------------- Iteration      1(  20)  ---------------------------------------


    POTLOK:  cpu time    0.2439: real time    0.2439
    SETDIJ:  cpu time    0.0171: real time    0.0171
     EDDAV:  cpu time    7.7053: real time    7.7068
       DOS:  cpu time    0.0012: real time    0.0012
    CHARGE:  cpu time    0.2239: real time    0.2239
    MIXING:  cpu time    0.0138: real time    0.0138
    --------------------------------------------
      LOOP:  cpu time    8.2052: real time    8.2067

 eigenvalue-minimisations  :  1360
 total energy-change (2. order) : 0.1609256E+01  (-0.9495779E-01)
 number of electron     791.9999918 magnetization 
 augmentation part      312.5238628 magnetization 

 Broyden mixing:
  rms(total) = 0.16879E+01    rms(broyden)= 0.16878E+01
  rms(prec ) = 0.18793E+01
  weight for this iteration     100.00

 eigenvalues of (default mixing * dielectric matrix)
  average eigenvalue GAMMA=   0.5578
  2.1725  1.4528  1.4528  0.5525  0.5525  0.4231  0.4231  0.2428  0.2428  0.1711
  0.1711  0.0999  0.1409  0.1409  0.1289

 Free energy of the ion-electron system (eV)
  ---------------------------------------------------
  alpha Z        PSCENC =      1893.09323658
  Ewald energy   TEWEN  =    220477.29606185
  -Hartree energ DENC   =   -341844.77550421
  -exchange      EXHF   =         0.00000000
  -V(xc)+E(xc)   XCENC  =      3649.64685132
  PAW double counting   =    140762.38512487  -145775.98883187
  entropy T*S    EENTRO =        -0.93188389
  eigenvalues    EBANDS =    -15516.03011649
  atomic energy  EATOM  =    136002.60505376
  Solvation  Ediel_sol  =         0.00000000
  ---------------------------------------------------
  free energy    TOTEN  =      -352.70000807 eV

  energy without entropy =     -351.76812419  energy(sigma->0) =     -352.23406613


--------------------------------------------------------------------------------------------------------




--------------------------------------- Iteration      1(  21)  ---------------------------------------


    POTLOK:  cpu time    0.2523: real time    0.2523
    SETDIJ:  cpu time    0.0172: real time    0.0172
     EDDAV:  cpu time    7.7623: real time    7.7702
       DOS:  cpu time    0.0014: real time    0.0014
    CHARGE:  cpu time    0.2172: real time    0.2172
    MIXING:  cpu time    0.0142: real time    0.0142
    --------------------------------------------
      LOOP:  cpu time    8.2646: real time    8.2725

 eigenvalue-minimisations  :  1328
 total energy-change (2. order) : 0.1666960E+01  (-0.1954370E+00)
 number of electron     791.9999922 magnetization 
 augmentation part      312.2213390 magnetization 

 Broyden mixing:
  rms(total) = 0.10258E+01    rms(broyden)= 0.10254E+01
  rms(prec ) = 0.11091E+01
  weight for this iteration     100.00

 eigenvalues of (default mixing * dielectric matrix)
  average eigenvalue GAMMA=   0.5435
  2.1137  1.5520  1.5520  0.5569  0.5569  0.4098  0.4098  0.2330  0.2330  0.2072
  0.2072  0.0999  0.1471  0.1471  0.1353  0.1353

 Free energy of the ion-electron system (eV)
  ---------------------------------------------------
  alpha Z        PSCENC =      1893.09323658
  Ewald energy   TEWEN  =    220477.29606185
  -Hartree energ DENC   =   -341882.35011755
  -exchange      EXHF   =         0.00000000
  -V(xc)+E(xc)   XCENC  =      3650.29022368
  PAW double counting   =    139349.02717897  -144346.43095136
  entropy T*S    EENTRO =        -0.98098872
  eigenvalues    EBANDS =    -15493.58274539
  atomic energy  EATOM  =    136002.60505376
  Solvation  Ediel_sol  =         0.00000000
  ---------------------------------------------------
  free energy    TOTEN  =      -351.03304818 eV

  energy without entropy =     -350.05205946  energy(sigma->0) =     -350.54255382


--------------------------------------------------------------------------------------------------------




--------------------------------------- Iteration      1(  22)  ---------------------------------------


    POTLOK:  cpu time    0.2475: real time    0.2475
    SETDIJ:  cpu time    0.0171: real time    0.0171
     EDDAV:  cpu time    7.5773: real time    7.5819
       DOS:  cpu time    0.0011: real time    0.0011
    CHARGE:  cpu time    0.2127: real time    0.2127
    MIXING:  cpu time    0.0148: real time    0.0148
    --------------------------------------------
      LOOP:  cpu time    8.0705: real time    8.0751

 eigenvalue-minimisations  :  1312
 total energy-change (2. order) : 0.1884386E+00  (-0.9960363E-01)
 number of electron     791.9999923 magnetization 
 augmentation part      311.9080833 magnetization 

 Broyden mixing:
  rms(total) = 0.79328E+00    rms(broyden)= 0.79310E+00
  rms(prec ) = 0.83553E+00
  weight for this iteration     100.00

 eigenvalues of (default mixing * dielectric matrix)
  average eigenvalue GAMMA=   0.5189
  2.0991  1.5641  1.5641  0.5550  0.5550  0.4066  0.4066  0.2034  0.2034  0.2318
  0.2318  0.0999  0.1509  0.1509  0.1374  0.1374  0.1243

 Free energy of the ion-electron system (eV)
  ---------------------------------------------------
  alpha Z        PSCENC =      1893.09323658
  Ewald energy   TEWEN  =    220477.29606185
  -Hartree energ DENC   =   -341898.89170890
  -exchange      EXHF   =         0.00000000
  -V(xc)+E(xc)   XCENC  =      3650.60466505
  PAW double counting   =    138742.02570492  -143732.70164672
  entropy T*S    EENTRO =        -1.00285010
  eigenvalues    EBANDS =    -15483.87312604
  atomic energy  EATOM  =    136002.60505376
  Solvation  Ediel_sol  =         0.00000000
  ---------------------------------------------------
  free energy    TOTEN  =      -350.84460960 eV

  energy without entropy =     -349.84175950  energy(sigma->0) =     -350.34318455


--------------------------------------------------------------------------------------------------------




--------------------------------------- Iteration      1(  23)  ---------------------------------------


    POTLOK:  cpu time    0.2523: real time    0.2523
    SETDIJ:  cpu time    0.0171: real time    0.0171
     EDDAV:  cpu time    6.7968: real time    6.8007
       DOS:  cpu time    0.0013: real time    0.0013
    CHARGE:  cpu time    0.2349: real time    0.2357
    MIXING:  cpu time    0.0193: real time    0.0193
    --------------------------------------------
      LOOP:  cpu time    7.3216: real time    7.3262

 eigenvalue-minimisations  :  1104
 total energy-change (2. order) : 0.3568295E-01  (-0.1680395E-01)
 number of electron     791.9999922 magnetization 
 augmentation part      311.8432987 magnetization 

 Broyden mixing:
  rms(total) = 0.72427E+00    rms(broyden)= 0.72424E+00
  rms(prec ) = 0.75523E+00
  weight for this iteration     100.00

 eigenvalues of (default mixing * dielectric matrix)
  average eigenvalue GAMMA=   0.5249
  2.0980  1.5771  1.5771  0.5487  0.5487  0.3848  0.3848  0.4111  0.4111  0.2388
  0.2388  0.1826  0.1826  0.0999  0.1455  0.1455  0.1416  0.1320

 Free energy of the ion-electron system (eV)
  ---------------------------------------------------
  alpha Z        PSCENC =      1893.09323658
  Ewald energy   TEWEN  =    220477.29606185
  -Hartree energ DENC   =   -341903.25457179
  -exchange      EXHF   =         0.00000000
  -V(xc)+E(xc)   XCENC  =      3650.66156665
  PAW double counting   =    138607.19321831  -143596.43822379
  entropy T*S    EENTRO =        -1.00191572
  eigenvalues    EBANDS =    -15480.96335250
  atomic energy  EATOM  =    136002.60505376
  Solvation  Ediel_sol  =         0.00000000
  ---------------------------------------------------
  free energy    TOTEN  =      -350.80892665 eV

  energy without entropy =     -349.80701093  energy(sigma->0) =     -350.30796879


--------------------------------------------------------------------------------------------------------




--------------------------------------- Iteration      1(  24)  ---------------------------------------


    POTLOK:  cpu time    0.2501: real time    0.2501
    SETDIJ:  cpu time    0.0173: real time    0.0173
     EDDAV:  cpu time    6.4574: real time    6.4676
       DOS:  cpu time    0.0012: real time    0.0012
    CHARGE:  cpu time    0.2138: real time    0.2138
    MIXING:  cpu time    0.0160: real time    0.0160
    --------------------------------------------
      LOOP:  cpu time    6.9559: real time    6.9661

 eigenvalue-minimisations  :  1088
 total energy-change (2. order) : 0.1347762E-01  (-0.8232932E-02)
 number of electron     791.9999922 magnetization 
 augmentation part      311.9233309 magnetization 

 Broyden mixing:
  rms(total) = 0.69190E+00    rms(broyden)= 0.69187E+00
  rms(prec ) = 0.73348E+00
  weight for this iteration     100.00

 eigenvalues of (default mixing * dielectric matrix)
  average eigenvalue GAMMA=   0.5357
  2.0801  1.6218  1.6218  0.5930  0.5930  0.5477  0.5477  0.4055  0.4055  0.2675
  0.2675  0.2048  0.2048  0.0999  0.1305  0.1524  0.1524  0.1416  0.1416

 Free energy of the ion-electron system (eV)
  ---------------------------------------------------
  alpha Z        PSCENC =      1893.09323658
  Ewald energy   TEWEN  =    220477.29606185
  -Hartree energ DENC   =   -341902.76734305
  -exchange      EXHF   =         0.00000000
  -V(xc)+E(xc)   XCENC  =      3650.58518117
  PAW double counting   =    138571.60964279  -143560.38512127
  entropy T*S    EENTRO =        -1.00609264
  eigenvalues    EBANDS =    -15481.82606822
  atomic energy  EATOM  =    136002.60505376
  Solvation  Ediel_sol  =         0.00000000
  ---------------------------------------------------
  free energy    TOTEN  =      -350.79544903 eV

  energy without entropy =     -349.78935639  energy(sigma->0) =     -350.29240271


--------------------------------------------------------------------------------------------------------




--------------------------------------- Iteration      1(  25)  ---------------------------------------


    POTLOK:  cpu time    0.2515: real time    0.2515
    SETDIJ:  cpu time    0.0173: real time    0.0173
     EDDAV:  cpu time    7.1902: real time    7.1923
       DOS:  cpu time    0.0013: real time    0.0013
    CHARGE:  cpu time    0.2134: real time    0.2134
    MIXING:  cpu time    0.0172: real time    0.0172
    --------------------------------------------
      LOOP:  cpu time    7.6908: real time    7.6929

 eigenvalue-minimisations  :  1248
 total energy-change (2. order) : 0.2736114E-02  (-0.1074766E-01)
 number of electron     791.9999923 magnetization 
 augmentation part      311.8913342 magnetization 

 Broyden mixing:
  rms(total) = 0.65030E+00    rms(broyden)= 0.65019E+00
  rms(prec ) = 0.68386E+00
  weight for this iteration     100.00

 eigenvalues of (default mixing * dielectric matrix)
  average eigenvalue GAMMA=   0.5743
  1.9878  1.6713  1.6713  1.0734  1.0734  0.5341  0.5341  0.4378  0.4050  0.4050
  0.2481  0.2481  0.0999  0.1866  0.1866  0.1310  0.1432  0.1432  0.1530  0.1530

 Free energy of the ion-electron system (eV)
  ---------------------------------------------------
  alpha Z        PSCENC =      1893.09323658
  Ewald energy   TEWEN  =    220477.29606185
  -Hartree energ DENC   =   -341909.40744679
  -exchange      EXHF   =         0.00000000
  -V(xc)+E(xc)   XCENC  =      3650.67285659
  PAW double counting   =    138310.03872652  -143295.90263915
  entropy T*S    EENTRO =        -1.00562421
  eigenvalues    EBANDS =    -15478.18293807
  atomic energy  EATOM  =    136002.60505376
  Solvation  Ediel_sol  =         0.00000000
  ---------------------------------------------------
  free energy    TOTEN  =      -350.79271292 eV

[...]
    FORCOR:  cpu time    0.3364: real time    0.3364
    FORHAR:  cpu time    0.1524: real time    0.1524
    MIXING:  cpu time    0.0378: real time    0.0378
    OFIELD:  cpu time    0.0001: real time    0.0001

  FORCE on cell =-STRESS in cart. coord.  units (eV):
  Direction    XX          YY          ZZ          XY          YZ          ZX
  --------------------------------------------------------------------------------------
  Alpha Z  1893.09324  1893.09324  1893.09324
  Ewald  269093.30642273010.71391************ -1702.30698 -1182.52839  1922.44590
  Hartree305462.17274308327.87378************ -1289.65815  -878.93020  1336.54683
  E(xc)   -5051.91326 -5049.78687 -5055.74037    -1.06847    -0.83241     1.39010
  Local  ************************580403.01637  2975.18478  2040.92449 -3208.00891
  n-local  -625.63415  -613.44593  -621.95734    -5.66182    -0.68575     3.12158
  augment  5798.87194  5776.39549  5801.97196     7.41485     4.80557   -17.67078
  Kinetic 11092.30480 11051.04447 11143.78971    14.38457    12.04809   -31.52346
  Fock        0.00000     0.00000     0.00000     0.00000     0.00000     0.00000
  -------------------------------------------------------------------------------------
  Total      77.19283    83.06148   105.03727    -1.71123    -5.19861     6.30127
  in kB      62.94023    67.72531    85.64357    -1.39528    -4.23876     5.13782
  external pressure =       72.10 kB  Pullay stress =        0.00 kB


 VOLUME and BASIS-vectors are now :
 -----------------------------------------------------------------------------
  energy-cutoff  :      450.00
  volume of cell :     1964.98
      direct lattice vectors                 reciprocal lattice vectors
    10.079732985  0.000000000  0.000000000     0.099208977 -0.037612667  0.000000000
     3.573298043  9.425102554  0.000000000     0.000000000  0.106099641  0.000000000
     0.000000000  0.000000000 20.683503555     0.000000000  0.000000000  0.048347708

  length of vectors
    10.079732985 10.079732985 20.683503555     0.106099641  0.106099641  0.048347708


 FORCES acting on ions
    electron-ion (+dipol)            ewald-force                    non-local-force                 convergence-correction
 -----------------------------------------------------------------------------------------------
   0.438E+03 -.626E+03 0.333E+04   -.441E+03 0.630E+03 -.333E+04   0.232E+01 -.423E+01 0.238E+01   -.292E-01 -.507E-01 0.963E-01
   0.354E+02 -.462E+03 -.277E+03   -.366E+02 0.463E+03 0.278E+03   0.871E+00 -.133E+01 -.841E+00   0.243E-02 -.272E-01 -.118E-01
   -.151E+03 -.554E+03 -.364E+04   0.151E+03 0.556E+03 0.365E+04   -.950E+00 -.167E+01 -.145E+01   0.557E-01 0.277E-01 -.928E-01
   -.110E+03 -.737E+02 0.160E+04   0.110E+03 0.721E+02 -.160E+04   0.249E+00 0.277E+00 -.342E+01   0.213E-01 0.214E-02 0.935E-01
   0.619E+02 -.391E+03 -.121E+04   -.627E+02 0.392E+03 0.121E+04   0.597E+00 -.146E+01 0.600E+00   -.231E-01 0.801E-01 -.403E-01
   0.202E+03 -.373E+03 -.443E+04   -.202E+03 0.375E+03 0.443E+04   0.637E+00 -.251E+00 -.351E+01   -.447E-01 -.243E-01 -.974E-01
   0.416E+02 -.267E+03 0.447E+04   -.434E+02 0.265E+03 -.448E+04   0.153E+01 0.186E+01 0.376E+01   0.321E-01 -.466E-01 0.123E+00
   -.186E+03 -.340E+03 -.506E+04   0.187E+03 0.346E+03 0.506E+04   -.728E+00 -.515E+01 -.241E+01   -.167E-01 -.361E-01 -.467E-01
   0.118E+03 -.338E+03 0.348E+04   -.119E+03 0.337E+03 -.348E+04   0.104E+00 0.500E+00 0.439E+01   -.110E-01 0.120E+00 0.102E-01
   -.226E+03 -.202E+03 0.655E+03   0.227E+03 0.200E+03 -.651E+03   -.917E+00 0.874E+00 -.312E+01   0.199E-01 -.180E-01 0.629E-01
   -.579E+02 -.439E+03 -.209E+04   0.572E+02 0.440E+03 0.208E+04   0.647E+00 -.157E+01 0.188E+01   0.202E-01 -.882E-01 -.476E-02
   0.330E+03 0.226E+03 0.424E+04   -.332E+03 -.227E+03 -.424E+04   0.233E+01 0.701E+00 0.241E+01   -.533E-02 -.232E-01 0.710E-01
   0.501E+03 0.233E+03 0.802E+03   -.503E+03 -.232E+03 -.800E+03   0.199E+01 -.953E+00 -.206E+01   -.278E-01 0.345E-01 0.325E-02
   0.347E+03 0.189E+03 -.212E+04   -.350E+03 -.190E+03 0.212E+04   0.307E+01 0.882E+00 0.840E+00   0.822E-02 0.167E-01 -.109E+00
   0.504E+02 -.290E+02 -.513E+04   -.543E+02 0.287E+02 0.514E+04   0.364E+01 0.418E+00 -.267E+01   0.516E-01 -.478E-01 -.155E-01
   0.526E+03 0.607E+03 0.314E+04   -.529E+03 -.608E+03 -.313E+04   0.155E+01 0.480E+00 0.265E+00   0.475E-01 0.625E-01 0.125E+00
   0.394E+03 0.317E+03 -.949E+02   -.395E+03 -.316E+03 0.945E+02   0.149E+01 0.720E-01 0.343E+00   -.599E-02 0.233E-01 0.254E-02
   0.452E+03 0.416E+03 -.344E+04   -.456E+03 -.418E+03 0.344E+04   0.273E+01 0.176E+01 -.231E+01   -.190E-01 0.138E-02 -.770E-01
   0.355E+03 -.321E+02 0.586E+04   -.357E+03 0.303E+02 -.587E+04   0.157E+01 0.279E+01 0.580E+01   0.607E-01 0.388E-01 0.238E+00
   0.889E+03 0.522E+03 -.438E+04   -.893E+03 -.523E+03 0.438E+04   0.250E+01 -.960E-01 0.498E+00   -.145E-01 0.344E-01 -.975E-01
   0.301E+03 -.169E+03 0.462E+04   -.303E+03 0.171E+03 -.462E+04   0.278E+01 -.221E+01 0.554E+01   -.184E-01 -.103E+00 0.110E+00
   0.323E+03 0.308E+03 0.163E+04   -.323E+03 -.309E+03 -.163E+04   0.213E+00 0.354E+00 -.348E+01   0.838E-03 -.126E+00 0.787E-01
   0.446E+03 0.414E+03 -.126E+04   -.448E+03 -.414E+03 0.126E+04   0.144E+01 0.238E-02 0.245E+00   0.461E-01 -.574E-01 -.209E-01
   -.564E+03 -.196E+03 -.445E+04   0.569E+03 0.195E+03 0.445E+04   -.465E+01 0.144E+01 -.723E+00   0.440E-01 0.136E-01 -.351E-01
   -.193E+03 0.541E+03 0.520E+04   0.191E+03 -.542E+03 -.520E+04   0.273E+01 -.494E+00 0.353E+01   -.188E-01 -.504E-01 0.682E-01
   -.528E+03 0.137E+03 0.196E+04   0.530E+03 -.137E+03 -.196E+04   -.173E+01 -.823E+00 -.154E+01   0.117E-01 0.239E-01 0.634E-01
   -.527E+03 0.888E+02 -.121E+04   0.530E+03 -.885E+02 0.121E+04   -.338E+01 -.623E+00 0.142E+01   0.435E-01 0.527E-01 -.633E-01
   -.883E+03 0.470E+03 0.431E+04   0.883E+03 -.472E+03 -.431E+04   0.128E+01 0.432E+00 0.109E+01   -.118E-01 0.790E-01 0.149E+00
   -.292E+03 0.145E+03 0.974E+03   0.291E+03 -.144E+03 -.974E+03   0.652E+00 -.443E+00 -.250E+00   -.429E-01 0.462E-01 0.450E-01
   -.213E+03 0.142E+03 -.207E+04   0.216E+03 -.143E+03 0.206E+04   -.313E+01 0.131E+01 0.222E+01   -.703E-02 -.147E-01 -.707E-01
   0.180E+01 0.522E+03 -.510E+04   -.137E+01 -.524E+03 0.510E+04   0.290E-01 0.101E+01 0.129E+01   0.304E-01 -.255E-01 -.707E-01
   -.813E+03 -.643E+02 0.329E+04   0.818E+03 0.642E+02 -.329E+04   -.486E+01 0.333E+00 0.394E+00   0.428E-01 -.976E-01 0.465E-01
   -.509E+03 0.146E+03 -.131E+03   0.510E+03 -.146E+03 0.131E+03   -.691E+00 -.306E+00 -.558E-01   -.288E-01 -.706E-01 0.160E-01
   -.576E+03 -.128E+03 -.309E+04   0.582E+03 0.129E+03 0.308E+04   -.501E+01 -.540E+00 0.328E+01   -.132E+00 0.941E-01 -.178E+00
   -.330E+03 0.115E+03 -.546E+04   0.332E+03 -.116E+03 0.545E+04   -.728E+00 0.770E+00 0.564E+01   -.683E-01 0.543E-01 -.626E-01
   -.271E+03 -.491E+03 0.526E+04   0.272E+03 0.497E+03 -.528E+04   0.337E-01 -.543E+01 0.991E+01   0.750E-01 -.125E-01 0.559E-01
   -.101E+03 0.381E+02 -.209E+04   0.102E+03 -.389E+02 0.209E+04   -.400E+00 0.280E+00 -.172E+01   0.770E-02 -.244E-01 0.826E-02
   0.932E+02 0.192E+03 0.174E+04   -.932E+02 -.194E+03 -.174E+04   -.106E+01 0.249E+01 0.333E+01   -.832E-02 0.219E-01 0.267E-01
   -.396E+02 0.781E+02 0.707E+02   0.398E+02 -.795E+02 -.691E+02   0.102E+00 0.127E+01 -.243E+00   0.349E-02 0.485E-01 0.111E-01
   -.302E+02 0.108E+03 -.878E+03   0.288E+02 -.110E+03 0.873E+03   0.771E+00 0.148E+01 0.184E+01   0.710E-02 -.104E-01 -.243E-01
   0.807E+02 0.445E+03 0.220E+04   -.813E+02 -.448E+03 -.220E+04   0.174E+00 0.111E+01 0.675E+00   0.497E-02 0.137E-01 0.374E-01
   0.552E+02 0.136E+03 0.111E+04   -.549E+02 -.138E+03 -.111E+04   -.811E-01 0.152E+01 0.941E+00   -.121E-01 0.210E-01 0.213E-01
   0.500E+02 0.119E+03 -.157E+03   -.503E+02 -.121E+03 0.156E+03   0.185E+00 0.232E+01 0.143E+00   -.163E-02 -.714E-02 -.101E-02
   0.125E+03 0.256E+03 -.139E+04   -.125E+03 -.258E+03 0.139E+04   0.240E+00 0.190E+00 -.459E+00   0.442E-02 -.250E-02 -.306E-01
   -.429E+02 0.947E+02 0.454E+03   0.437E+02 -.958E+02 -.451E+03   -.699E+00 0.119E+01 -.124E+01   0.375E-02 -.372E-01 0.229E-01
   0.469E+02 0.162E+03 -.514E+03   -.471E+02 -.164E+03 0.512E+03   -.305E-01 0.164E+01 -.286E+00   -.122E-01 0.974E-02 -.141E-01
   0.242E+03 0.197E+03 -.160E+04   -.245E+03 -.199E+03 0.160E+04   0.183E+01 0.100E+01 0.665E+00   -.764E-01 0.468E-02 -.679E-01
   -.109E+03 0.982E+02 0.213E+04   0.110E+03 -.102E+03 -.214E+04   -.113E+01 0.249E+01 0.509E+01   0.147E-01 -.284E-01 0.139E-01
   0.205E+03 -.150E+03 0.232E+04   -.208E+03 0.151E+03 -.232E+04   0.214E+01 0.574E+00 0.145E+01   -.167E-01 -.267E-01 -.338E-03
   -.724E+02 -.357E+02 0.802E+03   0.745E+02 0.357E+02 -.800E+03   -.152E+01 0.366E+00 -.215E+00   -.466E-03 -.262E-01 0.292E-01
   -.127E+03 -.968E+02 -.289E+03   0.129E+03 0.989E+02 0.289E+03   -.148E+01 -.197E+01 0.352E+00   0.169E-01 -.216E-02 -.141E-01
   -.226E+03 -.189E+03 -.168E+04   0.229E+03 0.192E+03 0.169E+04   0.265E+00 -.594E+00 -.364E+00   0.220E-01 0.240E-01 -.199E-01
   -.349E+03 -.127E+03 0.189E+04   0.352E+03 0.128E+03 -.189E+04   -.689E+00 -.691E+00 0.927E+00   -.558E-02 -.379E-02 0.457E-01
   -.108E+03 -.672E+02 0.574E+03   0.111E+03 0.687E+02 -.574E+03   -.233E+01 -.182E+01 0.106E+01   -.247E-01 0.286E-01 0.741E-02
   -.768E+02 -.108E+03 -.597E+03   0.787E+02 0.110E+03 0.596E+03   -.197E+01 -.165E+01 -.689E+00   -.187E-01 0.362E-02 -.203E-01
   -.503E+02 -.702E+02 -.186E+04   0.517E+02 0.700E+02 0.186E+04   -.987E+00 0.531E+00 -.468E+00   -.621E-02 -.161E-01 -.203E-01
   -.175E+03 -.119E+03 0.185E+03   0.176E+03 0.121E+03 -.185E+03   -.187E+01 -.159E+01 0.617E+00   0.228E-01 -.222E-01 0.183E-01
   -.244E+03 -.932E+02 -.990E+03   0.246E+03 0.949E+02 0.989E+03   -.102E+01 -.164E+01 -.968E+00   -.198E-01 -.144E-01 -.167E-01
   -.384E+02 -.928E+02 -.227E+04   0.384E+02 0.947E+02 0.228E+04   -.187E-01 -.138E+01 -.268E+01   -.642E-01 0.557E-01 -.185E-01
   -.324E+03 -.106E+03 0.164E+04   0.327E+03 0.107E+03 -.164E+04   -.124E+00 -.254E+00 0.336E+01   0.262E-01 0.146E-01 -.357E-02
   0.743E+02 -.167E+03 0.181E+04   -.760E+02 0.168E+03 -.182E+04   0.125E+01 -.630E+00 0.386E+01   0.103E-02 -.227E-01 0.185E-01
   0.139E+03 -.144E+03 0.414E+03   -.140E+03 0.146E+03 -.412E+03   0.200E+01 -.110E+01 0.361E+00   -.100E-01 -.176E-01 0.119E-01
   0.127E+03 -.115E+03 -.713E+03   -.129E+03 0.116E+03 0.714E+03   0.214E+01 -.110E+01 -.147E+01   -.104E-01 0.111E-01 -.390E-01
   -.964E+02 -.165E+03 -.189E+04   0.956E+02 0.166E+03 0.189E+04   0.754E+00 -.132E+00 -.123E+01   0.614E-01 -.133E-02 -.428E-01
   0.131E+03 -.450E+02 0.637E+02   -.134E+03 0.463E+02 -.636E+02   0.263E+01 -.127E+01 -.320E+00   0.200E-01 0.274E-01 -.115E-01
   0.128E+03 -.767E+02 -.114E+04   -.131E+03 0.779E+02 0.114E+04   0.293E+01 -.113E+01 -.150E+01   0.727E-02 0.993E-02 -.255E-01
   0.119E+03 0.128E+03 -.225E+04   -.120E+03 -.129E+03 0.225E+04   0.677E+00 0.599E-01 -.369E+00   -.971E-02 0.767E-03 0.374E-02
   0.351E+03 0.586E+01 0.144E+04   -.354E+03 -.503E+01 -.144E+04   0.270E+01 0.323E-02 0.198E+01   0.209E-01 0.610E-02 0.451E-01
   0.155E+03 -.277E+03 0.222E+04   -.156E+03 0.279E+03 -.223E+04   -.791E+00 0.124E+00 0.111E+01   0.603E-02 0.930E-02 -.871E-02
   0.306E+03 -.180E+03 0.902E+03   -.310E+03 0.183E+03 -.900E+03   0.268E+01 -.224E+01 0.219E+00   -.213E-01 0.274E-02 0.199E-01
   0.151E+03 -.556E+02 -.318E+03   -.154E+03 0.569E+02 0.319E+03   0.331E+01 -.112E+01 -.114E+01   -.570E-02 -.353E-01 0.170E-01
   0.227E+03 0.702E+02 -.155E+04   -.230E+03 -.698E+02 0.155E+04   0.163E+01 -.355E+00 -.239E+01   0.278E-01 -.270E-01 -.236E-01
 -----------------------------------------------------------------------------------------------
   -.224E+02 0.136E+02 -.405E+02   -.117E-11 0.119E-11 -.909E-11   0.224E+02 -.134E+02 0.401E+02   0.435E-01 -.126E+00 0.319E+00
 
 
 POSITION                                       TOTAL-FORCE (eV/Angst)
 -----------------------------------------------------------------------------------
      6.84285      7.49250      2.44401        -0.589435      0.665212      1.934756
      7.82056      6.07621      5.06951        -0.249014     -0.281775      0.109415
      8.79827      4.65991      7.69501        -0.886971      0.443374     -0.380708
      2.61774      3.87870      3.31918         0.309277     -1.249525      2.487373
      3.59545      2.46241      5.94468        -0.186106     -0.362851     -0.047607
      4.57317      1.04611      8.57018         0.219422      1.351554     -1.013552
     12.14647      5.61060      1.94541        -0.276906     -0.238533     -0.647974
      3.77212      7.35297      9.14952         0.053562      0.722386      1.316954
      7.90543      2.01631      2.85157        -0.359910     -0.330168     -0.773358
      8.47237      0.26490      4.19434         0.423435     -1.077536      1.302123
     13.02338      8.27371      6.81985        -0.002760     -0.402808     -0.307208
      5.63757      5.21123      2.15414        -0.066182     -0.686046     -1.025605
      6.61816      3.96023      4.37584        -0.117612      0.247928     -0.087312
      7.59587      2.54394      7.00134        -0.422511     -0.202216     -1.096160
      8.33836      1.28721      9.24144        -0.257913     -0.014315      1.179244
      1.41534      1.76273      2.62550        -0.957214     -0.693583      1.831372
      2.39305      0.34643      5.25100         0.191342      0.204909     -0.064575
      6.94406      8.35524      7.87651        -1.012327     -0.766195     -2.027477
      2.03815      3.42372      0.82487        -0.514051      0.933062     -1.758086
      2.88610      4.95462      8.61973        -2.276346     -0.936365      0.789846
      9.32493      7.98682      1.62746         0.033658     -0.945469      0.404835
     10.84326      7.57403      3.50067         0.216226     -0.233557      0.671753
     11.82097      6.15773      6.12617        -0.315108     -0.157026      0.098890
      0.83027      1.48507      8.62636         0.470496      0.458048      0.958556
      8.08061      5.59720      1.47893         0.444437     -1.192618     -0.726640
      9.02296      4.33443      3.68216         0.236814     -0.128959     -0.160208
     10.00068      2.91813      6.30767        -0.200985     -0.332545     -1.502479
      3.82015      2.13692      1.93183         1.872920     -0.785405      1.624408
      4.79786      0.72063      4.55733        -0.283321      0.031929      0.125706
      9.34887      8.72943      7.18283        -0.170216      0.823481     -2.578340
     10.20362      7.56823      9.07321         0.482302     -0.916698      1.255622
      3.16834      7.94822      2.80700        -0.066176      0.082375      0.465284
      4.14605      6.53193      5.43250         0.284737      0.034018     -0.159643
      5.12376      5.11563      8.05800         1.502055      0.515211     -2.899000
      5.80652      3.79870      9.86063         1.144368      0.277541      1.075082
      7.75269      0.01911      1.50746         1.023902      0.815639     -0.845486
     13.52206      9.38643      9.70684         0.538006     -0.526830      2.389123
      7.35546      3.82659      2.24358        -1.083970      0.519591     -1.602638
      8.33317      2.41029      4.86908         0.257833     -0.084498      1.341822
      9.31088      0.99399      7.49458        -0.659871     -0.895555     -3.848698
      2.29270      1.42921      0.78991        -0.344180     -2.197257     -3.481632
      3.13035      0.21279      3.11874         0.181790      0.047024      0.254304
      7.68136      8.22159      5.74425        -0.196675      0.243329     -0.734184
      8.59783      6.87412      8.01212        -0.379276     -1.461218      1.253109
      2.47854      6.02409      3.99391         0.124881     -0.009382      1.383954
      3.45626      4.60779      6.61941        -0.280574      0.424998     -1.945396
      4.22074      3.17919      8.78082        -0.704141     -1.252752      0.772569
     11.58056      7.44039      1.36841         0.000247     -1.293700     -2.118717
      7.65461      7.36489      0.57532        -0.514810      0.970483     -3.722285
      8.88655      6.52099      3.12687         0.612927      0.361770      2.546636
      9.86427      5.10469      5.75238         0.396087      0.143338     -0.154159
     10.45722      3.50159      8.23054         2.936858      1.810799      2.220181
      3.77959      4.26598      1.57594         1.463599      0.941594     -1.713218
      4.66145      2.90719      4.00204        -0.025877     -0.327372      0.322618
      5.63916      1.49089      6.62754        -0.012390      0.121423     -0.982017
      6.53633      0.19609      8.96802         0.450651      0.271863      2.222915
      4.00964      8.71849      4.87721        -0.076866     -0.096550      0.407816
      4.98735      7.30220      7.50271         1.289229      0.098227     -1.549173
      4.47611      5.51432      9.95676        -0.038748      0.506343      3.820819
      9.53836      0.70969      2.25171         2.517447      0.868406      0.161226
      4.85650      7.15832      1.82734        -0.519623      0.798668     -2.139708
      5.82436      6.04450      4.01017         0.331718      0.576805      2.758893
      6.80207      4.62821      6.63567        -0.176445      0.437889     -1.026541
      7.62189      3.28108      8.96923         0.025326      0.432530      2.512673
      1.59925      2.43070      4.88534        -0.032580      0.032826     -0.222856
      2.57697      1.01441      7.51084         0.101776      0.074327     -0.670908
      7.49223      8.94696      9.70513        -0.367997     -0.839504      3.961038
     10.70128      3.84700      2.25984        -1.066379      0.841028      0.172680
      6.13018      0.04813      0.30543        -1.645944      2.151761     -3.302196
      6.47617      0.23320      3.13500        -1.516919      0.585575      2.256592
     11.02718      8.24201      5.76051         0.390206      0.070657     -0.376048
     12.00489      6.82571      8.38601        -1.673208     -0.019107     -0.698396
 -----------------------------------------------------------------------------------
    total drift:                                0.072464      0.097626     -0.066457


--------------------------------------------------------------------------------------------------------



  FREE ENERGIE OF THE ION-ELECTRON SYSTEM (eV)
  ---------------------------------------------------
  free  energy   TOTEN  =      -350.64940258 eV

  energy  without entropy=     -349.63413095  energy(sigma->0) =     -350.14176677
 


--------------------------------------------------------------------------------------------------------


    POTLOK:  cpu time    0.2688: real time    0.2688


--------------------------------------------------------------------------------------------------------


     LOOP+:  cpu time  308.3983: real time  308.5073
    4ORBIT:  cpu time    0.0000: real time    0.0000

 total amount of memory used by VASP MPI-rank0    68409. kBytes
=======================================================================

   base      :      30000. kBytes
   nonlr-proj:       2294. kBytes
   fftplans  :       8265. kBytes
   grid      :      13942. kBytes
   one-center:         93. kBytes
   wavefun   :      13815. kBytes
 
  
  
 General timing and accounting informations for this job:
 ========================================================
  
                  Total CPU time used (sec):      311.246
                            User time (sec):      310.867
                          System time (sec):        0.379
                         Elapsed time (sec):      311.594
  
                   Maximum memory used (kb):      186828.
                   Average memory used (kb):           0.
  
                          Minor page faults:       129464
                          Major page faults:            0
                 Voluntary context switches:          180
