       N       E                     dE             d eps       ncg     rms          rms(c)
DAV:   1     0.857241672640E+04    0.85724E+04   -0.49847E+05  1184   0.152E+03
DAV:   2     0.470510042140E+03   -0.81019E+04   -0.78097E+04  1024   0.480E+02
DAV:   3    -0.347849470224E+03   -0.81836E+03   -0.77303E+03  1120   0.155E+02
DAV:   4    -0.395730377979E+03   -0.47881E+02   -0.47265E+02  1120   0.347E+01
DAV:   5    -0.397509328034E+03   -0.17790E+01   -0.17763E+01  1208   0.709E+00    0.822E+01
DAV:   6    -0.523319651778E+03   -0.12581E+03   -0.10683E+03  1152   0.128E+02    0.180E+02
DAV:   7    -0.376944680502E+03    0.14637E+03   -0.20099E+02  1136   0.610E+01    0.771E+01
DAV:   8    -0.375697334482E+03    0.12473E+01   -0.18556E+02  1360   0.804E+01    0.942E+01
DAV:   9    -0.357727152652E+03    0.17970E+02   -0.10850E+02  1240   0.535E+01    0.567E+01
DAV:  10    -0.362196752565E+03   -0.44696E+01   -0.60396E+01  1320   0.435E+01    0.920E+01
DAV:  11    -0.357646738864E+03    0.45500E+01   -0.44304E+01  1392   0.252E+01    0.611E+01
DAV:  12    -0.351051120795E+03    0.65956E+01   -0.27178E+01  1344   0.197E+01    0.317E+01
DAV:  13    -0.350335158127E+03    0.71596E+00   -0.18037E+01  1248   0.249E+01    0.432E+01
DAV:  14    -0.347819796289E+03    0.25154E+01   -0.18992E+01  1304   0.181E+01    0.274E+01
DAV:  15    -0.346776519364E+03    0.10433E+01   -0.59795E+00  1256   0.157E+01    0.384E+01
DAV:  16    -0.346072710618E+03    0.70381E+00   -0.79289E+00  1320   0.743E+00    0.209E+01
DAV:  17    -0.345288334610E+03    0.78438E+00   -0.36227E+00  1264   0.102E+01    0.303E+01
DAV:  18    -0.344637368460E+03    0.65097E+00   -0.99001E+00  1288   0.647E+00    0.183E+01
DAV:  19    -0.343811542158E+03    0.82583E+00   -0.10984E+00  1296   0.694E+00    0.151E+01
DAV:  20    -0.343318434345E+03    0.49311E+00   -0.89894E-01  1312   0.627E+00    0.128E+01
DAV:  21    -0.343034983077E+03    0.28345E+00   -0.75207E-01  1288   0.492E+00    0.979E+00
DAV:  22    -0.342941849761E+03    0.93133E-01   -0.46755E-01  1312   0.433E+00    0.881E+00
DAV:  23    -0.342756360133E+03    0.18549E+00   -0.40469E-01  1336   0.396E+00    0.598E+00
DAV:  24    -0.342747752573E+03    0.86076E-02   -0.36586E-01  1304   0.311E+00    0.653E+00
DAV:  25    -0.342683798083E+03    0.63954E-01   -0.18604E-01  1224   0.255E+00    0.495E+00
DAV:  26    -0.342799080429E+03   -0.11528E+00   -0.31251E-01  1304   0.325E+00    0.896E+00
DAV:  27    -0.342666298993E+03    0.13278E+00   -0.25896E-01  1272   0.203E+00    0.421E+00
DAV:  28    -0.342709472419E+03   -0.43173E-01   -0.15063E-01  1264   0.233E+00    0.625E+00
DAV:  29    -0.342687434893E+03    0.22038E-01   -0.55042E-02  1296   0.140E+00    0.614E+00
DAV:  30    -0.342665711863E+03    0.21723E-01   -0.27215E-02  1288   0.105E+00    0.520E+00
DAV:  31    -0.342625227069E+03    0.40485E-01   -0.43229E-02  1376   0.948E-01    0.266E+00
DAV:  32    -0.342617810986E+03    0.74161E-02   -0.24265E-02  1272   0.990E-01    0.188E+00
DAV:  33    -0.342617211190E+03    0.59980E-03   -0.98026E-03  1312   0.652E-01    0.173E+00
DAV:  34    -0.342616888374E+03    0.32282E-03   -0.63833E-03  1248   0.563E-01    0.182E+00
DAV:  35    -0.342613563819E+03    0.33246E-02   -0.37953E-03  1280   0.426E-01    0.151E+00
DAV:  36    -0.342609977831E+03    0.35860E-02   -0.30209E-03  1280   0.384E-01    0.977E-01
DAV:  37    -0.342609693230E+03    0.28460E-03   -0.19259E-03  1152   0.275E-01    0.766E-01
DAV:  38    -0.342609165324E+03    0.52791E-03   -0.15368E-03  1120   0.263E-01    0.487E-01
DAV:  39    -0.342609453546E+03   -0.28822E-03   -0.13469E-03  1080   0.231E-01    0.430E-01
DAV:  40    -0.342609359605E+03    0.93941E-04   -0.72080E-04   920   0.167E-01
   1 F= -.34260936E+03 E0= -.34195391E+03  d E =-.131091E+01
