  72  72   0   0
  0.2729146E+02  0.1007973E-08  0.1007973E-08  0.2068350E-08  0.5000000E-15
  1.000000000000000E-004
  CAR 
 "Millerite NiS"                         
     11.07481738    -66.24159195  301      1.45799211      1.00000000
    -66.242  0.0000E+00  0.0000E+00
    -65.984  0.0000E+00  0.0000E+00
    -65.726  0.0000E+00  0.0000E+00
    -65.468  0.0000E+00  0.0000E+00
    -65.211  0.0000E+00  0.0000E+00
    -64.953  0.0000E+00  0.0000E+00
    -64.695  0.0000E+00  0.0000E+00
    -64.438  0.0000E+00  0.0000E+00
    -64.180  0.0000E+00  0.0000E+00
    -63.922  0.0000E+00  0.0000E+00
    -63.664  0.5283E-09  0.1362E-09
    -63.407  0.3300E-04  0.8505E-05
    -63.149  0.9772E-01  0.2519E-01
    -62.891  0.1601E+02  0.4152E+01
    -62.633  0.1939E+03  0.5413E+02
    -62.376  0.2949E+03  0.1301E+03
    -62.118  0.1348E+03  0.1649E+03
    -61.860  0.5775E+02  0.1797E+03
    -61.603  0.5904E+02  0.1950E+03
    -61.345  0.4422E+02  0.2064E+03
    -61.087  0.2841E+02  0.2137E+03
    -60.829  0.8620E+01  0.2159E+03
    -60.572  0.3933E+00  0.2160E+03
    -60.314  0.1153E-02  0.2160E+03
    -60.056  0.1509E-06  0.2160E+03
    -59.799  0.7883E-12  0.2160E+03
    -59.541  0.0000E+00  0.2160E+03
    -59.283  0.0000E+00  0.2160E+03
    -59.025  0.0000E+00  0.2160E+03
    -58.768  0.0000E+00  0.2160E+03
    -58.510  0.0000E+00  0.2160E+03
    -58.252  0.0000E+00  0.2160E+03
    -57.995  0.0000E+00  0.2160E+03
    -57.737  0.0000E+00  0.2160E+03
    -57.479  0.0000E+00  0.2160E+03
    -57.221  0.0000E+00  0.2160E+03
    -56.964  0.0000E+00  0.2160E+03
    -56.706  0.0000E+00  0.2160E+03
    -56.448  0.0000E+00  0.2160E+03
    -56.190  0.0000E+00  0.2160E+03
    -55.933  0.0000E+00  0.2160E+03
    -55.675  0.0000E+00  0.2160E+03
    -55.417  0.0000E+00  0.2160E+03
    -55.160  0.0000E+00  0.2160E+03
    -54.902  0.0000E+00  0.2160E+03
    -54.644  0.0000E+00  0.2160E+03
    -54.386  0.0000E+00  0.2160E+03
    -54.129  0.0000E+00  0.2160E+03
    -53.871  0.0000E+00  0.2160E+03
    -53.613  0.0000E+00  0.2160E+03
    -53.356  0.0000E+00  0.2160E+03
    -53.098  0.0000E+00  0.2160E+03
    -52.840  0.0000E+00  0.2160E+03
    -52.582  0.0000E+00  0.2160E+03
    -52.325  0.0000E+00  0.2160E+03
    -52.067  0.0000E+00  0.2160E+03
    -51.809  0.0000E+00  0.2160E+03
    -51.551  0.0000E+00  0.2160E+03
    -51.294  0.0000E+00  0.2160E+03
    -51.036  0.0000E+00  0.2160E+03
    -50.778  0.0000E+00  0.2160E+03
    -50.521  0.0000E+00  0.2160E+03
    -50.263  0.0000E+00  0.2160E+03
    -50.005  0.0000E+00  0.2160E+03
    -49.747  0.0000E+00  0.2160E+03
    -49.490  0.0000E+00  0.2160E+03
    -49.232  0.0000E+00  0.2160E+03
    -48.974  0.0000E+00  0.2160E+03
    -48.717  0.0000E+00  0.2160E+03
    -48.459  0.0000E+00  0.2160E+03
    -48.201  0.0000E+00  0.2160E+03
    -47.943  0.0000E+00  0.2160E+03
    -47.686  0.0000E+00  0.2160E+03
    -47.428  0.0000E+00  0.2160E+03
    -47.170  0.0000E+00  0.2160E+03
    -46.912  0.0000E+00  0.2160E+03
    -46.655  0.0000E+00  0.2160E+03
    -46.397  0.0000E+00  0.2160E+03
    -46.139  0.0000E+00  0.2160E+03
    -45.882  0.0000E+00  0.2160E+03
    -45.624  0.0000E+00  0.2160E+03
    -45.366  0.0000E+00  0.2160E+03
    -45.108  0.0000E+00  0.2160E+03
    -44.851  0.0000E+00  0.2160E+03
    -44.593  0.0000E+00  0.2160E+03
    -44.335  0.0000E+00  0.2160E+03
    -44.078  0.0000E+00  0.2160E+03
    -43.820  0.0000E+00  0.2160E+03
    -43.562  0.0000E+00  0.2160E+03
    -43.304  0.0000E+00  0.2160E+03
    -43.047  0.0000E+00  0.2160E+03
    -42.789  0.0000E+00  0.2160E+03
    -42.531  0.0000E+00  0.2160E+03
    -42.274  0.0000E+00  0.2160E+03
    -42.016  0.0000E+00  0.2160E+03
    -41.758  0.0000E+00  0.2160E+03
    -41.500  0.0000E+00  0.2160E+03
    -41.243  0.0000E+00  0.2160E+03
    -40.985  0.0000E+00  0.2160E+03
    -40.727  0.0000E+00  0.2160E+03
    -40.469  0.0000E+00  0.2160E+03
    -40.212  0.0000E+00  0.2160E+03
    -39.954  0.0000E+00  0.2160E+03
    -39.696  0.0000E+00  0.2160E+03
    -39.439  0.0000E+00  0.2160E+03
    -39.181  0.0000E+00  0.2160E+03
    -38.923  0.0000E+00  0.2160E+03
    -38.665  0.0000E+00  0.2160E+03
    -38.408  0.0000E+00  0.2160E+03
    -38.150  0.0000E+00  0.2160E+03
    -37.892  0.0000E+00  0.2160E+03
    -37.635  0.0000E+00  0.2160E+03
    -37.377  0.0000E+00  0.2160E+03
    -37.119  0.0000E+00  0.2160E+03
    -36.861  0.0000E+00  0.2160E+03
    -36.604  0.0000E+00  0.2160E+03
    -36.346  0.0000E+00  0.2160E+03
    -36.088  0.0000E+00  0.2160E+03
    -35.830  0.0000E+00  0.2160E+03
    -35.573  0.0000E+00  0.2160E+03
    -35.315  0.0000E+00  0.2160E+03
    -35.057  0.0000E+00  0.2160E+03
    -34.800  0.0000E+00  0.2160E+03
    -34.542  0.0000E+00  0.2160E+03
    -34.284  0.0000E+00  0.2160E+03
    -34.026  0.0000E+00  0.2160E+03
    -33.769  0.0000E+00  0.2160E+03
    -33.511  0.0000E+00  0.2160E+03
    -33.253  0.0000E+00  0.2160E+03
    -32.996  0.0000E+00  0.2160E+03
    -32.738  0.0000E+00  0.2160E+03
    -32.480  0.0000E+00  0.2160E+03
    -32.222  0.0000E+00  0.2160E+03
    -31.965  0.0000E+00  0.2160E+03
    -31.707  0.0000E+00  0.2160E+03
    -31.449  0.0000E+00  0.2160E+03
    -31.191  0.0000E+00  0.2160E+03
    -30.934  0.0000E+00  0.2160E+03
    -30.676  0.0000E+00  0.2160E+03
    -30.418  0.0000E+00  0.2160E+03
    -30.161  0.0000E+00  0.2160E+03
    -29.903  0.0000E+00  0.2160E+03
    -29.645  0.0000E+00  0.2160E+03
    -29.387  0.0000E+00  0.2160E+03
    -29.130  0.0000E+00  0.2160E+03
    -28.872  0.0000E+00  0.2160E+03
    -28.614  0.0000E+00  0.2160E+03
    -28.357  0.0000E+00  0.2160E+03
    -28.099  0.0000E+00  0.2160E+03
    -27.841  0.0000E+00  0.2160E+03
    -27.583  0.0000E+00  0.2160E+03
    -27.326  0.0000E+00  0.2160E+03
    -27.068  0.0000E+00  0.2160E+03
    -26.810  0.0000E+00  0.2160E+03
    -26.553  0.0000E+00  0.2160E+03
    -26.295  0.0000E+00  0.2160E+03
    -26.037  0.0000E+00  0.2160E+03
    -25.779  0.0000E+00  0.2160E+03
    -25.522  0.0000E+00  0.2160E+03
    -25.264  0.0000E+00  0.2160E+03
    -25.006  0.0000E+00  0.2160E+03
    -24.748  0.0000E+00  0.2160E+03
    -24.491  0.0000E+00  0.2160E+03
    -24.233  0.0000E+00  0.2160E+03
    -23.975  0.0000E+00  0.2160E+03
    -23.718  0.0000E+00  0.2160E+03
    -23.460  0.0000E+00  0.2160E+03
    -23.202  0.0000E+00  0.2160E+03
    -22.944  0.0000E+00  0.2160E+03
    -22.687  0.0000E+00  0.2160E+03
    -22.429  0.0000E+00  0.2160E+03
    -22.171  0.0000E+00  0.2160E+03
    -21.914  0.0000E+00  0.2160E+03
    -21.656  0.0000E+00  0.2160E+03
    -21.398  0.0000E+00  0.2160E+03
    -21.140  0.0000E+00  0.2160E+03
    -20.883  0.0000E+00  0.2160E+03
    -20.625  0.0000E+00  0.2160E+03
    -20.367  0.0000E+00  0.2160E+03
    -20.109  0.0000E+00  0.2160E+03
    -19.852  0.0000E+00  0.2160E+03
    -19.594  0.0000E+00  0.2160E+03
    -19.336  0.0000E+00  0.2160E+03
    -19.079  0.0000E+00  0.2160E+03
    -18.821  0.0000E+00  0.2160E+03
    -18.563  0.0000E+00  0.2160E+03
    -18.305  0.0000E+00  0.2160E+03
    -18.048  0.0000E+00  0.2160E+03
    -17.790  0.0000E+00  0.2160E+03
    -17.532  0.0000E+00  0.2160E+03
    -17.275  0.0000E+00  0.2160E+03
    -17.017  0.0000E+00  0.2160E+03
    -16.759  0.0000E+00  0.2160E+03
    -16.501  0.0000E+00  0.2160E+03
    -16.244  0.0000E+00  0.2160E+03
    -15.986  0.0000E+00  0.2160E+03
    -15.728  0.0000E+00  0.2160E+03
    -15.470  0.0000E+00  0.2160E+03
    -15.213  0.0000E+00  0.2160E+03
    -14.955  0.1423E-09  0.2160E+03
    -14.697  0.6325E-05  0.2160E+03
    -14.440  0.1147E-01  0.2160E+03
    -14.182  0.9593E+00  0.2163E+03
    -13.924  0.4845E+01  0.2175E+03
    -13.666  0.2048E+01  0.2180E+03
    -13.409  0.4196E+01  0.2191E+03
    -13.151  0.1582E+02  0.2232E+03
    -12.893  0.1948E+02  0.2282E+03
    -12.636  0.2788E+02  0.2354E+03
    -12.378  0.2829E+02  0.2427E+03
    -12.120  0.3222E+02  0.2510E+03
    -11.862  0.3761E+02  0.2607E+03
    -11.605  0.3133E+02  0.2688E+03
    -11.347  0.1855E+02  0.2735E+03
    -11.089  0.1403E+02  0.2772E+03
    -10.831  0.1257E+02  0.2804E+03
    -10.574  0.1056E+02  0.2831E+03
    -10.316  0.1197E+02  0.2862E+03
    -10.058  0.6597E+01  0.2879E+03
     -9.801  0.3938E+00  0.2880E+03
     -9.543  0.1402E-02  0.2880E+03
     -9.285  0.2319E-06  0.2880E+03
     -9.027  0.1591E-11  0.2880E+03
     -8.770  0.0000E+00  0.2880E+03
     -8.512  0.0000E+00  0.2880E+03
     -8.254  0.0000E+00  0.2880E+03
     -7.997  0.0000E+00  0.2880E+03
     -7.739  0.0000E+00  0.2880E+03
     -7.481  0.0000E+00  0.2880E+03
     -7.223  0.0000E+00  0.2880E+03
     -6.966  0.0000E+00  0.2880E+03
     -6.708  0.1723E-09  0.2880E+03
     -6.450  0.7839E-05  0.2880E+03
     -6.193  0.1577E-01  0.2880E+03
     -5.935  0.1687E+01  0.2884E+03
     -5.677  0.1318E+02  0.2918E+03
     -5.419  0.1705E+02  0.2962E+03
     -5.162  0.2427E+02  0.3025E+03
     -4.904  0.3847E+02  0.3124E+03
     -4.646  0.5423E+02  0.3264E+03
     -4.388  0.4847E+02  0.3389E+03
     -4.131  0.3562E+02  0.3480E+03
     -3.873  0.3511E+02  0.3571E+03
     -3.615  0.3769E+02  0.3668E+03
     -3.358  0.4037E+02  0.3772E+03
     -3.100  0.5733E+02  0.3920E+03
     -2.842  0.7421E+02  0.4111E+03
     -2.584  0.7436E+02  0.4303E+03
     -2.327  0.7304E+02  0.4491E+03
     -2.069  0.5600E+02  0.4635E+03
     -1.811  0.4584E+02  0.4753E+03
     -1.554  0.4571E+02  0.4871E+03
     -1.296  0.5411E+02  0.5011E+03
     -1.038  0.6824E+02  0.5187E+03
     -0.780  0.9073E+02  0.5420E+03
     -0.523  0.1122E+03  0.5710E+03
     -0.265  0.1581E+03  0.6117E+03
     -0.007  0.1776E+03  0.6575E+03
      0.251  0.1380E+03  0.6931E+03
      0.508  0.1059E+03  0.7204E+03
      0.766  0.1011E+03  0.7464E+03
      1.024  0.8270E+02  0.7677E+03
      1.281  0.5849E+02  0.7828E+03
      1.539  0.5348E+02  0.7966E+03
      1.797  0.6138E+02  0.8124E+03
      2.055  0.5942E+02  0.8277E+03
      2.312  0.6140E+02  0.8436E+03
      2.570  0.5636E+02  0.8581E+03
      2.828  0.2510E+02  0.8645E+03
      3.085  0.9422E+01  0.8670E+03
      3.343  0.9505E+01  0.8694E+03
      3.601  0.2387E+01  0.8700E+03
      3.859  0.4997E+01  0.8713E+03
      4.116  0.9329E+01  0.8737E+03
      4.374  0.5193E+01  0.8751E+03
      4.632  0.1159E+02  0.8781E+03
      4.890  0.2246E+02  0.8838E+03
      5.147  0.1603E+02  0.8880E+03
      5.405  0.1243E+02  0.8912E+03
      5.663  0.1731E+02  0.8956E+03
      5.920  0.2379E+02  0.9018E+03
      6.178  0.2404E+02  0.9080E+03
      6.436  0.2887E+02  0.9154E+03
      6.694  0.3080E+02  0.9233E+03
      6.951  0.3443E+02  0.9322E+03
      7.209  0.3951E+02  0.9424E+03
      7.467  0.4436E+02  0.9538E+03
      7.724  0.2201E+02  0.9595E+03
      7.982  0.1905E+01  0.9600E+03
      8.240  0.1507E-01  0.9600E+03
      8.498  0.6867E-05  0.9600E+03
      8.755  0.1410E-09  0.9600E+03
      9.013  0.0000E+00  0.9600E+03
      9.271  0.0000E+00  0.9600E+03
      9.528  0.0000E+00  0.9600E+03
      9.786  0.0000E+00  0.9600E+03
     10.044  0.0000E+00  0.9600E+03
     10.302  0.0000E+00  0.9600E+03
     10.559  0.0000E+00  0.9600E+03
     10.817  0.0000E+00  0.9600E+03
     11.075  0.0000E+00  0.9600E+03
