LAMMPS (5 Jun 2019)
OMP_NUM_THREADS environment is not set. Defaulting to 1 thread. (../comm.cpp:88)
  using 1 OpenMP thread(s) per MPI task
Reading data file ...
  triclinic box = (0 0 0) to (9.57841 11.2565 17.7114) with tilt (0 0 0)
  1 by 1 by 1 MPI processor grid
  reading atoms ...
  60 atoms
  read_data CPU = 0.000742368 secs
25 atoms in group bulk
WARNING: Using 'neigh_modify every 1 delay 0 check yes' setting during minimization (../min.cpp:168)
Neighbor list info ...
  update every 1 steps, delay 0 steps, check yes
  max neighbors/atom: 2000, page size: 100000
  master list distance cutoff = 8.5
  ghost atom cutoff = 8.5
  binsize = 4.25, bins = 3 3 5
  1 neighbor lists, perpetual/occasional/extra = 1 0 0
  (1) pair eam/alloy, perpetual
      attributes: half, newton on
      pair build: half/bin/newton/tri
      stencil: half/bin/3d/newton/tri
      bin: standard
Setting up cg style minimization ...
  Unit style    : metal
  Current step  : 0
Per MPI rank memory allocation (min/avg/max) = 4.109 | 4.109 | 4.109 Mbytes
Step Temp E_pair E_mol TotEng Press 
       0            0   -247.05161            0   -247.05161   -116085.74 
      36            0   -271.12964            0   -271.12964   -22640.735 
Loop time of 0.0167277 on 1 procs for 36 steps with 60 atoms

99.8% CPU use with 1 MPI tasks x 1 OpenMP threads

Minimization stats:
  Stopping criterion = energy tolerance
  Energy initial, next-to-last, final = 
        -247.051607201     -271.127729286     -271.129641723
  Force two-norm initial, final = 12.6911 0.142448
  Force max component initial, final = 3.69728 0.0665092
  Final line search alpha, max atom move = 0.6776 0.0450666
  Iterations, force evaluations = 36 47

MPI task timing breakdown:
Section |  min time  |  avg time  |  max time  |%varavg| %total
---------------------------------------------------------------
Pair    | 0.015115   | 0.015115   | 0.015115   |   0.0 | 90.36
Neigh   | 0.00077042 | 0.00077042 | 0.00077042 |   0.0 |  4.61
Comm    | 0.00043265 | 0.00043265 | 0.00043265 |   0.0 |  2.59
Output  | 0          | 0          | 0          |   0.0 |  0.00
Modify  | 2.8446e-05 | 2.8446e-05 | 2.8446e-05 |   0.0 |  0.17
Other   |            | 0.0003815  |            |       |  2.28

Nlocal:    60 ave 60 max 60 min
Histogram: 1 0 0 0 0 0 0 0 0 0
Nghost:    790 ave 790 max 790 min
Histogram: 1 0 0 0 0 0 0 0 0 0
Neighs:    3270 ave 3270 max 3270 min
Histogram: 1 0 0 0 0 0 0 0 0 0

Total # of neighbors = 3270
Ave neighs/atom = 54.5
Neighbor list builds = 2
Dangerous builds = 0
System init for write_data ...
Total wall time: 0:00:00
