
72 atoms
2 atom types
   0.0000000000   10.0797329849 xlo xhi
   0.0000000000    9.4251025535 ylo yhi
   0.0000000000   20.6835035552 zlo zhi
   3.5732980427    0.0000000000    0.0000000000 xy xz yz

Atoms # atomic

     1      1    6.8428472693    7.4925021553    2.4440084079
     2      1    7.8205595665    6.0762060191    5.0695108158
     3      1    8.7982718702    4.6599098735    7.6950132030
     4      1    9.7759841673    3.2436137374   10.3205155901
     5      1    2.6177410304    3.8787025952    3.3191758841
     6      1    3.5954533240    2.4624064496    5.9446782713
     7      1    4.5731656313    1.0461103134    8.5701806585
     8      1   11.7197617080    5.2949987314    0.6936734762
     9      1    3.9213574214    6.8574132975    9.4453481346
    10      1    8.4723677728    0.2649030257    4.1943433396
    11      1   13.0233781126    8.2737094431    6.8198457475
    12      1    5.6404430281    5.3765274519    1.7503349317
    13      1    6.6181553317    3.9602313063    4.3758373189
    14      1    7.5958676289    2.5439351701    7.0013397268
    15      1    8.5735799326    1.1276390245    9.6268421139
    16      1    1.4153367856    1.7627278824    2.6255023872
    17      1    2.3930490928    0.3464317462    5.2510047951
    18      1    6.9440594292    8.3552381541    7.8765071823
    19      1    7.9217717263    6.9389420180   10.5020095694
    20      1   10.5173574732    3.1790240185    0.0000000000
    21      1    2.7189531902    4.7414385940    8.7516746378
    22      1    9.8655492771    8.9903270120    0.8751674555
    23      1   10.8432615742    7.5740308758    3.5006698634
    24      1   11.8209738678    6.1577347302    6.1261722506
    25      1    0.8986554222    1.5018329664    8.9331686171
    26      1    8.0452515090    5.7507213843    1.0566614348
    27      1    9.0229638062    4.3344252481    3.6821638427
    28      1   10.0006761099    2.9181291025    6.3076662299
    29      1    3.8201452701    2.1369218242    1.9318289110
    30      1    4.7978575637    0.7206256786    4.5573312982
    31      1    9.3488679036    8.7294320960    7.1828337061
    32      1   10.3265802073    7.3131359504    9.8083360932
    33      1    3.1683370602    7.9482248082    2.8069963665
    34      1    4.1460493675    6.5319286720    5.4324987744
    35      1    5.1237616611    5.1156325265    8.0580011616
    36      1    6.1014739684    3.6993363903   10.6835035487
    37      2    3.7821592240    9.0028000136   10.1200829883
    38      2    7.3554572681    3.8265858780    2.2435758061
    39      2    8.3331695653    2.4102897418    4.8690782140
    40      2    9.3108818625    0.9939936057    7.4945806011
    41      2    2.1526387220    1.6290824541    0.4932408744
    42      2    3.1303510191    0.2127863179    3.1187432823
    43      2    7.6813613691    8.2215927353    5.7442456695
    44      2    8.6590736627    6.8052965897    8.3697480566
    45      2    2.4785428194    6.0240893019    3.9939107378
    46      2    3.4562551266    4.6077931658    6.6194131250
    47      2    4.4339674238    3.1914970296    9.2449155328
    48      2   11.5805635106    7.4403854475    1.3684083506
    49      2    7.9088413764    7.9372847618    0.5013711873
    50      2    8.8865536736    6.5209886256    3.1268735745
    51      2    9.8642659773    5.1046924800    5.7523759824
    52      2   10.8419782744    3.6883963439    8.3778783696
    53      2    3.6837351375    4.3234852017    1.3765386428
    54      2    4.6614474311    2.9071890561    4.0020410507
    55      2    5.6391597283    1.4908929199    6.6275434379
    56      2    6.6168720320    0.0745967744    9.2530458251
    57      2    4.0096392349    8.7184920496    4.8772085062
    58      2    4.9873515285    7.3021959040    7.5027109141
    59      2    5.9650638358    5.8858997678   10.1282133013
    60      2    9.5383618698    0.7096856322    2.2517061190
    61      2    4.8466485532    7.4608002574    1.3846689558
    62      2    5.8243608569    6.0445041118    4.0101713430
    63      2    6.8020731541    4.6282079756    6.6356737508
    64      2    7.7797854578    3.2119118300    9.2611761380
    65      2    1.5992546180    2.4307045517    4.8853388192
    66      2    2.5769669116    1.0144084061    7.5108412064
    67      2    7.1279772515    9.0232148234   10.1363436142
    68      2   10.7012752956    3.8470006878    2.2598364320
    69      2    5.4984567595    1.6494972639    0.5095015003
    70      2    6.4761690567    0.2332011277    3.1350038875
    71      2   11.0271793930    8.2420075357    5.7605062747
    72      2   12.0048917003    6.8257113995    8.3860086825
