 vasp.6.1.0 28Jan20 (build Mar 31 2020 17:42:31) gamma-only                     
  
 executed on             LinuxIFC date 2020.04.12  19:50:46
 running on   48 total cores
 distrk:  each k-point on   48 cores,    1 groups
 distr:  one band on NCORE=   6 cores,    8 groups


--------------------------------------------------------------------------------------------------------


 INCAR:
 POTCAR:    PAW_PBE Ni_pv 06Sep2000               
 POTCAR:    PAW_PBE S 06Sep2000                   
 POTCAR:    PAW_PBE Ni_pv 06Sep2000               
   VRHFIN =Ni:                                                                                      
   LEXCH  = PE                                                                                      
   EATOM  =  3501.1230 eV,  257.3253 Ry                                                             
                                                                                                    
   TITEL  = PAW_PBE Ni_pv 06Sep2000                                                                 
   LULTRA =        F    use ultrasoft PP ?                                                          
   IUNSCR =        1    unscreen: 0-lin 1-nonlin 2-no                                               
   RPACOR =    1.500    partial core radius                                                         
   POMASS =   58.690; ZVAL   =   16.000    mass and valenz                                          
   RCORE  =    2.000    outmost cutoff radius                                                       
   RWIGS  =    2.000; RWIGS  =    1.058    wigner-seitz radius (au A)                               
   ENMAX  =  367.986; ENMIN  =  275.989 eV                                                          
   RCLOC  =    1.301    cutoff for local pot                                                        
   LCOR   =        T    correct aug charges                                                         
   LPAW   =        T    paw PP                                                                      
   EAUG   =  703.443                                                                                
   DEXC   =    0.000                                                                                
   RMAX   =    2.041    core radius for proj-oper                                                   
   RAUG   =    1.300    factor for augmentation sphere                                              
   RDEP   =    2.103    radius for radial grids                                                     
   RDEPT  =    1.618    core radius for aug-charge                                                  
                                                                                                    
   Atomic configuration                                                                             
    8 entries                                                                                       
     n  l   j            E        occ.                                                              
     1  0  0.50     -8206.4253   2.0000                                                             
     2  0  0.50      -976.1748   2.0000                                                             
     2  1  1.50      -839.0571   6.0000                                                             
     3  0  0.50      -105.9991   2.0000                                                             
     3  1  1.50       -66.4603   6.0000                                                             
     3  2  2.50        -4.6458   9.0000                                                             
     4  0  0.50        -4.4926   1.0000                                                             
     4  3  2.50        -1.3606   0.0000                                                             
   Description                                                                                      
     l       E           TYP  RCUT    TYP  RCUT                                                     
     1    -66.4602962     23  1.700                                                                 
     1     -1.3605826     23  1.700                                                                 
     2     -4.6457867     23  2.000                                                                 
     2     -6.0063693     23  2.000                                                                 
     0     -4.4925576     23  1.900                                                                 
     0     16.3626226     23  1.900                                                                 
  local pseudopotential read in
  partial core-charges read in
  partial kinetic energy density read in
  atomic valenz-charges read in
  non local Contribution for L=           1  read in
    real space projection operators read in
  non local Contribution for L=           1  read in
    real space projection operators read in
  non local Contribution for L=           2  read in
    real space projection operators read in
  non local Contribution for L=           2  read in
    real space projection operators read in
  non local Contribution for L=           0  read in
    real space projection operators read in
  non local Contribution for L=           0  read in
    real space projection operators read in
    PAW grid and wavefunctions read in
 
   number of l-projection  operators is LMAX  =           6
   number of lm-projection operators is LMMAX =          18
 
 POTCAR:    PAW_PBE S 06Sep2000                   
   VRHFIN =S : s2p4                                                                                 
   LEXCH  = PE                                                                                      
   EATOM  =   276.8230 eV,   20.3459 Ry                                                             
                                                                                                    
   TITEL  = PAW_PBE S 06Sep2000                                                                     
   LULTRA =        F    use ultrasoft PP ?                                                          
   IUNSCR =        1    unscreen: 0-lin 1-nonlin 2-no                                               
   RPACOR =    1.500    partial core radius                                                         
   POMASS =   32.066; ZVAL   =    6.000    mass and valenz                                          
   RCORE  =    1.900    outmost cutoff radius                                                       
   RWIGS  =    2.200; RWIGS  =    1.164    wigner-seitz radius (au A)                               
   ENMAX  =  258.689; ENMIN  =  194.016 eV                                                          
   ICORE  =        2    local potential                                                             
   LCOR   =        T    correct aug charges                                                         
   LPAW   =        T    paw PP                                                                      
   EAUG   =  335.092                                                                                
   DEXC   =    0.000                                                                                
   RMAX   =    1.942    core radius for proj-oper                                                   
   RAUG   =    1.300    factor for augmentation sphere                                              
   RDEP   =    1.954    radius for radial grids                                                     
   RDEPT  =    1.744    core radius for aug-charge                                                  
                                                                                                    
   Atomic configuration                                                                             
    6 entries                                                                                       
     n  l   j            E        occ.                                                              
     1  0  0.50     -2405.8406   2.0000                                                             
     2  0  0.50      -211.7007   2.0000                                                             
     2  1  1.50      -156.4958   6.0000                                                             
     3  0  0.50       -17.2562   2.0000                                                             
     3  1  0.50        -7.0085   4.0000                                                             
     3  2  1.50        -6.8029   0.0000                                                             
   Description                                                                                      
     l       E           TYP  RCUT    TYP  RCUT                                                     
     0    -17.2561641     23  1.900                                                                 
     0    -15.8743224     23  1.900                                                                 
     1     -7.0085400     23  1.900                                                                 
     1     -2.7779785     23  1.900                                                                 
     2     -6.8029130     23  1.900                                                                 
  local pseudopotential read in
  partial core-charges read in
  partial kinetic energy density read in
  atomic valenz-charges read in
  non local Contribution for L=           0  read in
    real space projection operators read in
  non local Contribution for L=           0  read in
    real space projection operators read in
  non local Contribution for L=           1  read in
    real space projection operators read in
  non local Contribution for L=           1  read in
    real space projection operators read in
    PAW grid and wavefunctions read in
 
   number of l-projection  operators is LMAX  =           4
   number of lm-projection operators is LMMAX =           8
 
 Optimization of the real space projectors (new method)

 maximal supplied QI-value         = 18.90
 optimisation between [QCUT,QGAM] = [ 10.77, 21.73] = [ 32.49,132.25] Ry 
 Optimized for a Real-space Cutoff    1.38 Angstroem

   l    n(q)    QCUT    max X(q) W(low)/X(q) W(high)/X(q)  e(spline) 
   1      8    10.771     2.836    0.40E-04    0.29E-04    0.12E-06
   1      8    10.771     4.023    0.10E-03    0.48E-04    0.29E-06
   2      8    10.771    73.368    0.42E-03    0.97E-04    0.44E-06
   2      8    10.771    69.010    0.42E-03    0.99E-04    0.45E-06
   0      9    10.771    54.797    0.10E-03    0.56E-04    0.74E-07
   0      9    10.771    24.266    0.89E-04    0.49E-04    0.67E-07
 Optimization of the real space projectors (new method)

 maximal supplied QI-value         = 19.84
 optimisation between [QCUT,QGAM] = [ 10.71, 21.63] = [ 32.15,130.99] Ry 
 Optimized for a Real-space Cutoff    1.19 Angstroem

   l    n(q)    QCUT    max X(q) W(low)/X(q) W(high)/X(q)  e(spline) 
   0      8    10.715   187.594    0.41E-03    0.53E-04    0.66E-07
   0      8    10.715   164.243    0.41E-03    0.53E-04    0.65E-07
   1      7    10.715    67.533    0.19E-03    0.59E-03    0.68E-07
   1      7    10.715    50.729    0.19E-03    0.58E-03    0.67E-07
  PAW_PBE Ni_pv 06Sep2000               :
 energy of atom  1       EATOM=-3501.1230
 kinetic energy error for atom=    0.0925 (will be added to EATOM!!)
  PAW_PBE S 06Sep2000                   :
 energy of atom  2       EATOM= -276.8230
 kinetic energy error for atom=    0.0033 (will be added to EATOM!!)
 
 
 POSCAR: Structure 21 made from -211-9.xsd file
  positions in direct lattice
  No initial velocities read in
 exchange correlation table for  LEXCH =        8
   RHO(1)=    0.500       N(1)  =     2000
   RHO(2)=  100.500       N(2)  =     4000
 


--------------------------------------------------------------------------------------------------------


 ion  position               nearest neighbor table
   1  0.247  0.945  0.000-  41 2.25  49 2.36  61 2.36
   2  0.397  0.795  0.127-  42 2.25  49 2.26  61 2.26  50 2.36  62 2.36  13 2.53  26 2.53
   3  0.547  0.645  0.254-  43 2.25  62 2.26  50 2.26  63 2.36  51 2.36  27 2.53  14 2.53
   4  0.698  0.494  0.381-  44 2.25  51 2.26  63 2.26  52 2.36  64 2.36  15 2.53  28 2.53
   5  0.848  0.344  0.508-  64 2.26  52 2.26  16 2.53  25 2.53
   6  0.114  0.412  0.169-  45 2.25  68 2.26  53 2.26  65 2.36  54 2.36  29 2.53  17 2.53
   7  0.264  0.261  0.296-  46 2.25  65 2.26  54 2.26  55 2.36  66 2.36  18 2.53  30 2.53
   8  0.414  0.111  0.423-  47 2.25  55 2.26  66 2.26  56 2.36  67 2.36  31 2.53  19 2.53
   9  0.131  0.728  0.465-  37 2.25  72 2.26  58 2.26  59 2.36  35 2.53
  10  0.680  0.178  0.085-  38 2.25  69 2.26  70 2.36  60 2.36  22 2.53  36 2.53
  11  0.831  0.028  0.212-  39 2.25  60 2.26  70 2.26  57 2.36  71 2.36  23 2.53  33 2.53
  12  0.981  0.878  0.338-  40 2.25  57 2.26  71 2.26  58 2.36  72 2.36  34 2.53  24 2.53
  13  0.357  0.570  0.093-  53 2.25  61 2.26  62 2.36  38 2.36   2 2.53  26 2.53
  14  0.508  0.420  0.220-  54 2.25  62 2.26  38 2.26  39 2.36  63 2.36  27 2.53   3 2.53
  15  0.658  0.270  0.347-  55 2.25  63 2.26  39 2.26  64 2.36  40 2.36   4 2.53  28 2.53
  16  0.808  0.120  0.474-  56 2.25  40 2.26  64 2.26  37 2.36   5 2.53  25 2.53
  17  0.074  0.187  0.136-  60 2.25  68 2.26  41 2.26  42 2.36  65 2.36   6 2.53  29 2.53
  18  0.224  0.037  0.263-  57 2.25  42 2.26  65 2.26  66 2.36  43 2.36   7 2.53  30 2.53
  19  0.375  0.886  0.390-  58 2.25  66 2.26  43 2.26  44 2.36  67 2.36  31 2.53   8 2.53
  20  0.525  0.736  0.517-  59 2.25  67 2.26  44 2.26  32 2.53
  21  0.924  0.337  0.009-  41 2.36  68 2.36
  22  0.641  0.954  0.051-  49 2.25  69 2.26  48 2.36  70 2.36  36 2.53  10 2.53
  23  0.791  0.804  0.178-  50 2.25  70 2.26  48 2.26  71 2.36  45 2.36  11 2.53  33 2.53
  24  0.941  0.653  0.305-  51 2.25  71 2.26  45 2.26  46 2.36  72 2.36  34 2.53  12 2.53
  25  0.033  0.159  0.441-  66 2.25  40 2.26  52 2.26  37 2.36  16 2.53   5 2.53
  26  0.582  0.610  0.060-  49 2.26  50 2.36  38 2.36   2 2.53  13 2.53
  27  0.732  0.460  0.187-  68 2.25  50 2.26  38 2.26  51 2.36  39 2.36  14 2.53   3 2.53
  28  0.882  0.310  0.314-  65 2.25  39 2.26  51 2.26  40 2.36  52 2.36   4 2.53  15 2.53
  29  0.299  0.227  0.102-  69 2.25  53 2.26  41 2.26  54 2.36  42 2.36   6 2.53  17 2.53
  30  0.449  0.076  0.229-  70 2.25  42 2.26  54 2.26  55 2.36  43 2.36  18 2.53   7 2.53
  31  0.599  0.926  0.356-  71 2.25  55 2.26  43 2.26  56 2.36  44 2.36   8 2.53  19 2.53
  32  0.749  0.776  0.483-  72 2.25  56 2.26  44 2.26  20 2.53
  33  0.015  0.843  0.144-  61 2.25  48 2.26  60 2.26  45 2.36  57 2.36  23 2.53  11 2.53
  34  0.166  0.693  0.271-  62 2.25  57 2.26  45 2.26  46 2.36  58 2.36  12 2.53  24 2.53
  35  0.316  0.543  0.398-  63 2.25  58 2.26  46 2.26  47 2.36  59 2.36   9 2.53
  36  0.865  0.994  0.018-  60 2.36  48 2.36  22 2.53  10 2.53
  37  0.037  0.955  0.498-   9 2.25  16 2.36  25 2.36
  38  0.586  0.406  0.117-  10 2.25  14 2.26  27 2.26  26 2.36  13 2.36
  39  0.736  0.256  0.244-  11 2.25  28 2.26  15 2.26  14 2.36  27 2.36
  40  0.886  0.105  0.371-  12 2.25  25 2.26  16 2.26  15 2.36  28 2.36
  41  0.152  0.173  0.033-   1 2.25  17 2.26  29 2.26  21 2.36
  42  0.303  0.023  0.160-   2 2.25  30 2.26  18 2.26  17 2.36  29 2.36
  43  0.453  0.872  0.286-   3 2.25  19 2.26  31 2.26  18 2.36  30 2.36
  44  0.603  0.722  0.413-   4 2.25  20 2.26  32 2.26  31 2.36  19 2.36
  45  0.019  0.639  0.202-   6 2.25  24 2.26  34 2.26  23 2.36  33 2.36
  46  0.170  0.489  0.329-   7 2.25  35 2.26  34 2.36  24 2.36
  47  0.320  0.339  0.456-   8 2.25  35 2.36
  48  0.869  0.789  0.075-  33 2.26  23 2.26  22 2.36  36 2.36
  49  0.486  0.842  0.033-  22 2.25   2 2.26  26 2.26   1 2.36
  50  0.636  0.692  0.160-  23 2.25  27 2.26   3 2.26   2 2.36  26 2.36
  51  0.787  0.542  0.287-  24 2.25   4 2.26  28 2.26  27 2.36   3 2.36
  52  0.937  0.391  0.414-   5 2.26  25 2.26   4 2.36  28 2.36
  53  0.203  0.459  0.075-  13 2.25  29 2.26   6 2.26
  54  0.353  0.308  0.202-  14 2.25   7 2.26  30 2.26  29 2.36   6 2.36
  55  0.503  0.158  0.329-  15 2.25   8 2.26  31 2.26   7 2.36  30 2.36
  56  0.654  0.008  0.456-  16 2.25  32 2.26  31 2.36   8 2.36
  57  0.070  0.925  0.245-  18 2.25  34 2.26  12 2.26  11 2.36  33 2.36
  58  0.220  0.775  0.372-  19 2.25   9 2.26  35 2.26  34 2.36  12 2.36
  59  0.370  0.624  0.498-  20 2.25  35 2.36   9 2.36
  60  0.920  0.075  0.118-  17 2.25  11 2.26  33 2.26  36 2.36  10 2.36
  61  0.200  0.792  0.076-  33 2.25  13 2.26   2 2.26   1 2.36
  62  0.350  0.641  0.203-  34 2.25  14 2.26   3 2.26  13 2.36   2 2.36
  63  0.501  0.491  0.330-  35 2.25   4 2.26  15 2.26   3 2.36  14 2.36
  64  0.651  0.341  0.457-   5 2.26  16 2.26  15 2.36   4 2.36
  65  0.067  0.258  0.245-  28 2.25   7 2.26  18 2.26   6 2.36  17 2.36
  66  0.218  0.108  0.372-  25 2.25  19 2.26   8 2.26  18 2.36   7 2.36
  67  0.368  0.957  0.499-  20 2.26  19 2.36   8 2.36
  68  0.917  0.408  0.118-  27 2.25  17 2.26   6 2.26  21 2.36
  69  0.483  0.175  0.033-  29 2.25  10 2.26  22 2.26
  70  0.634  0.025  0.160-  30 2.25  11 2.26  23 2.26  10 2.36  22 2.36
  71  0.784  0.874  0.287-  31 2.25  24 2.26  12 2.26  23 2.36  11 2.36
  72  0.934  0.724  0.414-  32 2.25   9 2.26  12 2.36  24 2.36
 
  LATTYP: Found a base centered orthorhombic cell.
 ALAT       =    11.4527836704
 B/A-ratio  =     1.4485816945
 C/A-ratio  =     1.8059804630
  
  Lattice vectors:
  
 A1 = (   9.4251025535,   3.5732980427,   0.0000000000)
 A2 = (   0.0000000000, -10.0797329849,   0.0000000000)
 A3 = (   0.0000000000,   0.0000000000, -20.6835035552)


Analysis of symmetry for initial positions (statically):
=====================================================================
 Subroutine PRICEL returns:
 Original cell was already a primitive cell.
 

 Routine SETGRP: Setting up the symmetry group for a 
 base centered orthorhombic supercell.


 Subroutine GETGRP returns: Found  1 space group operations
 (whereof  1 operations were pure point group operations)
 out of a pool of  8 trial point group operations.


The static configuration has the point symmetry C_1 .


Analysis of symmetry for dynamics (positions and initial velocities):
=====================================================================
 Subroutine PRICEL returns:
 Original cell was already a primitive cell.
 

 Routine SETGRP: Setting up the symmetry group for a 
 base centered orthorhombic supercell.


 Subroutine GETGRP returns: Found  1 space group operations
 (whereof  1 operations were pure point group operations)
 out of a pool of  8 trial point group operations.


The dynamic configuration has the point symmetry C_1 .


 Subroutine INISYM returns: Found  1 space group operations
 (whereof  1 operations are pure point group operations),
 and found     1 'primitive' translations


----------------------------------------------------------------------------------------

                                     Primitive cell                                     

  volume of cell :    1964.9849

  direct lattice vectors                    reciprocal lattice vectors
     9.425102554  3.573298043  0.000000000     0.106099641  0.000000000  0.000000000
     0.000000000 10.079732985  0.000000000    -0.037612667  0.099208977  0.000000000
     0.000000000  0.000000000 20.683503555     0.000000000  0.000000000  0.048347708

  length of vectors
    10.079732985 10.079732985 20.683503555     0.106099641  0.106099641  0.048347708

  position of ions in fractional coordinates (direct lattice)
     0.246790380  0.945220301  0.000000000
     0.397058892  0.794951789  0.126937024
     0.547327404  0.644683277  0.253874049
     0.697595917  0.494414764  0.380811073
     0.847864429  0.344146252  0.507748097
     0.113815063  0.411528951  0.169249366
     0.264083575  0.261260439  0.296186390
     0.414352088  0.110991927  0.423123414
     0.131108258  0.727569089  0.465435756
     0.680302721  0.178374626  0.084624683
     0.830571234  0.028106114  0.211561707
     0.980839746  0.877837602  0.338498732
     0.357357049  0.570447632  0.093399501
     0.507625562  0.420179119  0.220336525
     0.657894074  0.269910607  0.347273550
     0.808162587  0.119642094  0.474210574
     0.074113220  0.187024794  0.135711842
     0.224381733  0.036756282  0.262648867
     0.374650245  0.886487769  0.389585891
     0.524918757  0.736219257  0.516522915
     0.923844708  0.337293306  0.008774818
     0.640600879  0.953870469  0.051087159
     0.790869391  0.803601957  0.178024184
     0.941137903  0.653333444  0.304961208
     0.032666744  0.159343937  0.440673050
     0.581861207  0.610149474  0.059861977
     0.732129719  0.459880962  0.186799002
     0.882398232  0.309612449  0.313736026
     0.298617378  0.226726637  0.102174319
     0.448885890  0.076458124  0.229111343
     0.599154402  0.926189612  0.356048368
     0.749422915  0.775921099  0.482985392
     0.015373548  0.843303799  0.144486660
     0.165642061  0.693035287  0.271423685
     0.315910573  0.542766774  0.398360709
     0.865105036  0.993572312  0.017549636
     0.036604831  0.955193850  0.498057640
     0.585799294  0.405999387  0.117246567
     0.736067806  0.255730875  0.244183592
     0.886336318  0.105462363  0.371120616
     0.152286952  0.172845062  0.032621884
     0.302555464  0.022576550  0.159558909
     0.452823977  0.872308037  0.286495933
     0.603092489  0.722039525  0.413432957
     0.019311635  0.639153712  0.201871250
     0.169580148  0.488885200  0.328808274
     0.319848660  0.338616688  0.455745299
     0.869043123  0.789422225  0.074934226
     0.486085617  0.842143064  0.033014966
     0.636354129  0.691874552  0.159951990
     0.786622642  0.541606039  0.286889015
     0.936891154  0.391337527  0.413826039
     0.202841788  0.458720227  0.075327307
     0.353110300  0.308451714  0.202264332
     0.503378812  0.158183202  0.329201356
     0.653647325  0.007914689  0.456138380
     0.069866471  0.925028877  0.244576673
     0.220134983  0.774760364  0.371513698
     0.370403496  0.624491852  0.498450722
     0.919597958  0.075297389  0.117639649
     0.200210452  0.791588228  0.075720389
     0.350478965  0.641319716  0.202657413
     0.500747477  0.491051204  0.329594438
     0.651015990  0.340782691  0.456531462
     0.067235136  0.257896879  0.244969755
     0.217503648  0.107628366  0.371906779
     0.367772160  0.957359854  0.498843804
     0.916966623  0.408165391  0.118032731
     0.483454282  0.175011066  0.033408048
     0.633722794  0.024742554  0.160345072
     0.783991306  0.874474041  0.287282096
     0.934259819  0.724205529  0.414219121

  ion indices of the primitive-cell ions
   primitive index   ion index
                 1           1
                 2           2
                 3           3
                 4           4
                 5           5
                 6           6
                 7           7
                 8           8
                 9           9
                10          10
                11          11
                12          12
                13          13
                14          14
                15          15
                16          16
                17          17
                18          18
                19          19
                20          20
                21          21
                22          22
                23          23
                24          24
                25          25
                26          26
                27          27
                28          28
                29          29
                30          30
                31          31
                32          32
                33          33
                34          34
                35          35
                36          36
                37          37
                38          38
                39          39
                40          40
                41          41
                42          42
                43          43
                44          44
                45          45
                46          46
                47          47
                48          48
                49          49
                50          50
                51          51
                52          52
                53          53
                54          54
                55          55
                56          56
                57          57
                58          58
                59          59
                60          60
                61          61
                62          62
                63          63
                64          64
                65          65
                66          66
                67          67
                68          68
                69          69
                70          70
                71          71
                72          72

----------------------------------------------------------------------------------------

 
 
 KPOINTS: gamma-point-only calculation. no periodi

Automatic generation of k-mesh.
Space group operators:
 irot       det(A)        alpha          n_x          n_y          n_z        tau_x        tau_y        tau_z
    1     1.000000     0.000000     1.000000     0.000000     0.000000     0.000000     0.000000     0.000000
 
 Subroutine IBZKPT returns following result:
 ===========================================
 
 Found      1 irreducible k-points:
 
 Following reciprocal coordinates:
            Coordinates               Weight
  0.000000  0.000000  0.000000      1.000000
 
 Following cartesian coordinates:
            Coordinates               Weight
  0.000000  0.000000  0.000000      1.000000
 


--------------------------------------------------------------------------------------------------------




 Dimension of arrays:
   k-points           NKPTS =      1   k-points in BZ     NKDIM =      1   number of bands    NBANDS=    480
   number of dos      NEDOS =    301   number of ions     NIONS =     72
   non local maximal  LDIM  =      6   non local SUM 2l+1 LMDIM =     18
   total plane-waves  NPLWV = 314928
   max r-space proj   IRMAX =   1817   max aug-charges    IRDMAX=   5248
   dimension x,y,z NGX =    54 NGY =   54 NGZ =  108
   dimension x,y,z NGXF=   108 NGYF=  108 NGZF=  216
   support grid    NGXF=   108 NGYF=  108 NGZF=  216
   ions per type =              36  36
   NGX,Y,Z   is equivalent  to a cutoff of   8.91,  8.91,  8.68 a.u.
   NGXF,Y,Z  is equivalent  to a cutoff of  17.81, 17.81, 17.36 a.u.

 SYSTEM =  "Millerite NiS"                         
 POSCAR =  Structure 21 made from -211-9.xsd file  

 Startparameter for this run:
   NWRITE =      2    write-flag & timer
   PREC   = normal    normal or accurate (medium, high low for compatibility)
   ISTART =      0    job   : 0-new  1-cont  2-samecut
   ICHARG =      2    charge: 1-file 2-atom 10-const
   ISPIN  =      1    spin polarized calculation?
   LNONCOLLINEAR =      F non collinear calculations
   LSORBIT =      F    spin-orbit coupling
   INIWAV =      1    electr: 0-lowe 1-rand  2-diag
   LASPH  =      F    aspherical Exc in radial PAW
   METAGGA=      F    non-selfconsistent MetaGGA calc.

 Electronic Relaxation 1
   ENCUT  =  450.0 eV  33.07 Ry    5.75 a.u.  17.43 17.43 35.78*2*pi/ulx,y,z
   ENINI  =  450.0     initial cutoff
   ENAUG  =  703.4 eV  augmentation charge cutoff
   NELM   =    100;   NELMIN=  2; NELMDL= -5     # of ELM steps 
   EDIFF  = 0.1E-03   stopping-criterion for ELM
   LREAL  =      T    real-space projection
   NLSPLINE    = F    spline interpolate recip. space projectors
   LCOMPAT=      F    compatible to vasp.4.4
   GGA_COMPAT  = T    GGA compatible to vasp.4.4-vasp.4.6
   LMAXPAW     = -100 max onsite density
   LMAXMIX     =    2 max onsite mixed and CHGCAR
   VOSKOWN=      0    Vosko Wilk Nusair interpolation
   ROPT   =   -0.00050  -0.00050
 Ionic relaxation
   EDIFFG = 0.1E-02   stopping-criterion for IOM
   NSW    =      0    number of steps for IOM
   NBLOCK =      1;   KBLOCK =      1    inner block; outer block 
   IBRION =     -1    ionic relax: 0-MD 1-quasi-New 2-CG
   NFREE  =      0    steps in history (QN), initial steepest desc. (CG)
   ISIF   =      2    stress and relaxation
   IWAVPR =     10    prediction:  0-non 1-charg 2-wave 3-comb
   ISYM   =      2    0-nonsym 1-usesym 2-fastsym
   LCORR  =      T    Harris-Foulkes like correction to forces

   POTIM  = 0.5000    time-step for ionic-motion
   TEIN   =    0.0    initial temperature
   TEBEG  =    0.0;   TEEND  =   0.0 temperature during run
   SMASS  =  -3.00    Nose mass-parameter (am)
   estimated Nose-frequenzy (Omega)   =  0.10E-29 period in steps = 0.13E+47 mass=  -0.232E-26a.u.
   SCALEE = 1.0000    scale energy and forces
   NPACO  =    256;   APACO  = 16.0  distance and # of slots for P.C.
   PSTRESS=    0.0 pullay stress

  Mass of Ions in am
   POMASS =  58.69 32.07
  Ionic Valenz
   ZVAL   =  16.00  6.00
  Atomic Wigner-Seitz radii
   RWIGS  =  -1.00 -1.00
  virtual crystal weights 
   VCA    =   1.00  1.00
   NELECT =     792.0000    total number of electrons
   NUPDOWN=      -1.0000    fix difference up-down

 DOS related values:
   EMIN   =  10.00;   EMAX   =-10.00  energy-range for DOS
   EFERMI =   0.00
   ISMEAR =     0;   SIGMA  =   0.20  broadening in eV -4-tet -1-fermi 0-gaus

 Electronic relaxation 2 (details)
   IALGO  =     38    algorithm
   LDIAG  =      T    sub-space diagonalisation (order eigenvalues)
   LSUBROT=      F    optimize rotation matrix (better conditioning)
   TURBO    =      0    0=normal 1=particle mesh
   IRESTART =      0    0=no restart 2=restart with 2 vectors
   NREBOOT  =      0    no. of reboots
   NMIN     =      0    reboot dimension
   EREF     =   0.00    reference energy to select bands
   IMIX   =      4    mixing-type and parameters
     AMIX     =   0.40;   BMIX     =  1.00
     AMIX_MAG =   1.60;   BMIX_MAG =  1.00
     AMIN     =   0.10
     WC   =   100.;   INIMIX=   1;  MIXPRE=   1;  MAXMIX= -45

 Intra band minimization:
   WEIMIN = 0.0000     energy-eigenvalue tresh-hold
   EBREAK =  0.52E-07  absolut break condition
   DEPER  =   0.30     relativ break condition  

   TIME   =   0.40     timestep for ELM

  volume/ion in A,a.u.               =      27.29       184.17
  Fermi-wavevector in a.u.,A,eV,Ry     =   1.209289  2.285225 19.896891  1.462380
  Thomas-Fermi vector in A             =   2.344871
 
 Write flags
   LWAVE        =      F    write WAVECAR
   LDOWNSAMPLE  =      F    k-point downsampling of WAVECAR
   LCHARG       =      F    write CHGCAR
   LVTOT        =      F    write LOCPOT, total local potential
   LVHAR        =      F    write LOCPOT, Hartree potential only
   LELF         =      F    write electronic localiz. function (ELF)
   LORBIT       =      0    0 simple, 1 ext, 2 COOP (PROOUT), +10 PAW based schemes


 Dipole corrections
   LMONO  =      F    monopole corrections only (constant potential shift)
   LDIPOL =      F    correct potential (dipole corrections)
   IDIPOL =      0    1-x, 2-y, 3-z, 4-all directions 
   EPSILON=  1.0000000 bulk dielectric constant

 Exchange correlation treatment:
   GGA     =    --    GGA type
   LEXCH   =     8    internal setting for exchange type
   VOSKOWN=      0    Vosko Wilk Nusair interpolation
   LHFCALC =     F    Hartree Fock is set to
   LHFONE  =     F    Hartree Fock one center treatment
   AEXX    =    0.0000 exact exchange contribution

 Linear response parameters
   LEPSILON=     F    determine dielectric tensor
   LRPA    =     F    only Hartree local field effects (RPA)
   LNABLA  =     F    use nabla operator in PAW spheres
   LVEL    =     F    velocity operator in full k-point grid
   LINTERFAST=   F  fast interpolation
   KINTER  =     0    interpolate to denser k-point grid
   CSHIFT  =0.1000    complex shift for real part using Kramers Kronig
   OMEGAMAX=  -1.0    maximum frequency
   DEG_THRESHOLD= 0.2000000E-02 threshold for treating states as degnerate
   RTIME   =   -0.100 relaxation time in fs
  (WPLASMAI=    0.000 imaginary part of plasma frequency in eV, 0.658/RTIME)
   DFIELD  = 0.0000000 0.0000000 0.0000000 field for delta impulse in time
 
 Orbital magnetization related:
   ORBITALMAG=     F  switch on orbital magnetization
   LCHIMAG   =     F  perturbation theory with respect to B field
   DQ        =  0.001000  dq finite difference perturbation B field
   LLRAUG    =     F  two centre corrections for induced B field



--------------------------------------------------------------------------------------------------------


 Static calculation
 charge density and potential will be updated during run
 non-spin polarized calculation
 Variant of blocked Davidson
 Davidson routine will perform the subspace rotation
 perform sub-space diagonalisation
    after iterative eigenvector-optimisation
 modified Broyden-mixing scheme, WC =      100.0
 initial mixing is a Kerker type mixing with AMIX =  0.4000 and BMIX =      1.0000
 Hartree-type preconditioning will be used
 using additional bands           84
 real space projection scheme for non local part
 use partial core corrections
 calculate Harris-corrections to forces 
   (improved forces if not selfconsistent)
 use gradient corrections 
 use of overlap-Matrix (Vanderbilt PP)
 Gauss-broadening in eV      SIGMA  =   0.20


--------------------------------------------------------------------------------------------------------


  energy-cutoff  :      450.00
  volume of cell :     1964.98
      direct lattice vectors                 reciprocal lattice vectors
     9.425102554  3.573298043  0.000000000     0.106099641  0.000000000  0.000000000
     0.000000000 10.079732985  0.000000000    -0.037612667  0.099208977  0.000000000
     0.000000000  0.000000000 20.683503555     0.000000000  0.000000000  0.048347708

  length of vectors
    10.079732985 10.079732985 20.683503555     0.106099641  0.106099641  0.048347708


 
 k-points in units of 2pi/SCALE and weight: gamma-point-only calculation. no periodi
   0.00000000  0.00000000  0.00000000       1.000
 
 k-points in reciprocal lattice and weights: gamma-point-only calculation. no periodi
   0.00000000  0.00000000  0.00000000       1.000
 
 position of ions in fractional coordinates (direct lattice) 
   0.24679038  0.94522030  0.00000000
   0.39705889  0.79495179  0.12693702
   0.54732740  0.64468328  0.25387405
   0.69759592  0.49441476  0.38081107
   0.84786443  0.34414625  0.50774810
   0.11381506  0.41152895  0.16924937
   0.26408358  0.26126044  0.29618639
   0.41435209  0.11099193  0.42312341
   0.13110826  0.72756909  0.46543576
   0.68030272  0.17837463  0.08462468
   0.83057123  0.02810611  0.21156171
   0.98083975  0.87783760  0.33849873
   0.35735705  0.57044763  0.09339950
   0.50762556  0.42017912  0.22033653
   0.65789407  0.26991061  0.34727355
   0.80816259  0.11964209  0.47421057
   0.07411322  0.18702479  0.13571184
   0.22438173  0.03675628  0.26264887
   0.37465024  0.88648777  0.38958589
   0.52491876  0.73621926  0.51652292
   0.92384471  0.33729331  0.00877482
   0.64060088  0.95387047  0.05108716
   0.79086939  0.80360196  0.17802418
   0.94113790  0.65333344  0.30496121
   0.03266674  0.15934394  0.44067305
   0.58186121  0.61014947  0.05986198
   0.73212972  0.45988096  0.18679900
   0.88239823  0.30961245  0.31373603
   0.29861738  0.22672664  0.10217432
   0.44888589  0.07645812  0.22911134
   0.59915440  0.92618961  0.35604837
   0.74942291  0.77592110  0.48298539
   0.01537355  0.84330380  0.14448666
   0.16564206  0.69303529  0.27142369
   0.31591057  0.54276677  0.39836071
   0.86510504  0.99357231  0.01754964
   0.03660483  0.95519385  0.49805764
   0.58579929  0.40599939  0.11724657
   0.73606781  0.25573087  0.24418359
   0.88633632  0.10546236  0.37112062
   0.15228695  0.17284506  0.03262188
   0.30255546  0.02257655  0.15955891
   0.45282398  0.87230804  0.28649593
   0.60309249  0.72203952  0.41343296
   0.01931164  0.63915371  0.20187125
   0.16958015  0.48888520  0.32880827
   0.31984866  0.33861669  0.45574530
   0.86904312  0.78942223  0.07493423
   0.48608562  0.84214306  0.03301497
   0.63635413  0.69187455  0.15995199
   0.78662264  0.54160604  0.28688901
   0.93689115  0.39133753  0.41382604
   0.20284179  0.45872023  0.07532731
   0.35311030  0.30845171  0.20226433
   0.50337881  0.15818320  0.32920136
   0.65364733  0.00791469  0.45613838
   0.06986647  0.92502888  0.24457667
   0.22013498  0.77476036  0.37151370
   0.37040350  0.62449185  0.49845072
   0.91959796  0.07529739  0.11763965
   0.20021045  0.79158823  0.07572039
   0.35047897  0.64131972  0.20265741
   0.50074748  0.49105120  0.32959444
   0.65101599  0.34078269  0.45653146
   0.06723514  0.25789688  0.24496975
   0.21750365  0.10762837  0.37190678
   0.36777216  0.95735985  0.49884380
   0.91696662  0.40816539  0.11803273
   0.48345428  0.17501107  0.03340805
   0.63372279  0.02474255  0.16034507
   0.78399131  0.87447404  0.28728210
   0.93425982  0.72420553  0.41421912
 
 position of ions in cartesian coordinates  (Angst):
   2.32602464 10.40942383  0.00000000
   3.74232078  9.43171153  2.62550239
   5.15861691  8.45399923  5.25100480
   6.57491306  7.47628693  7.87650718
   7.99120919  6.49857463 10.50200957
   1.07271864  4.55479708  3.50066986
   2.48901478  3.57708479  6.12617225
   3.90531092  2.59937249  8.75167464
   1.23570878  7.80219103  9.62684211
   6.41192291  4.22889298  1.75033493
   7.82821906  3.25118069  4.37583732
   9.24451519 12.35320138  7.00133973
   3.36812684  7.02690306  1.93182891
   4.78442298  6.04919075  4.55733130
   6.20071912  5.07147846  7.18283371
   7.61701526  4.09376615  9.80833609
   0.69852470  2.14998861  2.80699637
   2.11482084  1.17227632  5.43249877
   3.53111698 10.27429699  8.05800116
   4.94741312  9.29658470 10.68350355
   8.70733112  6.70099895  0.18149398
   6.03772898 11.90381750  1.05666143
   7.45402512 10.92610520  3.68216384
   8.87032125  9.94839289  6.30766623
   0.30788741  1.72287235  9.11466260
   5.48410155  8.22930729  1.23815541
   6.90039768  7.25159499  3.86365782
   8.31669383  6.27388269  6.48916021
   2.81449941  3.35239285  2.11332289
   4.23079555  2.37468055  4.73882528
   5.64709168 11.47670123  7.36432769
   7.06338783 10.49898893  9.98983007
   0.14489727  8.55521139  2.98849035
   1.56119341  7.57749909  5.61399275
   2.97748955  6.59978679  8.23949514
   8.15370368 13.10622174  0.36298796
   0.34500429  9.75889893 10.30157697
   5.52121842  6.18560088  2.42506979
   6.93751456  5.20788859  5.05057219
   8.35381069  4.23017629  7.67607458
   1.43532014  2.28639874  0.67473485
   2.85161628  1.30868644  3.30023726
   4.26791242 10.41070712  5.92573965
   5.68420856  9.43299483  8.55124204
   0.18201414  6.51150498  4.17540472
   1.59831029  5.53379269  6.80090710
   3.01460642  4.55608039  9.42640951
   8.19082056 11.06251533  1.54990233
   4.58140679 10.22550600  0.68286517
   5.99770293  9.24779371  3.30836755
   7.41399907  8.27008140  5.93386996
   8.83029521  7.29236911  8.55937235
   1.91180465  5.34859157  1.55803262
   3.32810079  4.37087926  4.18353503
   4.74439693  3.39316696  6.80903742
   6.16069307  2.41545466  9.43453980
   0.65849865  9.57369781  5.05870249
   2.07479479  8.59598550  7.68420489
   3.49109094  7.61827321 10.30970728
   8.66730506  4.04497516  2.43320010
   1.88700404  8.69440959  1.56616294
   3.30330019  7.71669729  4.19166532
   4.71959632  6.73898500  6.81716773
   6.13589247  5.76127269  9.44267012
   0.63369805  2.83978286  5.06683280
   2.04999419  1.86207055  7.69233519
   3.46629032 10.96409124 10.31783759
   8.64250446  7.39079319  2.44133041
   4.55660619  3.49159105  0.69099548
   5.97290232  2.51387876  3.31649787
   7.38919846 11.61589943  5.94200025
   8.80549461 10.63818714  8.56750266
 


--------------------------------------------------------------------------------------------------------


 use parallel FFT for orbitals z direction half grid
 k-point   1 :   0.0000 0.0000 0.0000  plane waves:   21301

 maximum and minimum number of plane-waves per node :      3554     3548

 maximum number of plane-waves:     21301
 maximum index in each direction: 
   IXMAX=   17   IYMAX=   17   IZMAX=   35
   IXMIN=  -17   IYMIN=  -17   IZMIN=    0


 real space projection operators:
  total allocation   :      11163.28 KBytes
  max/ min on nodes  :       1863.77       1858.03


 parallel 3D FFT for wavefunctions:
    minimum data exchange during FFTs selected (reduces bandwidth)
 parallel 3D FFT for charge:
    minimum data exchange during FFTs selected (reduces bandwidth)


 total amount of memory used by VASP MPI-rank0    45297. kBytes
=======================================================================

   base      :      30000. kBytes
   nonlr-proj:       2283. kBytes
   fftplans  :       3383. kBytes
   grid      :       6052. kBytes
   one-center:         93. kBytes
   wavefun   :       3486. kBytes
 
     INWAV:  cpu time    0.0000: real time    0.0000
 Broyden mixing: mesh for mixing (old mesh)
   NGX = 35   NGY = 35   NGZ = 71
  (NGX  =108   NGY  =108   NGZ  =216)
  gives a total of  86975 points

 initial charge density was supplied:
 charge density of overlapping atoms calculated
 number of electron     792.0000000 magnetization 
 keeping initial charge density in first step


--------------------------------------------------------------------------------------------------------


 Maximum index for non-local projection operator          301
 Maximum index for augmentation-charges          468 (set IRDMAX)


--------------------------------------------------------------------------------------------------------


 First call to EWALD:  gamma=   0.142
 Maximum number of real-space cells 3x 3x 2
 Maximum number of reciprocal cells 2x 2x 4

    FEWALD:  cpu time    0.0026: real time    0.0026


--------------------------------------- Iteration      1(   1)  ---------------------------------------


    POTLOK:  cpu time    0.0448: real time    0.0491
    SETDIJ:  cpu time    0.0049: real time    0.0066
     EDDAV:  cpu time    2.0398: real time    2.0469
       DOS:  cpu time    0.0007: real time    0.0008
    --------------------------------------------
      LOOP:  cpu time    2.0902: real time    2.1034

 eigenvalue-minimisations  :  1168
 total energy-change (2. order) : 0.9685948E+04  (-0.5082595E+05)
 number of electron     792.0000000 magnetization 
 augmentation part      792.0000000 magnetization 

 Free energy of the ion-electron system (eV)
  ---------------------------------------------------
  alpha Z        PSCENC =      1893.09323658
  Ewald energy   TEWEN  =    161903.53598335
  -Hartree energ DENC   =   -284486.30119772
  -exchange      EXHF   =         0.00000000
  -V(xc)+E(xc)   XCENC  =      3651.25889304
  PAW double counting   =    112729.53333415  -117641.51188735
  entropy T*S    EENTRO =        -0.46303850
  eigenvalues    EBANDS =     -4365.80240689
  atomic energy  EATOM  =    136002.60505376
  Solvation  Ediel_sol  =         0.00000000
  ---------------------------------------------------
  free energy    TOTEN  =      9685.94797042 eV

  energy without entropy =     9686.41100892  energy(sigma->0) =     9686.17948967


--------------------------------------------------------------------------------------------------------




--------------------------------------- Iteration      1(   2)  ---------------------------------------


     EDDAV:  cpu time    1.8177: real time    1.8256
       DOS:  cpu time    0.0006: real time    0.0006
    --------------------------------------------
      LOOP:  cpu time    1.8183: real time    1.8262

 eigenvalue-minimisations  :  1016
 total energy-change (2. order) :-0.9089730E+04  (-0.8768833E+04)
 number of electron     792.0000000 magnetization 
 augmentation part      792.0000000 magnetization 

 Free energy of the ion-electron system (eV)
  ---------------------------------------------------
  alpha Z        PSCENC =      1893.09323658
  Ewald energy   TEWEN  =    161903.53598335
  -Hartree energ DENC   =   -284486.30119772
  -exchange      EXHF   =         0.00000000
  -V(xc)+E(xc)   XCENC  =      3651.25889304
  PAW double counting   =    112729.53333415  -117641.51188735
  entropy T*S    EENTRO =        -0.85248954
  eigenvalues    EBANDS =    -13455.14265414
  atomic energy  EATOM  =    136002.60505376
  Solvation  Ediel_sol  =         0.00000000
  ---------------------------------------------------
  free energy    TOTEN  =       596.21827213 eV

  energy without entropy =      597.07076167  energy(sigma->0) =      596.64451690


--------------------------------------------------------------------------------------------------------




--------------------------------------- Iteration      1(   3)  ---------------------------------------


     EDDAV:  cpu time    1.9016: real time    1.9085
       DOS:  cpu time    0.0006: real time    0.0006
    --------------------------------------------
      LOOP:  cpu time    1.9022: real time    1.9091

 eigenvalue-minimisations  :  1088
 total energy-change (2. order) :-0.9381840E+03  (-0.8819395E+03)
 number of electron     792.0000000 magnetization 
 augmentation part      792.0000000 magnetization 

 Free energy of the ion-electron system (eV)
  ---------------------------------------------------
  alpha Z        PSCENC =      1893.09323658
  Ewald energy   TEWEN  =    161903.53598335
  -Hartree energ DENC   =   -284486.30119772
  -exchange      EXHF   =         0.00000000
  -V(xc)+E(xc)   XCENC  =      3651.25889304
  PAW double counting   =    112729.53333415  -117641.51188735
  entropy T*S    EENTRO =        -1.21128891
  eigenvalues    EBANDS =    -14392.96785152
  atomic energy  EATOM  =    136002.60505376
  Solvation  Ediel_sol  =         0.00000000
  ---------------------------------------------------
  free energy    TOTEN  =      -341.96572462 eV

  energy without entropy =     -340.75443571  energy(sigma->0) =     -341.36008016


--------------------------------------------------------------------------------------------------------




--------------------------------------- Iteration      1(   4)  ---------------------------------------


     EDDAV:  cpu time    2.0001: real time    2.0063
       DOS:  cpu time    0.0007: real time    0.0007
    --------------------------------------------
      LOOP:  cpu time    2.0008: real time    2.0069

 eigenvalue-minimisations  :  1136
 total energy-change (2. order) :-0.6082949E+02  (-0.6014121E+02)
 number of electron     792.0000000 magnetization 
 augmentation part      792.0000000 magnetization 

 Free energy of the ion-electron system (eV)
  ---------------------------------------------------
  alpha Z        PSCENC =      1893.09323658
  Ewald energy   TEWEN  =    161903.53598335
  -Hartree energ DENC   =   -284486.30119772
  -exchange      EXHF   =         0.00000000
  -V(xc)+E(xc)   XCENC  =      3651.25889304
  PAW double counting   =    112729.53333415  -117641.51188735
  entropy T*S    EENTRO =        -1.25902373
  eigenvalues    EBANDS =    -14453.74960263
  atomic energy  EATOM  =    136002.60505376
  Solvation  Ediel_sol  =         0.00000000
  ---------------------------------------------------
  free energy    TOTEN  =      -402.79521055 eV

  energy without entropy =     -401.53618682  energy(sigma->0) =     -402.16569868


--------------------------------------------------------------------------------------------------------




--------------------------------------- Iteration      1(   5)  ---------------------------------------


     EDDAV:  cpu time    2.0893: real time    2.0954
       DOS:  cpu time    0.0006: real time    0.0006
    CHARGE:  cpu time    0.0395: real time    0.0397
    MIXING:  cpu time    0.0024: real time    0.0027
    --------------------------------------------
      LOOP:  cpu time    2.1318: real time    2.1384

 eigenvalue-minimisations  :  1232
 total energy-change (2. order) :-0.2185185E+01  (-0.2181974E+01)
 number of electron     792.0000151 magnetization 
 augmentation part      286.3420192 magnetization 

 Broyden mixing:
  rms(total) = 0.81922E+01    rms(broyden)= 0.81776E+01
  rms(prec ) = 0.86068E+01
  weight for this iteration     100.00

 Free energy of the ion-electron system (eV)
  ---------------------------------------------------
  alpha Z        PSCENC =      1893.09323658
  Ewald energy   TEWEN  =    161903.53598335
  -Hartree energ DENC   =   -284486.30119772
  -exchange      EXHF   =         0.00000000
  -V(xc)+E(xc)   XCENC  =      3651.25889304
  PAW double counting   =    112729.53333415  -117641.51188735
  entropy T*S    EENTRO =        -1.26124696
  eigenvalues    EBANDS =    -14455.93256395
  atomic energy  EATOM  =    136002.60505376
  Solvation  Ediel_sol  =         0.00000000
  ---------------------------------------------------
  free energy    TOTEN  =      -404.98039510 eV

  energy without entropy =     -403.71914814  energy(sigma->0) =     -404.34977162


--------------------------------------------------------------------------------------------------------




--------------------------------------- Iteration      1(   6)  ---------------------------------------


    POTLOK:  cpu time    0.0431: real time    0.0432
    SETDIJ:  cpu time    0.0045: real time    0.0063
     EDDAV:  cpu time    2.0052: real time    2.0104
       DOS:  cpu time    0.0008: real time    0.0008
    CHARGE:  cpu time    0.0377: real time    0.0377
    MIXING:  cpu time    0.0020: real time    0.0023
    --------------------------------------------
      LOOP:  cpu time    2.0933: real time    2.1007

 eigenvalue-minimisations  :  1152
 total energy-change (2. order) :-0.8307613E+02  (-0.9643618E+02)
 number of electron     792.0000173 magnetization 
 augmentation part      352.8273901 magnetization 

 Broyden mixing:
  rms(total) = 0.15677E+02    rms(broyden)= 0.15674E+02
  rms(prec ) = 0.16323E+02
  weight for this iteration     100.00

 eigenvalues of (default mixing * dielectric matrix)
  average eigenvalue GAMMA=   0.2278
  0.2278

 Free energy of the ion-electron system (eV)
  ---------------------------------------------------
  alpha Z        PSCENC =      1893.09323658
  Ewald energy   TEWEN  =    161903.53598335
  -Hartree energ DENC   =   -281779.61291606
  -exchange      EXHF   =         0.00000000
  -V(xc)+E(xc)   XCENC  =      3574.62867107
  PAW double counting   =    114496.86013746  -119169.54105130
  entropy T*S    EENTRO =        -1.02970703
  eigenvalues    EBANDS =    -17408.59593397
  atomic energy  EATOM  =    136002.60505376
  Solvation  Ediel_sol  =         0.00000000
  ---------------------------------------------------
  free energy    TOTEN  =      -488.05652615 eV

  energy without entropy =     -487.02681912  energy(sigma->0) =     -487.54167264


--------------------------------------------------------------------------------------------------------




--------------------------------------- Iteration      1(   7)  ---------------------------------------


    POTLOK:  cpu time    0.0425: real time    0.0426
    SETDIJ:  cpu time    0.0050: real time    0.0050
     EDDAV:  cpu time    2.0189: real time    2.0249
       DOS:  cpu time    0.0008: real time    0.0008
    CHARGE:  cpu time    0.0384: real time    0.0385
    MIXING:  cpu time    0.0018: real time    0.0018
    --------------------------------------------
      LOOP:  cpu time    2.1074: real time    2.1136

 eigenvalue-minimisations  :  1144
 total energy-change (2. order) : 0.1135854E+03  (-0.1734721E+02)
 number of electron     792.0000175 magnetization 
 augmentation part      331.8315560 magnetization 

 Broyden mixing:
  rms(total) = 0.63064E+01    rms(broyden)= 0.63051E+01
  rms(prec ) = 0.66842E+01
  weight for this iteration     100.00

 eigenvalues of (default mixing * dielectric matrix)
  average eigenvalue GAMMA=   0.5068
  0.5068  0.5068

 Free energy of the ion-electron system (eV)
  ---------------------------------------------------
  alpha Z        PSCENC =      1893.09323658
  Ewald energy   TEWEN  =    161903.53598335
  -Hartree energ DENC   =   -282999.10034366
  -exchange      EXHF   =         0.00000000
  -V(xc)+E(xc)   XCENC  =      3603.94802689
  PAW double counting   =    118590.47533648  -123408.27299056
  entropy T*S    EENTRO =        -0.83917556
  eigenvalues    EBANDS =    -15959.91625580
  atomic energy  EATOM  =    136002.60505376
  Solvation  Ediel_sol  =         0.00000000
  ---------------------------------------------------
  free energy    TOTEN  =      -374.47112852 eV

  energy without entropy =     -373.63195296  energy(sigma->0) =     -374.05154074


--------------------------------------------------------------------------------------------------------




--------------------------------------- Iteration      1(   8)  ---------------------------------------


    POTLOK:  cpu time    0.0436: real time    0.0459
    SETDIJ:  cpu time    0.0044: real time    0.0064
     EDDAV:  cpu time    2.1585: real time    2.1655
       DOS:  cpu time    0.0006: real time    0.0006
    CHARGE:  cpu time    0.0383: real time    0.0384
    MIXING:  cpu time    0.0018: real time    0.0018
    --------------------------------------------
      LOOP:  cpu time    2.2473: real time    2.2586

 eigenvalue-minimisations  :  1240
 total energy-change (2. order) :-0.1241525E+03  (-0.1374129E+02)
 number of electron     792.0000164 magnetization 
 augmentation part      303.8937602 magnetization 

 Broyden mixing:
  rms(total) = 0.17615E+02    rms(broyden)= 0.17612E+02
  rms(prec ) = 0.22235E+02
  weight for this iteration     100.00

 eigenvalues of (default mixing * dielectric matrix)
  average eigenvalue GAMMA=   0.4059
  0.6758  0.4561  0.0859

 Free energy of the ion-electron system (eV)
  ---------------------------------------------------
  alpha Z        PSCENC =      1893.09323658
  Ewald energy   TEWEN  =    161903.53598335
  -Hartree energ DENC   =   -283535.93393126
  -exchange      EXHF   =         0.00000000
  -V(xc)+E(xc)   XCENC  =      3624.12015482
  PAW double counting   =    123653.04249519  -128572.61933992
  entropy T*S    EENTRO =        -0.74762344
  eigenvalues    EBANDS =    -15465.71967345
  atomic energy  EATOM  =    136002.60505376
  Solvation  Ediel_sol  =         0.00000000
  ---------------------------------------------------
  free energy    TOTEN  =      -498.62364437 eV

  energy without entropy =     -497.87602093  energy(sigma->0) =     -498.24983265


--------------------------------------------------------------------------------------------------------




--------------------------------------- Iteration      1(   9)  ---------------------------------------


    POTLOK:  cpu time    0.0430: real time    0.0449
    SETDIJ:  cpu time    0.0046: real time    0.0062
     EDDAV:  cpu time    2.1146: real time    2.1198
       DOS:  cpu time    0.0006: real time    0.0006
    CHARGE:  cpu time    0.0382: real time    0.0383
    MIXING:  cpu time    0.0018: real time    0.0018
    --------------------------------------------
      LOOP:  cpu time    2.2029: real time    2.2116

 eigenvalue-minimisations  :  1224
 total energy-change (2. order) : 0.1261255E+03  (-0.1393515E+02)
 number of electron     792.0000138 magnetization 
 augmentation part      309.8626230 magnetization 

 Broyden mixing:
  rms(total) = 0.55624E+01    rms(broyden)= 0.55509E+01
  rms(prec ) = 0.62530E+01
  weight for this iteration     100.00

 eigenvalues of (default mixing * dielectric matrix)
  average eigenvalue GAMMA=   0.4329
  0.9795  0.3348  0.3348  0.0826

 Free energy of the ion-electron system (eV)
  ---------------------------------------------------
  alpha Z        PSCENC =      1893.09323658
  Ewald energy   TEWEN  =    161903.53598335
  -Hartree energ DENC   =   -283701.91095085
  -exchange      EXHF   =         0.00000000
  -V(xc)+E(xc)   XCENC  =      3624.76482435
  PAW double counting   =    125382.47206726  -130320.25204079
  entropy T*S    EENTRO =        -1.32401082
  eigenvalues    EBANDS =    -15155.48232890
  atomic energy  EATOM  =    136002.60505376
  Solvation  Ediel_sol  =         0.00000000
  ---------------------------------------------------
  free energy    TOTEN  =      -372.49816606 eV

  energy without entropy =     -371.17415525  energy(sigma->0) =     -371.83616065


--------------------------------------------------------------------------------------------------------




--------------------------------------- Iteration      1(  10)  ---------------------------------------


    POTLOK:  cpu time    0.0431: real time    0.0432
    SETDIJ:  cpu time    0.0049: real time    0.0049
     EDDAV:  cpu time    2.4024: real time    2.4081
       DOS:  cpu time    0.0006: real time    0.0006
    CHARGE:  cpu time    0.0384: real time    0.0385
    MIXING:  cpu time    0.0019: real time    0.0019
    --------------------------------------------
      LOOP:  cpu time    2.4913: real time    2.4973

 eigenvalue-minimisations  :  1432
 total energy-change (2. order) :-0.6229988E+01  (-0.5633084E+01)
 number of electron     792.0000176 magnetization 
 augmentation part      304.5596645 magnetization 

 Broyden mixing:
  rms(total) = 0.91189E+01    rms(broyden)= 0.91139E+01
  rms(prec ) = 0.11096E+02
  weight for this iteration     100.00

 eigenvalues of (default mixing * dielectric matrix)
  average eigenvalue GAMMA=   0.5192
  1.6168  0.3994  0.3994  0.0903  0.0903

 Free energy of the ion-electron system (eV)
  ---------------------------------------------------
  alpha Z        PSCENC =      1893.09323658
  Ewald energy   TEWEN  =    161903.53598335
  -Hartree energ DENC   =   -283702.19909534
  -exchange      EXHF   =         0.00000000
  -V(xc)+E(xc)   XCENC  =      3625.17814465
  PAW double counting   =    127252.02067872  -132208.30271322
  entropy T*S    EENTRO =        -1.62013760
  eigenvalues    EBANDS =    -15143.03930460
  atomic energy  EATOM  =    136002.60505376
  Solvation  Ediel_sol  =         0.00000000
  ---------------------------------------------------
  free energy    TOTEN  =      -378.72815371 eV

  energy without entropy =     -377.10801610  energy(sigma->0) =     -377.91808491


--------------------------------------------------------------------------------------------------------




--------------------------------------- Iteration      1(  11)  ---------------------------------------


    POTLOK:  cpu time    0.0428: real time    0.0429
    SETDIJ:  cpu time    0.0048: real time    0.0048
     EDDAV:  cpu time    2.2572: real time    2.2626
       DOS:  cpu time    0.0006: real time    0.0006
    CHARGE:  cpu time    0.0395: real time    0.0396
    MIXING:  cpu time    0.0019: real time    0.0019
    --------------------------------------------
      LOOP:  cpu time    2.3468: real time    2.3524

 eigenvalue-minimisations  :  1312
 total energy-change (2. order) :-0.2165119E+01  (-0.8052721E+01)
 number of electron     792.0000194 magnetization 
 augmentation part      308.6562212 magnetization 

 Broyden mixing:
  rms(total) = 0.69089E+01    rms(broyden)= 0.69062E+01
  rms(prec ) = 0.79192E+01
  weight for this iteration     100.00

 eigenvalues of (default mixing * dielectric matrix)
  average eigenvalue GAMMA=   0.5269
  2.0210  0.4140  0.4140  0.1123  0.1123  0.0880

 Free energy of the ion-electron system (eV)
  ---------------------------------------------------
  alpha Z        PSCENC =      1893.09323658
  Ewald energy   TEWEN  =    161903.53598335
  -Hartree energ DENC   =   -283739.48328206
  -exchange      EXHF   =         0.00000000
  -V(xc)+E(xc)   XCENC  =      3621.47809664
  PAW double counting   =    130116.81145104  -135088.46504768
  entropy T*S    EENTRO =        -1.19409160
  eigenvalues    EBANDS =    -15089.27467241
  atomic energy  EATOM  =    136002.60505376
  Solvation  Ediel_sol  =         0.00000000
  ---------------------------------------------------
  free energy    TOTEN  =      -380.89327240 eV

  energy without entropy =     -379.69918080  energy(sigma->0) =     -380.29622660


--------------------------------------------------------------------------------------------------------




--------------------------------------- Iteration      1(  12)  ---------------------------------------


    POTLOK:  cpu time    0.0424: real time    0.0425
    SETDIJ:  cpu time    0.0048: real time    0.0048
     EDDAV:  cpu time    2.2386: real time    2.2453
       DOS:  cpu time    0.0006: real time    0.0006
    CHARGE:  cpu time    0.0392: real time    0.0393
    MIXING:  cpu time    0.0021: real time    0.0022
    --------------------------------------------
      LOOP:  cpu time    2.3277: real time    2.3346

 eigenvalue-minimisations  :  1296
 total energy-change (2. order) : 0.1176543E+02  (-0.3417282E+01)
 number of electron     792.0000155 magnetization 
 augmentation part      311.1164128 magnetization 

 Broyden mixing:
  rms(total) = 0.67510E+01    rms(broyden)= 0.67485E+01
  rms(prec ) = 0.79313E+01
  weight for this iteration     100.00

 eigenvalues of (default mixing * dielectric matrix)
  average eigenvalue GAMMA=   0.4704
  2.0531  0.4114  0.4114  0.1280  0.1280  0.0806  0.0806

 Free energy of the ion-electron system (eV)
  ---------------------------------------------------
  alpha Z        PSCENC =      1893.09323658
  Ewald energy   TEWEN  =    161903.53598335
  -Hartree energ DENC   =   -283630.44259709
  -exchange      EXHF   =         0.00000000
  -V(xc)+E(xc)   XCENC  =      3620.32576998
  PAW double counting   =    132018.15313843  -137005.25261912
  entropy T*S    EENTRO =        -1.06803004
  eigenvalues    EBANDS =    -15170.07777578
  atomic energy  EATOM  =    136002.60505376
  Solvation  Ediel_sol  =         0.00000000
  ---------------------------------------------------
  free energy    TOTEN  =      -369.12783993 eV

  energy without entropy =     -368.05980989  energy(sigma->0) =     -368.59382491


--------------------------------------------------------------------------------------------------------




--------------------------------------- Iteration      1(  13)  ---------------------------------------


    POTLOK:  cpu time    0.0429: real time    0.0439
    SETDIJ:  cpu time    0.0043: real time    0.0064
     EDDAV:  cpu time    2.2308: real time    2.2361
       DOS:  cpu time    0.0006: real time    0.0006
    CHARGE:  cpu time    0.0397: real time    0.0397
    MIXING:  cpu time    0.0021: real time    0.0021
    --------------------------------------------
      LOOP:  cpu time    2.3204: real time    2.3289

 eigenvalue-minimisations  :  1304
 total energy-change (2. order) : 0.2359691E+01  (-0.4095654E+01)
 number of electron     792.0000165 magnetization 
 augmentation part      313.6982425 magnetization 

 Broyden mixing:
  rms(total) = 0.35584E+01    rms(broyden)= 0.35572E+01
  rms(prec ) = 0.40162E+01
  weight for this iteration     100.00

 eigenvalues of (default mixing * dielectric matrix)
  average eigenvalue GAMMA=   0.4550
  2.0965  0.4100  0.4100  0.3070  0.1422  0.0993  0.0993  0.0754

 Free energy of the ion-electron system (eV)
  ---------------------------------------------------
  alpha Z        PSCENC =      1893.09323658
  Ewald energy   TEWEN  =    161903.53598335
  -Hartree energ DENC   =   -283645.83658824
  -exchange      EXHF   =         0.00000000
  -V(xc)+E(xc)   XCENC  =      3619.42988702
  PAW double counting   =    132328.39571085  -137316.60170727
  entropy T*S    EENTRO =        -0.92201767
  eigenvalues    EBANDS =    -15150.46770737
  atomic energy  EATOM  =    136002.60505376
  Solvation  Ediel_sol  =         0.00000000
  ---------------------------------------------------
  free energy    TOTEN  =      -366.76814901 eV

  energy without entropy =     -365.84613133  energy(sigma->0) =     -366.30714017


--------------------------------------------------------------------------------------------------------




--------------------------------------- Iteration      1(  14)  ---------------------------------------


    POTLOK:  cpu time    0.0429: real time    0.0430
    SETDIJ:  cpu time    0.0048: real time    0.0048
     EDDAV:  cpu time    2.1536: real time    2.1587
       DOS:  cpu time    0.0006: real time    0.0006
    CHARGE:  cpu time    0.0400: real time    0.0401
    MIXING:  cpu time    0.0023: real time    0.0023
    --------------------------------------------
      LOOP:  cpu time    2.2442: real time    2.2495

 eigenvalue-minimisations  :  1232
 total energy-change (2. order) : 0.5320026E+01  (-0.1178044E+01)
 number of electron     792.0000160 magnetization 
 augmentation part      314.6094304 magnetization 

 Broyden mixing:
  rms(total) = 0.30893E+01    rms(broyden)= 0.30877E+01
  rms(prec ) = 0.35783E+01
  weight for this iteration     100.00

 eigenvalues of (default mixing * dielectric matrix)
  average eigenvalue GAMMA=   0.4473
  1.9999  0.5060  0.4366  0.4366  0.2424  0.1159  0.1159  0.0861  0.0861

 Free energy of the ion-electron system (eV)
  ---------------------------------------------------
  alpha Z        PSCENC =      1893.09323658
  Ewald energy   TEWEN  =    161903.53598335
  -Hartree energ DENC   =   -283637.66989296
  -exchange      EXHF   =         0.00000000
  -V(xc)+E(xc)   XCENC  =      3619.86331781
  PAW double counting   =    132613.23098308  -137606.95985315
  entropy T*S    EENTRO =        -0.99082759
  eigenvalues    EBANDS =    -15148.15612406
  atomic energy  EATOM  =    136002.60505376
  Solvation  Ediel_sol  =         0.00000000
  ---------------------------------------------------
  free energy    TOTEN  =      -361.44812319 eV

  energy without entropy =     -360.45729560  energy(sigma->0) =     -360.95270939


--------------------------------------------------------------------------------------------------------




--------------------------------------- Iteration      1(  15)  ---------------------------------------


    POTLOK:  cpu time    0.0435: real time    0.0460
    SETDIJ:  cpu time    0.0049: real time    0.0049
     EDDAV:  cpu time    2.2500: real time    2.2554
       DOS:  cpu time    0.0006: real time    0.0006
    CHARGE:  cpu time    0.0395: real time    0.0396
    MIXING:  cpu time    0.0023: real time    0.0023
    --------------------------------------------
      LOOP:  cpu time    2.3408: real time    2.3488

 eigenvalue-minimisations  :  1320
 total energy-change (2. order) : 0.1149669E+01  (-0.7583698E+00)
 number of electron     792.0000170 magnetization 
 augmentation part      313.6639289 magnetization 

 Broyden mixing:
  rms(total) = 0.27784E+01    rms(broyden)= 0.27773E+01
  rms(prec ) = 0.32347E+01
  weight for this iteration     100.00

 eigenvalues of (default mixing * dielectric matrix)
  average eigenvalue GAMMA=   0.4273
  1.9525  0.4959  0.4959  0.3855  0.3855  0.1521  0.1151  0.1151  0.0875  0.0875

 Free energy of the ion-electron system (eV)
  ---------------------------------------------------
  alpha Z        PSCENC =      1893.09323658
  Ewald energy   TEWEN  =    161903.53598335
  -Hartree energ DENC   =   -283675.84799576
  -exchange      EXHF   =         0.00000000
  -V(xc)+E(xc)   XCENC  =      3620.84647317
  PAW double counting   =    132267.32137801  -137260.68773431
  entropy T*S    EENTRO =        -0.99854547
  eigenvalues    EBANDS =    -15110.16630379
  atomic energy  EATOM  =    136002.60505376
  Solvation  Ediel_sol  =         0.00000000
  ---------------------------------------------------
  free energy    TOTEN  =      -360.29845446 eV

  energy without entropy =     -359.29990899  energy(sigma->0) =     -359.79918173


--------------------------------------------------------------------------------------------------------




--------------------------------------- Iteration      1(  16)  ---------------------------------------


    POTLOK:  cpu time    0.0429: real time    0.0430
    SETDIJ:  cpu time    0.0048: real time    0.0049
     EDDAV:  cpu time    2.1131: real time    2.1181
       DOS:  cpu time    0.0006: real time    0.0006
    CHARGE:  cpu time    0.0421: real time    0.0422
    MIXING:  cpu time    0.0025: real time    0.0025
    --------------------------------------------
      LOOP:  cpu time    2.2059: real time    2.2111

 eigenvalue-minimisations  :  1216
 total energy-change (2. order) : 0.2536479E+01  (-0.2806528E+00)
 number of electron     792.0000165 magnetization 
 augmentation part      313.2983863 magnetization 

 Broyden mixing:
  rms(total) = 0.18924E+01    rms(broyden)= 0.18917E+01
  rms(prec ) = 0.22122E+01
  weight for this iteration     100.00

 eigenvalues of (default mixing * dielectric matrix)
  average eigenvalue GAMMA=   0.4398
  1.9242  0.6573  0.6573  0.3985  0.3985  0.2355  0.1664  0.1136  0.1136  0.0865
  0.0865

 Free energy of the ion-electron system (eV)
  ---------------------------------------------------
  alpha Z        PSCENC =      1893.09323658
  Ewald energy   TEWEN  =    161903.53598335
  -Hartree energ DENC   =   -283695.12144357
  -exchange      EXHF   =         0.00000000
  -V(xc)+E(xc)   XCENC  =      3621.47712753
  PAW double counting   =    132024.95470228  -137017.34020532
  entropy T*S    EENTRO =        -0.97608244
  eigenvalues    EBANDS =    -15089.99034762
  atomic energy  EATOM  =    136002.60505376
  Solvation  Ediel_sol  =         0.00000000
  ---------------------------------------------------
  free energy    TOTEN  =      -357.76197544 eV

  energy without entropy =     -356.78589300  energy(sigma->0) =     -357.27393422


--------------------------------------------------------------------------------------------------------




--------------------------------------- Iteration      1(  17)  ---------------------------------------


    POTLOK:  cpu time    0.0428: real time    0.0429
    SETDIJ:  cpu time    0.0049: real time    0.0049
     EDDAV:  cpu time    2.2497: real time    2.2551
       DOS:  cpu time    0.0006: real time    0.0006
    CHARGE:  cpu time    0.0421: real time    0.0422
    MIXING:  cpu time    0.0025: real time    0.0025
    --------------------------------------------
      LOOP:  cpu time    2.3425: real time    2.3481

 eigenvalue-minimisations  :  1312
 total energy-change (2. order) : 0.9108447E+00  (-0.1367532E+00)
 number of electron     792.0000161 magnetization 
 augmentation part      312.7114371 magnetization 

 Broyden mixing:
  rms(total) = 0.17569E+01    rms(broyden)= 0.17565E+01
  rms(prec ) = 0.20565E+01
  weight for this iteration     100.00

 eigenvalues of (default mixing * dielectric matrix)
  average eigenvalue GAMMA=   0.4633
  1.9769  0.8736  0.8736  0.4086  0.4086  0.2351  0.2351  0.1452  0.1149  0.1149
  0.0868  0.0868

 Free energy of the ion-electron system (eV)
  ---------------------------------------------------
  alpha Z        PSCENC =      1893.09323658
  Ewald energy   TEWEN  =    161903.53598335
  -Hartree energ DENC   =   -283711.77052678
  -exchange      EXHF   =         0.00000000
  -V(xc)+E(xc)   XCENC  =      3621.87049662
  PAW double counting   =    131803.79328250  -136793.73403909
  entropy T*S    EENTRO =        -0.99001994
  eigenvalues    EBANDS =    -15075.25459772
  atomic energy  EATOM  =    136002.60505376
  Solvation  Ediel_sol  =         0.00000000
  ---------------------------------------------------
  free energy    TOTEN  =      -356.85113072 eV

  energy without entropy =     -355.86111078  energy(sigma->0) =     -356.35612075


--------------------------------------------------------------------------------------------------------




--------------------------------------- Iteration      1(  18)  ---------------------------------------


    POTLOK:  cpu time    0.0430: real time    0.0431
    SETDIJ:  cpu time    0.0048: real time    0.0048
     EDDAV:  cpu time    2.2367: real time    2.2420
       DOS:  cpu time    0.0006: real time    0.0006
    CHARGE:  cpu time    0.0420: real time    0.0421
    MIXING:  cpu time    0.0025: real time    0.0025
    --------------------------------------------
      LOOP:  cpu time    2.3296: real time    2.3351

 eigenvalue-minimisations  :  1304
 total energy-change (2. order) : 0.8794491E+00  (-0.1130624E+00)
 number of electron     792.0000168 magnetization 
 augmentation part      312.6580050 magnetization 

 Broyden mixing:
  rms(total) = 0.13886E+01    rms(broyden)= 0.13882E+01
  rms(prec ) = 0.15976E+01
  weight for this iteration     100.00

 eigenvalues of (default mixing * dielectric matrix)
  average eigenvalue GAMMA=   0.4934
  2.0328  1.0752  1.0752  0.4286  0.4286  0.3909  0.2700  0.0867  0.0867  0.1140
  0.1140  0.1634  0.1481

 Free energy of the ion-electron system (eV)
  ---------------------------------------------------
  alpha Z        PSCENC =      1893.09323658
  Ewald energy   TEWEN  =    161903.53598335
  -Hartree energ DENC   =   -283711.93499164
  -exchange      EXHF   =         0.00000000
  -V(xc)+E(xc)   XCENC  =      3621.90259322
  PAW double counting   =    131672.80894403  -136659.46817483
  entropy T*S    EENTRO =        -0.98420459
  eigenvalues    EBANDS =    -15077.53012151
  atomic energy  EATOM  =    136002.60505376
  Solvation  Ediel_sol  =         0.00000000
  ---------------------------------------------------
  free energy    TOTEN  =      -355.97168163 eV

  energy without entropy =     -354.98747704  energy(sigma->0) =     -355.47957934


--------------------------------------------------------------------------------------------------------




--------------------------------------- Iteration      1(  19)  ---------------------------------------


    POTLOK:  cpu time    0.0429: real time    0.0431
    SETDIJ:  cpu time    0.0048: real time    0.0048
     EDDAV:  cpu time    2.2640: real time    2.2694
       DOS:  cpu time    0.0006: real time    0.0006
    CHARGE:  cpu time    0.0426: real time    0.0427
    MIXING:  cpu time    0.0028: real time    0.0028
    --------------------------------------------
      LOOP:  cpu time    2.3576: real time    2.3632

 eigenvalue-minimisations  :  1312
 total energy-change (2. order) : 0.4453638E+00  (-0.7271256E-01)
 number of electron     792.0000161 magnetization 
 augmentation part      312.8244405 magnetization 

 Broyden mixing:
  rms(total) = 0.11281E+01    rms(broyden)= 0.11276E+01
  rms(prec ) = 0.12940E+01
  weight for this iteration     100.00

 eigenvalues of (default mixing * dielectric matrix)
  average eigenvalue GAMMA=   0.4934
  2.0524  1.1963  1.1963  0.4385  0.4385  0.4344  0.2681  0.1813  0.0867  0.0867
  0.1139  0.1139  0.1502  0.1502

 Free energy of the ion-electron system (eV)
  ---------------------------------------------------
  alpha Z        PSCENC =      1893.09323658
  Ewald energy   TEWEN  =    161903.53598335
  -Hartree energ DENC   =   -283708.63066191
  -exchange      EXHF   =         0.00000000
  -V(xc)+E(xc)   XCENC  =      3621.77347373
  PAW double counting   =    131584.96374663  -136568.39121623
  entropy T*S    EENTRO =        -1.01589650
  eigenvalues    EBANDS =    -15083.46003725
  atomic energy  EATOM  =    136002.60505376
  Solvation  Ediel_sol  =         0.00000000
  ---------------------------------------------------
  free energy    TOTEN  =      -355.52631784 eV

  energy without entropy =     -354.51042134  energy(sigma->0) =     -355.01836959


--------------------------------------------------------------------------------------------------------




--------------------------------------- Iteration      1(  20)  ---------------------------------------


    POTLOK:  cpu time    0.0436: real time    0.0443
    SETDIJ:  cpu time    0.0043: real time    0.0064
     EDDAV:  cpu time    2.2622: real time    2.2688
       DOS:  cpu time    0.0006: real time    0.0006
    CHARGE:  cpu time    0.0427: real time    0.0428
    MIXING:  cpu time    0.0030: real time    0.0030
    --------------------------------------------
      LOOP:  cpu time    2.3563: real time    2.3659

 eigenvalue-minimisations  :  1320
 total energy-change (2. order) : 0.2829838E+00  (-0.3856527E-01)
 number of electron     792.0000162 magnetization 
 augmentation part      312.8337980 magnetization 

 Broyden mixing:
  rms(total) = 0.85988E+00    rms(broyden)= 0.85952E+00
  rms(prec ) = 0.97734E+00
  weight for this iteration     100.00

 eigenvalues of (default mixing * dielectric matrix)
  average eigenvalue GAMMA=   0.5058
  2.0257  1.3432  1.3432  0.4803  0.4803  0.3907  0.3907  0.2627  0.0867  0.0867
  0.1139  0.1139  0.1767  0.1533  0.1396

 Free energy of the ion-electron system (eV)
  ---------------------------------------------------
  alpha Z        PSCENC =      1893.09323658
  Ewald energy   TEWEN  =    161903.53598335
  -Hartree energ DENC   =   -283708.92170861
  -exchange      EXHF   =         0.00000000
  -V(xc)+E(xc)   XCENC  =      3621.77761570
  PAW double counting   =    131480.27212440  -136461.64134925
  entropy T*S    EENTRO =        -1.01425356
  eigenvalues    EBANDS =    -15084.95003638
  atomic energy  EATOM  =    136002.60505376
  Solvation  Ediel_sol  =         0.00000000
  ---------------------------------------------------
  free energy    TOTEN  =      -355.24333401 eV

  energy without entropy =     -354.22908045  energy(sigma->0) =     -354.73620723


--------------------------------------------------------------------------------------------------------




--------------------------------------- Iteration      1(  21)  ---------------------------------------


    POTLOK:  cpu time    0.0437: real time    0.0449
    SETDIJ:  cpu time    0.0048: real time    0.0048
     EDDAV:  cpu time    2.2285: real time    2.2338
       DOS:  cpu time    0.0006: real time    0.0006
    CHARGE:  cpu time    0.0382: real time    0.0383
    MIXING:  cpu time    0.0028: real time    0.0029
    --------------------------------------------
      LOOP:  cpu time    2.3186: real time    2.3252

 eigenvalue-minimisations  :  1296
 total energy-change (2. order) : 0.1437433E+00  (-0.2153759E-01)
 number of electron     792.0000163 magnetization 
 augmentation part      312.5958230 magnetization 

 Broyden mixing:
  rms(total) = 0.74228E+00    rms(broyden)= 0.74198E+00
  rms(prec ) = 0.83335E+00
  weight for this iteration     100.00

 eigenvalues of (default mixing * dielectric matrix)
  average eigenvalue GAMMA=   0.5130
  1.9914  1.4655  1.4655  0.5835  0.5835  0.4120  0.4120  0.2643  0.2011  0.0867
  0.0867  0.1140  0.1140  0.1507  0.1507  0.1269

 Free energy of the ion-electron system (eV)
  ---------------------------------------------------
  alpha Z        PSCENC =      1893.09323658
  Ewald energy   TEWEN  =    161903.53598335
  -Hartree energ DENC   =   -283722.05472472
  -exchange      EXHF   =         0.00000000
  -V(xc)+E(xc)   XCENC  =      3621.91399247
  PAW double counting   =    131256.12504828  -136234.67457284
  entropy T*S    EENTRO =        -1.04590099
  eigenvalues    EBANDS =    -15074.59770666
  atomic energy  EATOM  =    136002.60505376
  Solvation  Ediel_sol  =         0.00000000
  ---------------------------------------------------
  free energy    TOTEN  =      -355.09959076 eV

  energy without entropy =     -354.05368977  energy(sigma->0) =     -354.57664027


--------------------------------------------------------------------------------------------------------




--------------------------------------- Iteration      1(  22)  ---------------------------------------


    POTLOK:  cpu time    0.0433: real time    0.0434
    SETDIJ:  cpu time    0.0047: real time    0.0048
[...]
    FORCOR:  cpu time    0.0554: real time    0.0557
    FORHAR:  cpu time    0.0243: real time    0.0244
    MIXING:  cpu time    0.0062: real time    0.0062
    OFIELD:  cpu time    0.0001: real time    0.0001

  FORCE on cell =-STRESS in cart. coord.  units (eV):
  Direction    XX          YY          ZZ          XY          YZ          ZX
  --------------------------------------------------------------------------------------
  Alpha Z  1893.09324  1893.09324  1893.09324
  Ewald  211246.68207209174.68672************  -142.10748  -461.35800   591.57249
  Hartree248349.42717246547.71972************   -12.77866  -367.83816   376.40971
  E(xc)   -5026.29692 -5026.55836 -5030.24216    -0.47489    -0.42155     0.88433
  Local  ************************456601.38126   135.83441   817.45381  -935.19957
  n-local  -689.72153  -688.60923  -694.90382    -3.29564    -2.99175     3.00739
  augment  5790.74732  5789.31619  5802.80651    10.53653     6.59570   -12.43055
  Kinetic 10968.04285 10963.93363 10999.73538    16.12383    15.52175   -34.78818
  Fock        0.00000     0.00000     0.00000     0.00000     0.00000     0.00000
  -------------------------------------------------------------------------------------
  Total     -30.53061   -32.11279   -26.34989     3.83810     6.96180   -10.54439
  in kB     -24.89355   -26.18360   -21.48474     3.12945     5.67640    -8.59751
  external pressure =      -24.19 kB  Pullay stress =        0.00 kB


 VOLUME and BASIS-vectors are now :
 -----------------------------------------------------------------------------
  energy-cutoff  :      450.00
  volume of cell :     1964.98
      direct lattice vectors                 reciprocal lattice vectors
     9.425102554  3.573298043  0.000000000     0.106099641  0.000000000  0.000000000
     0.000000000 10.079732985  0.000000000    -0.037612667  0.099208977  0.000000000
     0.000000000  0.000000000 20.683503555     0.000000000  0.000000000  0.048347708

  length of vectors
    10.079732985 10.079732985 20.683503555     0.106099641  0.106099641  0.048347708


 FORCES acting on ions
    electron-ion (+dipol)            ewald-force                    non-local-force                 convergence-correction
 -----------------------------------------------------------------------------------------------
   0.596E+02 0.127E+03 0.472E+04   -.591E+02 -.123E+03 -.471E+04   -.344E+00 -.329E+01 -.880E+01   0.727E-02 -.781E-02 0.124E-01
   0.139E+03 -.264E+03 0.266E+04   -.140E+03 0.265E+03 -.266E+04   0.107E+01 -.109E+01 0.186E+01   0.727E-02 -.494E-02 0.458E-01
   0.123E+03 -.374E+03 -.156E+03   -.124E+03 0.375E+03 0.155E+03   0.130E+01 -.112E+01 0.634E+00   0.876E-04 0.668E-02 0.259E-01
   0.666E+02 -.424E+03 -.296E+04   -.666E+02 0.424E+03 0.296E+04   0.105E+00 -.465E+00 -.330E+00   0.772E-02 -.181E-01 0.137E-02
   -.118E+03 -.569E+03 -.492E+04   0.117E+03 0.563E+03 0.490E+04   0.214E+00 0.620E+01 0.139E+02   -.679E-02 -.979E-02 -.197E-01
   0.267E+03 -.559E+03 0.195E+04   -.267E+03 0.561E+03 -.195E+04   0.845E+00 -.206E+01 0.241E+01   0.303E-02 0.229E-02 0.449E-01
   0.242E+03 -.556E+03 -.128E+04   -.243E+03 0.558E+03 0.128E+04   0.109E+01 -.215E+01 -.948E-01   0.350E-02 -.283E-02 0.180E-01
   0.268E+03 -.648E+03 -.401E+04   -.269E+03 0.651E+03 0.401E+04   0.119E+01 -.281E+01 -.311E+01   0.114E-02 0.711E-02 -.767E-02
   0.136E+03 0.329E+03 -.450E+04   -.136E+03 -.324E+03 0.450E+04   0.104E+00 -.405E+01 0.132E+01   0.354E-03 0.371E-02 -.126E-01
   0.221E+03 -.588E+03 0.368E+04   -.224E+03 0.588E+03 -.368E+04   0.240E+01 0.197E+00 0.242E+01   -.663E-02 -.860E-02 0.345E-01
   0.126E+03 -.389E+03 0.765E+03   -.128E+03 0.389E+03 -.766E+03   0.115E+01 -.671E+00 0.624E+00   -.627E-02 0.186E-02 0.353E-01
   0.824E+02 -.266E+03 -.207E+04   -.836E+02 0.266E+03 0.207E+04   0.999E+00 -.679E+00 -.349E+00   -.109E-01 0.883E-03 0.722E-02
   0.377E+03 0.508E+03 0.390E+04   -.380E+03 -.510E+03 -.390E+04   0.261E+01 0.172E+01 0.135E+01   -.124E-02 -.910E-02 0.280E-01
   0.324E+03 0.427E+03 0.837E+03   -.325E+03 -.427E+03 -.837E+03   0.115E+01 0.217E+00 -.428E-01   -.303E-02 -.141E-01 0.322E-01
   0.366E+03 0.405E+03 -.204E+04   -.366E+03 -.405E+03 0.204E+04   0.992E+00 0.420E+00 0.776E-01   0.495E-02 -.105E-01 0.135E-01
   0.289E+03 0.426E+03 -.448E+04   -.288E+03 -.427E+03 0.448E+04   -.844E+00 0.370E+00 0.744E+00   -.109E-01 0.457E-02 -.184E-01
   0.320E+03 0.231E+03 0.267E+04   -.322E+03 -.231E+03 -.267E+04   0.172E+01 0.938E-02 0.165E+01   0.329E-03 0.533E-02 0.602E-01
   0.294E+03 0.390E+03 -.160E+03   -.295E+03 -.390E+03 0.159E+03   0.104E+01 0.555E+00 0.607E+00   0.274E-02 0.144E-01 0.274E-01
   0.311E+03 0.394E+03 -.289E+04   -.313E+03 -.394E+03 0.289E+04   0.129E+01 0.612E-01 -.158E+01   -.163E-03 0.140E-01 0.397E-02
   0.729E+02 0.263E+03 -.477E+04   -.778E+02 -.259E+03 0.476E+04   0.362E+01 -.353E+01 0.669E+01   -.654E-02 0.338E-02 -.152E-01
   0.220E+03 -.391E+03 0.462E+04   -.212E+03 0.390E+03 -.461E+04   -.690E+01 0.576E+00 -.110E+02   -.537E-02 0.618E-02 0.212E-01
   0.175E+03 0.437E+03 0.437E+04   -.177E+03 -.436E+03 -.437E+04   0.129E+01 -.759E+00 0.146E+01   0.626E-02 0.391E-02 0.274E-01
   0.147E+03 0.578E+03 0.185E+04   -.149E+03 -.577E+03 -.185E+04   0.118E+01 -.154E+00 0.108E+01   -.886E-03 0.296E-02 0.342E-01
   0.968E+02 0.566E+03 -.125E+04   -.968E+02 -.568E+03 0.126E+04   0.232E+00 0.107E+01 -.810E+00   0.646E-03 -.280E-02 0.142E-01
   -.675E+03 -.247E+03 -.382E+04   0.674E+03 0.246E+03 0.382E+04   0.111E+01 0.973E+00 0.408E+00   -.835E-02 0.116E-02 -.136E-01
   -.569E+03 0.152E+03 0.462E+04   0.562E+03 -.149E+03 -.462E+04   0.690E+01 -.291E+01 -.383E+01   -.414E-02 -.272E-02 0.261E-01
   -.542E+03 -.582E+02 0.191E+04   0.544E+03 0.587E+02 -.191E+04   -.158E+01 -.387E+00 0.183E+01   0.675E-02 -.112E-02 0.368E-01
   -.553E+03 -.110E+03 -.106E+04   0.553E+03 0.110E+03 0.106E+04   -.540E+00 -.398E+00 0.802E+00   0.109E-02 -.909E-02 0.178E-01
   -.317E+03 -.255E+03 0.372E+04   0.320E+03 0.258E+03 -.372E+04   -.252E+01 -.178E+01 0.389E+01   0.740E-02 0.129E-01 0.482E-01
   -.441E+03 -.318E+02 0.836E+03   0.442E+03 0.323E+02 -.837E+03   -.616E+00 -.365E+00 0.116E+01   -.501E-03 0.748E-02 0.342E-01
   -.471E+03 -.444E+01 -.196E+04   0.472E+03 0.512E+01 0.196E+04   -.107E+01 -.636E+00 0.467E+00   -.537E-02 0.139E-01 0.693E-02
   -.553E+03 0.392E+02 -.448E+04   0.548E+03 -.367E+02 0.447E+04   0.480E+01 -.185E+01 0.619E+01   -.450E-02 0.757E-02 -.156E-01
   -.506E+03 0.240E+03 0.281E+04   0.506E+03 -.240E+03 -.281E+04   -.114E+01 0.194E+00 0.232E+01   -.501E-02 -.561E-02 0.368E-01
   -.442E+03 0.155E+03 -.149E+03   0.443E+03 -.156E+03 0.148E+03   -.126E+01 0.819E+00 0.378E+00   -.113E-01 -.797E-02 0.215E-01
   -.866E+02 0.436E+03 -.317E+04   0.870E+02 -.439E+03 0.317E+04   -.759E+00 0.277E+01 -.142E+01   0.705E-02 -.138E-01 -.275E-02
   -.396E+03 0.694E+02 0.493E+04   0.390E+03 -.722E+02 -.492E+04   0.676E+01 0.251E+01 -.111E+02   -.150E-01 -.122E-01 0.208E-01
   -.979E+02 0.521E+02 -.181E+04   0.984E+02 -.514E+02 0.182E+04   -.118E+01 0.310E+00 -.367E+01   -.390E-02 0.370E-02 -.518E-02
   -.174E+02 0.109E+03 0.134E+04   0.176E+02 -.110E+03 -.134E+04   -.298E+00 0.183E+01 -.296E+00   -.356E-02 -.279E-02 0.101E-01
   -.323E+02 0.106E+03 0.235E+03   0.325E+02 -.108E+03 -.237E+03   -.222E+00 0.207E+01 0.163E+01   0.135E-02 -.331E-02 0.173E-01
   -.461E+02 0.109E+03 -.807E+03   0.464E+02 -.111E+03 0.805E+03   -.354E+00 0.231E+01 0.216E+01   -.660E-02 0.250E-02 0.868E-03
   -.481E+01 -.990E+02 0.181E+04   0.556E+01 0.994E+02 -.181E+04   -.158E+01 -.115E+01 0.148E+01   0.384E-02 0.959E-02 0.151E-01
   -.262E+02 0.115E+03 0.918E+03   0.269E+02 -.116E+03 -.919E+03   -.627E+00 0.177E+01 0.107E+01   0.285E-02 0.351E-02 0.205E-01
   -.325E+02 0.127E+03 -.121E+03   0.332E+02 -.129E+03 0.121E+03   -.688E+00 0.202E+01 0.930E+00   -.907E-03 0.547E-02 0.631E-02
   -.685E+02 0.127E+03 -.113E+04   0.687E+02 -.128E+03 0.113E+04   0.298E+00 0.161E+01 0.245E+01   -.197E-02 0.234E-02 -.549E-03
   -.381E+02 0.168E+03 0.646E+03   0.386E+02 -.169E+03 -.648E+03   -.521E+00 0.125E+01 0.127E+01   -.776E-03 -.355E-02 0.137E-01
   0.356E+02 0.148E+03 -.713E+03   -.366E+02 -.150E+03 0.715E+03   0.127E+01 0.226E+01 -.180E+01   -.210E-02 -.543E-02 0.265E-02
   0.126E+03 -.407E+02 -.168E+04   -.129E+03 0.408E+02 0.168E+04   0.279E+01 0.452E+00 -.421E+01   0.394E-02 -.432E-02 -.665E-02
   -.164E+03 0.385E+03 0.165E+04   0.166E+03 -.390E+03 -.166E+04   -.270E+01 0.650E+01 0.192E+01   -.141E-02 0.310E-03 0.109E-01
   -.765E+02 -.312E+02 0.180E+04   0.772E+02 0.311E+02 -.180E+04   -.576E+00 -.416E+00 0.872E+00   0.139E-01 0.870E-04 0.114E-01
   -.130E+03 -.123E+03 0.888E+03   0.131E+03 0.126E+03 -.888E+03   -.109E+01 -.274E+01 -.929E-03   0.424E-03 0.316E-02 0.121E-01
   -.122E+03 -.158E+03 -.211E+03   0.124E+03 0.160E+03 0.211E+03   -.117E+01 -.221E+01 -.631E-02   0.698E-02 0.966E-03 0.804E-02
   -.281E+03 -.347E+03 -.127E+04   0.285E+03 0.353E+03 0.127E+04   -.375E+01 -.582E+01 0.983E+00   0.516E-03 -.241E-02 -.393E-02
   0.143E+03 -.158E+03 0.171E+04   -.145E+03 0.160E+03 -.171E+04   0.349E+01 -.105E+01 0.399E+01   0.213E-02 0.383E-02 0.137E-01
   -.427E+02 -.177E+03 0.508E+03   0.440E+02 0.179E+03 -.508E+03   -.129E+01 -.240E+01 0.443E+00   -.175E-02 -.424E-02 0.152E-01
   -.362E+02 -.178E+03 -.585E+03   0.377E+02 0.181E+03 0.586E+03   -.155E+01 -.221E+01 -.560E+00   -.897E-03 0.248E-02 0.549E-02
   0.175E+02 -.117E+03 -.162E+04   -.178E+02 0.117E+03 0.163E+04   0.601E+00 -.125E+01 -.160E+01   -.210E-02 0.673E-02 -.505E-02
   -.784E+02 -.127E+03 0.147E+03   0.800E+02 0.130E+03 -.147E+03   -.141E+01 -.220E+01 0.570E+00   -.272E-02 0.214E-02 0.111E-01
   -.537E+02 -.627E+02 -.912E+03   0.550E+02 0.650E+02 0.912E+03   -.117E+01 -.291E+01 0.462E+00   -.147E-03 0.261E-02 0.172E-03
   -.685E+00 0.204E+03 -.178E+04   0.137E+01 -.205E+03 0.178E+04   -.139E+01 0.114E+01 -.267E+01   0.359E-02 -.848E-03 -.421E-02
   -.639E+02 -.156E+03 0.118E+04   0.651E+02 0.158E+03 -.118E+04   -.178E+01 -.189E+01 -.147E+01   -.378E-02 -.262E-02 0.172E-01
   0.158E+03 0.137E+03 0.156E+04   -.159E+03 -.138E+03 -.156E+04   0.161E+01 0.138E+01 0.908E+00   -.163E-02 -.127E-01 0.191E-01
   0.181E+03 0.170E+02 0.437E+03   -.184E+03 -.169E+02 -.437E+03   0.255E+01 0.175E+00 0.161E+00   -.120E-02 -.122E-02 0.842E-02
   0.204E+03 0.144E+02 -.665E+03   -.206E+03 -.141E+02 0.666E+03   0.222E+01 -.179E+00 -.151E+01   0.171E-02 -.734E-02 0.659E-02
   0.359E+03 0.100E+02 -.166E+04   -.364E+03 -.972E+01 0.166E+04   0.614E+01 -.241E+00 -.230E+01   0.239E-02 -.665E-02 -.545E-02
   0.165E+03 -.604E+02 0.540E+02   -.168E+03 0.606E+02 -.535E+02   0.267E+01 -.456E-01 -.597E+00   0.130E-02 0.233E-02 0.128E-01
   0.181E+03 -.927E+02 -.102E+04   -.183E+03 0.933E+02 0.102E+04   0.212E+01 -.377E+00 -.857E+00   0.367E-02 0.438E-02 -.397E-03
   0.196E+03 -.142E+03 -.188E+04   -.199E+03 0.143E+03 0.188E+04   0.388E+01 -.137E+01 -.378E+01   0.113E-02 0.324E-02 -.733E-02
   0.119E+03 -.203E+03 0.126E+04   -.121E+03 0.206E+03 -.127E+04   0.105E+01 -.284E+01 -.296E+00   0.282E-02 0.462E-02 0.238E-01
   0.155E+03 -.166E+03 0.184E+04   -.156E+03 0.167E+03 -.185E+04   0.206E+01 -.121E+01 0.426E+01   0.403E-02 0.224E-02 0.856E-02
   0.157E+03 -.133E+02 0.767E+03   -.160E+03 0.134E+02 -.767E+03   0.265E+01 -.249E+00 -.380E+00   -.226E-02 0.102E-02 0.139E-01
   0.141E+03 0.122E+02 -.287E+03   -.143E+03 -.121E+02 0.288E+03   0.260E+01 -.193E+00 -.800E+00   0.219E-02 0.295E-03 0.778E-02
   -.220E+02 0.198E+03 -.134E+04   0.215E+02 -.199E+03 0.134E+04   0.884E+00 0.138E+01 -.866E+00   -.212E-02 -.438E-03 -.808E-02
 -----------------------------------------------------------------------------------------------
   -.430E+02 0.192E+02 -.106E+02   0.130E-11 0.284E-13 -.568E-11   0.432E+02 -.190E+02 0.969E+01   -.263E-01 -.112E-01 0.877E+00
 
 
 POSITION                                       TOTAL-FORCE (eV/Angst)
 -----------------------------------------------------------------------------------
      2.32602     10.40942      0.00000         0.137587      0.262604      1.889524
      3.74232      9.43171      2.62550        -0.256114     -0.014944     -0.153028
      5.15862      8.45400      5.25100        -0.001085     -0.176598     -0.085395
      6.57491      7.47629      7.87651         0.195713     -0.217064      0.458632
      7.99121      6.49857     10.50201        -0.599689     -0.138361     -1.948273
      1.07272      4.55480      3.50067         0.089846      0.285009     -0.380469
      2.48901      3.57708      6.12617        -0.023485     -0.092930     -0.129274
      3.90531      2.59937      8.75167         0.008099      0.298851      0.645731
      1.23571      7.80219      9.62684         0.380457      0.598741     -0.675446
      6.41192      4.22889      1.75033        -0.468711     -0.176415      0.112209
      7.82822      3.25118      4.37584        -0.089068      0.041298     -0.010628
      9.24452     12.35320      7.00134        -0.175286     -0.276893      0.144024
      3.36813      7.02690      1.93183        -0.569076     -0.437955      0.366675
      4.78442      6.04919      4.55733        -0.128690      0.125033     -0.014009
      6.20072      5.07148      7.18283         0.335401      0.024997      0.156346
      7.61702      4.09377      9.80834         0.259154     -0.589102     -0.784824
      0.69852      2.14999      2.80700        -0.086907     -0.055904     -0.095681
      2.11482      1.17228      5.43250         0.053692      0.103007      0.064496
      3.53112     10.27430      8.05800         0.022272     -0.046284      0.529773
      4.94741      9.29658     10.68350        -1.292785      0.369482     -1.689938
      8.70733      6.70100      0.18149         1.218934     -0.326320      1.967251
      6.03773     11.90382      1.05666        -0.458380      0.247722      0.445162
      7.45403     10.92611      3.68216         0.000443      0.086923     -0.179433
      8.87032      9.94839      6.30767         0.266900      0.001071      0.241703
      0.30789      1.72287      9.11466        -0.397015     -0.709964     -0.454688
      5.48410      8.22931      1.23816        -0.188651      0.117878      1.114384
      6.90040      7.25159      3.86366        -0.076927      0.082032     -0.235290
      8.31669      6.27388      6.48916        -0.063202     -0.089093      0.194095
      2.81450      3.35239      2.11332         0.117832      0.404269     -0.306430
      4.23080      2.37468      4.73883        -0.075167      0.073853     -0.053022
      5.64709     11.47670      7.36433         0.141036      0.054915      0.176320
      7.06339     10.49899      9.98983        -0.589877      0.631562     -1.821126
      0.14490      8.55521      2.98849        -0.194850      0.196951     -0.348523
      1.56119      7.57750      5.61399        -0.035996     -0.203167     -0.090889
      2.97749      6.59979      8.23950        -0.433981     -0.395500      0.575934
      8.15370     13.10622      0.36299         0.262182     -0.365467      1.988543
      0.34500      9.75890     10.30158        -0.651177      1.017504      0.309876
      5.52122      6.18560      2.42507        -0.027679      0.259216     -1.561035
      6.93751      5.20789      5.05057        -0.029385      0.010707      0.038957
      8.35381      4.23018      7.67607        -0.067115      0.276029      0.015375
      1.43532      2.28640      0.67473        -0.819713     -0.801675     -1.189015
      2.85162      1.30869      3.30024         0.027702      0.231662     -0.155543
      4.26791     10.41071      5.92574         0.080587     -0.040019      0.185652
      5.68421      9.43299      8.55124         0.429816      0.119798      1.036650
      0.18201      6.51150      4.17540        -0.041694      0.011761     -0.039336
      1.59831      5.53379      6.80091         0.180446      0.546317      0.209270
      3.01461      4.55608      9.42641         0.472421      0.512170      0.074829
      8.19082     11.06252      1.54990        -0.767283      0.672250     -1.391040
      4.58141     10.22551      0.68287         0.141193     -0.486193     -0.612641
      5.99770      9.24779      3.30837        -0.125420     -0.169635      0.008456
      7.41400      8.27008      5.93387         0.138526      0.083245      0.118070
      8.83030      7.29237      8.55937         0.108121     -0.264179      1.104483
      1.91180      5.34859      1.55803         0.859227      0.191790      0.347253
      3.32810      4.37088      4.18354        -0.044122     -0.232564      0.132680
      4.74440      3.39317      6.80904        -0.078660     -0.050813      0.084706
      6.16069      2.41545      9.43454         0.315451     -0.502742      0.721876
      0.65850      9.57370      5.05870         0.133911      0.011723      0.187443
      2.07479      8.59599      7.68420         0.061384     -0.547284      0.113112
      3.49109      7.61827     10.30971        -0.700609     -0.189411     -0.050724
      8.66731      4.04498      2.43320        -0.581966      0.182714     -0.845439
      1.88700      8.69441      1.56616         0.544783      0.226693     -0.845738
      3.30330      7.71670      4.19167         0.307146      0.252894      0.113795
      4.71960      6.73898      6.81717         0.063815      0.038234     -0.040727
      6.13589      5.76127      9.44267         0.559141      0.034251      0.688536
      0.63370      2.83978      5.06683         0.047829      0.086246     -0.155129
      2.04999      1.86207      7.69234         0.104483      0.211083      0.110072
      3.46629     10.96409     10.31784         0.428394     -0.407130     -0.562357
      8.64250      7.39079      2.44133        -0.249712     -0.492711     -0.936305
      4.55661      3.49159      0.69100         1.101405     -0.412882      0.319697
      5.97290      2.51388      3.31650         0.356505     -0.101800      0.209032
      7.38920     11.61590      5.94200         0.126111     -0.082912     -0.102093
      8.80549     10.63819      8.56750         0.311528      0.111424      0.742864
 -----------------------------------------------------------------------------------
    total drift:                                0.083829      0.184359     -0.063476


--------------------------------------------------------------------------------------------------------



  FREE ENERGIE OF THE ION-ELECTRON SYSTEM (eV)
  ---------------------------------------------------
  free  energy   TOTEN  =      -354.82477660 eV

  energy  without entropy=     -353.76776481  energy(sigma->0) =     -354.29627070
 


--------------------------------------------------------------------------------------------------------


    POTLOK:  cpu time    0.0483: real time    0.0485


--------------------------------------------------------------------------------------------------------


     LOOP+:  cpu time   99.2764: real time   99.6225
    4ORBIT:  cpu time    0.0000: real time    0.0000

 total amount of memory used by VASP MPI-rank0    45297. kBytes
=======================================================================

   base      :      30000. kBytes
   nonlr-proj:       2283. kBytes
   fftplans  :       3383. kBytes
   grid      :       6052. kBytes
   one-center:         93. kBytes
   wavefun   :       3486. kBytes
 
  
  
 General timing and accounting informations for this job:
 ========================================================
  
                  Total CPU time used (sec):      101.339
                            User time (sec):      100.615
                          System time (sec):        0.724
                         Elapsed time (sec):      102.177
  
                   Maximum memory used (kb):      232380.
                   Average memory used (kb):           0.
  
                          Minor page faults:        82577
                          Major page faults:            0
                 Voluntary context switches:         1037
