 vasp.5.4.4.18Apr17-6-g9f103f2a35 (build Aug 13 2019 17:33:20) gamma-only       
  
 executed on             LinuxIFC date 2020.05.12  17:34:14
 running on   12 total cores
 distrk:  each k-point on   12 cores,    1 groups
 distr:  one band on NCORES_PER_BAND=   6 cores,    2 groups


--------------------------------------------------------------------------------------------------------


 INCAR:
 POTCAR:    PAW_PBE Ni_pv 06Sep2000               
 POTCAR:    PAW_PBE S 06Sep2000                   
 POTCAR:    PAW_PBE Ni_pv 06Sep2000               
   VRHFIN =Ni:                                                                  
   LEXCH  = PE                                                                  
   EATOM  =  3501.1230 eV,  257.3253 Ry                                         
                                                                                
   TITEL  = PAW_PBE Ni_pv 06Sep2000                                             
   LULTRA =        F    use ultrasoft PP ?                                      
   IUNSCR =        1    unscreen: 0-lin 1-nonlin 2-no                           
   RPACOR =    1.500    partial core radius                                     
   POMASS =   58.690; ZVAL   =   16.000    mass and valenz                      
   RCORE  =    2.000    outmost cutoff radius                                   
   RWIGS  =    2.000; RWIGS  =    1.058    wigner-seitz radius (au A)           
   ENMAX  =  367.986; ENMIN  =  275.989 eV                                      
   RCLOC  =    1.301    cutoff for local pot                                    
   LCOR   =        T    correct aug charges                                     
   LPAW   =        T    paw PP                                                  
   EAUG   =  703.443                                                            
   DEXC   =    0.000                                                            
   RMAX   =    2.041    core radius for proj-oper                               
   RAUG   =    1.300    factor for augmentation sphere                          
   RDEP   =    2.103    radius for radial grids                                 
   RDEPT  =    1.618    core radius for aug-charge                              
                                                                                
   Atomic configuration                                                         
    8 entries                                                                   
     n  l   j            E        occ.                                          
     1  0  0.50     -8206.4253   2.0000                                         
     2  0  0.50      -976.1748   2.0000                                         
     2  1  1.50      -839.0571   6.0000                                         
     3  0  0.50      -105.9991   2.0000                                         
     3  1  1.50       -66.4603   6.0000                                         
     3  2  2.50        -4.6458   9.0000                                         
     4  0  0.50        -4.4926   1.0000                                         
     4  3  2.50        -1.3606   0.0000                                         
   Description                                                                  
     l       E           TYP  RCUT    TYP  RCUT                                 
     1    -66.4602962     23  1.700                                             
     1     -1.3605826     23  1.700                                             
     2     -4.6457867     23  2.000                                             
     2     -6.0063693     23  2.000                                             
     0     -4.4925576     23  1.900                                             
     0     16.3626226     23  1.900                                             
  local pseudopotential read in
  partial core-charges read in
  partial kinetic energy density read in
  atomic valenz-charges read in
  non local Contribution for L=           1  read in
    real space projection operators read in
  non local Contribution for L=           1  read in
    real space projection operators read in
  non local Contribution for L=           2  read in
    real space projection operators read in
  non local Contribution for L=           2  read in
    real space projection operators read in
  non local Contribution for L=           0  read in
    real space projection operators read in
  non local Contribution for L=           0  read in
    real space projection operators read in
    PAW grid and wavefunctions read in
 
   number of l-projection  operators is LMAX  =           6
   number of lm-projection operators is LMMAX =          18
 
 POTCAR:    PAW_PBE S 06Sep2000                   
   VRHFIN =S : s2p4                                                             
   LEXCH  = PE                                                                  
   EATOM  =   276.8230 eV,   20.3459 Ry                                         
                                                                                
   TITEL  = PAW_PBE S 06Sep2000                                                 
   LULTRA =        F    use ultrasoft PP ?                                      
   IUNSCR =        1    unscreen: 0-lin 1-nonlin 2-no                           
   RPACOR =    1.500    partial core radius                                     
   POMASS =   32.066; ZVAL   =    6.000    mass and valenz                      
   RCORE  =    1.900    outmost cutoff radius                                   
   RWIGS  =    2.200; RWIGS  =    1.164    wigner-seitz radius (au A)           
   ENMAX  =  258.689; ENMIN  =  194.016 eV                                      
   ICORE  =        2    local potential                                         
   LCOR   =        T    correct aug charges                                     
   LPAW   =        T    paw PP                                                  
   EAUG   =  335.092                                                            
   DEXC   =    0.000                                                            
   RMAX   =    1.942    core radius for proj-oper                               
   RAUG   =    1.300    factor for augmentation sphere                          
   RDEP   =    1.954    radius for radial grids                                 
   RDEPT  =    1.744    core radius for aug-charge                              
                                                                                
   Atomic configuration                                                         
    6 entries                                                                   
     n  l   j            E        occ.                                          
     1  0  0.50     -2405.8406   2.0000                                         
     2  0  0.50      -211.7007   2.0000                                         
     2  1  1.50      -156.4958   6.0000                                         
     3  0  0.50       -17.2562   2.0000                                         
     3  1  0.50        -7.0085   4.0000                                         
     3  2  1.50        -6.8029   0.0000                                         
   Description                                                                  
     l       E           TYP  RCUT    TYP  RCUT                                 
     0    -17.2561641     23  1.900                                             
     0    -15.8743224     23  1.900                                             
     1     -7.0085400     23  1.900                                             
     1     -2.7779785     23  1.900                                             
     2     -6.8029130     23  1.900                                             
  local pseudopotential read in
  partial core-charges read in
  partial kinetic energy density read in
  atomic valenz-charges read in
  non local Contribution for L=           0  read in
    real space projection operators read in
  non local Contribution for L=           0  read in
    real space projection operators read in
  non local Contribution for L=           1  read in
    real space projection operators read in
  non local Contribution for L=           1  read in
    real space projection operators read in
    PAW grid and wavefunctions read in
 
   number of l-projection  operators is LMAX  =           4
   number of lm-projection operators is LMMAX =           8
 
 Optimization of the real space projectors (new method)

 maximal supplied QI-value         = 18.90
 optimisation between [QCUT,QGAM] = [ 10.77, 21.73] = [ 32.49,132.25] Ry 
 Optimized for a Real-space Cutoff    1.38 Angstroem

   l    n(q)    QCUT    max X(q) W(low)/X(q) W(high)/X(q)  e(spline) 
   1      8    10.771     2.836    0.40E-04    0.29E-04    0.12E-06
   1      8    10.771     4.023    0.10E-03    0.48E-04    0.29E-06
   2      8    10.771    73.368    0.42E-03    0.97E-04    0.44E-06
   2      8    10.771    69.010    0.42E-03    0.99E-04    0.45E-06
   0      9    10.771    54.797    0.10E-03    0.56E-04    0.74E-07
   0      9    10.771    24.266    0.89E-04    0.49E-04    0.67E-07
 Optimization of the real space projectors (new method)

 maximal supplied QI-value         = 19.84
 optimisation between [QCUT,QGAM] = [ 10.71, 21.63] = [ 32.15,130.99] Ry 
 Optimized for a Real-space Cutoff    1.19 Angstroem

   l    n(q)    QCUT    max X(q) W(low)/X(q) W(high)/X(q)  e(spline) 
   0      8    10.715   187.594    0.41E-03    0.53E-04    0.66E-07
   0      8    10.715   164.243    0.41E-03    0.53E-04    0.65E-07
   1      7    10.715    67.533    0.19E-03    0.59E-03    0.68E-07
   1      7    10.715    50.729    0.19E-03    0.58E-03    0.67E-07
  PAW_PBE Ni_pv 06Sep2000               :
 energy of atom  1       EATOM=-3501.1230
 kinetic energy error for atom=    0.0925 (will be added to EATOM!!)
  PAW_PBE S 06Sep2000                   :
 energy of atom  2       EATOM= -276.8230
 kinetic energy error for atom=    0.0033 (will be added to EATOM!!)
 
 
 POSCAR: Type_036 Type_136                       
  positions in cartesian coordinates
  No initial velocities read in
 exchange correlation table for  LEXCH =        8
   RHO(1)=    0.500       N(1)  =     2000
   RHO(2)=  100.500       N(2)  =     4000
 


--------------------------------------------------------------------------------------------------------


 ion  position               nearest neighbor table
   1  0.311  0.982  0.057-  41 2.03  69 2.07  49 2.14  42 2.17  61 2.22   2 2.29
   2  0.397  0.795  0.128-  61 2.09  49 2.09  42 2.25   1 2.29  50 2.36  62 2.36  26 2.42  22 2.44

   3  0.547  0.645  0.256-  43 2.25  62 2.26  50 2.26  51 2.36  63 2.36  15 2.53  27 2.53
   4  0.698  0.494  0.384-  52 2.17  64 2.19  51 2.26  63 2.26  44 2.29  16 2.53  28 2.53
   5  0.826  0.339  0.484-  64 1.99  52 2.00  17 2.45  25 2.45
   6  0.114  0.412  0.171-  53 2.11  45 2.25  68 2.26   9 2.29  54 2.36  65 2.36  29 2.53  18 2.53

   7  0.264  0.261  0.299-  47 2.24  65 2.26  54 2.26  46 2.28  55 2.36  66 2.36  30 2.53  19 2.53

   8  0.414  0.111  0.427-  67 2.01  56 2.14  47 2.16  66 2.26  55 2.26  31 2.53  20 2.53
   9  0.975  0.595  0.108-  48 1.98  45 2.10  68 2.17   6 2.29  53 2.30  21 2.40
  10  0.082  0.808  0.453-  59 2.02  58 2.07  72 2.09  37 2.10  13 2.50
  11  0.712  0.215  0.148-  38 1.99  39 2.10  60 2.15  12 2.28  70 2.33  36 2.42
  12  0.831  0.028  0.213-  39 2.25  60 2.26  70 2.26  11 2.28  71 2.36  57 2.36  23 2.53  33 2.53

  13  0.981  0.878  0.341-  72 2.10  40 2.25  57 2.26  71 2.26  58 2.36  10 2.50  34 2.53  24 2.53

  14  0.372  0.530  0.120-  62 2.04  38 2.08  53 2.10
  15  0.508  0.420  0.222-  54 2.25  62 2.26  38 2.26  39 2.36  63 2.36   3 2.53  27 2.53
  16  0.658  0.270  0.350-  64 2.06  55 2.25  63 2.26  39 2.26  40 2.36   4 2.53  28 2.53
  17  0.777  0.123  0.460-  40 2.04  37 2.10  56 2.12  64 2.16   5 2.45
  18  0.074  0.187  0.137-  41 2.10  60 2.25  68 2.26  42 2.36  65 2.36  29 2.53   6 2.53
  19  0.224  0.037  0.265-  57 2.25  65 2.26  42 2.26  66 2.36  43 2.36   7 2.53  30 2.53
  20  0.375  0.886  0.393-  67 2.00  44 2.22  58 2.25  66 2.26  43 2.26  31 2.53   8 2.53
  21  0.069  0.377  0.048-  41 2.00  53 2.05  68 2.07   9 2.40
  22  0.585  0.881  0.096-  49 2.11  69 2.13  70 2.16  50 2.24   2 2.44
  23  0.791  0.804  0.180-  50 2.25  48 2.26  70 2.26  71 2.36  45 2.36  33 2.53  12 2.53
  24  0.941  0.653  0.308-  72 2.10  46 2.15  51 2.25  45 2.26  71 2.26  34 2.53  13 2.53
  25  0.027  0.161  0.430-  40 2.04  37 2.09  66 2.12  52 2.16   5 2.45
  26  0.586  0.597  0.081-  50 2.05  38 2.07  49 2.08   2 2.42
  27  0.732  0.460  0.188-  68 2.25  50 2.26  38 2.26  39 2.36  51 2.36  15 2.53   3 2.53
  28  0.882  0.310  0.317-  52 2.06  65 2.25  39 2.26  51 2.26  40 2.36   4 2.53  16 2.53
  29  0.299  0.227  0.103-  69 2.10  41 2.23  53 2.24  54 2.36  42 2.36   6 2.53  18 2.53
  30  0.449  0.076  0.231-  70 2.25  54 2.26  42 2.26  43 2.36  55 2.36   7 2.53  19 2.53
  31  0.599  0.926  0.359-  56 2.13  44 2.15  71 2.25  55 2.26  43 2.26  32 2.37   8 2.53  20 2.53

  32  0.748  0.797  0.445-  72 2.04  56 2.06  44 2.06  31 2.37
  33  0.015  0.843  0.146-  61 2.13  48 2.26  60 2.26  45 2.36  57 2.36  23 2.53  12 2.53
  34  0.166  0.693  0.274-  46 2.12  62 2.25  57 2.26  45 2.26  58 2.36  24 2.53  13 2.53
  35  0.285  0.545  0.378-  59 2.02  46 2.09  47 2.15  58 2.17  63 2.24
  36  0.770  0.999  0.084-  48 2.00  60 2.05  70 2.05  11 2.42
  37  0.986  0.013  0.491-  25 2.09  10 2.10  17 2.10  40 2.62
  38  0.586  0.406  0.118-  11 1.99  26 2.07  14 2.08  27 2.26  15 2.26
  39  0.736  0.256  0.246-  11 2.10  12 2.25  28 2.26  16 2.26  15 2.36  27 2.36
  40  0.886  0.105  0.374-  25 2.04  17 2.04  13 2.25  16 2.36  28 2.36  37 2.62
  41  0.148  0.166  0.041-  21 2.00   1 2.03  18 2.10  29 2.23
  42  0.303  0.023  0.161-   1 2.17   2 2.25  19 2.26  30 2.26  29 2.36  18 2.36
  43  0.453  0.872  0.289-   3 2.25  31 2.26  20 2.26  30 2.36  19 2.36
  44  0.595  0.734  0.403-  32 2.06  31 2.15  20 2.22   4 2.29
  45  0.019  0.639  0.204-   9 2.10   6 2.25  24 2.26  34 2.26  33 2.36  23 2.36  46 2.67
  46  0.153  0.500  0.309-  35 2.09  34 2.12  24 2.15   7 2.28  47 2.61  45 2.67
  47  0.308  0.329  0.398-  35 2.15   8 2.16   7 2.24  55 2.51  46 2.61  66 2.73
  48  0.869  0.789  0.076-   9 1.98  36 2.00  33 2.26  23 2.26
  49  0.477  0.787  0.034-  26 2.08   2 2.09  22 2.11   1 2.14
  50  0.636  0.692  0.161-  26 2.05  22 2.24  23 2.25  27 2.26   3 2.26   2 2.36
  51  0.787  0.542  0.289-  24 2.25  28 2.26   4 2.26   3 2.36  27 2.36
  52  0.920  0.383  0.406-   5 2.00  28 2.06  25 2.16   4 2.17
  53  0.209  0.462  0.087-  21 2.05  14 2.10   6 2.11  29 2.24   9 2.30
  54  0.353  0.308  0.204-  15 2.25   7 2.26  30 2.26  29 2.36   6 2.36
  55  0.503  0.158  0.332-  16 2.25   8 2.26  31 2.26  30 2.36   7 2.36  47 2.51
  56  0.635  0.012  0.449-  32 2.06  17 2.12  31 2.13   8 2.14
  57  0.070  0.925  0.247-  19 2.25  34 2.26  13 2.26  12 2.36  33 2.36
  58  0.220  0.775  0.375-  10 2.07  35 2.17  20 2.25  34 2.36  13 2.36  59 2.58
  59  0.215  0.607  0.469-  10 2.02  35 2.02  58 2.58
  60  0.920  0.075  0.119-  36 2.05  11 2.15  18 2.25  33 2.26  12 2.26
  61  0.193  0.846  0.090-   2 2.09  33 2.13   1 2.22
  62  0.350  0.641  0.204-  14 2.04  34 2.25   3 2.26  15 2.26   2 2.36
  63  0.501  0.491  0.333-  35 2.24   4 2.26  16 2.26  15 2.36   3 2.36
  64  0.644  0.342  0.445-   5 1.99  16 2.06  17 2.16   4 2.19
  65  0.067  0.258  0.247-  28 2.25   7 2.26  19 2.26  18 2.36   6 2.36
  66  0.218  0.108  0.375-  25 2.12   8 2.26  20 2.26  19 2.36   7 2.36  47 2.73
  67  0.378  0.964  0.482-  20 2.00   8 2.01
  68  0.917  0.408  0.119-  21 2.07   9 2.17  27 2.25  18 2.26   6 2.26
  69  0.463  0.076  0.051-   1 2.07  29 2.10  22 2.13  70 2.79
  70  0.634  0.025  0.162-  36 2.05  22 2.16  30 2.25  23 2.26  12 2.26  11 2.33  69 2.79
  71  0.784  0.874  0.290-  31 2.25  24 2.26  13 2.26  12 2.36  23 2.36
  72  0.945  0.727  0.403-  32 2.04  10 2.09  24 2.10  13 2.10
 
  LATTYP: Found a base centered orthorhombic cell.
 ALAT       =    11.4527836704
 B/A-ratio  =     1.4485816945
 C/A-ratio  =     1.7901333131
  
  Lattice vectors:
  
 A1 = (  10.0797329849,   0.0000000000,   0.0000000000)
 A2 = (  -3.5732980427,  -9.4251025535,   0.0000000000)
 A3 = (   0.0000000000,   0.0000000000, -20.5020095760)


Analysis of symmetry for initial positions (statically):
=====================================================================
 Subroutine PRICEL returns:
 Original cell was already a primitive cell.
 

 Routine SETGRP: Setting up the symmetry group for a 
 base centered orthorhombic supercell.


 Subroutine GETGRP returns: Found  1 space group operations
 (whereof  1 operations were pure point group operations)
 out of a pool of  8 trial point group operations.


The static configuration has the point symmetry C_1 .


Analysis of symmetry for dynamics (positions and initial velocities):
=====================================================================
 Subroutine PRICEL returns:
 Original cell was already a primitive cell.
 

 Routine SETGRP: Setting up the symmetry group for a 
 base centered orthorhombic supercell.


 Subroutine GETGRP returns: Found  1 space group operations
 (whereof  1 operations were pure point group operations)
 out of a pool of  8 trial point group operations.


The dynamic configuration has the point symmetry C_1 .


 Subroutine INISYM returns: Found  1 space group operations
 (whereof  1 operations are pure point group operations),
 and found     1 'primitive' translations

 
 
 KPOINTS: gamma-point-only calculation. no periodi

Automatic generation of k-mesh.
Space group operators:
 irot       det(A)        alpha          n_x          n_y          n_z        tau_x        tau_y        tau_z
    1     1.000000     0.000001     1.000000     0.000000     0.000000     0.000000     0.000000     0.000000
 
 Subroutine IBZKPT returns following result:
 ===========================================
 
 Found      1 irreducible k-points:
 
 Following reciprocal coordinates:
            Coordinates               Weight
  0.000000  0.000000  0.000000      1.000000
 
 Following cartesian coordinates:
            Coordinates               Weight
  0.000000  0.000000  0.000000      1.000000
 


--------------------------------------------------------------------------------------------------------




 Dimension of arrays:
   k-points           NKPTS =      1   k-points in BZ     NKDIM =      1   number of bands    NBANDS=    476
   number of dos      NEDOS =    301   number of ions     NIONS =     72
   non local maximal  LDIM  =      6   non local SUM 2l+1 LMDIM =     18
   total plane-waves  NPLWV = 314928
   max r-space proj   IRMAX =   1833   max aug-charges    IRDMAX=   5293
   dimension x,y,z NGX =    54 NGY =   54 NGZ =  108
   dimension x,y,z NGXF=   108 NGYF=  108 NGZF=  216
   support grid    NGXF=   108 NGYF=  108 NGZF=  216
   ions per type =              36  36
   NGX,Y,Z   is equivalent  to a cutoff of   8.91,  8.91,  8.76 a.u.
   NGXF,Y,Z  is equivalent  to a cutoff of  17.81, 17.81, 17.51 a.u.

 SYSTEM =  "Millerite NiS"                         
 POSCAR =  Type_036 Type_136                       

 Startparameter for this run:
   NWRITE =      2    write-flag & timer
   PREC   = normal    normal or accurate (medium, high low for compatibility)
   ISTART =      0    job   : 0-new  1-cont  2-samecut
   ICHARG =      2    charge: 1-file 2-atom 10-const
   ISPIN  =      1    spin polarized calculation?
   LNONCOLLINEAR =      F non collinear calculations
   LSORBIT =      F    spin-orbit coupling
   INIWAV =      1    electr: 0-lowe 1-rand  2-diag
   LASPH  =      F    aspherical Exc in radial PAW
   METAGGA=      F    non-selfconsistent MetaGGA calc.

 Electronic Relaxation 1
   ENCUT  =  450.0 eV  33.07 Ry    5.75 a.u.  17.43 17.43 35.46*2*pi/ulx,y,z
   ENINI  =  450.0     initial cutoff
   ENAUG  =  703.4 eV  augmentation charge cutoff
   NELM   =    100;   NELMIN=  2; NELMDL= -5     # of ELM steps 
   EDIFF  = 0.1E-03   stopping-criterion for ELM
   LREAL  =      T    real-space projection
   NLSPLINE    = F    spline interpolate recip. space projectors
   LCOMPAT=      F    compatible to vasp.4.4
   GGA_COMPAT  = T    GGA compatible to vasp.4.4-vasp.4.6
   LMAXPAW     = -100 max onsite density
   LMAXMIX     =    2 max onsite mixed and CHGCAR
   VOSKOWN=      0    Vosko Wilk Nusair interpolation
   ROPT   =   -0.00050  -0.00050
 Ionic relaxation
   EDIFFG = 0.1E-02   stopping-criterion for IOM
   NSW    =      0    number of steps for IOM
   NBLOCK =      1;   KBLOCK =      1    inner block; outer block 
   IBRION =     -1    ionic relax: 0-MD 1-quasi-New 2-CG
   NFREE  =      0    steps in history (QN), initial steepest desc. (CG)
   ISIF   =      2    stress and relaxation
   IWAVPR =     10    prediction:  0-non 1-charg 2-wave 3-comb
   ISYM   =      2    0-nonsym 1-usesym 2-fastsym
   LCORR  =      T    Harris-Foulkes like correction to forces

   POTIM  = 0.5000    time-step for ionic-motion
   TEIN   =    0.0    initial temperature
   TEBEG  =    0.0;   TEEND  =   0.0 temperature during run
   SMASS  =  -3.00    Nose mass-parameter (am)
   estimated Nose-frequenzy (Omega)   =  0.10E-29 period in steps =****** mass=  -0.232E-26a.u.
   SCALEE = 1.0000    scale energy and forces
   NPACO  =    256;   APACO  = 16.0  distance and # of slots for P.C.
   PSTRESS=    0.0 pullay stress

  Mass of Ions in am
   POMASS =  58.69 32.07
  Ionic Valenz
   ZVAL   =  16.00  6.00
  Atomic Wigner-Seitz radii
   RWIGS  =  -1.00 -1.00
  virtual crystal weights 
   VCA    =   1.00  1.00
   NELECT =     792.0000    total number of electrons
   NUPDOWN=      -1.0000    fix difference up-down

 DOS related values:
   EMIN   =  10.00;   EMAX   =-10.00  energy-range for DOS
   EFERMI =   0.00
   ISMEAR =     0;   SIGMA  =   0.20  broadening in eV -4-tet -1-fermi 0-gaus

 Electronic relaxation 2 (details)
   IALGO  =     38    algorithm
   LDIAG  =      T    sub-space diagonalisation (order eigenvalues)
   LSUBROT=      F    optimize rotation matrix (better conditioning)
   TURBO    =      0    0=normal 1=particle mesh
   IRESTART =      0    0=no restart 2=restart with 2 vectors
   NREBOOT  =      0    no. of reboots
   NMIN     =      0    reboot dimension
   EREF     =   0.00    reference energy to select bands
   IMIX   =      4    mixing-type and parameters
     AMIX     =   0.40;   BMIX     =  1.00
     AMIX_MAG =   1.60;   BMIX_MAG =  1.00
     AMIN     =   0.10
     WC   =   100.;   INIMIX=   1;  MIXPRE=   1;  MAXMIX= -45

 Intra band minimization:
   WEIMIN = 0.0000     energy-eigenvalue tresh-hold
   EBREAK =  0.53E-07  absolut break condition
   DEPER  =   0.30     relativ break condition  

   TIME   =   0.40     timestep for ELM

  volume/ion in A,a.u.               =      27.05       182.56
  Fermi-wavevector in a.u.,A,eV,Ry     =   1.212847  2.291949 20.014143  1.470998
  Thomas-Fermi vector in A             =   2.348318
 
 Write flags
   LWAVE        =      F    write WAVECAR
   LDOWNSAMPLE  =      F    k-point downsampling of WAVECAR
   LCHARG       =      F    write CHGCAR
   LVTOT        =      F    write LOCPOT, total local potential
   LVHAR        =      F    write LOCPOT, Hartree potential only
   LELF         =      F    write electronic localiz. function (ELF)
   LORBIT       =      0    0 simple, 1 ext, 2 COOP (PROOUT), +10 PAW based schemes


 Dipole corrections
   LMONO  =      F    monopole corrections only (constant potential shift)
   LDIPOL =      F    correct potential (dipole corrections)
   IDIPOL =      0    1-x, 2-y, 3-z, 4-all directions 
   EPSILON=  1.0000000 bulk dielectric constant

 Exchange correlation treatment:
   GGA     =    --    GGA type
   LEXCH   =     8    internal setting for exchange type
   VOSKOWN=      0    Vosko Wilk Nusair interpolation
   LHFCALC =     F    Hartree Fock is set to
   LHFONE  =     F    Hartree Fock one center treatment
   AEXX    =    0.0000 exact exchange contribution

 Linear response parameters
   LEPSILON=     F    determine dielectric tensor
   LRPA    =     F    only Hartree local field effects (RPA)
   LNABLA  =     F    use nabla operator in PAW spheres
   LVEL    =     F    velocity operator in full k-point grid
   LINTERFAST=   F  fast interpolation
   KINTER  =     0    interpolate to denser k-point grid
   CSHIFT  =0.1000    complex shift for real part using Kramers Kronig
   OMEGAMAX=  -1.0    maximum frequency
   DEG_THRESHOLD= 0.2000000E-02 threshold for treating states as degnerate
   RTIME   =   -0.100 relaxation time in fs
  (WPLASMAI=    0.000 imaginary part of plasma frequency in eV, 0.658/RTIME)
   DFIELD  = 0.0000000 0.0000000 0.0000000 field for delta impulse in time
 
 Orbital magnetization related:
   ORBITALMAG=     F  switch on orbital magnetization
   LCHIMAG   =     F  perturbation theory with respect to B field
   DQ        =  0.001000  dq finite difference perturbation B field
   LLRAUG    =     F  two centre corrections for induced B field



--------------------------------------------------------------------------------------------------------


 Static calculation
 charge density and potential will be updated during run
 non-spin polarized calculation
 Variant of blocked Davidson
 Davidson routine will perform the subspace rotation
 perform sub-space diagonalisation
    after iterative eigenvector-optimisation
 modified Broyden-mixing scheme, WC =      100.0
 initial mixing is a Kerker type mixing with AMIX =  0.4000 and BMIX =      1.0000
 Hartree-type preconditioning will be used
 using additional bands           80
 real space projection scheme for non local part
 use partial core corrections
 calculate Harris-corrections to forces 
   (improved forces if not selfconsistent)
 use gradient corrections 
 use of overlap-Matrix (Vanderbilt PP)
 Gauss-broadening in eV      SIGMA  =   0.20


--------------------------------------------------------------------------------------------------------


  energy-cutoff  :      450.00
  volume of cell :     1947.74
      direct lattice vectors                 reciprocal lattice vectors
    10.079732985  0.000000000  0.000000000     0.099208977 -0.037612667  0.000000000
     3.573298043  9.425102554  0.000000000     0.000000000  0.106099641  0.000000000
     0.000000000  0.000000000 20.502009576     0.000000000  0.000000000  0.048775706

  length of vectors
    10.079732985 10.079732985 20.502009576     0.106099641  0.106099641  0.048775706


 
 k-points in units of 2pi/SCALE and weight: gamma-point-only calculation. no periodi
   0.00000000  0.00000000  0.00000000       1.000
 
 k-points in reciprocal lattice and weights: gamma-point-only calculation. no periodi
   0.00000000  0.00000000  0.00000000       1.000
 
 position of ions in fractional coordinates (direct lattice) 
   0.31115730  0.98171872  0.05689264
   0.39705889  0.79495179  0.12806073
   0.54732741  0.64468327  0.25612147
   0.69759592  0.49441476  0.38418220
   0.82570680  0.33925917  0.48449008
   0.11381506  0.41152895  0.17074765
   0.26408358  0.26126044  0.29880838
   0.41435209  0.11099192  0.42686911
   0.97454380  0.59521101  0.10767814
   0.08187596  0.80759147  0.45278010
   0.71203969  0.21471416  0.14751481
   0.83057123  0.02810611  0.21343456
   0.98083975  0.87783760  0.34149529
   0.37150997  0.53010484  0.11975137
   0.50762556  0.42017912  0.22228705
   0.65789408  0.26991060  0.35034779
   0.77705988  0.12295052  0.45965219
   0.07411322  0.18702479  0.13691323
   0.22438173  0.03675628  0.26497396
   0.37465025  0.88648777  0.39303470
   0.06927250  0.37743862  0.04753556
   0.58527187  0.88139252  0.09566444
   0.79086939  0.80360196  0.17960014
   0.94113790  0.65333344  0.30766088
   0.02661654  0.16112874  0.42952296
   0.58647619  0.59678340  0.08125314
   0.73212972  0.45988096  0.18845264
   0.88239823  0.30961245  0.31651337
   0.29861738  0.22672664  0.10307882
   0.44888589  0.07645812  0.23113955
   0.59915440  0.92618961  0.35920029
   0.74807025  0.79744537  0.44479440
   0.01537355  0.84330380  0.14576573
   0.16564206  0.69303528  0.27382646
   0.28523880  0.54513907  0.37756196
   0.76951327  0.99861274  0.08420400
   0.98632942  0.01322265  0.49052273
   0.58579930  0.40599939  0.11828449
   0.73606781  0.25573087  0.24634523
   0.88633632  0.10546236  0.37440596
   0.14827750  0.16623690  0.04058383
   0.30255547  0.02257655  0.16097140
   0.45282398  0.87230804  0.28903214
   0.59491977  0.73371637  0.40250056
   0.01931164  0.63915371  0.20365832
   0.15310930  0.50010886  0.30934121
   0.30768038  0.32917899  0.39822645
   0.86904312  0.78942222  0.07559758
   0.47742774  0.78656635  0.03363388
   0.63635413  0.69187455  0.16136797
   0.78662264  0.54160604  0.28942870
   0.92046094  0.38301557  0.40586764
   0.20860880  0.46202469  0.08706014
   0.35311030  0.30845171  0.20405488
   0.50337881  0.15818320  0.33211561
   0.63469411  0.01206030  0.44939420
   0.06986647  0.92502888  0.24674179
   0.22013498  0.77476036  0.37480252
   0.21542596  0.60682464  0.46917661
   0.91959796  0.07529739  0.11868105
   0.19285606  0.84569372  0.09014995
   0.35047897  0.64131971  0.20445144
   0.50074748  0.49105120  0.33251217
   0.64398046  0.34212934  0.44500016
   0.06723514  0.25789688  0.24713835
   0.21750365  0.10762836  0.37519908
   0.37762286  0.96381508  0.48247917
   0.91696662  0.40816539  0.11907761
   0.46293569  0.07647863  0.05067041
   0.63372280  0.02474255  0.16176453
   0.78399131  0.87447404  0.28982526
   0.94519183  0.72727851  0.40325457
 
 position of ions in cartesian coordinates  (Angst):
   6.64435611  9.25279964  1.16641346
   6.84284730  7.49250212  2.62550239
   7.82055959  6.07620598  5.25100479
   8.79827190  4.65990984  7.87650718
   9.53517816  3.19755245  9.93302035
   2.61774106  3.87870256  3.50066985
   3.59545335  2.46240641  6.12617225
   4.57316565  1.04611028  8.75167464
  11.95000763  5.60992478  2.20761832
   3.71105282  7.61163238  9.28290192
   7.94440769  2.02370301  3.02435000
   8.47236779  0.26490299  4.37583733
  13.02337814  8.27370941  7.00133973
   5.63894384  4.99629249  2.45514366
   6.61815536  3.96023127  4.55733131
   7.59586766  2.54393513  7.18283370
   8.27189500  1.15882124  9.42379350
   1.41533681  1.76272784  2.80699637
   2.39304911  0.34643171  5.43249877
   6.94405946  8.35523812  8.05800116
   2.04694903  3.55739771  0.97457445
   9.04886236  8.30721492  1.96131336
  10.84326160  7.57403084  3.68216383
  11.82097389  6.15773469  6.30766623
   0.84404859  1.51865488  8.80608382
   8.04400838  5.62474475  1.66585267
   9.02296383  4.33442521  3.86365781
  10.00067613  2.91812907  6.48916020
   3.82014529  2.13692179  2.11332289
   4.79785759  0.72062564  4.73882529
   9.34886793  8.72943206  7.36432768
  10.38985837  7.51600437  9.11917903
   3.16833709  7.94822477  2.98849035
   4.14604939  6.53192863  5.61399275
   4.82307530  5.13799164  7.74077888
  11.32482924  9.41202747  1.72635127
   9.98918567  0.12462482 10.05670162
   7.35545729  3.82658585  2.42506979
   8.33316959  2.41028970  5.05057218
   9.31088189  0.99399357  7.67607458
   2.08861156  1.56679981  0.83205008
   3.13035105  0.21278628  3.30023725
   7.68136140  8.22159270  5.92573964
   8.61841970  6.91535200  8.25207041
   2.47854285  6.02408927  4.17540472
   3.33033886  4.71357729  6.34211644
   4.27759072  3.10254571  8.16444256
  11.58056354  7.44038541  1.54990233
   7.62298009  7.41346851  0.68956206
   8.88655370  6.52098859  3.30836756
   9.86426600  5.10469245  5.93386996
  10.64662928  3.60996106  8.32110220
   3.75367294  4.35463004  1.78490773
   4.66144746  2.90718902  4.18353502
   5.63915975  1.49089288  6.80903742
   6.44064223  0.11366960  9.21348410
   4.00963926  8.71849201  5.05870250
   4.98735156  7.30219588  7.68420487
   4.33980146  5.71938447  9.61906336
   9.53836190  0.70968559  2.43320011
   4.96585327  7.97075003  1.84825522
   5.82436088  6.04450407  4.19166534
   6.80207318  4.62820794  6.81716773
   7.71368120  3.22460409  9.12339756
   1.59925463  2.43070451  5.06683280
   2.57696694  1.01440837  7.69233519
   7.25033617  9.08405599  9.89179263
  10.70127532  3.84700065  2.44133040
   4.93954910  0.72081897  1.03884515
   6.47616908  0.23320109  3.31649786
  11.02717942  8.24200750  5.94200026
  12.12606418  6.85467458  8.26752900
 


--------------------------------------------------------------------------------------------------------


 use parallel FFT for orbitals z direction half grid
 k-point  1 :   0.0000 0.0000 0.0000  plane waves:   21161

 maximum and minimum number of plane-waves per node :      3528     3525

 maximum number of plane-waves:     21161
 maximum index in each direction: 
   IXMAX=   17   IYMAX=   17   IZMAX=   35
   IXMIN=  -17   IYMIN=  -17   IZMIN=    0


 real space projection operators:
  total allocation   :      11256.84 KBytes
  max/ min on nodes  :       1885.31       1867.08


 parallel 3D FFT for wavefunctions:
    minimum data exchange during FFTs selected (reduces bandwidth)
 parallel 3D FFT for charge:
    minimum data exchange during FFTs selected (reduces bandwidth)


 total amount of memory used by VASP MPI-rank0    68325. kBytes
=======================================================================

   base      :      30000. kBytes
   nonlr-proj:       2294. kBytes
   fftplans  :       8265. kBytes
   grid      :      13942. kBytes
   one-center:         93. kBytes
   wavefun   :      13731. kBytes
 
     INWAV:  cpu time    0.0000: real time    0.0000
 Broyden mixing: mesh for mixing (old mesh)
   NGX = 35   NGY = 35   NGZ = 71
  (NGX  =108   NGY  =108   NGZ  =216)
  gives a total of  86975 points

 initial charge density was supplied:
 charge density of overlapping atoms calculated
 number of electron     792.0000000 magnetization 
 keeping initial charge density in first step


--------------------------------------------------------------------------------------------------------


 Maximum index for non-local projection operator          302
 Maximum index for augmentation-charges          473 (set IRDMAX)


--------------------------------------------------------------------------------------------------------


 First call to EWALD:  gamma=   0.142
 Maximum number of real-space cells 3x 3x 2
 Maximum number of reciprocal cells 2x 2x 4

    FEWALD:  cpu time    0.0052: real time    0.0052


--------------------------------------- Iteration      1(   1)  ---------------------------------------


    POTLOK:  cpu time    0.2572: real time    0.2580
    SETDIJ:  cpu time    0.0171: real time    0.0171
     EDDAV:  cpu time    7.0039: real time    7.0085
       DOS:  cpu time    0.0032: real time    0.0031
    --------------------------------------------
      LOOP:  cpu time    7.2815: real time    7.2868

 eigenvalue-minimisations  :  1160
 total energy-change (2. order) : 0.9993566E+04  (-0.5137725E+05)
 number of electron     792.0000000 magnetization 
 augmentation part      792.0000000 magnetization 

 Free energy of the ion-electron system (eV)
  ---------------------------------------------------
  alpha Z        PSCENC =      1909.85183886
  Ewald energy   TEWEN  =    219650.01205548
  -Hartree energ DENC   =   -341872.54892507
  -exchange      EXHF   =         0.00000000
  -V(xc)+E(xc)   XCENC  =      3683.21695595
  PAW double counting   =    112729.53333415  -117641.51188735
  entropy T*S    EENTRO =        -0.33461310
  eigenvalues    EBANDS =     -4467.25740188
  atomic energy  EATOM  =    136002.60505376
  Solvation  Ediel_sol  =         0.00000000
  ---------------------------------------------------
  free energy    TOTEN  =      9993.56641081 eV

  energy without entropy =     9993.90102390  energy(sigma->0) =     9993.73371735


--------------------------------------------------------------------------------------------------------




--------------------------------------- Iteration      1(   2)  ---------------------------------------


     EDDAV:  cpu time    6.1198: real time    6.1210
       DOS:  cpu time    0.0011: real time    0.0011
    --------------------------------------------
      LOOP:  cpu time    6.1208: real time    6.1221

 eigenvalue-minimisations  :  1012
 total energy-change (2. order) :-0.9373204E+04  (-0.9043057E+04)
 number of electron     792.0000000 magnetization 
 augmentation part      792.0000000 magnetization 

 Free energy of the ion-electron system (eV)
  ---------------------------------------------------
  alpha Z        PSCENC =      1909.85183886
  Ewald energy   TEWEN  =    219650.01205548
  -Hartree energ DENC   =   -341872.54892507
  -exchange      EXHF   =         0.00000000
  -V(xc)+E(xc)   XCENC  =      3683.21695595
  PAW double counting   =    112729.53333415  -117641.51188735
  entropy T*S    EENTRO =        -0.71433311
  eigenvalues    EBANDS =    -13840.08200102
  atomic energy  EATOM  =    136002.60505376
  Solvation  Ediel_sol  =         0.00000000
  ---------------------------------------------------
  free energy    TOTEN  =       620.36209165 eV

  energy without entropy =      621.07642476  energy(sigma->0) =      620.71925821


--------------------------------------------------------------------------------------------------------




--------------------------------------- Iteration      1(   3)  ---------------------------------------


     EDDAV:  cpu time    6.4801: real time    6.4814
       DOS:  cpu time    0.0013: real time    0.0013
    --------------------------------------------
      LOOP:  cpu time    6.4813: real time    6.4827

 eigenvalue-minimisations  :  1088
 total energy-change (2. order) :-0.9560654E+03  (-0.9080306E+03)
 number of electron     792.0000000 magnetization 
 augmentation part      792.0000000 magnetization 

 Free energy of the ion-electron system (eV)
  ---------------------------------------------------
  alpha Z        PSCENC =      1909.85183886
  Ewald energy   TEWEN  =    219650.01205548
  -Hartree energ DENC   =   -341872.54892507
  -exchange      EXHF   =         0.00000000
  -V(xc)+E(xc)   XCENC  =      3683.21695595
  PAW double counting   =    112729.53333415  -117641.51188735
  entropy T*S    EENTRO =        -0.97889813
  eigenvalues    EBANDS =    -14795.88283140
  atomic energy  EATOM  =    136002.60505376
  Solvation  Ediel_sol  =         0.00000000
  ---------------------------------------------------
  free energy    TOTEN  =      -335.70330374 eV

  energy without entropy =     -334.72440561  energy(sigma->0) =     -335.21385468


--------------------------------------------------------------------------------------------------------




--------------------------------------- Iteration      1(   4)  ---------------------------------------


     EDDAV:  cpu time    6.5324: real time    6.5344
       DOS:  cpu time    0.0012: real time    0.0012
    --------------------------------------------
      LOOP:  cpu time    6.5336: real time    6.5356

 eigenvalue-minimisations  :  1104
 total energy-change (2. order) :-0.5839743E+02  (-0.5769393E+02)
 number of electron     792.0000000 magnetization 
 augmentation part      792.0000000 magnetization 

 Free energy of the ion-electron system (eV)
  ---------------------------------------------------
  alpha Z        PSCENC =      1909.85183886
  Ewald energy   TEWEN  =    219650.01205548
  -Hartree energ DENC   =   -341872.54892507
  -exchange      EXHF   =         0.00000000
  -V(xc)+E(xc)   XCENC  =      3683.21695595
  PAW double counting   =    112729.53333415  -117641.51188735
  entropy T*S    EENTRO =        -1.04490168
  eigenvalues    EBANDS =    -14854.21425671
  atomic energy  EATOM  =    136002.60505376
  Solvation  Ediel_sol  =         0.00000000
  ---------------------------------------------------
  free energy    TOTEN  =      -394.10073261 eV

  energy without entropy =     -393.05583093  energy(sigma->0) =     -393.57828177


--------------------------------------------------------------------------------------------------------




--------------------------------------- Iteration      1(   5)  ---------------------------------------


     EDDAV:  cpu time    6.9410: real time    6.9428
       DOS:  cpu time    0.0012: real time    0.0012
    CHARGE:  cpu time    0.2392: real time    0.2392
    MIXING:  cpu time    0.0136: real time    0.0137
    --------------------------------------------
      LOOP:  cpu time    7.1952: real time    7.1970

 eigenvalue-minimisations  :  1200
 total energy-change (2. order) :-0.2246327E+01  (-0.2242786E+01)
 number of electron     791.9999753 magnetization 
 augmentation part      287.0105223 magnetization 

 Broyden mixing:
  rms(total) = 0.97473E+01    rms(broyden)= 0.97387E+01
  rms(prec ) = 0.10085E+02
  weight for this iteration     100.00

 Free energy of the ion-electron system (eV)
  ---------------------------------------------------
  alpha Z        PSCENC =      1909.85183886
  Ewald energy   TEWEN  =    219650.01205548
  -Hartree energ DENC   =   -341872.54892507
  -exchange      EXHF   =         0.00000000
  -V(xc)+E(xc)   XCENC  =      3683.21695595
  PAW double counting   =    112729.53333415  -117641.51188735
  entropy T*S    EENTRO =        -1.03469552
  eigenvalues    EBANDS =    -14856.47078964
  atomic energy  EATOM  =    136002.60505376
  Solvation  Ediel_sol  =         0.00000000
  ---------------------------------------------------
  free energy    TOTEN  =      -396.34705938 eV

  energy without entropy =     -395.31236386  energy(sigma->0) =     -395.82971162


--------------------------------------------------------------------------------------------------------




--------------------------------------- Iteration      1(   6)  ---------------------------------------


    POTLOK:  cpu time    0.3617: real time    0.3618
    SETDIJ:  cpu time    0.0195: real time    0.0195
     EDDAV:  cpu time    6.9563: real time    6.9575
       DOS:  cpu time    0.0013: real time    0.0013
    CHARGE:  cpu time    0.2063: real time    0.2063
    MIXING:  cpu time    0.0116: real time    0.0116
    --------------------------------------------
      LOOP:  cpu time    7.5567: real time    7.5580

 eigenvalue-minimisations  :  1200
 total energy-change (2. order) :-0.6417407E+02  (-0.9003544E+02)
 number of electron     791.9999687 magnetization 
 augmentation part      345.5153850 magnetization 

 Broyden mixing:
  rms(total) = 0.15409E+02    rms(broyden)= 0.15407E+02
  rms(prec ) = 0.15967E+02
  weight for this iteration     100.00

 eigenvalues of (default mixing * dielectric matrix)
  average eigenvalue GAMMA=   0.2550
  0.2550

 Free energy of the ion-electron system (eV)
  ---------------------------------------------------
  alpha Z        PSCENC =      1909.85183886
  Ewald energy   TEWEN  =    219650.01205548
  -Hartree energ DENC   =   -339207.12404936
  -exchange      EXHF   =         0.00000000
  -V(xc)+E(xc)   XCENC  =      3610.22535248
  PAW double counting   =    117774.48578350  -122458.46434693
  entropy T*S    EENTRO =        -0.87486343
  eigenvalues    EBANDS =    -17741.23794933
  atomic energy  EATOM  =    136002.60505376
  Solvation  Ediel_sol  =         0.00000000
  ---------------------------------------------------
  free energy    TOTEN  =      -460.52112498 eV

  energy without entropy =     -459.64626155  energy(sigma->0) =     -460.08369327


--------------------------------------------------------------------------------------------------------




--------------------------------------- Iteration      1(   7)  ---------------------------------------


    POTLOK:  cpu time    0.2426: real time    0.2426
    SETDIJ:  cpu time    0.0183: real time    0.0183
     EDDAV:  cpu time    6.4404: real time    6.4495
       DOS:  cpu time    0.0012: real time    0.0011
    CHARGE:  cpu time    0.2110: real time    0.2110
    MIXING:  cpu time    0.0086: real time    0.0086
    --------------------------------------------
      LOOP:  cpu time    6.9221: real time    6.9312

 eigenvalue-minimisations  :  1080
 total energy-change (2. order) : 0.9675528E+02  (-0.1950088E+02)
 number of electron     791.9999714 magnetization 
 augmentation part      329.7138745 magnetization 

 Broyden mixing:
  rms(total) = 0.64431E+01    rms(broyden)= 0.64417E+01
  rms(prec ) = 0.66831E+01
  weight for this iteration     100.00

 eigenvalues of (default mixing * dielectric matrix)
  average eigenvalue GAMMA=   0.5374
  0.6232  0.4515

 Free energy of the ion-electron system (eV)
  ---------------------------------------------------
  alpha Z        PSCENC =      1909.85183886
  Ewald energy   TEWEN  =    219650.01205548
  -Hartree energ DENC   =   -340378.97117764
  -exchange      EXHF   =         0.00000000
  -V(xc)+E(xc)   XCENC  =      3636.70091766
  PAW double counting   =    122353.72750492  -127179.39383723
  entropy T*S    EENTRO =        -0.78788047
  eigenvalues    EBANDS =    -16357.51032461
  atomic energy  EATOM  =    136002.60505376
  Solvation  Ediel_sol  =         0.00000000
  ---------------------------------------------------
  free energy    TOTEN  =      -363.76584926 eV

  energy without entropy =     -362.97796879  energy(sigma->0) =     -363.37190902


--------------------------------------------------------------------------------------------------------




--------------------------------------- Iteration      1(   8)  ---------------------------------------


    POTLOK:  cpu time    0.2489: real time    0.2493
    SETDIJ:  cpu time    0.0182: real time    0.0183
     EDDAV:  cpu time    7.7026: real time    7.7037
       DOS:  cpu time    0.0012: real time    0.0012
    CHARGE:  cpu time    0.2066: real time    0.2066
    MIXING:  cpu time    0.0084: real time    0.0084
    --------------------------------------------
      LOOP:  cpu time    8.1860: real time    8.1875

 eigenvalue-minimisations  :  1288
 total energy-change (2. order) :-0.7596502E+02  (-0.2460883E+02)
 number of electron     791.9999662 magnetization 
 augmentation part      304.2634800 magnetization 

 Broyden mixing:
  rms(total) = 0.14227E+02    rms(broyden)= 0.14225E+02
  rms(prec ) = 0.16557E+02
  weight for this iteration     100.00

 eigenvalues of (default mixing * dielectric matrix)
  average eigenvalue GAMMA=   0.4968
  0.9108  0.4175  0.1620

 Free energy of the ion-electron system (eV)
  ---------------------------------------------------
  alpha Z        PSCENC =      1909.85183886
  Ewald energy   TEWEN  =    219650.01205548
  -Hartree energ DENC   =   -341135.67136816
  -exchange      EXHF   =         0.00000000
  -V(xc)+E(xc)   XCENC  =      3662.54120395
  PAW double counting   =    129914.55524444  -134881.31388299
  entropy T*S    EENTRO =        -0.83893170
  eigenvalues    EBANDS =    -15561.47208742
  atomic energy  EATOM  =    136002.60505376
  Solvation  Ediel_sol  =         0.00000000
  ---------------------------------------------------
  free energy    TOTEN  =      -439.73087378 eV

  energy without entropy =     -438.89194208  energy(sigma->0) =     -439.31140793


--------------------------------------------------------------------------------------------------------




--------------------------------------- Iteration      1(   9)  ---------------------------------------


    POTLOK:  cpu time    0.2430: real time    0.2431
    SETDIJ:  cpu time    0.0183: real time    0.0183
     EDDAV:  cpu time    7.0875: real time    7.0887
       DOS:  cpu time    0.0012: real time    0.0012
    CHARGE:  cpu time    0.2109: real time    0.2109
    MIXING:  cpu time    0.0090: real time    0.0090
    --------------------------------------------
      LOOP:  cpu time    7.5698: real time    7.5711

 eigenvalue-minimisations  :  1232
 total energy-change (2. order) : 0.6798126E+02  (-0.1378250E+02)
 number of electron     791.9999745 magnetization 
 augmentation part      303.6931360 magnetization 

 Broyden mixing:
  rms(total) = 0.65458E+01    rms(broyden)= 0.65387E+01
  rms(prec ) = 0.75668E+01
  weight for this iteration     100.00

 eigenvalues of (default mixing * dielectric matrix)
  average eigenvalue GAMMA=   0.5798
  1.4398  0.3786  0.3786  0.1221

 Free energy of the ion-electron system (eV)
  ---------------------------------------------------
  alpha Z        PSCENC =      1909.85183886
  Ewald energy   TEWEN  =    219650.01205548
  -Hartree energ DENC   =   -341331.76016625
  -exchange      EXHF   =         0.00000000
  -V(xc)+E(xc)   XCENC  =      3661.71155652
  PAW double counting   =    132947.47759408  -137933.63432648
  entropy T*S    EENTRO =        -1.03504118
  eigenvalues    EBANDS =    -15276.97818326
  atomic energy  EATOM  =    136002.60505376
  Solvation  Ediel_sol  =         0.00000000
  ---------------------------------------------------
  free energy    TOTEN  =      -371.74961847 eV

  energy without entropy =     -370.71457729  energy(sigma->0) =     -371.23209788


--------------------------------------------------------------------------------------------------------




--------------------------------------- Iteration      1(  10)  ---------------------------------------


    POTLOK:  cpu time    0.2429: real time    0.2429
    SETDIJ:  cpu time    0.0183: real time    0.0183
     EDDAV:  cpu time    8.0494: real time    8.0507
       DOS:  cpu time    0.0012: real time    0.0012
    CHARGE:  cpu time    0.2144: real time    0.2144
    MIXING:  cpu time    0.0114: real time    0.0113
    --------------------------------------------
      LOOP:  cpu time    8.5375: real time    8.5389

 eigenvalue-minimisations  :  1408
 total energy-change (2. order) :-0.1841680E+02  (-0.1451861E+02)
 number of electron     791.9999696 magnetization 
 augmentation part      304.2112847 magnetization 

 Broyden mixing:
  rms(total) = 0.85035E+01    rms(broyden)= 0.85006E+01
  rms(prec ) = 0.94896E+01
  weight for this iteration     100.00

 eigenvalues of (default mixing * dielectric matrix)
  average eigenvalue GAMMA=   0.6394
  2.0857  0.4234  0.4234  0.1323  0.1323

 Free energy of the ion-electron system (eV)
  ---------------------------------------------------
  alpha Z        PSCENC =      1909.85183886
  Ewald energy   TEWEN  =    219650.01205548
  -Hartree energ DENC   =   -341236.91918221
  -exchange      EXHF   =         0.00000000
  -V(xc)+E(xc)   XCENC  =      3657.65166547
  PAW double counting   =    136985.67180755  -141987.49506628
  entropy T*S    EENTRO =        -1.17337527
  eigenvalues    EBANDS =    -15370.37121361
  atomic energy  EATOM  =    136002.60505376
  Solvation  Ediel_sol  =         0.00000000
  ---------------------------------------------------
  free energy    TOTEN  =      -390.16641626 eV

  energy without entropy =     -388.99304098  energy(sigma->0) =     -389.57972862


--------------------------------------------------------------------------------------------------------




--------------------------------------- Iteration      1(  11)  ---------------------------------------


    POTLOK:  cpu time    0.2434: real time    0.2436
    SETDIJ:  cpu time    0.0186: real time    0.0186
     EDDAV:  cpu time    7.5502: real time    7.5515
       DOS:  cpu time    0.0033: real time    0.0033
    CHARGE:  cpu time    0.2109: real time    0.2109
    MIXING:  cpu time    0.0097: real time    0.0097
    --------------------------------------------
      LOOP:  cpu time    8.0362: real time    8.0376

 eigenvalue-minimisations  :  1328
 total energy-change (2. order) : 0.9788473E+01  (-0.7664065E+01)
 number of electron     791.9999738 magnetization 
 augmentation part      307.5367531 magnetization 

 Broyden mixing:
  rms(total) = 0.69505E+01    rms(broyden)= 0.69471E+01
  rms(prec ) = 0.77601E+01
  weight for this iteration     100.00

 eigenvalues of (default mixing * dielectric matrix)
  average eigenvalue GAMMA=   0.5891
  2.2440  0.4250  0.4250  0.1639  0.1639  0.1127

 Free energy of the ion-electron system (eV)
  ---------------------------------------------------
  alpha Z        PSCENC =      1909.85183886
  Ewald energy   TEWEN  =    219650.01205548
  -Hartree energ DENC   =   -341113.76117037
  -exchange      EXHF   =         0.00000000
  -V(xc)+E(xc)   XCENC  =      3654.16535176
  PAW double counting   =    141724.21636066  -146748.96232185
  entropy T*S    EENTRO =        -1.03213811
  eigenvalues    EBANDS =    -15457.47297366
  atomic energy  EATOM  =    136002.60505376
  Solvation  Ediel_sol  =         0.00000000
  ---------------------------------------------------
  free energy    TOTEN  =      -380.37794348 eV

  energy without entropy =     -379.34580536  energy(sigma->0) =     -379.86187442


--------------------------------------------------------------------------------------------------------




--------------------------------------- Iteration      1(  12)  ---------------------------------------


    POTLOK:  cpu time    0.2418: real time    0.2418
    SETDIJ:  cpu time    0.0197: real time    0.0197
     EDDAV:  cpu time    7.4584: real time    7.4602
       DOS:  cpu time    0.0044: real time    0.0044
    CHARGE:  cpu time    0.3348: real time    0.3348
    MIXING:  cpu time    0.0098: real time    0.0098
    --------------------------------------------
      LOOP:  cpu time    8.0690: real time    8.0707

 eigenvalue-minimisations  :  1312
 total energy-change (2. order) : 0.1435519E+02  (-0.3671731E+01)
 number of electron     791.9999721 magnetization 
 augmentation part      311.2593487 magnetization 

 Broyden mixing:
  rms(total) = 0.43517E+01    rms(broyden)= 0.43489E+01
  rms(prec ) = 0.48345E+01
  weight for this iteration     100.00

 eigenvalues of (default mixing * dielectric matrix)
  average eigenvalue GAMMA=   0.5524
  2.2210  0.4243  0.4243  0.2754  0.2754  0.1356  0.1105

 Free energy of the ion-electron system (eV)
  ---------------------------------------------------
  alpha Z        PSCENC =      1909.85183886
  Ewald energy   TEWEN  =    219650.01205548
  -Hartree energ DENC   =   -341060.85273103
  -exchange      EXHF   =         0.00000000
  -V(xc)+E(xc)   XCENC  =      3652.35987473
  PAW double counting   =    143092.41822158  -148120.79717415
  entropy T*S    EENTRO =        -0.92324674
  eigenvalues    EBANDS =    -15490.69665081
  atomic energy  EATOM  =    136002.60505376
  Solvation  Ediel_sol  =         0.00000000
  ---------------------------------------------------
  free energy    TOTEN  =      -366.02275832 eV

  energy without entropy =     -365.09951159  energy(sigma->0) =     -365.56113495


--------------------------------------------------------------------------------------------------------




--------------------------------------- Iteration      1(  13)  ---------------------------------------


    POTLOK:  cpu time    0.2505: real time    0.2505
    SETDIJ:  cpu time    0.0207: real time    0.0207
     EDDAV:  cpu time    7.4457: real time    7.4474
       DOS:  cpu time    0.0026: real time    0.0026
    CHARGE:  cpu time    0.2113: real time    0.2113
    MIXING:  cpu time    0.0103: real time    0.0103
    --------------------------------------------
      LOOP:  cpu time    7.9411: real time    7.9428

 eigenvalue-minimisations  :  1312
 total energy-change (2. order) : 0.2116460E+01  (-0.2298860E+01)
 number of electron     791.9999752 magnetization 
 augmentation part      310.3245448 magnetization 

 Broyden mixing:
  rms(total) = 0.57347E+01    rms(broyden)= 0.57331E+01
  rms(prec ) = 0.64828E+01
  weight for this iteration     100.00

 eigenvalues of (default mixing * dielectric matrix)
  average eigenvalue GAMMA=   0.5285
  2.2120  0.4398  0.4398  0.3819  0.3819  0.1122  0.1303  0.1303

 Free energy of the ion-electron system (eV)
  ---------------------------------------------------
  alpha Z        PSCENC =      1909.85183886
  Ewald energy   TEWEN  =    219650.01205548
  -Hartree energ DENC   =   -341066.14572968
  -exchange      EXHF   =         0.00000000
  -V(xc)+E(xc)   XCENC  =      3652.89280342
  PAW double counting   =    142899.87936366  -147928.08005244
  entropy T*S    EENTRO =        -0.88731783
  eigenvalues    EBANDS =    -15484.03431365
  atomic energy  EATOM  =    136002.60505376
  Solvation  Ediel_sol  =         0.00000000
  ---------------------------------------------------
  free energy    TOTEN  =      -363.90629843 eV

  energy without entropy =     -363.01898060  energy(sigma->0) =     -363.46263952


--------------------------------------------------------------------------------------------------------




--------------------------------------- Iteration      1(  14)  ---------------------------------------


    POTLOK:  cpu time    0.2442: real time    0.2442
    SETDIJ:  cpu time    0.0200: real time    0.0200
     EDDAV:  cpu time    7.4537: real time    7.4554
       DOS:  cpu time    0.0037: real time    0.0037
    CHARGE:  cpu time    0.4377: real time    0.4377
    MIXING:  cpu time    0.0231: real time    0.0231
    --------------------------------------------
      LOOP:  cpu time    8.1824: real time    8.1840

 eigenvalue-minimisations  :  1312
 total energy-change (2. order) : 0.4263849E+01  (-0.3566037E+01)
 number of electron     791.9999713 magnetization 
 augmentation part      311.7611290 magnetization 

 Broyden mixing:
  rms(total) = 0.38702E+01    rms(broyden)= 0.38690E+01
  rms(prec ) = 0.43717E+01
  weight for this iteration     100.00

 eigenvalues of (default mixing * dielectric matrix)
  average eigenvalue GAMMA=   0.5020
  2.1950  0.4844  0.4844  0.4122  0.4122  0.1519  0.1519  0.1201  0.1054

 Free energy of the ion-electron system (eV)
  ---------------------------------------------------
  alpha Z        PSCENC =      1909.85183886
  Ewald energy   TEWEN  =    219650.01205548
  -Hartree energ DENC   =   -341052.85735180
  -exchange      EXHF   =         0.00000000
  -V(xc)+E(xc)   XCENC  =      3652.48279697
  PAW double counting   =    142711.73867767  -147735.48363441
  entropy T*S    EENTRO =        -0.96406581
  eigenvalues    EBANDS =    -15497.02782036
  atomic energy  EATOM  =    136002.60505376
  Solvation  Ediel_sol  =         0.00000000
  ---------------------------------------------------
  free energy    TOTEN  =      -359.64244963 eV

  energy without entropy =     -358.67838383  energy(sigma->0) =     -359.16041673


--------------------------------------------------------------------------------------------------------




--------------------------------------- Iteration      1(  15)  ---------------------------------------


    POTLOK:  cpu time    0.2429: real time    0.2429
    SETDIJ:  cpu time    0.0196: real time    0.0196
     EDDAV:  cpu time    7.4352: real time    7.4367
       DOS:  cpu time    0.0039: real time    0.0039
    CHARGE:  cpu time    0.2161: real time    0.2160
    MIXING:  cpu time    0.0130: real time    0.0130
    --------------------------------------------
      LOOP:  cpu time    7.9305: real time    7.9320

 eigenvalue-minimisations  :  1312
 total energy-change (2. order) : 0.8076197E+01  (-0.1175785E+01)
 number of electron     791.9999727 magnetization 
 augmentation part      312.5304175 magnetization 

 Broyden mixing:
  rms(total) = 0.21465E+01    rms(broyden)= 0.21453E+01
  rms(prec ) = 0.24112E+01
  weight for this iteration     100.00

 eigenvalues of (default mixing * dielectric matrix)
  average eigenvalue GAMMA=   0.4991
  2.2004  0.5637  0.5637  0.4304  0.4304  0.2138  0.2138  0.1332  0.1332  0.1080

 Free energy of the ion-electron system (eV)
  ---------------------------------------------------
  alpha Z        PSCENC =      1909.85183886
  Ewald energy   TEWEN  =    219650.01205548
  -Hartree energ DENC   =   -341060.75575697
  -exchange      EXHF   =         0.00000000
  -V(xc)+E(xc)   XCENC  =      3652.70447077
  PAW double counting   =    142435.70739199  -147457.04776253
  entropy T*S    EENTRO =        -0.89548391
  eigenvalues    EBANDS =    -15483.74806033
  atomic energy  EATOM  =    136002.60505376
  Solvation  Ediel_sol  =         0.00000000
  ---------------------------------------------------
  free energy    TOTEN  =      -351.56625288 eV

  energy without entropy =     -350.67076897  energy(sigma->0) =     -351.11851093


--------------------------------------------------------------------------------------------------------




--------------------------------------- Iteration      1(  16)  ---------------------------------------


    POTLOK:  cpu time    0.2451: real time    0.2454
    SETDIJ:  cpu time    0.0186: real time    0.0186
     EDDAV:  cpu time    7.5509: real time    7.5522
       DOS:  cpu time    0.0034: real time    0.0034
    CHARGE:  cpu time    0.2730: real time    0.2730
    MIXING:  cpu time    0.0260: real time    0.0260
    --------------------------------------------
      LOOP:  cpu time    8.1170: real time    8.1186

 eigenvalue-minimisations  :  1328
 total energy-change (2. order) : 0.4073840E+00  (-0.4277055E+00)
 number of electron     791.9999730 magnetization 
 augmentation part      312.4806654 magnetization 

 Broyden mixing:
  rms(total) = 0.19617E+01    rms(broyden)= 0.19610E+01
  rms(prec ) = 0.21941E+01
  weight for this iteration     100.00

 eigenvalues of (default mixing * dielectric matrix)
  average eigenvalue GAMMA=   0.4910
  2.1726  0.6927  0.6927  0.4331  0.4331  0.2330  0.2330  0.1380  0.1380  0.1272
  0.1075

 Free energy of the ion-electron system (eV)
  ---------------------------------------------------
  alpha Z        PSCENC =      1909.85183886
  Ewald energy   TEWEN  =    219650.01205548
  -Hartree energ DENC   =   -341059.68252188
  -exchange      EXHF   =         0.00000000
  -V(xc)+E(xc)   XCENC  =      3652.78600641
  PAW double counting   =    142267.15726357  -147285.92272383
  entropy T*S    EENTRO =        -0.93521643
  eigenvalues    EBANDS =    -15487.03062484
  atomic energy  EATOM  =    136002.60505376
  Solvation  Ediel_sol  =         0.00000000
  ---------------------------------------------------
  free energy    TOTEN  =      -351.15886891 eV

  energy without entropy =     -350.22365248  energy(sigma->0) =     -350.69126069


--------------------------------------------------------------------------------------------------------




--------------------------------------- Iteration      1(  17)  ---------------------------------------


    POTLOK:  cpu time    0.3252: real time    0.3255
    SETDIJ:  cpu time    0.0185: real time    0.0185
     EDDAV:  cpu time    7.3405: real time    7.3420
       DOS:  cpu time    0.0035: real time    0.0034
    CHARGE:  cpu time    0.2103: real time    0.2104
    MIXING:  cpu time    0.0136: real time    0.0136
    --------------------------------------------
      LOOP:  cpu time    7.9116: real time    7.9135

 eigenvalue-minimisations  :  1288
 total energy-change (2. order) : 0.1366771E+01  (-0.1384296E+00)
 number of electron     791.9999730 magnetization 
 augmentation part      312.2845782 magnetization 

 Broyden mixing:
  rms(total) = 0.14469E+01    rms(broyden)= 0.14467E+01
  rms(prec ) = 0.16116E+01
  weight for this iteration     100.00

 eigenvalues of (default mixing * dielectric matrix)
  average eigenvalue GAMMA=   0.4896
  2.1619  0.7675  0.7675  0.4222  0.4222  0.3119  0.3119  0.1696  0.1696  0.1316
  0.1316  0.1076

 Free energy of the ion-electron system (eV)
  ---------------------------------------------------
  alpha Z        PSCENC =      1909.85183886
  Ewald energy   TEWEN  =    219650.01205548
  -Hartree energ DENC   =   -341077.08699705
  -exchange      EXHF   =         0.00000000
  -V(xc)+E(xc)   XCENC  =      3653.10677991
  PAW double counting   =    141946.61747169  -146962.62102258
  entropy T*S    EENTRO =        -0.92329179
  eigenvalues    EBANDS =    -15471.35398666
  atomic energy  EATOM  =    136002.60505376
  Solvation  Ediel_sol  =         0.00000000
  ---------------------------------------------------
  free energy    TOTEN  =      -349.79209838 eV

  energy without entropy =     -348.86880659  energy(sigma->0) =     -349.33045248


--------------------------------------------------------------------------------------------------------




--------------------------------------- Iteration      1(  18)  ---------------------------------------


    POTLOK:  cpu time    0.2531: real time    0.2531
    SETDIJ:  cpu time    0.0216: real time    0.0216
     EDDAV:  cpu time    7.3666: real time    7.3680
       DOS:  cpu time    0.0034: real time    0.0034
    CHARGE:  cpu time    0.2262: real time    0.2263
    MIXING:  cpu time    0.0126: real time    0.0126
    --------------------------------------------
      LOOP:  cpu time    7.8836: real time    7.8851

 eigenvalue-minimisations  :  1304
 total energy-change (2. order) : 0.2589838E+00  (-0.5713296E-01)
 number of electron     791.9999729 magnetization 
 augmentation part      312.1895717 magnetization 

 Broyden mixing:
  rms(total) = 0.13493E+01    rms(broyden)= 0.13492E+01
  rms(prec ) = 0.15129E+01
  weight for this iteration     100.00

 eigenvalues of (default mixing * dielectric matrix)
  average eigenvalue GAMMA=   0.5005
  2.1537  0.9060  0.9060  0.4474  0.4474  0.3816  0.3816  0.1855  0.1855  0.1075
  0.1346  0.1346  0.1350

 Free energy of the ion-electron system (eV)
  ---------------------------------------------------
  alpha Z        PSCENC =      1909.85183886
  Ewald energy   TEWEN  =    219650.01205548
  -Hartree energ DENC   =   -341085.62523368
  -exchange      EXHF   =         0.00000000
  -V(xc)+E(xc)   XCENC  =      3653.19136679
  PAW double counting   =    141726.91025570  -146740.44042931
  entropy T*S    EENTRO =        -0.92788773
  eigenvalues    EBANDS =    -15465.11013446
  atomic energy  EATOM  =    136002.60505376
  Solvation  Ediel_sol  =         0.00000000
  ---------------------------------------------------
  free energy    TOTEN  =      -349.53311459 eV

  energy without entropy =     -348.60522686  energy(sigma->0) =     -349.06917072


--------------------------------------------------------------------------------------------------------




--------------------------------------- Iteration      1(  19)  ---------------------------------------


    POTLOK:  cpu time    0.2482: real time    0.2484
    SETDIJ:  cpu time    0.0184: real time    0.0184
     EDDAV:  cpu time    7.6168: real time    7.6181
       DOS:  cpu time    0.0021: real time    0.0021
    CHARGE:  cpu time    0.2100: real time    0.2101
    MIXING:  cpu time    0.0131: real time    0.0131
    --------------------------------------------
      LOOP:  cpu time    8.1086: real time    8.1103

 eigenvalue-minimisations  :  1304
 total energy-change (2. order) : 0.3473741E+00  (-0.2126823E-01)
 number of electron     791.9999729 magnetization 
 augmentation part      312.1211876 magnetization 

 Broyden mixing:
  rms(total) = 0.11938E+01    rms(broyden)= 0.11937E+01
  rms(prec ) = 0.13294E+01
  weight for this iteration     100.00

 eigenvalues of (default mixing * dielectric matrix)
  average eigenvalue GAMMA=   0.5190
  2.1412  1.0897  1.0897  0.4922  0.4922  0.4086  0.4086  0.2269  0.2269  0.1075
  0.1331  0.1331  0.1579  0.1579

 Free energy of the ion-electron system (eV)
  ---------------------------------------------------
  alpha Z        PSCENC =      1909.85183886
  Ewald energy   TEWEN  =    219650.01205548
  -Hartree energ DENC   =   -341091.23424324
  -exchange      EXHF   =         0.00000000
  -V(xc)+E(xc)   XCENC  =      3653.30127731
  PAW double counting   =    141453.69910601  -146464.31169097
  entropy T*S    EENTRO =        -0.93411391
  eigenvalues    EBANDS =    -15462.17502382
  atomic energy  EATOM  =    136002.60505376
  Solvation  Ediel_sol  =         0.00000000
  ---------------------------------------------------
  free energy    TOTEN  =      -349.18574053 eV

  energy without entropy =     -348.25162661  energy(sigma->0) =     -348.71868357


--------------------------------------------------------------------------------------------------------




--------------------------------------- Iteration      1(  20)  ---------------------------------------


    POTLOK:  cpu time    0.2477: real time    0.2477
    SETDIJ:  cpu time    0.0184: real time    0.0184
     EDDAV:  cpu time    7.4080: real time    7.4096
       DOS:  cpu time    0.0032: real time    0.0031
    CHARGE:  cpu time    0.2092: real time    0.2092
    MIXING:  cpu time    0.0137: real time    0.0137
    --------------------------------------------
      LOOP:  cpu time    7.9001: real time    7.9017

 eigenvalue-minimisations  :  1312
 total energy-change (2. order) : 0.2868625E+00  (-0.2059217E-01)
 number of electron     791.9999729 magnetization 
 augmentation part      312.0806000 magnetization 

 Broyden mixing:
  rms(total) = 0.10671E+01    rms(broyden)= 0.10670E+01
  rms(prec ) = 0.11983E+01
  weight for this iteration     100.00

 eigenvalues of (default mixing * dielectric matrix)
  average eigenvalue GAMMA=   0.5739
  2.1048  1.4693  1.4693  0.6470  0.6470  0.4400  0.4400  0.2972  0.2313  0.1715
  0.1715  0.1075  0.1338  0.1338  0.1440

 Free energy of the ion-electron system (eV)
  ---------------------------------------------------
  alpha Z        PSCENC =      1909.85183886
  Ewald energy   TEWEN  =    219650.01205548
  -Hartree energ DENC   =   -341100.84750296
  -exchange      EXHF   =         0.00000000
  -V(xc)+E(xc)   XCENC  =      3653.38503636
  PAW double counting   =    141140.62594883  -146147.60876493
  entropy T*S    EENTRO =        -0.94126390
  eigenvalues    EBANDS =    -15455.98127947
  atomic energy  EATOM  =    136002.60505376
  Solvation  Ediel_sol  =         0.00000000
  ---------------------------------------------------
  free energy    TOTEN  =      -348.89887798 eV

  energy without entropy =     -347.95761408  energy(sigma->0) =     -348.42824603


--------------------------------------------------------------------------------------------------------




--------------------------------------- Iteration      1(  21)  ---------------------------------------


    POTLOK:  cpu time    0.2526: real time    0.2527
    SETDIJ:  cpu time    0.0178: real time    0.0178
     EDDAV:  cpu time    7.8997: real time    7.9012
       DOS:  cpu time    0.0011: real time    0.0011
    CHARGE:  cpu time    0.2106: real time    0.2107
    MIXING:  cpu time    0.0146: real time    0.0146
    --------------------------------------------
      LOOP:  cpu time    8.3966: real time    8.3983

 eigenvalue-minimisations  :  1368
 total energy-change (2. order) : 0.5872283E+00  (-0.3583155E-01)
 number of electron     791.9999727 magnetization 
 augmentation part      311.9844841 magnetization 

 Broyden mixing:
  rms(total) = 0.70536E+00    rms(broyden)= 0.70509E+00
  rms(prec ) = 0.78000E+00
  weight for this iteration     100.00

 eigenvalues of (default mixing * dielectric matrix)
  average eigenvalue GAMMA=   0.5859
  2.0546  1.6501  1.6501  0.7382  0.7382  0.4410  0.4410  0.2945  0.2945  0.1904
  0.1904  0.1075  0.1338  0.1338  0.1583  0.1576

 Free energy of the ion-electron system (eV)
  ---------------------------------------------------
  alpha Z        PSCENC =      1909.85183886
  Ewald energy   TEWEN  =    219650.01205548
  -Hartree energ DENC   =   -341124.54408038
  -exchange      EXHF   =         0.00000000
  -V(xc)+E(xc)   XCENC  =      3653.61413753
  PAW double counting   =    140418.18523305  -145416.72339699
  entropy T*S    EENTRO =        -0.95612535
  eigenvalues    EBANDS =    -15440.35636560
  atomic energy  EATOM  =    136002.60505376
  Solvation  Ediel_sol  =         0.00000000
  ---------------------------------------------------
  free energy    TOTEN  =      -348.31164965 eV

  energy without entropy =     -347.35552430  energy(sigma->0) =     -347.83358698


--------------------------------------------------------------------------------------------------------




--------------------------------------- Iteration      1(  22)  ---------------------------------------


    POTLOK:  cpu time    0.2513: real time    0.2513
    SETDIJ:  cpu time    0.0174: real time    0.0174
     EDDAV:  cpu time    7.4220: real time    7.4231
       DOS:  cpu time    0.0014: real time    0.0014
    CHARGE:  cpu time    0.2081: real time    0.2081
    MIXING:  cpu time    0.0150: real time    0.0150
    --------------------------------------------
      LOOP:  cpu time    7.9151: real time    7.9163

 eigenvalue-minimisations  :  1312
 total energy-change (2. order) : 0.2245577E+00  (-0.3935170E-01)
 number of electron     791.9999728 magnetization 
 augmentation part      311.9044559 magnetization 

 Broyden mixing:
  rms(total) = 0.45162E+00    rms(broyden)= 0.45127E+00
  rms(prec ) = 0.49625E+00
  weight for this iteration     100.00

 eigenvalues of (default mixing * dielectric matrix)
  average eigenvalue GAMMA=   0.5848
  1.9939  1.6991  1.6991  0.8029  0.8029  0.4557  0.4557  0.4115  0.3638  0.2162
  0.1075  0.1338  0.1338  0.1862  0.1672  0.1672  0.1457

 Free energy of the ion-electron system (eV)
  ---------------------------------------------------
  alpha Z        PSCENC =      1909.85183886
  Ewald energy   TEWEN  =    219650.01205548
  -Hartree energ DENC   =   -341143.77608068
  -exchange      EXHF   =         0.00000000
  -V(xc)+E(xc)   XCENC  =      3653.71161436
  PAW double counting   =    139912.85994129  -144904.95469665
  entropy T*S    EENTRO =        -0.97873307
  eigenvalues    EBANDS =    -15427.41808527
  atomic energy  EATOM  =    136002.60505376
  Solvation  Ediel_sol  =         0.00000000
  ---------------------------------------------------
  free energy    TOTEN  =      -348.08709192 eV

  energy without entropy =     -347.10835885  energy(sigma->0) =     -347.59772538


--------------------------------------------------------------------------------------------------------




--------------------------------------- Iteration      1(  23)  ---------------------------------------


    POTLOK:  cpu time    0.2524: real time    0.2525
    SETDIJ:  cpu time    0.0175: real time    0.0175
     EDDAV:  cpu time    7.4882: real time    7.4897
       DOS:  cpu time    0.0012: real time    0.0012
    CHARGE:  cpu time    0.2124: real time    0.2124
    MIXING:  cpu time    0.0160: real time    0.0160
    --------------------------------------------
      LOOP:  cpu time    7.9876: real time    7.9891

 eigenvalue-minimisations  :  1272
 total energy-change (2. order) : 0.4508403E-01  (-0.1837793E-01)
 number of electron     791.9999727 magnetization 
 augmentation part      311.9428109 magnetization 

 Broyden mixing:
  rms(total) = 0.34387E+00    rms(broyden)= 0.34374E+00
  rms(prec ) = 0.36147E+00
  weight for this iteration     100.00

 eigenvalues of (default mixing * dielectric matrix)
  average eigenvalue GAMMA=   0.5840
  1.9109  1.7193  1.7193  0.9121  0.9121  0.5246  0.4705  0.4705  0.3659  0.2505
  0.2246  0.1075  0.1338  0.1338  0.1757  0.1757  0.1555  0.1490

 Free energy of the ion-electron system (eV)
  ---------------------------------------------------
  alpha Z        PSCENC =      1909.85183886
  Ewald energy   TEWEN  =    219650.01205548
  -Hartree energ DENC   =   -341148.42839358
  -exchange      EXHF   =         0.00000000
  -V(xc)+E(xc)   XCENC  =      3653.73013607
  PAW double counting   =    139721.99731298  -144711.56386853
  entropy T*S    EENTRO =        -0.98749953
  eigenvalues    EBANDS =    -15425.25864338
  atomic energy  EATOM  =    136002.60505376
  Solvation  Ediel_sol  =         0.00000000
  ---------------------------------------------------
  free energy    TOTEN  =      -348.04200788 eV

  energy without entropy =     -347.05450835  energy(sigma->0) =     -347.54825812


--------------------------------------------------------------------------------------------------------




--------------------------------------- Iteration      1(  24)  ---------------------------------------


    POTLOK:  cpu time    0.2544: real time    0.2544
    SETDIJ:  cpu time    0.0176: real time    0.0176
     EDDAV:  cpu time    6.9122: real time    6.9136
       DOS:  cpu time    0.0012: real time    0.0012
    CHARGE:  cpu time    0.2096: real time    0.2096
    MIXING:  cpu time    0.0174: real time    0.0174
    --------------------------------------------
      LOOP:  cpu time    7.4124: real time    7.4139

 eigenvalue-minimisations  :  1184
 total energy-change (2. order) : 0.9802279E-02  (-0.1109848E-01)
 number of electron     791.9999728 magnetization 
 augmentation part      312.0119226 magnetization 

 Broyden mixing:
  rms(total) = 0.30287E+00    rms(broyden)= 0.30276E+00
  rms(prec ) = 0.32806E+00
  weight for this iteration     100.00

 eigenvalues of (default mixing * dielectric matrix)
  average eigenvalue GAMMA=   0.6124
  1.8127  1.8127  1.3860  1.3860  1.1048  0.7342  0.7342  0.4545  0.4545  0.3222
  0.2253  0.1075  0.1338  0.1338  0.1771  0.1771  0.1796  0.1553  0.1451

 Free energy of the ion-electron system (eV)
  ---------------------------------------------------
  alpha Z        PSCENC =      1909.85183886
  Ewald energy   TEWEN  =    219650.01205548
  -Hartree energ DENC   =   -341151.33414961
  -exchange      EXHF   =         0.00000000
  -V(xc)+E(xc)   XCENC  =      3653.70298448
  PAW double counting   =    139627.90859422  -144616.19991115
  entropy T*S    EENTRO =        -0.98931693
  eigenvalues    EBANDS =    -15423.58935471
  atomic energy  EATOM  =    136002.60505376
  Solvation  Ediel_sol  =         0.00000000
  ---------------------------------------------------
  free energy    TOTEN  =      -348.03220561 eV

  energy without entropy =     -347.04288868  energy(sigma->0) =     -347.53754714


--------------------------------------------------------------------------------------------------------




--------------------------------------- Iteration      1(  25)  ---------------------------------------


    POTLOK:  cpu time    0.2534: real time    0.2537
    SETDIJ:  cpu time    0.0175: real time    0.0175
     EDDAV:  cpu time    7.9588: real time    7.9602
       DOS:  cpu time    0.0012: real time    0.0012
    CHARGE:  cpu time    0.3035: real time    0.3035
    MIXING:  cpu time    0.0224: real time    0.0224
    --------------------------------------------
      LOOP:  cpu time    8.5567: real time    8.5584

 eigenvalue-minimisations  :  1288
 total energy-change (2. order) :-0.2195606E-02  (-0.1117572E-01)
 number of electron     791.9999726 magnetization 
 augmentation part      312.0315997 magnetization 

 Broyden mixing:
  rms(total) = 0.26478E+00    rms(broyden)= 0.26462E+00
  rms(prec ) = 0.28774E+00
  weight for this iteration     100.00

 eigenvalues of (default mixing * dielectric matrix)
  average eigenvalue GAMMA=   0.6207
  1.6145  1.6145  1.5624  1.5624  1.5652  0.7862  0.7862  0.4545  0.4545  0.3248
  0.2691  0.2163  0.1075  0.1338  0.1338  0.1840  0.1727  0.1727  0.1558  0.1439

 Free energy of the ion-electron system (eV)
  ---------------------------------------------------
  alpha Z        PSCENC =      1909.85183886
  Ewald energy   TEWEN  =    219650.01205548
  -Hartree energ DENC   =   -341168.05134031
  -exchange      EXHF   =         0.00000000
  -V(xc)+E(xc)   XCENC  =      3653.72081881
  PAW double counting   =    139378.46426887  -144363.50719049
  entropy T*S    EENTRO =        -0.99138090
  eigenvalues    EBANDS =    -15410.13852529
  atomic energy  EATOM  =    136002.60505376
  Solvation  Ediel_sol  =         0.00000000
  ---------------------------------------------------
  free energy    TOTEN  =      -348.03440121 eV

  energy without entropy =     -347.04302031  energy(sigma->0) =     -347.53871076


[...]
    FORCOR:  cpu time    0.3350: real time    0.3351
    FORHAR:  cpu time    0.1486: real time    0.1486
    MIXING:  cpu time    0.0242: real time    0.0242
    OFIELD:  cpu time    0.0001: real time    0.0001

  FORCE on cell =-STRESS in cart. coord.  units (eV):
  Direction    XX          YY          ZZ          XY          YZ          ZX
  --------------------------------------------------------------------------------------
  Alpha Z  1909.85184  1909.85184  1909.85184
  Ewald  266514.01401272496.24913************ -1659.34255  -484.65219  2018.00362
  Hartree303224.18326307531.13120************ -1301.16478  -332.35064  1543.08044
  E(xc)   -5055.25962 -5052.20333 -5058.55051    -0.79386    -0.63362     0.85535
  Local  ************************575830.58724  2944.89181   794.85007 -3526.01488
  n-local  -620.70346  -607.51878  -617.17428     1.63481     1.69183    -0.85811
  augment  5796.05191  5775.01022  5800.96893     1.25898     5.58631   -10.70984
  Kinetic 11115.20378 11065.70193 11151.75060     6.29057    12.89761   -23.41449
  Fock        0.00000     0.00000     0.00000     0.00000     0.00000     0.00000
  -------------------------------------------------------------------------------------
  Total      88.57078   105.50968   112.89730    -7.22502    -2.61062     0.94208
  in kB      72.85671    86.79033    92.86725    -5.94317    -2.14745     0.77494
  external pressure =       84.17 kB  Pullay stress =        0.00 kB


 VOLUME and BASIS-vectors are now :
 -----------------------------------------------------------------------------
  energy-cutoff  :      450.00
  volume of cell :     1947.74
      direct lattice vectors                 reciprocal lattice vectors
    10.079732985  0.000000000  0.000000000     0.099208977 -0.037612667  0.000000000
     3.573298043  9.425102554  0.000000000     0.000000000  0.106099641  0.000000000
     0.000000000  0.000000000 20.502009576     0.000000000  0.000000000  0.048775706

  length of vectors
    10.079732985 10.079732985 20.502009576     0.106099641  0.106099641  0.048775706


 FORCES acting on ions
    electron-ion (+dipol)            ewald-force                    non-local-force                 convergence-correction
 -----------------------------------------------------------------------------------------------
   0.454E+03 0.425E+02 0.535E+04   -.456E+03 -.432E+02 -.536E+04   0.112E+01 0.268E+00 0.682E+01   0.918E-01 0.850E-02 -.487E-01
   0.517E+03 0.161E+03 0.278E+04   -.520E+03 -.165E+03 -.277E+04   0.238E+01 0.256E+01 -.189E+01   0.688E-01 0.298E+00 -.448E-01
   0.383E+02 -.411E+03 -.582E+03   -.393E+02 0.412E+03 0.582E+03   0.110E+01 -.147E+01 -.415E+00   -.177E+00 0.208E+00 0.323E+00
   0.111E+03 -.783E+03 -.363E+04   -.112E+03 0.787E+03 0.363E+04   0.721E-01 -.270E+01 -.449E+00   -.460E-01 -.214E+00 0.120E+00
   -.294E+03 -.732E+03 -.564E+04   0.293E+03 0.729E+03 0.563E+04   0.130E+01 0.306E+01 0.653E+01   -.792E-01 -.135E-01 -.169E-01
   -.104E+03 -.174E+03 0.142E+04   0.104E+03 0.172E+03 -.142E+04   -.156E+00 0.114E+01 -.319E+01   0.175E+00 -.169E+00 -.393E-01
   0.651E+02 -.473E+03 -.159E+04   -.667E+02 0.473E+03 0.159E+04   0.145E+01 -.278E+00 0.485E+00   0.636E-01 -.710E-01 -.221E-01
   0.116E+03 -.707E+03 -.473E+04   -.116E+03 0.708E+03 0.474E+04   0.682E+00 -.128E+00 -.568E+01   0.845E-01 0.245E-01 0.169E-01
   0.101E+03 -.308E+03 0.425E+04   -.103E+03 0.306E+03 -.425E+04   0.283E+01 0.123E+01 0.452E+01   0.123E+00 -.115E+00 -.165E+00
   -.236E+03 0.324E+03 -.514E+04   0.237E+03 -.320E+03 0.515E+04   -.120E+01 -.393E+01 -.523E+01   0.378E-01 0.492E-01 0.745E-01
   0.715E+02 -.353E+03 0.335E+04   -.718E+02 0.352E+03 -.336E+04   -.159E+00 0.971E+00 0.477E+01   -.113E+00 -.305E+00 0.141E+00
   -.205E+03 -.191E+03 0.440E+03   0.206E+03 0.189E+03 -.436E+03   -.108E+01 0.875E+00 -.273E+01   -.390E-01 0.154E+00 0.197E+00
   -.962E+02 -.325E+03 -.225E+04   0.963E+02 0.329E+03 0.225E+04   0.275E+00 -.302E+01 0.282E+00   -.942E-02 0.214E+00 -.517E-01
   0.381E+03 0.537E+02 0.402E+04   -.383E+03 -.530E+02 -.402E+04   0.194E+01 -.439E+00 0.131E+00   -.812E-01 -.198E-01 -.161E-01
   0.445E+03 0.234E+03 0.481E+03   -.447E+03 -.232E+03 -.479E+03   0.164E+01 -.144E+01 -.195E+01   -.234E+00 -.100E+00 0.322E+00
   0.599E+03 0.846E+02 -.237E+04   -.602E+03 -.857E+02 0.236E+04   0.237E+01 0.535E+00 0.869E+00   0.125E+00 0.595E-01 0.168E+00
   0.515E+03 0.218E+03 -.504E+04   -.519E+03 -.220E+03 0.505E+04   0.261E+01 0.255E+01 -.337E+01   0.503E-01 0.285E+00 0.199E-01
   0.713E+03 0.327E+03 0.283E+04   -.716E+03 -.327E+03 -.283E+04   0.180E+01 -.877E-01 -.477E+00   0.217E+00 -.143E+00 -.884E-01
   0.408E+03 0.307E+03 -.472E+03   -.410E+03 -.307E+03 0.472E+03   0.165E+01 0.182E+00 -.750E-01   0.607E-01 -.397E-01 -.289E-01
   0.429E+03 0.543E+03 -.367E+04   -.432E+03 -.546E+03 0.367E+04   0.141E+01 0.188E+01 -.279E+01   0.605E-01 -.182E-01 -.811E-01
   0.350E+03 -.264E+03 0.582E+04   -.351E+03 0.266E+03 -.583E+04   0.211E+00 -.105E+01 0.499E+01   0.143E+00 -.148E+00 -.158E+00
   -.305E+03 -.138E+01 0.430E+04   0.306E+03 0.333E+01 -.431E+04   0.728E+00 -.230E+01 0.357E+01   -.318E+00 0.135E+00 -.658E-01
   0.298E+03 0.350E+03 0.152E+04   -.298E+03 -.351E+03 -.151E+04   0.168E+00 0.425E+00 -.251E+01   -.118E+00 0.246E+00 0.737E-01
   0.391E+03 0.520E+03 -.166E+04   -.395E+03 -.522E+03 0.166E+04   0.282E+01 0.185E+01 -.102E+01   -.562E-01 -.202E-01 0.115E+00
   -.909E+03 -.280E+02 -.431E+04   0.914E+03 0.268E+02 0.431E+04   -.424E+01 0.162E+01 -.185E+01   -.183E+00 0.174E+00 0.661E-01
   -.269E+03 0.618E+03 0.513E+04   0.266E+03 -.619E+03 -.513E+04   0.343E+01 -.267E+00 0.790E-01   -.125E+00 0.311E+00 -.289E+00
   -.521E+03 0.115E+03 0.177E+04   0.523E+03 -.115E+03 -.177E+04   -.167E+01 -.672E+00 -.130E+01   -.135E+00 -.114E-01 0.220E+00
   -.551E+03 0.358E+02 -.132E+04   0.553E+03 -.362E+02 0.132E+04   -.202E+01 -.163E+00 0.244E+01   -.145E+00 -.633E-01 0.388E+00
   -.815E+03 -.164E+03 0.399E+04   0.821E+03 0.166E+03 -.399E+04   -.526E+01 -.460E+00 0.101E+01   0.733E-02 -.170E+00 -.542E-01
   -.366E+03 0.836E+02 0.524E+03   0.366E+03 -.830E+02 -.524E+03   0.178E+00 -.556E+00 0.464E+00   0.489E-02 -.106E-01 -.378E-01
   -.148E+03 0.121E+03 -.233E+04   0.151E+03 -.122E+03 0.232E+04   -.276E+01 0.125E+01 0.203E+01   -.696E-01 0.971E-01 -.779E-01
   -.276E+02 0.611E+03 -.507E+04   0.281E+02 -.613E+03 0.507E+04   -.124E+00 0.520E+00 0.194E+01   -.105E+00 0.175E-02 0.241E-02
   -.687E+03 0.141E+03 0.312E+04   0.690E+03 -.141E+03 -.312E+04   -.345E+01 -.116E+00 0.477E+00   0.971E-01 0.163E+00 0.442E-01
   -.491E+03 0.104E+03 -.398E+03   0.494E+03 -.102E+03 0.396E+03   -.262E+01 -.123E+01 0.124E+01   0.129E+00 0.326E-01 0.347E-01
   -.225E+03 0.315E+03 -.362E+04   0.228E+03 -.317E+03 0.362E+04   -.105E+01 0.152E+01 -.224E+01   0.148E+00 -.603E-01 0.405E-01
   -.174E+03 -.391E+03 0.535E+04   0.175E+03 0.394E+03 -.535E+04   -.110E+01 -.202E+01 0.469E+01   -.617E-01 0.946E-02 0.101E+00
   -.147E+03 0.136E+03 -.215E+04   0.148E+03 -.137E+03 0.216E+04   -.568E+00 0.112E+01 -.159E+01   -.207E-01 0.126E+00 0.359E-01
   0.374E+02 0.193E+03 0.171E+04   -.379E+02 -.195E+03 -.171E+04   0.172E+00 0.225E+01 0.340E+01   -.114E+00 -.845E-01 -.768E-01
   -.268E+02 0.669E+02 -.132E+02   0.274E+02 -.684E+02 0.151E+02   -.355E+00 0.146E+01 -.101E+01   -.654E-01 -.154E+00 0.159E+00
   -.196E+02 0.133E+03 -.891E+03   0.181E+02 -.136E+03 0.886E+03   0.827E+00 0.182E+01 0.139E+01   -.247E-01 0.107E+00 0.420E-01
   0.280E+03 0.105E+03 0.224E+04   -.284E+03 -.106E+03 -.224E+04   0.268E+01 0.160E+00 0.226E+01   0.730E-01 -.515E-01 -.451E-01
   0.844E+02 0.763E+02 0.742E+03   -.841E+02 -.758E+02 -.739E+03   -.571E+00 -.285E-01 -.434E+00   0.562E-01 -.193E-01 -.651E-01
   0.482E+02 0.141E+03 -.292E+03   -.484E+02 -.143E+03 0.291E+03   -.671E-01 0.194E+01 0.321E+00   0.103E-01 -.245E-01 0.477E-02
   0.177E+03 0.272E+03 -.152E+04   -.178E+03 -.273E+03 0.152E+04   0.342E+00 -.129E+00 -.127E+01   -.464E-01 -.680E-01 -.439E-01
   -.587E+02 0.803E+02 0.389E+03   0.595E+02 -.809E+02 -.388E+03   -.714E+00 0.116E+01 -.393E+00   0.470E-01 -.411E-01 0.254E-01
   0.895E+02 0.214E+03 -.651E+03   -.915E+02 -.214E+03 0.650E+03   0.129E+01 0.319E+00 0.882E+00   0.151E-01 -.434E-01 0.702E-02
   0.644E+02 -.156E+03 -.163E+04   -.689E+02 0.158E+03 0.164E+04   0.401E+01 -.742E+00 -.266E+01   0.309E-01 -.389E-01 0.392E-01
   -.569E+02 0.946E+02 0.214E+04   0.571E+02 -.964E+02 -.214E+04   -.612E+00 0.172E+01 0.400E+01   -.183E-01 -.112E-01 -.962E-01
   0.246E+02 0.174E+03 0.238E+04   -.241E+02 -.176E+03 -.238E+04   0.753E-01 0.580E+00 0.280E+01   -.297E-01 0.989E-01 -.301E-01
   -.130E+03 0.109E+02 0.763E+03   0.132E+03 -.115E+02 -.761E+03   -.148E+01 0.106E+01 -.854E-01   -.102E+00 0.206E+00 0.479E-02
   -.133E+03 -.107E+03 -.378E+03   0.135E+03 0.109E+03 0.377E+03   -.170E+01 -.214E+01 0.266E-01   -.603E-01 -.550E-03 0.220E+00
   -.497E+03 -.315E+03 -.147E+04   0.503E+03 0.319E+03 0.147E+04   -.290E+01 -.257E+01 0.554E+00   -.122E+00 -.437E-01 0.538E-01
   -.319E+03 -.225E+03 0.184E+04   0.322E+03 0.227E+03 -.185E+04   -.174E+01 -.112E+01 0.918E+00   -.278E-01 -.895E-01 -.442E-01
   -.117E+03 -.944E+02 0.449E+03   0.119E+03 0.951E+02 -.449E+03   -.150E+01 -.126E+01 0.526E+00   0.635E-02 -.535E-01 -.561E-02
   -.765E+02 -.144E+03 -.736E+03   0.797E+02 0.145E+03 0.735E+03   -.292E+01 -.571E+00 0.144E+00   0.582E-01 -.400E-02 0.139E-01
   0.390E+02 -.982E+02 -.196E+04   -.373E+02 0.976E+02 0.196E+04   -.857E+00 0.623E+00 -.105E+01   0.143E-01 0.104E+00 -.803E-03
   -.153E+03 -.973E+02 0.781E+02   0.155E+03 0.993E+02 -.783E+02   -.187E+01 -.204E+01 0.375E+00   -.883E-02 0.622E-01 0.340E-01
   -.252E+03 0.197E+02 -.117E+04   0.255E+03 -.163E+02 0.117E+04   -.216E+01 -.299E+01 0.271E+00   0.642E-01 0.229E-01 -.205E-01
   -.559E+02 0.287E+03 -.208E+04   0.567E+02 -.289E+03 0.209E+04   -.589E+00 0.162E+01 -.273E+01   0.239E-01 -.560E-01 0.782E-01
   -.248E+03 -.117E+03 0.158E+04   0.251E+03 0.119E+03 -.159E+04   -.664E+00 -.124E+01 0.226E+01   0.242E-01 0.162E-01 0.390E-01
   0.259E+03 0.944E+02 0.175E+04   -.261E+03 -.974E+02 -.175E+04   0.756E+00 0.156E+01 0.249E+01   0.120E+00 0.557E-01 -.515E-01
   0.155E+03 -.146E+03 0.344E+03   -.158E+03 0.148E+03 -.345E+03   0.281E+01 -.660E+00 0.164E+01   0.607E-01 0.437E-01 0.762E-01
   0.167E+03 -.115E+03 -.931E+03   -.170E+03 0.116E+03 0.932E+03   0.210E+01 -.117E+01 -.214E+01   0.948E-01 -.316E-01 0.359E-01
   0.483E+03 -.284E+03 -.192E+04   -.488E+03 0.287E+03 0.193E+04   0.315E+01 -.150E+01 -.170E+01   0.941E-01 -.992E-02 -.141E-01
   0.136E+03 -.713E+02 -.479E+02   -.138E+03 0.728E+02 0.479E+02   0.226E+01 -.167E+01 -.485E+00   0.137E-01 -.390E-01 0.507E-01
   0.812E+02 -.106E+03 -.123E+04   -.839E+02 0.107E+03 0.123E+04   0.256E+01 -.208E+01 -.142E+01   -.275E-01 0.172E-02 0.290E-01
   0.114E+03 0.981E+02 -.224E+04   -.115E+03 -.990E+02 0.225E+04   -.147E-03 0.373E+00 -.132E+00   0.617E-02 0.240E-01 0.147E-01
   0.381E+03 0.105E+02 0.139E+04   -.385E+03 -.103E+02 -.139E+04   0.248E+01 0.105E+00 0.180E+01   0.146E+00 -.713E-01 -.127E+00
   -.332E+03 -.241E+03 0.209E+04   0.335E+03 0.244E+03 -.209E+04   -.768E+00 -.156E+01 0.319E+01   -.960E-01 -.122E-01 -.232E-02
   0.184E+03 -.198E+03 0.785E+03   -.186E+03 0.200E+03 -.783E+03   0.181E+01 -.152E+01 0.395E+00   -.529E-01 0.443E-01 0.594E-01
   0.150E+03 -.432E+02 -.398E+03   -.153E+03 0.443E+02 0.398E+03   0.327E+01 -.864E+00 -.888E+00   -.196E-01 0.106E+00 0.255E-01
   0.719E+02 0.355E+03 -.160E+04   -.746E+02 -.357E+03 0.160E+04   0.129E+01 0.650E+00 0.124E-01   -.126E-01 -.189E-01 0.737E-02
 -----------------------------------------------------------------------------------------------
   -.148E+02 0.649E+01 -.235E+02   0.416E-11 -.114E-12 -.409E-11   0.151E+02 -.723E+01 0.218E+02   -.299E+00 0.829E+00 0.161E+01
 
 
 POSITION                                       TOTAL-FORCE (eV/Angst)
 -----------------------------------------------------------------------------------
      6.64436      9.25280      1.16641        -1.244114     -0.408057     -1.467729
      6.84285      7.49250      2.62550        -0.963365     -1.186671      3.119717
      7.82056      6.07621      5.25100        -0.060622     -0.402582      0.123861
      8.79827      4.65991      7.87651        -0.430219      0.699303     -0.309544
      9.53518      3.19755      9.93302         0.603031      0.148592      1.707654
      2.61774      3.87870      3.50067         0.441084     -1.279558      2.018118
      3.59545      2.46241      6.12617        -0.004326     -0.153771      0.266699
      4.57317      1.04611      8.75167         0.545958      0.982020     -0.963590
     11.95001      5.60992      2.20762         0.216653     -0.224040     -0.700803
      3.71105      7.61163      9.28290        -0.438763      0.335092      1.064930
      7.94441      2.02370      3.02435        -0.539383     -0.042893     -0.651108
      8.47237      0.26490      4.37584         0.455360     -1.149170      1.478441
     13.02338      8.27371      7.00134         0.409034      0.724875     -1.263467
      5.63894      4.99629      2.45514        -0.303331      0.245593     -1.260104
      6.61816      3.96023      4.55733         0.034016     -0.115621      0.371308
      7.59587      2.54394      7.18283        -0.077971     -0.552222     -1.421367
      8.27189      1.15882      9.42379        -0.825130      0.371957      0.773212
      1.41534      1.76273      2.80700        -0.553201     -0.072162      1.675110
      2.39305      0.34643      5.43250         0.102651     -0.105973      0.053435
      6.94406      8.35524      8.05800        -0.849445     -0.987614     -2.338510
      2.04695      3.55740      0.97457        -0.154540      0.700281     -1.512454
      9.04886      8.30721      1.96131         1.537518     -0.204568     -0.388160
     10.84326      7.57403      3.68216         0.029225     -0.232048      0.324714
     11.82097      6.15773      6.30767        -0.735805     -0.218743     -0.936313
      0.84405      1.51865      8.80608         0.811805      0.579424      0.518959
      8.04401      5.62474      1.66585         0.055869     -0.946461     -0.915934
      9.02296      4.33443      3.86366         0.149357     -0.197339     -0.016967
     10.00068      2.91813      6.48916        -0.360540     -0.583993     -1.419040
      3.82015      2.13692      2.11332         0.377504      0.671066      1.012943
      4.79786      0.72063      4.73883        -0.120657      0.011907      0.268006
      9.34887      8.72943      7.36433        -0.259281      0.658431     -2.592290
     10.38986      7.51600      9.11918         0.239790     -0.895254      1.121318
      3.16834      7.94822      2.98849         0.240532      0.230293      0.482063
      4.14605      6.53193      5.61399         0.837513      0.845777     -0.934393
      4.82308      5.13799      7.74078         2.135290     -0.386072     -0.688678
     11.32483      9.41203      1.72635        -0.384107      0.604692     -1.585026
      9.98919      0.12462     10.05670         0.566492     -0.431386      2.120261
      7.35546      3.82659      2.42507        -0.429183      0.131144     -1.806823
      8.33317      2.41029      5.05057         0.231516     -0.197907      1.061662
      9.31088      0.99399      7.67607        -0.622418     -0.986099     -3.291338
      2.08861      1.56680      0.83205        -1.260962     -0.086676     -3.038789
      3.13035      0.21279      3.30024        -0.229095      0.426779      2.562034
      7.68136      8.22159      5.92574        -0.269093      0.237507     -0.616493
      8.61842      6.91535      8.25207        -0.385734     -1.773742      1.478551
      2.47854      6.02409      4.17540         0.091331      0.475362      0.725072
      3.33034      4.71358      6.34212        -0.758989     -0.664131      0.100646
      4.27759      3.10255      8.16444        -0.446146      0.879605      1.284988
     11.58056      7.44039      1.54990        -0.362399     -0.183013     -2.467652
      7.62298      7.41347      0.68956         0.597195     -1.210799     -3.647185
      8.88655      6.52099      3.30837         0.743363      0.708849      1.891317
      9.86427      5.10469      5.93387        -0.026593      0.289441     -0.333710
     10.64663      3.60996      8.32110         3.093349      1.565598      1.013986
      3.75367      4.35463      1.78491         1.370566      1.146480     -1.577448
      4.66145      2.90719      4.18354         0.041795     -0.567274     -0.140487
      5.63916      1.49089      6.80904         0.329985     -0.367640     -0.873108
      6.44064      0.11367      9.21348         0.927409      0.176821      2.315998
      4.00964      8.71849      5.05870         0.102541      0.009520      0.239819
      4.98735      7.30220      7.68420         1.076277      0.422268     -0.796046
      4.33980      5.71938      9.61906         0.235092     -1.029191      2.954584
      9.53836      0.70969      2.43320         1.736166      0.976073     -0.232233
      4.96585      7.97075      1.84826        -1.288141     -1.333775     -1.691186
      5.82436      6.04450      4.19167         0.228306      1.107441      1.481634
      6.80207      4.62821      6.81717        -0.164730      0.562734     -1.069453
      7.71368      3.22460      9.12340        -2.582021      1.270640      2.458471
      1.59925      2.43070      5.06683        -0.278457     -0.231885     -0.454610
      2.57697      1.01441      7.69234        -0.183928     -0.603193     -0.581445
      7.25034      9.08406      9.89179        -0.953285     -0.493404      4.188240
     10.70128      3.84700      2.44133        -1.760611      0.279752      0.360114
      4.93955      0.72082      1.03885         2.169195      1.179198     -2.209451
      6.47617      0.23320      3.31650        -1.101377      0.953443      2.367386
     11.02718      8.24201      5.94200         0.144538      0.418007     -0.571416
     12.12606      6.85467      8.26753        -1.499343     -0.521039      1.779100
 -----------------------------------------------------------------------------------
    total drift:                                0.019735      0.092265     -0.004930


--------------------------------------------------------------------------------------------------------



  FREE ENERGIE OF THE ION-ELECTRON SYSTEM (eV)
  ---------------------------------------------------
  free  energy   TOTEN  =      -348.00441213 eV

  energy  without entropy=     -347.01664674  energy(sigma->0) =     -347.51052943
 


--------------------------------------------------------------------------------------------------------


    POTLOK:  cpu time    0.2675: real time    0.2679


--------------------------------------------------------------------------------------------------------


     LOOP+:  cpu time  266.8843: real time  266.9485
    4ORBIT:  cpu time    0.0000: real time    0.0000

 total amount of memory used by VASP MPI-rank0    68325. kBytes
=======================================================================

   base      :      30000. kBytes
   nonlr-proj:       2294. kBytes
   fftplans  :       8265. kBytes
   grid      :      13942. kBytes
   one-center:         93. kBytes
   wavefun   :      13731. kBytes
 
  
  
 General timing and accounting informations for this job:
 ========================================================
  
                  Total CPU time used (sec):      269.502
                            User time (sec):      268.997
                          System time (sec):        0.505
                         Elapsed time (sec):      269.815
  
                   Maximum memory used (kb):      186572.
                   Average memory used (kb):           0.
  
                          Minor page faults:       145744
                          Major page faults:            0
                 Voluntary context switches:          326
