 running on   48 total cores
 distrk:  each k-point on   48 cores,    1 groups
 distr:  one band on    6 cores,    8 groups
 using from now: INCAR     
 vasp.6.1.0 28Jan20 (build Mar 31 2020 17:42:31) gamma-only                     
  
 POSCAR found type information on POSCAR NiS 
 POSCAR found :  2 types and      54 ions
 scaLAPACK will be used
 LDA part: xc-table for Pade appr. of Perdew
 POSCAR, INCAR and KPOINTS ok, starting setup
 FFT: planning ...
 WAVECAR not read
 entering main loop
       N       E                     dE             d eps       ncg     rms          rms(c)
DAV:   1     0.716273185382E+04    0.71627E+04   -0.38125E+05   880   0.161E+03
DAV:   2     0.434116424185E+03   -0.67286E+04   -0.64904E+04   760   0.515E+02
DAV:   3    -0.260659940388E+03   -0.69478E+03   -0.65416E+03   840   0.175E+02
DAV:   4    -0.304325935138E+03   -0.43666E+02   -0.43219E+02   848   0.390E+01
DAV:   5    -0.305724407369E+03   -0.13985E+01   -0.13960E+01   904   0.750E+00    0.717E+01
DAV:   6    -0.375405748867E+03   -0.69681E+02   -0.73448E+02   880   0.119E+02    0.140E+02
DAV:   7    -0.289330031812E+03    0.86076E+02   -0.15951E+02   840   0.664E+01    0.607E+01
DAV:   8    -0.407477719001E+03   -0.11815E+03   -0.11086E+02   992   0.105E+02    0.151E+02
DAV:   9    -0.295229913586E+03    0.11225E+03   -0.12008E+02   968   0.514E+01    0.668E+01
DAV:  10    -0.278266951281E+03    0.16963E+02   -0.55661E+01  1024   0.423E+01    0.483E+01
DAV:  11    -0.290152005060E+03   -0.11885E+02   -0.56145E+01   992   0.433E+01    0.793E+01
DAV:  12    -0.283600139515E+03    0.65519E+01   -0.61571E+01   976   0.275E+01    0.459E+01
DAV:  13    -0.274962469723E+03    0.86377E+01   -0.21442E+01   976   0.293E+01    0.332E+01
DAV:  14    -0.271444970075E+03    0.35175E+01   -0.76594E+00   928   0.176E+01    0.222E+01
DAV:  15    -0.269838747341E+03    0.16062E+01   -0.32383E+00   928   0.112E+01    0.166E+01
DAV:  16    -0.268982084811E+03    0.85666E+00   -0.13886E+00   968   0.715E+00    0.112E+01
DAV:  17    -0.268739140129E+03    0.24294E+00   -0.62271E-01  1000   0.549E+00    0.909E+00
DAV:  18    -0.268866095331E+03   -0.12696E+00   -0.85776E-01   920   0.715E+00    0.100E+01
DAV:  19    -0.268522379235E+03    0.34372E+00   -0.41360E-01   976   0.465E+00    0.635E+00
DAV:  20    -0.268456164000E+03    0.66215E-01   -0.17966E-01   992   0.330E+00    0.536E+00
DAV:  21    -0.268356476728E+03    0.99687E-01   -0.21837E-01   960   0.309E+00    0.224E+00
DAV:  22    -0.268344555763E+03    0.11921E-01   -0.72033E-02   832   0.127E+00    0.167E+00
DAV:  23    -0.268345433321E+03   -0.87756E-03   -0.27526E-02   968   0.119E+00    0.165E+00
DAV:  24    -0.268343894801E+03    0.15385E-02   -0.15029E-02   920   0.106E+00    0.131E+00
DAV:  25    -0.268335529287E+03    0.83655E-02   -0.13912E-02  1000   0.706E-01    0.434E-01
DAV:  26    -0.268335655239E+03   -0.12595E-03   -0.38486E-03   808   0.241E-01    0.248E-01
DAV:  27    -0.268335638058E+03    0.17181E-04   -0.31837E-04   560   0.123E-01
   1 F= -.26833564E+03 E0= -.26788395E+03  d E =-.903383E+00
