<?xml version="1.0" encoding="ISO-8859-1"?>
<modeling>
 <generator>
  <i name="program" type="string">vasp </i>
  <i name="version" type="string">6.1.0  </i>
  <i name="subversion" type="string">28Jan20 (build Mar 31 2020 17:42:31) gamma-only                       parallel </i>
  <i name="platform" type="string">LinuxIFC </i>
  <i name="date" type="string">2020 04 12 </i>
  <i name="time" type="string">22:01:01 </i>
 </generator>
 <incar>
  <i type="string" name="SYSTEM">"Millerite NiS"</i>
  <i type="int" name="NSIM">     4</i>
  <i type="int" name="NELM">   100</i>
  <i name="ENCUT">    450.00000000</i>
  <i type="string" name="LREAL">A</i>
  <i type="int" name="ISMEAR">     0</i>
  <i type="int" name="NWRITE">     2</i>
  <i type="logical" name="LWAVE"> F  </i>
  <i type="logical" name="LCHARG"> F  </i>
  <i type="int" name="NCORE">     6</i>
  <i type="int" name="NELM">   100</i>
 </incar>
 <structure name="primitive_cell" >
  <crystal>
   <varray name="basis" >
    <v>       8.29514639      -4.78920500       0.00000000 </v>
    <v>       0.00000000       9.57841000       0.00000000 </v>
    <v>       0.00000000       0.00000000      19.41784000 </v>
   </varray>
   <i name="volume">   1542.83113934 </i>
   <varray name="rec_basis" >
    <v>       0.12055242       0.00000000       0.00000000 </v>
    <v>       0.06027621       0.10440146       0.00000000 </v>
    <v>       0.00000000       0.00000000       0.05149903 </v>
   </varray>
  </crystal>
  <varray name="positions" >
   <v>       0.45843243       0.54156757       0.07690712 </v>
   <v>       0.45843243       0.54156757       0.23857701 </v>
   <v>       0.45843243       0.54156757       0.40024689 </v>
   <v>       0.12509910       0.87490090       0.13079708 </v>
   <v>       0.12509910       0.87490090       0.29246697 </v>
   <v>       0.12509910       0.87490090       0.45413686 </v>
   <v>       0.79176577       0.20823423       0.02301716 </v>
   <v>       0.79176577       0.20823423       0.18468704 </v>
   <v>       0.79176577       0.20823423       0.34635693 </v>
   <v>       0.45843243       0.27736157       0.07690712 </v>
   <v>       0.45843243       0.27736157       0.23857701 </v>
   <v>       0.45843243       0.27736157       0.40024689 </v>
   <v>       0.12509910       0.61069490       0.13079708 </v>
   <v>       0.12509910       0.61069490       0.29246697 </v>
   <v>       0.12509910       0.61069490       0.45413686 </v>
   <v>       0.79176577       0.94402823       0.02301716 </v>
   <v>       0.79176577       0.94402823       0.18468704 </v>
   <v>       0.79176577       0.94402823       0.34635693 </v>
   <v>       0.72263843       0.54156757       0.07690712 </v>
   <v>       0.72263843       0.54156757       0.23857701 </v>
   <v>       0.72263843       0.54156757       0.40024689 </v>
   <v>       0.38930510       0.87490090       0.13079708 </v>
   <v>       0.38930510       0.87490090       0.29246697 </v>
   <v>       0.38930510       0.87490090       0.45413686 </v>
   <v>       0.05597177       0.20823423       0.02301716 </v>
   <v>       0.05597177       0.20823423       0.18468704 </v>
   <v>       0.05597177       0.20823423       0.34635693 </v>
   <v>       0.65864443       0.34135557       0.00000000 </v>
   <v>       0.65864443       0.34135557       0.16166989 </v>
   <v>       0.65864443       0.34135557       0.32333977 </v>
   <v>       0.32531110       0.67468890       0.05388996 </v>
   <v>       0.32531110       0.67468890       0.21555985 </v>
   <v>       0.32531110       0.67468890       0.37722974 </v>
   <v>       0.99197777       0.00802223       0.10777993 </v>
   <v>       0.99197777       0.00802223       0.26944981 </v>
   <v>       0.99197777       0.00802223       0.43111970 </v>
   <v>       0.65864443       0.67778557       0.00000000 </v>
   <v>       0.65864443       0.67778557       0.16166989 </v>
   <v>       0.65864443       0.67778557       0.32333977 </v>
   <v>       0.32531110       0.01111890       0.05388996 </v>
   <v>       0.32531110       0.01111890       0.21555985 </v>
   <v>       0.32531110       0.01111890       0.37722974 </v>
   <v>       0.99197777       0.34445223       0.10777993 </v>
   <v>       0.99197777       0.34445223       0.26944981 </v>
   <v>       0.99197777       0.34445223       0.43111970 </v>
   <v>       0.32221443       0.34135557       0.00000000 </v>
   <v>       0.32221443       0.34135557       0.16166989 </v>
   <v>       0.32221443       0.34135557       0.32333977 </v>
   <v>       0.98888110       0.67468890       0.05388996 </v>
   <v>       0.98888110       0.67468890       0.21555985 </v>
   <v>       0.98888110       0.67468890       0.37722974 </v>
   <v>       0.65554777       0.00802223       0.10777993 </v>
   <v>       0.65554777       0.00802223       0.26944981 </v>
   <v>       0.65554777       0.00802223       0.43111970 </v>
  </varray>
 </structure>
 <varray name="primitive_index" >
  <v type="int" >        1 </v>
  <v type="int" >        2 </v>
  <v type="int" >        3 </v>
  <v type="int" >        4 </v>
  <v type="int" >        5 </v>
  <v type="int" >        6 </v>
  <v type="int" >        7 </v>
  <v type="int" >        8 </v>
  <v type="int" >        9 </v>
  <v type="int" >       10 </v>
  <v type="int" >       11 </v>
  <v type="int" >       12 </v>
  <v type="int" >       13 </v>
  <v type="int" >       14 </v>
  <v type="int" >       15 </v>
  <v type="int" >       16 </v>
  <v type="int" >       17 </v>
  <v type="int" >       18 </v>
  <v type="int" >       19 </v>
  <v type="int" >       20 </v>
  <v type="int" >       21 </v>
  <v type="int" >       22 </v>
  <v type="int" >       23 </v>
  <v type="int" >       24 </v>
  <v type="int" >       25 </v>
  <v type="int" >       26 </v>
  <v type="int" >       27 </v>
  <v type="int" >       28 </v>
  <v type="int" >       29 </v>
  <v type="int" >       30 </v>
  <v type="int" >       31 </v>
  <v type="int" >       32 </v>
  <v type="int" >       33 </v>
  <v type="int" >       34 </v>
  <v type="int" >       35 </v>
  <v type="int" >       36 </v>
  <v type="int" >       37 </v>
  <v type="int" >       38 </v>
  <v type="int" >       39 </v>
  <v type="int" >       40 </v>
  <v type="int" >       41 </v>
  <v type="int" >       42 </v>
  <v type="int" >       43 </v>
  <v type="int" >       44 </v>
  <v type="int" >       45 </v>
  <v type="int" >       46 </v>
  <v type="int" >       47 </v>
  <v type="int" >       48 </v>
  <v type="int" >       49 </v>
  <v type="int" >       50 </v>
  <v type="int" >       51 </v>
  <v type="int" >       52 </v>
  <v type="int" >       53 </v>
  <v type="int" >       54 </v>
 </varray>
 <kpoints>
  <generation param="Gamma">
   <v type="int" name="divisions">       1        1        1 </v>
   <v name="usershift">      0.00000000       0.00000000       0.00000000 </v>
   <v name="genvec1">      1.00000000       0.00000000       0.00000000 </v>
   <v name="genvec2">      0.00000000       1.00000000       0.00000000 </v>
   <v name="genvec3">      0.00000000       0.00000000       1.00000000 </v>
   <v name="shift">      0.00000000       0.00000000       0.00000000 </v>
  </generation>
  <varray name="kpointlist" >
   <v>       0.00000000       0.00000000       0.00000000 </v>
  </varray>
  <varray name="weights" >
   <v>       1.00000000 </v>
  </varray>
 </kpoints>
 <parameters>
  <separator name="general" >
   <i type="string" name="SYSTEM">"Millerite NiS"</i>
   <i type="logical" name="LCOMPAT"> F  </i>
  </separator>
  <separator name="electronic" >
   <i type="string" name="PREC">normal</i>
   <i name="ENMAX">    450.00000000</i>
   <i name="ENAUG">    703.44300000</i>
   <i name="EDIFF">      0.00010000</i>
   <i type="int" name="IALGO">    38</i>
   <i type="int" name="IWAVPR">    10</i>
   <i type="int" name="NBANDS">   360</i>
   <i type="int" name="NBANDSLOW">    -1</i>
   <i type="int" name="NBANDSHIGH">    -1</i>
   <i name="NELECT">    594.00000000</i>
   <i type="int" name="TURBO">     0</i>
   <i type="int" name="IRESTART">     0</i>
   <i type="int" name="NREBOOT">     0</i>
   <i type="int" name="NMIN">     0</i>
   <i name="EREF">      0.00000000</i>
   <separator name="electronic smearing" >
    <i type="int" name="ISMEAR">     0</i>
    <i name="SIGMA">      0.20000000</i>
    <i name="KSPACING">      0.50000000</i>
    <i type="logical" name="KGAMMA"> T  </i>
    <i type="logical" name="KBLOWUP"> T  </i>
   </separator>
   <separator name="electronic projectors" >
    <i type="logical" name="LREAL"> T  </i>
    <v name="ROPT">     -0.00050000     -0.00050000</v>
    <i type="int" name="LMAXPAW">  -100</i>
    <i type="int" name="LMAXMIX">     2</i>
    <i type="logical" name="NLSPLINE"> F  </i>
   </separator>
   <separator name="electronic startup" >
    <i type="int" name="ISTART">     0</i>
    <i type="int" name="ICHARG">     2</i>
    <i type="int" name="INIWAV">     1</i>
   </separator>
   <separator name="electronic spin" >
    <i type="int" name="ISPIN">     1</i>
    <i type="logical" name="LNONCOLLINEAR"> F  </i>
    <v name="MAGMOM">      1.00000000      1.00000000      1.00000000      1.00000000      1.00000000      1.00000000      1.00000000      1.00000000      1.00000000      1.00000000      1.00000000      1.00000000      1.00000000      1.00000000      1.00000000      1.00000000      1.00000000      1.00000000      1.00000000      1.00000000
      1.00000000      1.00000000      1.00000000      1.00000000      1.00000000      1.00000000      1.00000000      1.00000000      1.00000000      1.00000000      1.00000000      1.00000000      1.00000000      1.00000000      1.00000000      1.00000000      1.00000000      1.00000000      1.00000000      1.00000000
      1.00000000      1.00000000      1.00000000      1.00000000      1.00000000      1.00000000      1.00000000      1.00000000      1.00000000      1.00000000      1.00000000      1.00000000      1.00000000      1.00000000</v>
    <i name="NUPDOWN">     -1.00000000</i>
    <i type="logical" name="LSORBIT"> F  </i>
    <v name="SAXIS">      0.00000000      0.00000000      1.00000000</v>
    <i type="logical" name="LSPIRAL"> F  </i>
    <v name="QSPIRAL">      0.00000000      0.00000000      0.00000000</v>
    <i type="logical" name="LZEROZ"> F  </i>
   </separator>
   <separator name="electronic exchange-correlation" >
    <i type="logical" name="LASPH"> F  </i>
    <i type="logical" name="LMETAGGA"> F  </i>
   </separator>
   <separator name="electronic convergence" >
    <i type="int" name="NELM">   100</i>
    <i type="int" name="NELMDL">    -5</i>
    <i type="int" name="NELMIN">     2</i>
    <i name="ENINI">    450.00000000</i>
    <separator name="electronic convergence detail" >
     <i type="logical" name="LDIAG"> T  </i>
     <i type="logical" name="LSUBROT"> F  </i>
     <i name="WEIMIN">      0.00000000</i>
     <i name="EBREAK">      0.00000007</i>
     <i name="DEPER">      0.30000000</i>
     <i type="int" name="NRMM">     4</i>
     <i name="TIME">      0.40000000</i>
    </separator>
   </separator>
   <separator name="electronic mixer" >
    <i name="AMIX">      0.40000000</i>
    <i name="BMIX">      1.00000000</i>
    <i name="AMIN">      0.10000000</i>
    <i name="AMIX_MAG">      1.60000000</i>
    <i name="BMIX_MAG">      1.00000000</i>
    <separator name="electronic mixer details" >
     <i type="int" name="IMIX">     4</i>
     <i type="logical" name="MIXFIRST"> F  </i>
     <i type="int" name="MAXMIX">   -45</i>
     <i name="WC">    100.00000000</i>
     <i type="int" name="INIMIX">     1</i>
     <i type="int" name="MIXPRE">     1</i>
     <i type="int" name="MREMOVE">     5</i>
    </separator>
   </separator>
   <separator name="electronic dipolcorrection" >
    <i type="logical" name="LDIPOL"> F  </i>
    <i type="logical" name="LMONO"> F  </i>
    <i type="int" name="IDIPOL">     0</i>
    <i name="EPSILON">      1.00000000</i>
    <v name="DIPOL">   -100.00000000   -100.00000000   -100.00000000</v>
    <i name="EFIELD">      0.00000000</i>
   </separator>
  </separator>
  <separator name="grids" >
   <i type="int" name="NGX">    50</i>
   <i type="int" name="NGY">    50</i>
   <i type="int" name="NGZ">   108</i>
   <i type="int" name="NGXF">   100</i>
   <i type="int" name="NGYF">   100</i>
   <i type="int" name="NGZF">   216</i>
   <i type="logical" name="ADDGRID"> F  </i>
  </separator>
  <separator name="ionic" >
   <i type="int" name="NSW">     0</i>
   <i type="int" name="IBRION">    -1</i>
   <i type="int" name="MDALGO">     0</i>
   <i type="int" name="ISIF">     2</i>
   <i name="PSTRESS">      0.00000000</i>
   <i name="EDIFFG">      0.00100000</i>
   <i type="int" name="NFREE">     0</i>
   <i name="POTIM">      0.50000000</i>
   <i name="SMASS">     -3.00000000</i>
   <i name="SCALEE">      1.00000000</i>
  </separator>
  <separator name="ionic md" >
   <i name="TEBEG">      0.00010000</i>
   <i name="TEEND">      0.00010000</i>
   <i type="int" name="NBLOCK">     1</i>
   <i type="int" name="KBLOCK">     1</i>
   <i type="int" name="NPACO">   256</i>
   <i name="APACO">     16.00000000</i>
  </separator>
  <separator name="symmetry" >
   <i type="int" name="ISYM">     2</i>
   <i name="SYMPREC">      0.00001000</i>
  </separator>
  <separator name="dos" >
   <i type="int" name="LORBIT">     0</i>
   <v name="RWIGS">     -1.00000000     -1.00000000</v>
   <i type="int" name="NEDOS">   301</i>
   <i name="EMIN">     10.00000000</i>
   <i name="EMAX">    -10.00000000</i>
   <i name="EFERMI">      0.00000000</i>
  </separator>
  <separator name="writing" >
   <i type="int" name="NWRITE">     2</i>
   <i type="logical" name="LWAVE"> F  </i>
   <i type="logical" name="LDOWNSAMPLE"> F  </i>
   <i type="logical" name="LCHARG"> F  </i>
   <i type="logical" name="LPARD"> F  </i>
   <i type="logical" name="LVTOT"> F  </i>
   <i type="logical" name="LVHAR"> F  </i>
   <i type="logical" name="LELF"> F  </i>
   <i type="logical" name="LOPTICS"> F  </i>
   <v name="STM">      0.00000000      0.00000000      0.00000000      0.00000000      0.00000000      0.00000000      0.00000000</v>
  </separator>
  <separator name="performance" >
   <i type="int" name="NPAR">     8</i>
   <i type="int" name="NSIM">     4</i>
   <i type="int" name="NBLK">    -1</i>
   <i type="logical" name="LPLANE"> T  </i>
   <i type="logical" name="LSCALAPACK"> T  </i>
   <i type="logical" name="LSCAAWARE"> F  </i>
   <i type="logical" name="LSCALU"> F  </i>
   <i type="logical" name="LASYNC"> F  </i>
   <i type="logical" name="LORBITALREAL"> F  </i>
  </separator>
  <separator name="miscellaneous" >
   <i type="int" name="IDIOT">     3</i>
   <i type="int" name="PHON_NSTRUCT">    -1</i>
   <i type="logical" name="LMUSIC"> F  </i>
   <v name="POMASS">     58.69000000     32.06600000</v>
   <v name="DARWINR">      0.00000000      0.00000000</v>
   <v name="DARWINV">      1.00000000      1.00000000</v>
   <i type="logical" name="LCORR"> T  </i>
  </separator>
  <i type="logical" name="GGA_COMPAT"> T  </i>
  <i type="logical" name="LBERRY"> F  </i>
  <i type="int" name="ICORELEVEL">     0</i>
  <i type="logical" name="LDAU"> F  </i>
  <i type="int" name="I_CONSTRAINED_M">     0</i>
  <separator name="electronic exchange-correlation" >
   <i type="string" name="GGA">--</i>
   <i type="int" name="VOSKOWN">     0</i>
   <i type="logical" name="LHFCALC"> F  </i>
   <i type="string" name="PRECFOCK"></i>
   <i type="logical" name="LSYMGRAD"> F  </i>
   <i type="logical" name="LHFONE"> F  </i>
   <i type="logical" name="LRHFCALC"> F  </i>
   <i type="logical" name="LTHOMAS"> F  </i>
   <i type="logical" name="LMODELHF"> F  </i>
   <i type="logical" name="LFOCKACE"> F  </i>
   <i name="ENCUT4O">     -1.00000000</i>
   <i type="int" name="EXXOEP">     0</i>
   <i type="int" name="FOURORBIT">     0</i>
   <i name="AEXX">      0.00000000</i>
   <i name="HFALPHA">      0.00000000</i>
   <i name="MCALPHA">      0.00000000</i>
   <i name="ALDAX">      1.00000000</i>
   <i name="AGGAX">      1.00000000</i>
   <i name="ALDAC">      1.00000000</i>
   <i name="AGGAC">      1.00000000</i>
   <i type="int" name="NKREDX">     1</i>
   <i type="int" name="NKREDY">     1</i>
   <i type="int" name="NKREDZ">     1</i>
   <i type="logical" name="SHIFTRED"> F  </i>
   <i type="logical" name="ODDONLY"> F  </i>
   <i type="logical" name="EVENONLY"> F  </i>
   <i type="int" name="LMAXFOCK">     0</i>
   <i type="int" name="NMAXFOCKAE">     0</i>
   <i type="logical" name="LFOCKAEDFT"> F  </i>
   <i name="HFSCREEN">      0.00000000</i>
   <i name="HFSCREENC">      0.00000000</i>
   <i type="int" name="NBANDSGWLOW">     0</i>
  </separator>
  <separator name="vdW DFT" >
   <i type="logical" name="LUSE_VDW"> F  </i>
   <i name="Zab_VDW">     -0.84910000</i>
   <i name="PARAM1">      0.12340000</i>
   <i name="PARAM2">      1.00000000</i>
   <i name="PARAM3">      0.00000000</i>
  </separator>
  <separator name="model GW" >
   <i type="int" name="MODEL_GW">     0</i>
   <i name="MODEL_EPS0">     17.14256821</i>
   <i name="MODEL_ALPHA">      1.00000000</i>
  </separator>
  <separator name="linear response parameters" >
   <i type="logical" name="LEPSILON"> F  </i>
   <i type="logical" name="LRPA"> F  </i>
   <i type="logical" name="LNABLA"> F  </i>
   <i type="logical" name="LVEL"> F  </i>
   <i type="int" name="KINTER">     0</i>
   <i name="CSHIFT">      0.10000000</i>
   <i name="OMEGAMAX">     -1.00000000</i>
   <i name="DEG_THRESHOLD">      0.00200000</i>
   <i name="RTIME">     -0.10000000</i>
   <i name="WPLASMAI">      0.00000000</i>
   <v name="DFIELD">      0.00000000      0.00000000      0.00000000</v>
   <v name="WPLASMA">      0.00000000      0.00000000      0.00000000      0.00000000      0.00000000      0.00000000      0.00000000      0.00000000      0.00000000</v>
  </separator>
  <separator name="orbital magnetization" >
   <i type="logical" name="NUCIND"> F  </i>
   <v name="MAGPOS">      0.00000000      0.00000000      0.00000000</v>
   <i type="logical" name="LNICSALL"> T  </i>
   <i type="logical" name="ORBITALMAG"> F  </i>
   <i type="logical" name="LMAGBLOCH"> F  </i>
   <i type="logical" name="LCHIMAG"> F  </i>
   <i type="logical" name="LGAUGE"> T  </i>
   <i type="int" name="MAGATOM">     0</i>
   <v name="MAGDIPOL">      0.00000000      0.00000000      0.00000000</v>
   <v name="AVECCONST">      0.00000000      0.00000000      0.00000000</v>
  </separator>
  <separator name="response functions" >
   <i type="logical" name="LFINITE_TEMPERATURE"> F  </i>
   <i type="logical" name="LADDER"> F  </i>
   <i type="logical" name="LRPAFORCE"> F  </i>
   <i type="logical" name="LFXC"> F  </i>
   <i type="logical" name="LHARTREE"> T  </i>
   <i type="int" name="IBSE">     0</i>
   <v type="int" name="KPOINT">    -1     0     0     0</v>
   <i type="logical" name="LTCTC"> F  </i>
   <i type="logical" name="LTCTE"> F  </i>
   <i type="logical" name="LTETE"> F  </i>
   <i type="logical" name="LTRIPLET"> F  </i>
   <i type="logical" name="LFXCEPS"> F  </i>
   <i type="logical" name="LFXHEG"> F  </i>
   <i type="int" name="NATURALO">     2</i>
   <i type="logical" name="LHOLEGF"> F  </i>
   <i type="logical" name="L2ORDER"> F  </i>
   <i type="logical" name="LDMP1"> F  </i>
   <i type="logical" name="LMP2LT"> F  </i>
   <i type="logical" name="LSMP2LT"> F  </i>
   <i type="logical" name="LGWLF"> F  </i>
   <i name="ENCUTGW">     -2.00000000</i>
   <i name="ENCUTGWSOFT">     -2.00000000</i>
   <i name="ENCUTLF">     -1.00000000</i>
   <i type="logical" name="LESF_SPLINES"> F  </i>
   <i type="int" name="LMAXMP2">    -1</i>
   <i name="SCISSOR">      0.00000000</i>
   <i type="int" name="NOMEGA">     0</i>
   <i type="int" name="NOMEGAR">     0</i>
   <i type="int" name="NBANDSGW">    -1</i>
   <i type="int" name="NBANDSO">    -1</i>
   <i type="int" name="NBANDSV">    -1</i>
   <i type="int" name="NELM">   100</i>
   <i type="int" name="NELMHF">     1</i>
   <i type="int" name="DIM">     3</i>
   <i type="int" name="IESPILON">     4</i>
   <i type="int" name="ANTIRES">     0</i>
   <i name="OMEGAMAX">    -30.00000000</i>
   <i name="OMEGAMIN">    -30.00000000</i>
   <i name="OMEGATL">   -200.00000000</i>
   <i type="int" name="OMEGAGRID">     0</i>
   <i name="CSHIFT">     -0.10000000</i>
   <i type="logical" name="LSELFENERGY"> F  </i>
   <i type="logical" name="LSPECTRAL"> F  </i>
   <i type="logical" name="LSPECTRALGW"> F  </i>
   <i type="logical" name="LSINGLES"> F  </i>
   <i type="logical" name="LFERMIGW"> F  </i>
   <i type="logical" name="ODDONLYGW"> F  </i>
   <i type="logical" name="EVENONLYGW"> F  </i>
   <i type="int" name="NKREDLFX">     1</i>
   <i type="int" name="NKREDLFY">     1</i>
   <i type="int" name="NKREDLFZ">     1</i>
   <i type="int" name="MAXMEM">  2800</i>
   <i type="int" name="TELESCOPE">     0</i>
   <i type="int" name="NTAUPAR">    -1</i>
   <i type="int" name="NOMEGAPAR">    -1</i>
   <i name="LAMBDA">      1.00000000</i>
  </separator>
  <separator name="External order field" >
   <i name="OFIELD_KAPPA">      0.00000000</i>
   <v name="OFIELD_K">      0.00000000      0.00000000      0.00000000</v>
   <i name="OFIELD_Q6_NEAR">      0.00000000</i>
   <i name="OFIELD_Q6_FAR">      0.00000000</i>
   <i name="OFIELD_A">      0.00000000</i>
  </separator>
 </parameters>
 <atominfo>
  <atoms>      54 </atoms>
  <types>       2 </types>
  <array name="atoms" >
   <dimension dim="1">ion</dimension>
   <field type="string">element</field>
   <field type="int">atomtype</field>
   <set>
    <rc><c>Ni</c><c>   1</c></rc>
    <rc><c>Ni</c><c>   1</c></rc>
    <rc><c>Ni</c><c>   1</c></rc>
    <rc><c>Ni</c><c>   1</c></rc>
    <rc><c>Ni</c><c>   1</c></rc>
    <rc><c>Ni</c><c>   1</c></rc>
    <rc><c>Ni</c><c>   1</c></rc>
    <rc><c>Ni</c><c>   1</c></rc>
    <rc><c>Ni</c><c>   1</c></rc>
    <rc><c>Ni</c><c>   1</c></rc>
    <rc><c>Ni</c><c>   1</c></rc>
    <rc><c>Ni</c><c>   1</c></rc>
    <rc><c>Ni</c><c>   1</c></rc>
    <rc><c>Ni</c><c>   1</c></rc>
    <rc><c>Ni</c><c>   1</c></rc>
    <rc><c>Ni</c><c>   1</c></rc>
    <rc><c>Ni</c><c>   1</c></rc>
    <rc><c>Ni</c><c>   1</c></rc>
    <rc><c>Ni</c><c>   1</c></rc>
    <rc><c>Ni</c><c>   1</c></rc>
    <rc><c>Ni</c><c>   1</c></rc>
    <rc><c>Ni</c><c>   1</c></rc>
    <rc><c>Ni</c><c>   1</c></rc>
    <rc><c>Ni</c><c>   1</c></rc>
    <rc><c>Ni</c><c>   1</c></rc>
    <rc><c>Ni</c><c>   1</c></rc>
    <rc><c>Ni</c><c>   1</c></rc>
    <rc><c>S </c><c>   2</c></rc>
    <rc><c>S </c><c>   2</c></rc>
    <rc><c>S </c><c>   2</c></rc>
    <rc><c>S </c><c>   2</c></rc>
    <rc><c>S </c><c>   2</c></rc>
    <rc><c>S </c><c>   2</c></rc>
    <rc><c>S </c><c>   2</c></rc>
    <rc><c>S </c><c>   2</c></rc>
    <rc><c>S </c><c>   2</c></rc>
    <rc><c>S </c><c>   2</c></rc>
    <rc><c>S </c><c>   2</c></rc>
    <rc><c>S </c><c>   2</c></rc>
    <rc><c>S </c><c>   2</c></rc>
    <rc><c>S </c><c>   2</c></rc>
    <rc><c>S </c><c>   2</c></rc>
    <rc><c>S </c><c>   2</c></rc>
    <rc><c>S </c><c>   2</c></rc>
    <rc><c>S </c><c>   2</c></rc>
    <rc><c>S </c><c>   2</c></rc>
    <rc><c>S </c><c>   2</c></rc>
    <rc><c>S </c><c>   2</c></rc>
    <rc><c>S </c><c>   2</c></rc>
    <rc><c>S </c><c>   2</c></rc>
    <rc><c>S </c><c>   2</c></rc>
    <rc><c>S </c><c>   2</c></rc>
    <rc><c>S </c><c>   2</c></rc>
    <rc><c>S </c><c>   2</c></rc>
   </set>
  </array>
  <array name="atomtypes" >
   <dimension dim="1">type</dimension>
   <field type="int">atomspertype</field>
   <field type="string">element</field>
   <field>mass</field>
   <field>valence</field>
   <field type="string">pseudopotential</field>
   <set>
    <rc><c>  27</c><c>Ni</c><c>     58.69000000</c><c>     16.00000000</c><c>  PAW_PBE Ni_pv 06Sep2000               </c></rc>
    <rc><c>  27</c><c>S </c><c>     32.06600000</c><c>      6.00000000</c><c>  PAW_PBE S 06Sep2000                   </c></rc>
   </set>
  </array>
 </atominfo>
 <structure name="initialpos" >
  <crystal>
   <varray name="basis" >
    <v>       8.29514639      -4.78920500       0.00000000 </v>
    <v>       0.00000000       9.57841000       0.00000000 </v>
    <v>       0.00000000       0.00000000      19.41784000 </v>
   </varray>
   <i name="volume">   1542.83113934 </i>
   <varray name="rec_basis" >
    <v>       0.12055242       0.00000000       0.00000000 </v>
    <v>       0.06027621       0.10440146       0.00000000 </v>
    <v>       0.00000000       0.00000000       0.05149903 </v>
   </varray>
  </crystal>
  <varray name="positions" >
   <v>       0.45843243       0.54156757       0.07690712 </v>
   <v>       0.45843243       0.54156757       0.23857701 </v>
   <v>       0.45843243       0.54156757       0.40024689 </v>
   <v>       0.12509910       0.87490090       0.13079708 </v>
   <v>       0.12509910       0.87490090       0.29246697 </v>
   <v>       0.12509910       0.87490090       0.45413686 </v>
   <v>       0.79176577       0.20823423       0.02301716 </v>
   <v>       0.79176577       0.20823423       0.18468704 </v>
   <v>       0.79176577       0.20823423       0.34635693 </v>
   <v>       0.45843243       0.27736157       0.07690712 </v>
   <v>       0.45843243       0.27736157       0.23857701 </v>
   <v>       0.45843243       0.27736157       0.40024689 </v>
   <v>       0.12509910       0.61069490       0.13079708 </v>
   <v>       0.12509910       0.61069490       0.29246697 </v>
   <v>       0.12509910       0.61069490       0.45413686 </v>
   <v>       0.79176577       0.94402823       0.02301716 </v>
   <v>       0.79176577       0.94402823       0.18468704 </v>
   <v>       0.79176577       0.94402823       0.34635693 </v>
   <v>       0.72263843       0.54156757       0.07690712 </v>
   <v>       0.72263843       0.54156757       0.23857701 </v>
   <v>       0.72263843       0.54156757       0.40024689 </v>
   <v>       0.38930510       0.87490090       0.13079708 </v>
   <v>       0.38930510       0.87490090       0.29246697 </v>
   <v>       0.38930510       0.87490090       0.45413686 </v>
   <v>       0.05597177       0.20823423       0.02301716 </v>
   <v>       0.05597177       0.20823423       0.18468704 </v>
   <v>       0.05597177       0.20823423       0.34635693 </v>
   <v>       0.65864443       0.34135557       0.00000000 </v>
   <v>       0.65864443       0.34135557       0.16166989 </v>
   <v>       0.65864443       0.34135557       0.32333977 </v>
   <v>       0.32531110       0.67468890       0.05388996 </v>
   <v>       0.32531110       0.67468890       0.21555985 </v>
   <v>       0.32531110       0.67468890       0.37722974 </v>
   <v>       0.99197777       0.00802223       0.10777993 </v>
   <v>       0.99197777       0.00802223       0.26944981 </v>
   <v>       0.99197777       0.00802223       0.43111970 </v>
   <v>       0.65864443       0.67778557       0.00000000 </v>
   <v>       0.65864443       0.67778557       0.16166989 </v>
   <v>       0.65864443       0.67778557       0.32333977 </v>
   <v>       0.32531110       0.01111890       0.05388996 </v>
   <v>       0.32531110       0.01111890       0.21555985 </v>
   <v>       0.32531110       0.01111890       0.37722974 </v>
   <v>       0.99197777       0.34445223       0.10777993 </v>
   <v>       0.99197777       0.34445223       0.26944981 </v>
   <v>       0.99197777       0.34445223       0.43111970 </v>
   <v>       0.32221443       0.34135557       0.00000000 </v>
   <v>       0.32221443       0.34135557       0.16166989 </v>
   <v>       0.32221443       0.34135557       0.32333977 </v>
   <v>       0.98888110       0.67468890       0.05388996 </v>
   <v>       0.98888110       0.67468890       0.21555985 </v>
   <v>       0.98888110       0.67468890       0.37722974 </v>
   <v>       0.65554777       0.00802223       0.10777993 </v>
   <v>       0.65554777       0.00802223       0.26944981 </v>
   <v>       0.65554777       0.00802223       0.43111970 </v>
  </varray>
 </structure>
 <calculation>
  <scstep>
   <time name="dav">    1.14    1.14</time>
   <time name="total">    1.18    1.18</time>
   <energy>
    <i name="alphaZ">   1356.23626288 </i>
    <i name="ewald"> 116526.37784946 </i>
    <i name="hartreedc">-208204.10492946 </i>
    <i name="XCdc">   2739.22159890 </i>
    <i name="pawpsdc">  84547.15000061 </i>
    <i name="pawaedc"> -88231.13391551 </i>
    <i name="eentropy">     -0.26812900 </i>
    <i name="bandstr">  -3572.70067439 </i>
    <i name="atom"> 102001.95379032 </i>
    <i name="e_fr_energy">   7162.73185382 </i>
    <i name="e_wo_entrp">   7162.99998282 </i>
    <i name="e_0_energy">   7162.86591832 </i>
   </energy>
  </scstep>
  <scstep>
   <time name="dav">    0.99    1.00</time>
   <time name="total">    1.00    1.00</time>
   <energy>
    <i name="e_fr_energy">    434.11642418 </i>
    <i name="e_wo_entrp">    434.76021059 </i>
    <i name="e_0_energy">    434.43831739 </i>
   </energy>
  </scstep>
  <scstep>
   <time name="dav">    1.10    1.10</time>
   <time name="total">    1.10    1.10</time>
   <energy>
    <i name="e_fr_energy">   -260.65994039 </i>
    <i name="e_wo_entrp">   -259.59926619 </i>
    <i name="e_0_energy">   -260.12960329 </i>
   </energy>
  </scstep>
  <scstep>
   <time name="dav">    1.08    1.08</time>
   <time name="total">    1.08    1.08</time>
   <energy>
    <i name="e_fr_energy">   -304.32593514 </i>
    <i name="e_wo_entrp">   -303.24991149 </i>
    <i name="e_0_energy">   -303.78792331 </i>
   </energy>
  </scstep>
  <scstep>
   <time name="dav">    1.13    1.14</time>
   <time name="total">    1.19    1.20</time>
   <energy>
    <i name="e_fr_energy">   -305.72440737 </i>
    <i name="e_wo_entrp">   -304.63417871 </i>
    <i name="e_0_energy">   -305.17929304 </i>
   </energy>
  </scstep>
  <scstep>
   <time name="dav">    1.11    1.11</time>
   <time name="total">    1.21    1.21</time>
   <energy>
    <i name="e_fr_energy">   -375.40574887 </i>
    <i name="e_wo_entrp">   -374.60618537 </i>
    <i name="e_0_energy">   -375.00596712 </i>
   </energy>
  </scstep>
  <scstep>
   <time name="dav">    1.09    1.10</time>
   <time name="total">    1.20    1.20</time>
   <energy>
    <i name="e_fr_energy">   -289.33003181 </i>
    <i name="e_wo_entrp">   -288.86174553 </i>
    <i name="e_0_energy">   -289.09588867 </i>
   </energy>
  </scstep>
  <scstep>
   <time name="dav">    1.22    1.22</time>
   <time name="total">    1.32    1.32</time>
   <energy>
    <i name="e_fr_energy">   -407.47771900 </i>
    <i name="e_wo_entrp">   -406.90289138 </i>
    <i name="e_0_energy">   -407.19030519 </i>
   </energy>
  </scstep>
  <scstep>
   <time name="dav">    1.19    1.19</time>
   <time name="total">    1.29    1.29</time>
   <energy>
    <i name="e_fr_energy">   -295.22991359 </i>
    <i name="e_wo_entrp">   -294.19165942 </i>
    <i name="e_0_energy">   -294.71078650 </i>
   </energy>
  </scstep>
  <scstep>
   <time name="dav">    1.25    1.25</time>
   <time name="total">    1.35    1.35</time>
   <energy>
    <i name="e_fr_energy">   -278.26695128 </i>
    <i name="e_wo_entrp">   -277.27236220 </i>
    <i name="e_0_energy">   -277.76965674 </i>
   </energy>
  </scstep>
  <scstep>
   <time name="dav">    1.21    1.21</time>
   <time name="total">    1.31    1.31</time>
   <energy>
    <i name="e_fr_energy">   -290.15200506 </i>
    <i name="e_wo_entrp">   -289.32087229 </i>
    <i name="e_0_energy">   -289.73643868 </i>
   </energy>
  </scstep>
  <scstep>
   <time name="dav">    1.22    1.22</time>
   <time name="total">    1.32    1.32</time>
   <energy>
    <i name="e_fr_energy">   -283.60013952 </i>
    <i name="e_wo_entrp">   -282.81096956 </i>
    <i name="e_0_energy">   -283.20555454 </i>
   </energy>
  </scstep>
  <scstep>
   <time name="dav">    1.20    1.20</time>
   <time name="total">    1.30    1.31</time>
   <energy>
    <i name="e_fr_energy">   -274.96246972 </i>
    <i name="e_wo_entrp">   -274.32259261 </i>
    <i name="e_0_energy">   -274.64253117 </i>
   </energy>
  </scstep>
  <scstep>
   <time name="dav">    1.15    1.15</time>
   <time name="total">    1.25    1.25</time>
   <energy>
    <i name="e_fr_energy">   -271.44497008 </i>
    <i name="e_wo_entrp">   -270.57445252 </i>
    <i name="e_0_energy">   -271.00971130 </i>
   </energy>
  </scstep>
  <scstep>
   <time name="dav">    1.15    1.15</time>
   <time name="total">    1.25    1.26</time>
   <energy>
    <i name="e_fr_energy">   -269.83874734 </i>
    <i name="e_wo_entrp">   -269.08053392 </i>
    <i name="e_0_energy">   -269.45964063 </i>
   </energy>
  </scstep>
  <scstep>
   <time name="dav">    1.19    1.19</time>
   <time name="total">    1.29    1.29</time>
   <energy>
    <i name="e_fr_energy">   -268.98208481 </i>
    <i name="e_wo_entrp">   -268.15497149 </i>
    <i name="e_0_energy">   -268.56852815 </i>
   </energy>
  </scstep>
  <scstep>
   <time name="dav">    1.22    1.23</time>
   <time name="total">    1.33    1.33</time>
   <energy>
    <i name="e_fr_energy">   -268.73914013 </i>
    <i name="e_wo_entrp">   -267.88522230 </i>
    <i name="e_0_energy">   -268.31218121 </i>
   </energy>
  </scstep>
  <scstep>
   <time name="dav">    1.15    1.15</time>
   <time name="total">    1.25    1.25</time>
   <energy>
    <i name="e_fr_energy">   -268.86609533 </i>
    <i name="e_wo_entrp">   -268.06581983 </i>
    <i name="e_0_energy">   -268.46595758 </i>
   </energy>
  </scstep>
  <scstep>
   <time name="dav">    1.20    1.20</time>
   <time name="total">    1.30    1.31</time>
   <energy>
    <i name="e_fr_energy">   -268.52237923 </i>
    <i name="e_wo_entrp">   -267.68141875 </i>
    <i name="e_0_energy">   -268.10189899 </i>
   </energy>
  </scstep>
  <scstep>
   <time name="dav">    1.24    1.24</time>
   <time name="total">    1.34    1.35</time>
   <energy>
    <i name="e_fr_energy">   -268.45616400 </i>
    <i name="e_wo_entrp">   -267.56858678 </i>
    <i name="e_0_energy">   -268.01237539 </i>
   </energy>
  </scstep>
  <scstep>
   <time name="dav">    1.18    1.18</time>
   <time name="total">    1.29    1.29</time>
   <energy>
    <i name="e_fr_energy">   -268.35647673 </i>
    <i name="e_wo_entrp">   -267.43999449 </i>
    <i name="e_0_energy">   -267.89823561 </i>
   </energy>
  </scstep>
  <scstep>
   <time name="dav">    1.06    1.06</time>
   <time name="total">    1.16    1.16</time>
   <energy>
    <i name="e_fr_energy">   -268.34455576 </i>
    <i name="e_wo_entrp">   -267.43848851 </i>
    <i name="e_0_energy">   -267.89152214 </i>
   </energy>
  </scstep>
  <scstep>
   <time name="dav">    1.19    1.19</time>
   <time name="total">    1.29    1.29</time>
   <energy>
    <i name="e_fr_energy">   -268.34543332 </i>
    <i name="e_wo_entrp">   -267.43996178 </i>
    <i name="e_0_energy">   -267.89269755 </i>
   </energy>
  </scstep>
  <scstep>
   <time name="dav">    1.16    1.16</time>
   <time name="total">    1.26    1.26</time>
   <energy>
    <i name="e_fr_energy">   -268.34389480 </i>
    <i name="e_wo_entrp">   -267.42660884 </i>
    <i name="e_0_energy">   -267.88525182 </i>
   </energy>
  </scstep>
  <scstep>
   <time name="dav">    1.22    1.23</time>
   <time name="total">    1.33    1.33</time>
   <energy>
    <i name="e_fr_energy">   -268.33552929 </i>
    <i name="e_wo_entrp">   -267.43368047 </i>
    <i name="e_0_energy">   -267.88460488 </i>
   </energy>
  </scstep>
  <scstep>
   <time name="dav">    1.03    1.03</time>
   <time name="total">    1.13    1.14</time>
   <energy>
    <i name="e_fr_energy">   -268.33565524 </i>
    <i name="e_wo_entrp">   -267.43191378 </i>
    <i name="e_0_energy">   -267.88378451 </i>
   </energy>
  </scstep>
  <scstep>
   <time name="dav">    0.79    0.79</time>
   <time name="total">    0.83    0.83</time>
   <energy>
    <i name="alphaZ">   1356.23626288 </i>
    <i name="ewald"> 116526.37784946 </i>
    <i name="hartreedc">-207614.03052376 </i>
    <i name="XCdc">   2716.78634514 </i>
    <i name="pawpsdc">  97928.42727514 </i>
    <i name="pawaedc">-101657.14949483 </i>
    <i name="eentropy">     -0.90338254 </i>
    <i name="bandstr"> -11526.03375987 </i>
    <i name="atom"> 102001.95379032 </i>
    <i name="e_fr_energy">   -268.33563806 </i>
    <i name="e_wo_entrp">   -267.43225551 </i>
    <i name="e_0_energy">   -267.88394679 </i>
   </energy>
  </scstep>
  <structure>
   <crystal>
    <varray name="basis" >
     <v>       8.29514639      -4.78920500       0.00000000 </v>
     <v>       0.00000000       9.57841000       0.00000000 </v>
     <v>       0.00000000       0.00000000      19.41784000 </v>
    </varray>
    <i name="volume">   1542.83113934 </i>
    <varray name="rec_basis" >
     <v>       0.12055242       0.00000000       0.00000000 </v>
     <v>       0.06027621       0.10440146       0.00000000 </v>
     <v>       0.00000000       0.00000000       0.05149903 </v>
    </varray>
   </crystal>
   <varray name="positions" >
    <v>       0.45843243       0.54156757       0.07690712 </v>
    <v>       0.45843243       0.54156757       0.23857701 </v>
    <v>       0.45843243       0.54156757       0.40024689 </v>
    <v>       0.12509910       0.87490090       0.13079708 </v>
    <v>       0.12509910       0.87490090       0.29246697 </v>
    <v>       0.12509910       0.87490090       0.45413686 </v>
    <v>       0.79176577       0.20823423       0.02301716 </v>
    <v>       0.79176577       0.20823423       0.18468704 </v>
    <v>       0.79176577       0.20823423       0.34635693 </v>
    <v>       0.45843243       0.27736157       0.07690712 </v>
    <v>       0.45843243       0.27736157       0.23857701 </v>
    <v>       0.45843243       0.27736157       0.40024689 </v>
    <v>       0.12509910       0.61069490       0.13079708 </v>
    <v>       0.12509910       0.61069490       0.29246697 </v>
    <v>       0.12509910       0.61069490       0.45413686 </v>
    <v>       0.79176577       0.94402823       0.02301716 </v>
    <v>       0.79176577       0.94402823       0.18468704 </v>
    <v>       0.79176577       0.94402823       0.34635693 </v>
    <v>       0.72263843       0.54156757       0.07690712 </v>
    <v>       0.72263843       0.54156757       0.23857701 </v>
    <v>       0.72263843       0.54156757       0.40024689 </v>
    <v>       0.38930510       0.87490090       0.13079708 </v>
    <v>       0.38930510       0.87490090       0.29246697 </v>
    <v>       0.38930510       0.87490090       0.45413686 </v>
    <v>       0.05597177       0.20823423       0.02301716 </v>
    <v>       0.05597177       0.20823423       0.18468704 </v>
    <v>       0.05597177       0.20823423       0.34635693 </v>
    <v>       0.65864443       0.34135557       0.00000000 </v>
    <v>       0.65864443       0.34135557       0.16166989 </v>
    <v>       0.65864443       0.34135557       0.32333977 </v>
    <v>       0.32531110       0.67468890       0.05388996 </v>
    <v>       0.32531110       0.67468890       0.21555985 </v>
    <v>       0.32531110       0.67468890       0.37722974 </v>
    <v>       0.99197777       0.00802223       0.10777993 </v>
    <v>       0.99197777       0.00802223       0.26944981 </v>
    <v>       0.99197777       0.00802223       0.43111970 </v>
    <v>       0.65864443       0.67778557       0.00000000 </v>
    <v>       0.65864443       0.67778557       0.16166989 </v>
    <v>       0.65864443       0.67778557       0.32333977 </v>
    <v>       0.32531110       0.01111890       0.05388996 </v>
    <v>       0.32531110       0.01111890       0.21555985 </v>
    <v>       0.32531110       0.01111890       0.37722974 </v>
    <v>       0.99197777       0.34445223       0.10777993 </v>
    <v>       0.99197777       0.34445223       0.26944981 </v>
    <v>       0.99197777       0.34445223       0.43111970 </v>
    <v>       0.32221443       0.34135557       0.00000000 </v>
    <v>       0.32221443       0.34135557       0.16166989 </v>
    <v>       0.32221443       0.34135557       0.32333977 </v>
    <v>       0.98888110       0.67468890       0.05388996 </v>
    <v>       0.98888110       0.67468890       0.21555985 </v>
    <v>       0.98888110       0.67468890       0.37722974 </v>
    <v>       0.65554777       0.00802223       0.10777993 </v>
    <v>       0.65554777       0.00802223       0.26944981 </v>
    <v>       0.65554777       0.00802223       0.43111970 </v>
   </varray>
  </structure>
  <varray name="forces" >
   <v>      -0.08045141       0.13934593      -0.23147278 </v>
   <v>       0.03583460      -0.06206736       0.19597907 </v>
   <v>      -0.09004415       0.15596105      -1.48306934 </v>
   <v>       0.00848232      -0.01469182      -0.30670384 </v>
   <v>       0.08135011      -0.14090252       0.25067881 </v>
   <v>      -0.23863561       0.41332901      -1.76809130 </v>
   <v>      -0.12932920       0.22400474       0.94165209 </v>
   <v>       0.04246810      -0.07355691      -0.34409164 </v>
   <v>       0.02750965      -0.04764810       0.42681991 </v>
   <v>      -0.08045141      -0.13934593      -0.23147278 </v>
   <v>       0.03583460       0.06206736       0.19597907 </v>
   <v>      -0.09004415      -0.15596105      -1.48306934 </v>
   <v>       0.00848232       0.01469182      -0.30670384 </v>
   <v>       0.08135011       0.14090252       0.25067881 </v>
   <v>      -0.23863561      -0.41332901      -1.76809130 </v>
   <v>      -0.12932920      -0.22400474       0.94165209 </v>
   <v>       0.04246810       0.07355691      -0.34409164 </v>
   <v>       0.02750965       0.04764810       0.42681991 </v>
   <v>       0.16090282       0.00000000      -0.23147278 </v>
   <v>      -0.07166921       0.00000000       0.19597907 </v>
   <v>       0.18008831      -0.00000000      -1.48306934 </v>
   <v>      -0.01696465       0.00000000      -0.30670384 </v>
   <v>      -0.16270022      -0.00000000       0.25067881 </v>
   <v>       0.47727123       0.00000000      -1.76809130 </v>
   <v>       0.25865839       0.00000000       0.94165209 </v>
   <v>      -0.08493621      -0.00000000      -0.34409164 </v>
   <v>      -0.05501929       0.00000000       0.42681991 </v>
   <v>       0.40714563      -0.70519692       0.36553751 </v>
   <v>       0.01900581      -0.03291904       0.07090807 </v>
   <v>      -0.08545243       0.14800795       1.07199798 </v>
   <v>       0.00700109      -0.01212625       0.31970164 </v>
   <v>       0.04370671      -0.07570224      -0.12279440 </v>
   <v>       0.06353234      -0.11004124       1.29625003 </v>
   <v>      -0.11830819       0.20491579      -0.99343738 </v>
   <v>       0.00254915      -0.00441526       0.27806230 </v>
   <v>      -0.11660590       0.20196734       0.03207325 </v>
   <v>       0.40714563       0.70519692       0.36553751 </v>
   <v>       0.01900581       0.03291904       0.07090807 </v>
   <v>      -0.08545243      -0.14800795       1.07199798 </v>
   <v>       0.00700109       0.01212625       0.31970164 </v>
   <v>       0.04370671       0.07570224      -0.12279440 </v>
   <v>       0.06353234       0.11004124       1.29625003 </v>
   <v>      -0.11830819      -0.20491579      -0.99343738 </v>
   <v>       0.00254915       0.00441526       0.27806230 </v>
   <v>      -0.11660590      -0.20196734       0.03207325 </v>
   <v>      -0.81429126      -0.00000000       0.36553751 </v>
   <v>      -0.03801163      -0.00000000       0.07090807 </v>
   <v>       0.17090485       0.00000000       1.07199798 </v>
   <v>      -0.01400218      -0.00000000       0.31970164 </v>
   <v>      -0.08741342       0.00000000      -0.12279440 </v>
   <v>      -0.12706468      -0.00000000       1.29625003 </v>
   <v>       0.23661637       0.00000000      -0.99343738 </v>
   <v>      -0.00509831       0.00000000       0.27806230 </v>
   <v>       0.23321180      -0.00000000       0.03207325 </v>
  </varray>
  <varray name="stress" >
   <v>     -19.05986873       0.00000000      -0.00000000 </v>
   <v>       0.00000000     -19.05986873      -0.00000000 </v>
   <v>       0.00000000       0.00000000     -25.85857773 </v>
  </varray>
  <energy>
   <i name="e_fr_energy">   -268.33563806 </i>
   <i name="e_wo_entrp">   -267.43225551 </i>
   <i name="e_0_energy">   -267.88394679 </i>
  </energy>
  <time name="totalsc">   34.17   34.34</time>
  <eigenvalues>
   <array>
    <dimension dim="1">band</dimension>
    <dimension dim="2">kpoint</dimension>
    <dimension dim="3">spin</dimension>
    <field>eigene</field>
    <field>occ</field>
    <set>
     <set comment="spin 1">
      <set comment="kpoint 1">
       <r>  -63.1380    1.0000 </r>
       <r>  -63.1306    1.0000 </r>
       <r>  -63.1306    1.0000 </r>
       <r>  -63.1296    1.0000 </r>
       <r>  -63.1224    1.0000 </r>
       <r>  -63.1224    1.0000 </r>
       <r>  -63.0923    1.0000 </r>
       <r>  -63.0848    1.0000 </r>
       <r>  -63.0848    1.0000 </r>
       <r>  -63.0753    1.0000 </r>
       <r>  -63.0752    1.0000 </r>
       <r>  -63.0578    1.0000 </r>
       <r>  -63.0578    1.0000 </r>
       <r>  -63.0502    1.0000 </r>
       <r>  -63.0316    1.0000 </r>
       <r>  -63.0287    1.0000 </r>
       <r>  -63.0287    1.0000 </r>
       <r>  -63.0163    1.0000 </r>
       <r>  -63.0073    1.0000 </r>
       <r>  -63.0073    1.0000 </r>
       <r>  -63.0019    1.0000 </r>
       <r>  -63.0013    1.0000 </r>
       <r>  -62.9977    1.0000 </r>
       <r>  -62.9939    1.0000 </r>
       <r>  -62.9939    1.0000 </r>
       <r>  -62.9877    1.0000 </r>
       <r>  -62.9876    1.0000 </r>
       <r>  -62.9782    1.0000 </r>
       <r>  -62.9678    1.0000 </r>
       <r>  -62.9677    1.0000 </r>
       <r>  -62.9616    1.0000 </r>
       <r>  -62.9531    1.0000 </r>
       <r>  -62.9454    1.0000 </r>
       <r>  -62.9454    1.0000 </r>
       <r>  -62.9420    1.0000 </r>
       <r>  -62.9389    1.0000 </r>
       <r>  -62.9388    1.0000 </r>
       <r>  -62.9370    1.0000 </r>
       <r>  -62.9369    1.0000 </r>
       <r>  -62.9201    1.0000 </r>
       <r>  -62.9200    1.0000 </r>
       <r>  -62.9121    1.0000 </r>
       <r>  -62.9092    1.0000 </r>
       <r>  -62.8682    1.0000 </r>
       <r>  -62.8527    1.0000 </r>
       <r>  -62.8527    1.0000 </r>
       <r>  -62.8405    1.0000 </r>
       <r>  -62.8112    1.0000 </r>
       <r>  -62.8111    1.0000 </r>
       <r>  -62.7831    1.0000 </r>
       <r>  -62.7831    1.0000 </r>
       <r>  -62.7583    1.0000 </r>
       <r>  -62.7015    1.0000 </r>
       <r>  -62.7014    1.0000 </r>
       <r>  -62.6707    1.0000 </r>
       <r>  -62.6171    1.0000 </r>
       <r>  -62.6171    1.0000 </r>
       <r>  -62.5534    1.0000 </r>
       <r>  -62.5004    1.0000 </r>
       <r>  -62.5003    1.0000 </r>
       <r>  -62.4235    1.0000 </r>
       <r>  -62.4234    1.0000 </r>
       <r>  -62.4086    1.0000 </r>
       <r>  -62.4009    1.0000 </r>
       <r>  -62.3602    1.0000 </r>
       <r>  -62.3566    1.0000 </r>
       <r>  -62.3566    1.0000 </r>
       <r>  -62.3524    1.0000 </r>
       <r>  -62.3524    1.0000 </r>
       <r>  -62.2751    1.0000 </r>
       <r>  -62.2751    1.0000 </r>
       <r>  -62.2520    1.0000 </r>
       <r>  -62.2451    1.0000 </r>
       <r>  -62.2362    1.0000 </r>
       <r>  -62.2361    1.0000 </r>
       <r>  -62.0592    1.0000 </r>
       <r>  -62.0590    1.0000 </r>
       <r>  -62.0362    1.0000 </r>
       <r>  -61.9750    1.0000 </r>
       <r>  -61.9652    1.0000 </r>
       <r>  -61.9652    1.0000 </r>
       <r>  -14.3958    1.0000 </r>
       <r>  -13.7043    1.0000 </r>
       <r>  -13.4681    1.0000 </r>
       <r>  -13.4069    1.0000 </r>
       <r>  -13.1296    1.0000 </r>
       <r>  -13.1296    1.0000 </r>
       <r>  -13.1114    1.0000 </r>
       <r>  -13.1114    1.0000 </r>
       <r>  -13.1043    1.0000 </r>
       <r>  -12.8603    1.0000 </r>
       <r>  -12.6480    1.0000 </r>
       <r>  -12.6480    1.0000 </r>
       <r>  -12.6256    1.0000 </r>
       <r>  -12.6256    1.0000 </r>
       <r>  -12.3978    1.0000 </r>
       <r>  -12.3978    1.0000 </r>
       <r>  -12.3025    1.0000 </r>
       <r>  -12.2379    1.0000 </r>
       <r>  -12.2379    1.0000 </r>
       <r>  -11.8196    1.0000 </r>
       <r>  -11.7188    1.0000 </r>
       <r>  -11.6337    1.0000 </r>
       <r>  -11.6337    1.0000 </r>
       <r>  -11.2985    1.0000 </r>
       <r>  -11.2985    1.0000 </r>
       <r>  -11.1933    1.0000 </r>
       <r>  -11.1933    1.0000 </r>
       <r>   -6.2228    1.0000 </r>
       <r>   -6.1126    1.0000 </r>
       <r>   -5.7448    1.0000 </r>
       <r>   -5.6981    1.0000 </r>
       <r>   -5.5979    1.0000 </r>
       <r>   -5.4165    1.0000 </r>
       <r>   -5.2719    1.0000 </r>
       <r>   -5.2719    1.0000 </r>
       <r>   -5.1514    1.0000 </r>
       <r>   -5.1514    1.0000 </r>
       <r>   -5.1284    1.0000 </r>
       <r>   -5.1284    1.0000 </r>
       <r>   -5.1263    1.0000 </r>
       <r>   -5.0377    1.0000 </r>
       <r>   -5.0377    1.0000 </r>
       <r>   -5.0070    1.0000 </r>
       <r>   -4.9328    1.0000 </r>
       <r>   -4.9241    1.0000 </r>
       <r>   -4.9241    1.0000 </r>
       <r>   -4.8110    1.0000 </r>
       <r>   -4.8110    1.0000 </r>
       <r>   -4.4614    1.0000 </r>
       <r>   -4.4515    1.0000 </r>
       <r>   -4.4515    1.0000 </r>
       <r>   -4.3470    1.0000 </r>
       <r>   -4.3430    1.0000 </r>
       <r>   -4.3430    1.0000 </r>
       <r>   -4.2967    1.0000 </r>
       <r>   -4.2158    1.0000 </r>
       <r>   -4.2158    1.0000 </r>
       <r>   -4.0767    1.0000 </r>
       <r>   -4.0008    1.0000 </r>
       <r>   -3.8729    1.0000 </r>
       <r>   -3.8403    1.0000 </r>
       <r>   -3.8402    1.0000 </r>
       <r>   -3.6772    1.0000 </r>
       <r>   -3.6534    1.0000 </r>
       <r>   -3.6534    1.0000 </r>
       <r>   -3.5939    1.0000 </r>
       <r>   -3.5938    1.0000 </r>
       <r>   -3.5684    1.0000 </r>
       <r>   -3.5543    1.0000 </r>
       <r>   -3.5543    1.0000 </r>
       <r>   -3.5088    1.0000 </r>
       <r>   -3.3556    1.0000 </r>
       <r>   -3.3556    1.0000 </r>
       <r>   -3.1721    1.0000 </r>
       <r>   -3.1721    1.0000 </r>
       <r>   -3.1176    1.0000 </r>
       <r>   -3.1176    1.0000 </r>
       <r>   -3.0379    1.0000 </r>
       <r>   -2.9954    1.0000 </r>
       <r>   -2.9954    1.0000 </r>
       <r>   -2.8846    1.0000 </r>
       <r>   -2.8846    1.0000 </r>
       <r>   -2.8042    1.0000 </r>
       <r>   -2.8042    1.0000 </r>
       <r>   -2.7856    1.0000 </r>
       <r>   -2.7613    1.0000 </r>
       <r>   -2.7613    1.0000 </r>
       <r>   -2.7078    1.0000 </r>
       <r>   -2.7078    1.0000 </r>
       <r>   -2.5430    1.0000 </r>
       <r>   -2.5430    1.0000 </r>
       <r>   -2.5102    1.0000 </r>
       <r>   -2.4223    1.0000 </r>
       <r>   -2.3776    1.0000 </r>
       <r>   -2.3776    1.0000 </r>
       <r>   -2.3027    1.0000 </r>
       <r>   -2.2760    1.0000 </r>
       <r>   -2.2760    1.0000 </r>
       <r>   -2.2340    1.0000 </r>
       <r>   -2.1838    1.0000 </r>
       <r>   -2.1101    1.0000 </r>
       <r>   -2.0695    1.0000 </r>
       <r>   -1.9351    1.0000 </r>
       <r>   -1.7994    1.0000 </r>
       <r>   -1.7885    1.0000 </r>
       <r>   -1.7885    1.0000 </r>
       <r>   -1.7228    1.0000 </r>
       <r>   -1.6199    1.0000 </r>
       <r>   -1.6199    1.0000 </r>
       <r>   -1.6144    1.0000 </r>
       <r>   -1.5848    1.0000 </r>
       <r>   -1.5221    1.0000 </r>
       <r>   -1.5055    1.0000 </r>
       <r>   -1.5055    1.0000 </r>
       <r>   -1.4520    1.0000 </r>
       <r>   -1.3595    1.0000 </r>
       <r>   -1.3595    1.0000 </r>
       <r>   -1.3203    1.0000 </r>
       <r>   -1.2819    1.0000 </r>
       <r>   -1.2486    1.0000 </r>
       <r>   -1.2486    1.0000 </r>
       <r>   -1.2112    1.0000 </r>
       <r>   -1.2091    1.0000 </r>
       <r>   -1.2055    1.0000 </r>
       <r>   -1.2055    1.0000 </r>
       <r>   -1.1731    1.0000 </r>
       <r>   -1.1731    1.0000 </r>
       <r>   -1.1351    1.0000 </r>
       <r>   -1.0532    1.0000 </r>
       <r>   -1.0532    1.0000 </r>
       <r>   -1.0065    1.0000 </r>
       <r>   -0.9943    1.0000 </r>
       <r>   -0.9943    1.0000 </r>
       <r>   -0.9417    1.0000 </r>
       <r>   -0.8922    1.0000 </r>
       <r>   -0.8922    1.0000 </r>
       <r>   -0.8794    1.0000 </r>
       <r>   -0.8794    1.0000 </r>
       <r>   -0.8572    1.0000 </r>
       <r>   -0.7863    1.0000 </r>
       <r>   -0.7862    1.0000 </r>
       <r>   -0.7585    1.0000 </r>
       <r>   -0.7585    1.0000 </r>
       <r>   -0.7405    1.0000 </r>
       <r>   -0.7247    1.0000 </r>
       <r>   -0.7247    1.0000 </r>
       <r>   -0.7140    1.0000 </r>
       <r>   -0.6969    1.0000 </r>
       <r>   -0.6969    1.0000 </r>
       <r>   -0.6432    1.0000 </r>
       <r>   -0.6431    1.0000 </r>
       <r>   -0.6179    1.0000 </r>
       <r>   -0.6179    1.0000 </r>
       <r>   -0.6154    1.0000 </r>
       <r>   -0.5984    1.0000 </r>
       <r>   -0.5944    1.0000 </r>
       <r>   -0.5944    1.0000 </r>
       <r>   -0.5625    1.0000 </r>
       <r>   -0.5546    1.0000 </r>
       <r>   -0.5546    1.0000 </r>
       <r>   -0.5371    1.0000 </r>
       <r>   -0.5371    1.0000 </r>
       <r>   -0.5051    1.0000 </r>
       <r>   -0.5051    1.0000 </r>
       <r>   -0.4641    1.0000 </r>
       <r>   -0.4280    1.0000 </r>
       <r>   -0.4280    1.0000 </r>
       <r>   -0.4122    1.0000 </r>
       <r>   -0.4122    1.0000 </r>
       <r>   -0.4093    1.0000 </r>
       <r>   -0.3549    1.0000 </r>
       <r>   -0.3549    1.0000 </r>
       <r>   -0.3200    1.0000 </r>
       <r>   -0.2883    1.0000 </r>
       <r>   -0.2883    1.0000 </r>
       <r>   -0.2723    1.0000 </r>
       <r>   -0.2381    1.0000 </r>
       <r>   -0.2216    1.0000 </r>
       <r>   -0.1501    1.0000 </r>
       <r>   -0.1501    1.0000 </r>
       <r>   -0.1300    1.0000 </r>
       <r>   -0.1160    1.0000 </r>
       <r>   -0.1038    1.0000 </r>
       <r>   -0.1038    1.0000 </r>
       <r>   -0.0961    1.0000 </r>
       <r>   -0.0733    1.0000 </r>
       <r>   -0.0733    1.0000 </r>
       <r>   -0.0110    1.0000 </r>
       <r>    0.0190    1.0000 </r>
       <r>    0.0275    1.0000 </r>
       <r>    0.0276    1.0000 </r>
       <r>    0.0763    1.0000 </r>
       <r>    0.0763    1.0000 </r>
       <r>    0.1171    1.0000 </r>
       <r>    0.1735    1.0000 </r>
       <r>    0.1736    1.0000 </r>
       <r>    0.2302    1.0000 </r>
       <r>    0.2380    1.0000 </r>
       <r>    0.2380    1.0000 </r>
       <r>    0.2947    1.0000 </r>
       <r>    0.3515    1.0000 </r>
       <r>    0.3582    1.0000 </r>
       <r>    0.3723    1.0000 </r>
       <r>    0.3723    1.0000 </r>
       <r>    0.4165    1.0000 </r>
       <r>    0.4875    1.0000 </r>
       <r>    0.5244    0.9999 </r>
       <r>    0.6390    0.9980 </r>
       <r>    0.6390    0.9980 </r>
       <r>    0.7685    0.9751 </r>
       <r>    0.7685    0.9751 </r>
       <r>    0.8862    0.8708 </r>
       <r>    0.8862    0.8708 </r>
       <r>    0.9546    0.7411 </r>
       <r>    0.9948    0.6412 </r>
       <r>    0.9949    0.6412 </r>
       <r>    1.0929    0.3700 </r>
       <r>    1.0930    0.3700 </r>
       <r>    1.1260    0.2858 </r>
       <r>    1.2159    0.1148 </r>
       <r>    1.2159    0.1148 </r>
       <r>    1.3582    0.0136 </r>
       <r>    1.3582    0.0136 </r>
       <r>    1.4232    0.0038 </r>
       <r>    1.4761    0.0012 </r>
       <r>    1.4761    0.0012 </r>
       <r>    1.6194    0.0000 </r>
       <r>    1.7006    0.0000 </r>
       <r>    1.7409    0.0000 </r>
       <r>    1.7409    0.0000 </r>
       <r>    1.7911    0.0000 </r>
       <r>    1.7911    0.0000 </r>
       <r>    1.8377    0.0000 </r>
       <r>    1.8377    0.0000 </r>
       <r>    1.9585    0.0000 </r>
       <r>    1.9660    0.0000 </r>
       <r>    1.9660    0.0000 </r>
       <r>    2.0546    0.0000 </r>
       <r>    2.0546    0.0000 </r>
       <r>    2.0850    0.0000 </r>
       <r>    2.1713    0.0000 </r>
       <r>    2.1713    0.0000 </r>
       <r>    2.2414    0.0000 </r>
       <r>    2.2646    0.0000 </r>
       <r>    2.3238    0.0000 </r>
       <r>    2.3238    0.0000 </r>
       <r>    4.4674    0.0000 </r>
       <r>    4.6289    0.0000 </r>
       <r>    4.7015    0.0000 </r>
       <r>    4.7016    0.0000 </r>
       <r>    5.2209    0.0000 </r>
       <r>    5.2425    0.0000 </r>
       <r>    5.2425    0.0000 </r>
       <r>    5.3151    0.0000 </r>
       <r>    5.3850    0.0000 </r>
       <r>    5.4847    0.0000 </r>
       <r>    5.4892    0.0000 </r>
       <r>    5.4892    0.0000 </r>
       <r>    5.8251    0.0000 </r>
       <r>    5.9716    0.0000 </r>
       <r>    6.0197    0.0000 </r>
       <r>    6.0198    0.0000 </r>
       <r>    6.0534    0.0000 </r>
       <r>    6.0534    0.0000 </r>
       <r>    6.2548    0.0000 </r>
       <r>    6.4621    0.0000 </r>
       <r>    6.4621    0.0000 </r>
       <r>    6.5905    0.0000 </r>
       <r>    6.8053    0.0000 </r>
       <r>    6.8053    0.0000 </r>
       <r>    6.8602    0.0000 </r>
       <r>    6.8603    0.0000 </r>
       <r>    6.8612    0.0000 </r>
       <r>    6.9168    0.0000 </r>
       <r>    7.1041    0.0000 </r>
       <r>    7.1747    0.0000 </r>
       <r>    7.1750    0.0000 </r>
       <r>    7.2233    0.0000 </r>
       <r>    7.2251    0.0000 </r>
      </set>
     </set>
    </set>
   </array>
  </eigenvalues>
  <separator name="orbital magnetization" >
   <v name="MAGDIPOLOUT">      0.00000000      0.00000000      0.00000000</v>
  </separator>
  <dos>
   <i name="efermi">      1.04601133 </i>
   <total>
    <array>
     <dimension dim="1">gridpoints</dimension>
     <dimension dim="2">spin</dimension>
     <field>energy</field>
     <field>total</field>
     <field>integrated</field>
     <set>
      <set comment="spin 1">
       <r>   -66.6562     0.0000     0.0000 </r>
       <r>   -66.3982     0.0000     0.0000 </r>
       <r>   -66.1402     0.0000     0.0000 </r>
       <r>   -65.8822     0.0000     0.0000 </r>
       <r>   -65.6242     0.0000     0.0000 </r>
       <r>   -65.3662     0.0000     0.0000 </r>
       <r>   -65.1082     0.0000     0.0000 </r>
       <r>   -64.8502     0.0000     0.0000 </r>
       <r>   -64.5922     0.0000     0.0000 </r>
       <r>   -64.3342     0.0000     0.0000 </r>
       <r>   -64.0762     0.0000     0.0000 </r>
       <r>   -63.8182     0.0000     0.0000 </r>
       <r>   -63.5602     0.0781     0.0202 </r>
       <r>   -63.3022    10.9850     2.8543 </r>
       <r>   -63.0442   132.1950    36.9603 </r>
       <r>   -62.7862   214.6409    92.3372 </r>
       <r>   -62.5282    98.0687   117.6387 </r>
       <r>   -62.2702    85.2687   139.6379 </r>
       <r>   -62.0122    60.6607   155.2882 </r>
       <r>   -61.7542    24.0727   161.4989 </r>
       <r>   -61.4962     1.9313   161.9972 </r>
       <r>   -61.2382     0.0109   162.0000 </r>
       <r>   -60.9802     0.0000   162.0000 </r>
       <r>   -60.7222     0.0000   162.0000 </r>
       <r>   -60.4642     0.0000   162.0000 </r>
       <r>   -60.2062     0.0000   162.0000 </r>
       <r>   -59.9482     0.0000   162.0000 </r>
       <r>   -59.6902     0.0000   162.0000 </r>
       <r>   -59.4322     0.0000   162.0000 </r>
       <r>   -59.1742     0.0000   162.0000 </r>
       <r>   -58.9162     0.0000   162.0000 </r>
       <r>   -58.6582     0.0000   162.0000 </r>
       <r>   -58.4002     0.0000   162.0000 </r>
       <r>   -58.1422     0.0000   162.0000 </r>
       <r>   -57.8842     0.0000   162.0000 </r>
       <r>   -57.6262     0.0000   162.0000 </r>
       <r>   -57.3682     0.0000   162.0000 </r>
       <r>   -57.1102     0.0000   162.0000 </r>
       <r>   -56.8523     0.0000   162.0000 </r>
       <r>   -56.5943     0.0000   162.0000 </r>
       <r>   -56.3363     0.0000   162.0000 </r>
       <r>   -56.0783     0.0000   162.0000 </r>
       <r>   -55.8203     0.0000   162.0000 </r>
       <r>   -55.5623     0.0000   162.0000 </r>
       <r>   -55.3043     0.0000   162.0000 </r>
       <r>   -55.0463     0.0000   162.0000 </r>
       <r>   -54.7883     0.0000   162.0000 </r>
       <r>   -54.5303     0.0000   162.0000 </r>
       <r>   -54.2723     0.0000   162.0000 </r>
       <r>   -54.0143     0.0000   162.0000 </r>
       <r>   -53.7563     0.0000   162.0000 </r>
       <r>   -53.4983     0.0000   162.0000 </r>
       <r>   -53.2403     0.0000   162.0000 </r>
       <r>   -52.9823     0.0000   162.0000 </r>
       <r>   -52.7243     0.0000   162.0000 </r>
       <r>   -52.4663     0.0000   162.0000 </r>
       <r>   -52.2083     0.0000   162.0000 </r>
       <r>   -51.9503     0.0000   162.0000 </r>
       <r>   -51.6923     0.0000   162.0000 </r>
       <r>   -51.4343     0.0000   162.0000 </r>
       <r>   -51.1763     0.0000   162.0000 </r>
       <r>   -50.9183     0.0000   162.0000 </r>
       <r>   -50.6603     0.0000   162.0000 </r>
       <r>   -50.4023     0.0000   162.0000 </r>
       <r>   -50.1443     0.0000   162.0000 </r>
       <r>   -49.8863     0.0000   162.0000 </r>
       <r>   -49.6283     0.0000   162.0000 </r>
       <r>   -49.3703     0.0000   162.0000 </r>
       <r>   -49.1123     0.0000   162.0000 </r>
       <r>   -48.8543     0.0000   162.0000 </r>
       <r>   -48.5963     0.0000   162.0000 </r>
       <r>   -48.3383     0.0000   162.0000 </r>
       <r>   -48.0803     0.0000   162.0000 </r>
       <r>   -47.8223     0.0000   162.0000 </r>
       <r>   -47.5643     0.0000   162.0000 </r>
       <r>   -47.3063     0.0000   162.0000 </r>
       <r>   -47.0483     0.0000   162.0000 </r>
       <r>   -46.7903     0.0000   162.0000 </r>
       <r>   -46.5323     0.0000   162.0000 </r>
       <r>   -46.2743     0.0000   162.0000 </r>
       <r>   -46.0163     0.0000   162.0000 </r>
       <r>   -45.7583     0.0000   162.0000 </r>
       <r>   -45.5003     0.0000   162.0000 </r>
       <r>   -45.2423     0.0000   162.0000 </r>
       <r>   -44.9843     0.0000   162.0000 </r>
       <r>   -44.7263     0.0000   162.0000 </r>
       <r>   -44.4683     0.0000   162.0000 </r>
       <r>   -44.2104     0.0000   162.0000 </r>
       <r>   -43.9524     0.0000   162.0000 </r>
       <r>   -43.6944     0.0000   162.0000 </r>
       <r>   -43.4364     0.0000   162.0000 </r>
       <r>   -43.1784     0.0000   162.0000 </r>
       <r>   -42.9204     0.0000   162.0000 </r>
       <r>   -42.6624     0.0000   162.0000 </r>
       <r>   -42.4044     0.0000   162.0000 </r>
       <r>   -42.1464     0.0000   162.0000 </r>
       <r>   -41.8884     0.0000   162.0000 </r>
       <r>   -41.6304     0.0000   162.0000 </r>
       <r>   -41.3724     0.0000   162.0000 </r>
       <r>   -41.1144     0.0000   162.0000 </r>
       <r>   -40.8564     0.0000   162.0000 </r>
       <r>   -40.5984     0.0000   162.0000 </r>
       <r>   -40.3404     0.0000   162.0000 </r>
       <r>   -40.0824     0.0000   162.0000 </r>
       <r>   -39.8244     0.0000   162.0000 </r>
       <r>   -39.5664     0.0000   162.0000 </r>
       <r>   -39.3084     0.0000   162.0000 </r>
       <r>   -39.0504     0.0000   162.0000 </r>
       <r>   -38.7924     0.0000   162.0000 </r>
       <r>   -38.5344     0.0000   162.0000 </r>
       <r>   -38.2764     0.0000   162.0000 </r>
       <r>   -38.0184     0.0000   162.0000 </r>
       <r>   -37.7604     0.0000   162.0000 </r>
       <r>   -37.5024     0.0000   162.0000 </r>
       <r>   -37.2444     0.0000   162.0000 </r>
       <r>   -36.9864     0.0000   162.0000 </r>
       <r>   -36.7284     0.0000   162.0000 </r>
       <r>   -36.4704     0.0000   162.0000 </r>
       <r>   -36.2124     0.0000   162.0000 </r>
       <r>   -35.9544     0.0000   162.0000 </r>
       <r>   -35.6964     0.0000   162.0000 </r>
       <r>   -35.4384     0.0000   162.0000 </r>
       <r>   -35.1804     0.0000   162.0000 </r>
       <r>   -34.9224     0.0000   162.0000 </r>
       <r>   -34.6644     0.0000   162.0000 </r>
       <r>   -34.4064     0.0000   162.0000 </r>
       <r>   -34.1484     0.0000   162.0000 </r>
       <r>   -33.8904     0.0000   162.0000 </r>
       <r>   -33.6324     0.0000   162.0000 </r>
       <r>   -33.3744     0.0000   162.0000 </r>
       <r>   -33.1164     0.0000   162.0000 </r>
       <r>   -32.8584     0.0000   162.0000 </r>
       <r>   -32.6004     0.0000   162.0000 </r>
       <r>   -32.3424     0.0000   162.0000 </r>
       <r>   -32.0844     0.0000   162.0000 </r>
       <r>   -31.8265     0.0000   162.0000 </r>
       <r>   -31.5685     0.0000   162.0000 </r>
       <r>   -31.3105     0.0000   162.0000 </r>
       <r>   -31.0525     0.0000   162.0000 </r>
       <r>   -30.7945     0.0000   162.0000 </r>
       <r>   -30.5365     0.0000   162.0000 </r>
       <r>   -30.2785     0.0000   162.0000 </r>
       <r>   -30.0205     0.0000   162.0000 </r>
       <r>   -29.7625     0.0000   162.0000 </r>
       <r>   -29.5045     0.0000   162.0000 </r>
       <r>   -29.2465     0.0000   162.0000 </r>
       <r>   -28.9885     0.0000   162.0000 </r>
       <r>   -28.7305     0.0000   162.0000 </r>
       <r>   -28.4725     0.0000   162.0000 </r>
       <r>   -28.2145     0.0000   162.0000 </r>
       <r>   -27.9565     0.0000   162.0000 </r>
       <r>   -27.6985     0.0000   162.0000 </r>
       <r>   -27.4405     0.0000   162.0000 </r>
       <r>   -27.1825     0.0000   162.0000 </r>
       <r>   -26.9245     0.0000   162.0000 </r>
       <r>   -26.6665     0.0000   162.0000 </r>
       <r>   -26.4085     0.0000   162.0000 </r>
       <r>   -26.1505     0.0000   162.0000 </r>
       <r>   -25.8925     0.0000   162.0000 </r>
       <r>   -25.6345     0.0000   162.0000 </r>
       <r>   -25.3765     0.0000   162.0000 </r>
       <r>   -25.1185     0.0000   162.0000 </r>
       <r>   -24.8605     0.0000   162.0000 </r>
       <r>   -24.6025     0.0000   162.0000 </r>
       <r>   -24.3445     0.0000   162.0000 </r>
       <r>   -24.0865     0.0000   162.0000 </r>
       <r>   -23.8285     0.0000   162.0000 </r>
       <r>   -23.5705     0.0000   162.0000 </r>
       <r>   -23.3125     0.0000   162.0000 </r>
       <r>   -23.0545     0.0000   162.0000 </r>
       <r>   -22.7965     0.0000   162.0000 </r>
       <r>   -22.5385     0.0000   162.0000 </r>
       <r>   -22.2805     0.0000   162.0000 </r>
       <r>   -22.0225     0.0000   162.0000 </r>
       <r>   -21.7645     0.0000   162.0000 </r>
       <r>   -21.5065     0.0000   162.0000 </r>
       <r>   -21.2485     0.0000   162.0000 </r>
       <r>   -20.9905     0.0000   162.0000 </r>
       <r>   -20.7325     0.0000   162.0000 </r>
       <r>   -20.4745     0.0000   162.0000 </r>
       <r>   -20.2165     0.0000   162.0000 </r>
       <r>   -19.9585     0.0000   162.0000 </r>
       <r>   -19.7005     0.0000   162.0000 </r>
       <r>   -19.4426     0.0000   162.0000 </r>
       <r>   -19.1846     0.0000   162.0000 </r>
       <r>   -18.9266     0.0000   162.0000 </r>
       <r>   -18.6686     0.0000   162.0000 </r>
       <r>   -18.4106     0.0000   162.0000 </r>
       <r>   -18.1526     0.0000   162.0000 </r>
       <r>   -17.8946     0.0000   162.0000 </r>
       <r>   -17.6366     0.0000   162.0000 </r>
       <r>   -17.3786     0.0000   162.0000 </r>
       <r>   -17.1206     0.0000   162.0000 </r>
       <r>   -16.8626     0.0000   162.0000 </r>
       <r>   -16.6046     0.0000   162.0000 </r>
       <r>   -16.3466     0.0000   162.0000 </r>
       <r>   -16.0886     0.0000   162.0000 </r>
       <r>   -15.8306     0.0000   162.0000 </r>
       <r>   -15.5726     0.0000   162.0000 </r>
       <r>   -15.3146     0.0000   162.0000 </r>
       <r>   -15.0566     0.0000   162.0000 </r>
       <r>   -14.7986     0.0170   162.0044 </r>
       <r>   -14.5406     1.1684   162.3058 </r>
       <r>   -14.2826     4.9252   163.5765 </r>
       <r>   -14.0246     1.6993   164.0149 </r>
       <r>   -13.7666     2.6755   164.7052 </r>
       <r>   -13.5086     9.3178   167.1092 </r>
       <r>   -13.2506    16.4259   171.3470 </r>
       <r>   -12.9926    27.7151   178.4975 </r>
       <r>   -12.7346    19.7429   183.5911 </r>
       <r>   -12.4766    26.8320   190.5137 </r>
       <r>   -12.2186    26.0935   197.2458 </r>
       <r>   -11.9606    11.9473   200.3282 </r>
       <r>   -11.7026    14.0158   203.9442 </r>
       <r>   -11.4446    17.0036   208.3311 </r>
       <r>   -11.1866    18.9278   213.2144 </r>
       <r>   -10.9286    10.2531   215.8597 </r>
       <r>   -10.6706     0.5420   215.9995 </r>
       <r>   -10.4126     0.0018   216.0000 </r>
       <r>   -10.1546     0.0000   216.0000 </r>
       <r>    -9.8966     0.0000   216.0000 </r>
       <r>    -9.6386     0.0000   216.0000 </r>
       <r>    -9.3806     0.0000   216.0000 </r>
       <r>    -9.1226     0.0000   216.0000 </r>
       <r>    -8.8646     0.0000   216.0000 </r>
       <r>    -8.6066     0.0000   216.0000 </r>
       <r>    -8.3486     0.0000   216.0000 </r>
       <r>    -8.0906     0.0000   216.0000 </r>
       <r>    -7.8326     0.0000   216.0000 </r>
       <r>    -7.5746     0.0000   216.0000 </r>
       <r>    -7.3166     0.0000   216.0000 </r>
       <r>    -7.0586     0.0000   216.0000 </r>
       <r>    -6.8007     0.0002   216.0000 </r>
       <r>    -6.5427     0.1008   216.0261 </r>
       <r>    -6.2847     3.3317   216.8856 </r>
       <r>    -6.0267     9.5908   219.3600 </r>
       <r>    -5.7687     9.1016   221.7082 </r>
       <r>    -5.5107    16.2959   225.9125 </r>
       <r>    -5.2527    25.2926   232.4380 </r>
       <r>    -4.9947    53.1613   246.1535 </r>
       <r>    -4.7367    39.2400   256.2773 </r>
       <r>    -4.4787    21.8396   261.9119 </r>
       <r>    -4.2207    40.5420   272.3717 </r>
       <r>    -3.9627    29.7131   280.0376 </r>
       <r>    -3.7047    35.8845   289.2957 </r>
       <r>    -3.4467    50.2009   302.2474 </r>
       <r>    -3.1887    34.7897   311.2231 </r>
       <r>    -2.9307    45.4448   322.9477 </r>
       <r>    -2.6727    54.5236   337.0147 </r>
       <r>    -2.4147    45.3174   348.7065 </r>
       <r>    -2.1567    45.9986   360.5741 </r>
       <r>    -1.8987    30.7808   368.5155 </r>
       <r>    -1.6407    41.6765   379.2679 </r>
       <r>    -1.3827    59.6545   394.6587 </r>
       <r>    -1.1247    78.7684   414.9807 </r>
       <r>    -0.8667    88.0760   437.7042 </r>
       <r>    -0.6087   125.4162   470.0613 </r>
       <r>    -0.3507   127.4084   502.9324 </r>
       <r>    -0.0927   100.6554   528.9013 </r>
       <r>     0.1653    87.2324   551.4071 </r>
       <r>     0.4233    66.6685   568.6074 </r>
       <r>     0.6813    41.6157   579.3442 </r>
       <r>     0.9393    38.2402   589.2101 </r>
       <r>     1.1973    43.8549   600.5246 </r>
       <r>     1.4553    37.5061   610.2010 </r>
       <r>     1.7133    38.7523   620.1990 </r>
       <r>     1.9713    52.4351   633.7272 </r>
       <r>     2.2293    49.2748   646.4400 </r>
       <r>     2.4873    26.3829   653.2467 </r>
       <r>     2.7453     2.8930   653.9931 </r>
       <r>     3.0033     0.0268   654.0000 </r>
       <r>     3.2613     0.0000   654.0000 </r>
       <r>     3.5193     0.0000   654.0000 </r>
       <r>     3.7773     0.0000   654.0000 </r>
       <r>     4.0353     0.0088   654.0023 </r>
       <r>     4.2933     0.9351   654.2435 </r>
       <r>     4.5513     9.1550   656.6055 </r>
       <r>     4.8093    16.6378   660.8980 </r>
       <r>     5.0673     7.3699   662.7994 </r>
       <r>     5.3253    23.6630   668.9044 </r>
       <r>     5.5832    28.8186   676.3396 </r>
       <r>     5.8412    14.5497   680.0934 </r>
       <r>     6.0992    27.6757   687.2337 </r>
       <r>     6.3572    20.2098   692.4478 </r>
       <r>     6.6152    18.4610   697.2107 </r>
       <r>     6.8732    29.6205   704.8527 </r>
       <r>     7.1312    32.9396   713.3511 </r>
       <r>     7.3892    22.7064   719.2093 </r>
       <r>     7.6472     3.0364   719.9926 </r>
       <r>     7.9052     0.0285   720.0000 </r>
       <r>     8.1632     0.0000   720.0000 </r>
       <r>     8.4212     0.0000   720.0000 </r>
       <r>     8.6792     0.0000   720.0000 </r>
       <r>     8.9372     0.0000   720.0000 </r>
       <r>     9.1952     0.0000   720.0000 </r>
       <r>     9.4532     0.0000   720.0000 </r>
       <r>     9.7112     0.0000   720.0000 </r>
       <r>     9.9692     0.0000   720.0000 </r>
       <r>    10.2272     0.0000   720.0000 </r>
       <r>    10.4852     0.0000   720.0000 </r>
       <r>    10.7432     0.0000   720.0000 </r>
      </set>
     </set>
    </array>
   </total>
  </dos>
 </calculation>
 <structure name="finalpos" >
  <crystal>
   <varray name="basis" >
    <v>       8.29514639      -4.78920500       0.00000000 </v>
    <v>       0.00000000       9.57841000       0.00000000 </v>
    <v>       0.00000000       0.00000000      19.41784000 </v>
   </varray>
   <i name="volume">   1542.83113934 </i>
   <varray name="rec_basis" >
    <v>       0.12055242       0.00000000       0.00000000 </v>
    <v>       0.06027621       0.10440146       0.00000000 </v>
    <v>       0.00000000       0.00000000       0.05149903 </v>
   </varray>
  </crystal>
  <varray name="positions" >
   <v>       0.45843243       0.54156757       0.07690712 </v>
   <v>       0.45843243       0.54156757       0.23857701 </v>
   <v>       0.45843243       0.54156757       0.40024689 </v>
   <v>       0.12509910       0.87490090       0.13079708 </v>
   <v>       0.12509910       0.87490090       0.29246697 </v>
   <v>       0.12509910       0.87490090       0.45413686 </v>
   <v>       0.79176577       0.20823423       0.02301716 </v>
   <v>       0.79176577       0.20823423       0.18468704 </v>
   <v>       0.79176577       0.20823423       0.34635693 </v>
   <v>       0.45843243       0.27736157       0.07690712 </v>
   <v>       0.45843243       0.27736157       0.23857701 </v>
   <v>       0.45843243       0.27736157       0.40024689 </v>
   <v>       0.12509910       0.61069490       0.13079708 </v>
   <v>       0.12509910       0.61069490       0.29246697 </v>
   <v>       0.12509910       0.61069490       0.45413686 </v>
   <v>       0.79176577       0.94402823       0.02301716 </v>
   <v>       0.79176577       0.94402823       0.18468704 </v>
   <v>       0.79176577       0.94402823       0.34635693 </v>
   <v>       0.72263843       0.54156757       0.07690712 </v>
   <v>       0.72263843       0.54156757       0.23857701 </v>
   <v>       0.72263843       0.54156757       0.40024689 </v>
   <v>       0.38930510       0.87490090       0.13079708 </v>
   <v>       0.38930510       0.87490090       0.29246697 </v>
   <v>       0.38930510       0.87490090       0.45413686 </v>
   <v>       0.05597177       0.20823423       0.02301716 </v>
   <v>       0.05597177       0.20823423       0.18468704 </v>
   <v>       0.05597177       0.20823423       0.34635693 </v>
   <v>       0.65864443       0.34135557       0.00000000 </v>
   <v>       0.65864443       0.34135557       0.16166989 </v>
   <v>       0.65864443       0.34135557       0.32333977 </v>
   <v>       0.32531110       0.67468890       0.05388996 </v>
   <v>       0.32531110       0.67468890       0.21555985 </v>
   <v>       0.32531110       0.67468890       0.37722974 </v>
   <v>       0.99197777       0.00802223       0.10777993 </v>
   <v>       0.99197777       0.00802223       0.26944981 </v>
   <v>       0.99197777       0.00802223       0.43111970 </v>
   <v>       0.65864443       0.67778557       0.00000000 </v>
   <v>       0.65864443       0.67778557       0.16166989 </v>
   <v>       0.65864443       0.67778557       0.32333977 </v>
   <v>       0.32531110       0.01111890       0.05388996 </v>
   <v>       0.32531110       0.01111890       0.21555985 </v>
   <v>       0.32531110       0.01111890       0.37722974 </v>
   <v>       0.99197777       0.34445223       0.10777993 </v>
   <v>       0.99197777       0.34445223       0.26944981 </v>
   <v>       0.99197777       0.34445223       0.43111970 </v>
   <v>       0.32221443       0.34135557       0.00000000 </v>
   <v>       0.32221443       0.34135557       0.16166989 </v>
   <v>       0.32221443       0.34135557       0.32333977 </v>
   <v>       0.98888110       0.67468890       0.05388996 </v>
   <v>       0.98888110       0.67468890       0.21555985 </v>
   <v>       0.98888110       0.67468890       0.37722974 </v>
   <v>       0.65554777       0.00802223       0.10777993 </v>
   <v>       0.65554777       0.00802223       0.26944981 </v>
   <v>       0.65554777       0.00802223       0.43111970 </v>
  </varray>
 </structure>
</modeling>
