<?xml version="1.0" encoding="ISO-8859-1"?>
<modeling>
 <generator>
  <i name="program" type="string">vasp </i>
  <i name="version" type="string">5.4.4.18Apr17-6-g9f103f2a35  </i>
  <i name="subversion" type="string">(build Aug 13 2019 17:33:20) gamma-only         parallel </i>
  <i name="platform" type="string">LinuxIFC </i>
  <i name="date" type="string">2020 05 11 </i>
  <i name="time" type="string">01:42:48 </i>
 </generator>
 <incar>
  <i type="string" name="SYSTEM">"Millerite NiS"</i>
  <i type="string" name="PREC">normal</i>
  <i type="int" name="NSIM">     4</i>
  <i type="int" name="NELM">   100</i>
  <i name="ENCUT">    450.00000000</i>
  <i type="string" name="LREAL">A</i>
  <i type="int" name="ISMEAR">     0</i>
  <i type="int" name="NWRITE">     2</i>
  <i type="logical" name="LWAVE"> F  </i>
  <i type="logical" name="LCHARG"> F  </i>
  <v type="int" name="KPOINT_BSE">    -1     0     0     0</v>
  <i type="int" name="NELM">   100</i>
 </incar>
 <structure name="primitive_cell" >
  <crystal>
   <varray name="basis" >
    <v>      11.25646304       0.00000000       0.00000000 </v>
    <v>       5.04456212      10.06282034       0.00000000 </v>
    <v>       0.00000000       0.00000000      22.88364939 </v>
   </varray>
   <i name="volume">   2592.07135999 </i>
   <varray name="rec_basis" >
    <v>       0.08883785      -0.04453504       0.00000000 </v>
    <v>       0.00000000       0.09937572       0.00000000 </v>
    <v>       0.00000000       0.00000000       0.04369932 </v>
   </varray>
  </crystal>
  <varray name="positions" >
   <v>       0.26092070       0.47878036       0.29050611 </v>
   <v>       0.07287764      -0.33317657       0.30639927 </v>
   <v>       0.17409868       0.39738738       0.22126075 </v>
   <v>       0.34231368      -0.43439761       0.22126075 </v>
   <v>       0.43627354       0.47164251       0.34956450 </v>
   <v>       0.26805855       0.30342751       0.34956450 </v>
   <v>       0.36819893       0.23939913       0.25660749 </v>
   <v>      -0.49969806       0.37150212       0.25660749 </v>
   <v>       0.16511027      -0.43311229       0.40594997 </v>
   <v>       0.35488056       0.38482049       0.41880986 </v>
   <v>       0.16696083      -0.42725976       0.16220237 </v>
   <v>       0.47891775       0.26078330       0.17809552 </v>
   <v>      -0.42712237       0.16682343       0.30639927 </v>
   <v>       0.00030194       0.37150212       0.25660749 </v>
   <v>       0.09426181      -0.22245774       0.38491124 </v>
   <v>      -0.03784120      -0.35456074       0.38491124 </v>
   <v>       0.36819893      -0.26060087       0.25660749 </v>
   <v>       0.26805855      -0.19657249       0.34956450 </v>
   <v>      -0.06372646       0.47164251       0.34956450 </v>
   <v>       0.46215880       0.14543926       0.38491124 </v>
   <v>       0.40634206       0.46546199       0.12830375 </v>
   <v>       0.27423906       0.33335899       0.12830375 </v>
   <v>      -0.40573819       0.27754226       0.38491124 </v>
   <v>       0.09426181       0.27754226       0.38491124 </v>
   <v>       0.46215880      -0.35456074       0.38491124 </v>
   <v>       0.00030194      -0.12849788       0.25660749 </v>
   <v>      -0.13180107      -0.26060087       0.25660749 </v>
   <v>      -0.02108225      -0.23921670       0.17809552 </v>
   <v>       0.34231368       0.06560239       0.22126075 </v>
   <v>      -0.32590132       0.39738738       0.22126075 </v>
   <v>       0.20418162      -0.34027704       0.47563195 </v>
   <v>      -0.15768632      -0.43439761       0.22126075 </v>
   <v>       0.17409868      -0.10261262       0.22126075 </v>
   <v>       0.28857428       0.46936813      -0.49846837 </v>
   <v>       0.07287763       0.16682343       0.30639927 </v>
   <v>      -0.42712236      -0.33317657       0.30639927 </v>
   <v>      -0.46147582       0.37390474       0.46450320 </v>
   <v>       0.38399076       0.20559965       0.46760423 </v>
   <v>       0.08013882       0.49134724       0.09295701 </v>
   <v>       0.24835381      -0.34043774       0.09295701 </v>
   <v>      -0.06372646      -0.02835749       0.34956450 </v>
   <v>      -0.23194145      -0.19657249       0.34956450 </v>
   <v>      -0.23194145       0.30342751       0.34956450 </v>
   <v>       0.43627354      -0.02835749       0.34956450 </v>
   <v>       0.04244544      -0.28090924       0.09045382 </v>
   <v>       0.36201842      -0.29053236       0.47786825 </v>
   <v>       0.47891775      -0.23921670       0.17809552 </v>
   <v>      -0.02108225       0.26078330       0.17809552 </v>
   <v>       0.26146646       0.15681602       0.11202103 </v>
   <v>       0.27423907      -0.16664101       0.12830375 </v>
   <v>      -0.09365794       0.46546199       0.12830375 </v>
   <v>       0.01830046      -0.17057493       0.47325281 </v>
   <v>       0.03313859       0.31004668       0.46846998 </v>
   <v>      -0.45755410       0.21909266       0.09045533 </v>
   <v>       0.22912084       0.15218114       0.46863717 </v>
   <v>      -0.33303917       0.07274024       0.16220237 </v>
   <v>      -0.14511944      -0.11517951       0.41880986 </v>
   <v>       0.26092070      -0.02121964       0.29050611 </v>
   <v>      -0.23907930       0.47878036       0.29050611 </v>
   <v>       0.21376316      -0.47598045       0.04418689 </v>
   <v>      -0.42212780       0.48706128       0.09864608 </v>
   <v>       0.38495789       0.35474317       0.04979178 </v>
   <v>      -0.15127028      -0.27757349       0.46525040 </v>
   <v>      -0.33316250       0.07286357       0.43470302 </v>
   <v>       0.16708863       0.06281573       0.40498647 </v>
   <v>      -0.45675066      -0.44943237       0.49465504 </v>
   <v>       0.16696083       0.07274024       0.16220237 </v>
   <v>       0.35488056      -0.11517951       0.41880986 </v>
   <v>      -0.14511944       0.38482049       0.41880986 </v>
   <v>      -0.23907930      -0.02121964       0.29050611 </v>
   <v>      -0.33303917      -0.42725976       0.16220237 </v>
   <v>      -0.33316250      -0.42713643       0.43470302 </v>
   <v>      -0.13180107       0.23939913       0.25660749 </v>
   <v>      -0.49969806      -0.12849788       0.25660749 </v>
   <v>      -0.15768632       0.06560239       0.22126075 </v>
   <v>      -0.32590132      -0.10261262       0.22126075 </v>
   <v>       0.44293364      -0.49670626       0.03130844 </v>
   <v>      -0.22576093      -0.16664101       0.12830375 </v>
   <v>      -0.09365794      -0.03453801       0.12830375 </v>
   <v>      -0.03784120       0.14543926       0.38491124 </v>
   <v>      -0.22576094       0.33335899       0.12830375 </v>
   <v>       0.40634206      -0.03453801       0.12830375 </v>
   <v>      -0.40573819      -0.22245774       0.38491124 </v>
   <v>      -0.31015890       0.19396652       0.49498599 </v>
   <v>      -0.23853343      -0.34318390       0.11202135 </v>
   <v>      -0.44037432       0.04560138      -0.49936606 </v>
   <v>       0.07787309      -0.01293930       0.09864610 </v>
   <v>      -0.25164619       0.15956225       0.09295701 </v>
   <v>      -0.41986118      -0.00865276       0.09295701 </v>
   <v>       0.18067451      -0.16512516       0.03820146 </v>
   <v>      -0.15520588       0.22195528       0.45906725 </v>
   <v>      -0.11504211      -0.14525683       0.04979178 </v>
   <v>      -0.31932670       0.33487554       0.03820154 </v>
   <v>      -0.17851669      -0.11591907      -0.48165559 </v>
   <v>       0.44177520      -0.20223276      -0.46722473 </v>
   <v>       0.33176584      -0.10282088       0.05708618 </v>
   <v>      -0.46976658      -0.12231736       0.47786825 </v>
   <v>      -0.31376774      -0.30434522       0.49676259 </v>
   <v>       0.27925881      -0.02855689      -0.49294666 </v>
   <v>      -0.16823517       0.39717975       0.05708622 </v>
   <v>      -0.28623720       0.02402038       0.04418676 </v>
   <v>      -0.39688315      -0.36822398      -0.43798053 </v>
   <v>      -0.30191351       0.05638358      -0.44384555 </v>
   <v>      -0.05706537       0.00329244       0.03130838 </v>
  </varray>
 </structure>
 <varray name="primitive_index" >
  <v type="int" >        1 </v>
  <v type="int" >       79 </v>
  <v type="int" >       63 </v>
  <v type="int" >       87 </v>
  <v type="int" >       59 </v>
  <v type="int" >       64 </v>
  <v type="int" >        6 </v>
  <v type="int" >       21 </v>
  <v type="int" >       80 </v>
  <v type="int" >        2 </v>
  <v type="int" >       30 </v>
  <v type="int" >       56 </v>
  <v type="int" >       66 </v>
  <v type="int" >        8 </v>
  <v type="int" >       36 </v>
  <v type="int" >       48 </v>
  <v type="int" >       33 </v>
  <v type="int" >       90 </v>
  <v type="int" >       72 </v>
  <v type="int" >        7 </v>
  <v type="int" >       11 </v>
  <v type="int" >        5 </v>
  <v type="int" >       22 </v>
  <v type="int" >        9 </v>
  <v type="int" >       34 </v>
  <v type="int" >       35 </v>
  <v type="int" >       47 </v>
  <v type="int" >       95 </v>
  <v type="int" >       61 </v>
  <v type="int" >       76 </v>
  <v type="int" >       37 </v>
  <v type="int" >      100 </v>
  <v type="int" >       89 </v>
  <v type="int" >       57 </v>
  <v type="int" >       53 </v>
  <v type="int" >       92 </v>
  <v type="int" >       71 </v>
  <v type="int" >       65 </v>
  <v type="int" >       62 </v>
  <v type="int" >       86 </v>
  <v type="int" >       98 </v>
  <v type="int" >      103 </v>
  <v type="int" >       77 </v>
  <v type="int" >       85 </v>
  <v type="int" >       29 </v>
  <v type="int" >       91 </v>
  <v type="int" >       82 </v>
  <v type="int" >       69 </v>
  <v type="int" >       60 </v>
  <v type="int" >       32 </v>
  <v type="int" >       24 </v>
  <v type="int" >       84 </v>
  <v type="int" >       58 </v>
  <v type="int" >       14 </v>
  <v type="int" >       10 </v>
  <v type="int" >       15 </v>
  <v type="int" >       41 </v>
  <v type="int" >       26 </v>
  <v type="int" >       12 </v>
  <v type="int" >        4 </v>
  <v type="int" >       75 </v>
  <v type="int" >       55 </v>
  <v type="int" >      104 </v>
  <v type="int" >       67 </v>
  <v type="int" >       54 </v>
  <v type="int" >       44 </v>
  <v type="int" >        3 </v>
  <v type="int" >       27 </v>
  <v type="int" >       13 </v>
  <v type="int" >       40 </v>
  <v type="int" >       43 </v>
  <v type="int" >       93 </v>
  <v type="int" >       19 </v>
  <v type="int" >       49 </v>
  <v type="int" >       74 </v>
  <v type="int" >      102 </v>
  <v type="int" >       39 </v>
  <v type="int" >       46 </v>
  <v type="int" >       52 </v>
  <v type="int" >       20 </v>
  <v type="int" >       18 </v>
  <v type="int" >       38 </v>
  <v type="int" >       50 </v>
  <v type="int" >       23 </v>
  <v type="int" >       99 </v>
  <v type="int" >       16 </v>
  <v type="int" >       88 </v>
  <v type="int" >       73 </v>
  <v type="int" >      101 </v>
  <v type="int" >       31 </v>
  <v type="int" >       78 </v>
  <v type="int" >       94 </v>
  <v type="int" >       17 </v>
  <v type="int" >       42 </v>
  <v type="int" >       28 </v>
  <v type="int" >       81 </v>
  <v type="int" >       97 </v>
  <v type="int" >       51 </v>
  <v type="int" >       83 </v>
  <v type="int" >       68 </v>
  <v type="int" >       45 </v>
  <v type="int" >       70 </v>
  <v type="int" >       96 </v>
  <v type="int" >       25 </v>
 </varray>
 <kpoints>
  <generation param="Gamma">
   <v type="int" name="divisions">       1        1        1 </v>
   <v name="usershift">      0.00000000       0.00000000       0.00000000 </v>
   <v name="genvec1">      1.00000000       0.00000000       0.00000000 </v>
   <v name="genvec2">      0.00000000       1.00000000       0.00000000 </v>
   <v name="genvec3">      0.00000000       0.00000000       1.00000000 </v>
   <v name="shift">      0.00000000       0.00000000       0.00000000 </v>
  </generation>
  <varray name="kpointlist" >
   <v>       0.00000000       0.00000000       0.00000000 </v>
  </varray>
  <varray name="weights" >
   <v>       1.00000000 </v>
  </varray>
 </kpoints>
 <parameters>
  <separator name="general" >
   <i type="string" name="SYSTEM">"Millerite NiS"</i>
   <i type="logical" name="LCOMPAT"> F  </i>
  </separator>
  <separator name="electronic" >
   <i type="string" name="PREC">normal</i>
   <i name="ENMAX">    450.00000000</i>
   <i name="ENAUG">    703.44300000</i>
   <i name="EDIFF">      0.00010000</i>
   <i type="int" name="IALGO">    38</i>
   <i type="int" name="IWAVPR">    10</i>
   <i type="int" name="NBANDS">   686</i>
   <i name="NELECT">   1144.00000000</i>
   <i type="int" name="TURBO">     0</i>
   <i type="int" name="IRESTART">     0</i>
   <i type="int" name="NREBOOT">     0</i>
   <i type="int" name="NMIN">     0</i>
   <i name="EREF">      0.00000000</i>
   <separator name="electronic smearing" >
    <i type="int" name="ISMEAR">     0</i>
    <i name="SIGMA">      0.20000000</i>
    <i name="KSPACING">      0.50000000</i>
    <i type="logical" name="KGAMMA"> T  </i>
   </separator>
   <separator name="electronic projectors" >
    <i type="logical" name="LREAL"> T  </i>
    <v name="ROPT">     -0.00050000     -0.00050000</v>
    <i type="int" name="LMAXPAW">  -100</i>
    <i type="int" name="LMAXMIX">     2</i>
    <i type="logical" name="NLSPLINE"> F  </i>
   </separator>
   <separator name="electronic startup" >
    <i type="int" name="ISTART">     0</i>
    <i type="int" name="ICHARG">     2</i>
    <i type="int" name="INIWAV">     1</i>
   </separator>
   <separator name="electronic spin" >
    <i type="int" name="ISPIN">     1</i>
    <i type="logical" name="LNONCOLLINEAR"> F  </i>
    <v name="MAGMOM">      1.00000000      1.00000000      1.00000000      1.00000000      1.00000000      1.00000000      1.00000000      1.00000000      1.00000000      1.00000000      1.00000000      1.00000000      1.00000000      1.00000000      1.00000000      1.00000000      1.00000000      1.00000000      1.00000000      1.00000000
      1.00000000      1.00000000      1.00000000      1.00000000      1.00000000      1.00000000      1.00000000      1.00000000      1.00000000      1.00000000      1.00000000      1.00000000      1.00000000      1.00000000      1.00000000      1.00000000      1.00000000      1.00000000      1.00000000      1.00000000
      1.00000000      1.00000000      1.00000000      1.00000000      1.00000000      1.00000000      1.00000000      1.00000000      1.00000000      1.00000000      1.00000000      1.00000000      1.00000000      1.00000000      1.00000000      1.00000000      1.00000000      1.00000000      1.00000000      1.00000000
      1.00000000      1.00000000      1.00000000      1.00000000      1.00000000      1.00000000      1.00000000      1.00000000      1.00000000      1.00000000      1.00000000      1.00000000      1.00000000      1.00000000      1.00000000      1.00000000      1.00000000      1.00000000      1.00000000      1.00000000
      1.00000000      1.00000000      1.00000000      1.00000000      1.00000000      1.00000000      1.00000000      1.00000000      1.00000000      1.00000000      1.00000000      1.00000000      1.00000000      1.00000000      1.00000000      1.00000000      1.00000000      1.00000000      1.00000000      1.00000000
      1.00000000      1.00000000      1.00000000      1.00000000</v>
    <i name="NUPDOWN">     -1.00000000</i>
    <i type="logical" name="LSORBIT"> F  </i>
    <v name="SAXIS">      0.00000000      0.00000000      1.00000000</v>
    <i type="logical" name="LSPIRAL"> F  </i>
    <v name="QSPIRAL">      0.00000000      0.00000000      0.00000000</v>
    <i type="logical" name="LZEROZ"> F  </i>
   </separator>
   <separator name="electronic exchange-correlation" >
    <i type="logical" name="LASPH"> F  </i>
    <i type="logical" name="LMETAGGA"> F  </i>
   </separator>
   <separator name="electronic convergence" >
    <i type="int" name="NELM">   100</i>
    <i type="int" name="NELMDL">    -5</i>
    <i type="int" name="NELMIN">     2</i>
    <i name="ENINI">    450.00000000</i>
    <separator name="electronic convergence detail" >
     <i type="logical" name="LDIAG"> T  </i>
     <i type="logical" name="LSUBROT"> F  </i>
     <i name="WEIMIN">      0.00000000</i>
     <i name="EBREAK">      0.00000004</i>
     <i name="DEPER">      0.30000000</i>
     <i type="int" name="NRMM">     4</i>
     <i name="TIME">      0.40000000</i>
    </separator>
   </separator>
   <separator name="electronic mixer" >
    <i name="AMIX">      0.40000000</i>
    <i name="BMIX">      1.00000000</i>
    <i name="AMIN">      0.10000000</i>
    <i name="AMIX_MAG">      1.60000000</i>
    <i name="BMIX_MAG">      1.00000000</i>
    <separator name="electronic mixer details" >
     <i type="int" name="IMIX">     4</i>
     <i type="logical" name="MIXFIRST"> F  </i>
     <i type="int" name="MAXMIX">   -45</i>
     <i name="WC">    100.00000000</i>
     <i type="int" name="INIMIX">     1</i>
     <i type="int" name="MIXPRE">     1</i>
     <i type="int" name="MREMOVE">     5</i>
    </separator>
   </separator>
   <separator name="electronic dipolcorrection" >
    <i type="logical" name="LDIPOL"> F  </i>
    <i type="logical" name="LMONO"> F  </i>
    <i type="int" name="IDIPOL">     0</i>
    <i name="EPSILON">      1.00000000</i>
    <v name="DIPOL">   -100.00000000   -100.00000000   -100.00000000</v>
    <i name="EFIELD">      0.00000000</i>
   </separator>
  </separator>
  <separator name="grids" >
   <i type="int" name="NGX">    60</i>
   <i type="int" name="NGY">    60</i>
   <i type="int" name="NGZ">   120</i>
   <i type="int" name="NGXF">   120</i>
   <i type="int" name="NGYF">   120</i>
   <i type="int" name="NGZF">   240</i>
   <i type="logical" name="ADDGRID"> F  </i>
  </separator>
  <separator name="ionic" >
   <i type="int" name="NSW">     0</i>
   <i type="int" name="IBRION">    -1</i>
   <i type="int" name="MDALGO">     0</i>
   <i type="int" name="ISIF">     2</i>
   <i name="PSTRESS">      0.00000000</i>
   <i name="EDIFFG">      0.00100000</i>
   <i type="int" name="NFREE">     0</i>
   <i name="POTIM">      0.50000000</i>
   <i name="SMASS">     -3.00000000</i>
   <i name="SCALEE">      1.00000000</i>
  </separator>
  <separator name="ionic md" >
   <i name="TEBEG">      0.00010000</i>
   <i name="TEEND">      0.00010000</i>
   <i type="int" name="NBLOCK">     1</i>
   <i type="int" name="KBLOCK">     1</i>
   <i type="int" name="NPACO">   256</i>
   <i name="APACO">     16.00000000</i>
  </separator>
  <separator name="symmetry" >
   <i type="int" name="ISYM">     2</i>
   <i name="SYMPREC">      0.00001000</i>
  </separator>
  <separator name="dos" >
   <i type="int" name="LORBIT">     0</i>
   <v name="RWIGS">     -1.00000000     -1.00000000</v>
   <i type="int" name="NEDOS">   301</i>
   <i name="EMIN">     10.00000000</i>
   <i name="EMAX">    -10.00000000</i>
   <i name="EFERMI">      0.00000000</i>
  </separator>
  <separator name="writing" >
   <i type="int" name="NWRITE">     2</i>
   <i type="logical" name="LWAVE"> F  </i>
   <i type="logical" name="LDOWNSAMPLE"> F  </i>
   <i type="logical" name="LCHARG"> F  </i>
   <i type="logical" name="LPARD"> F  </i>
   <i type="logical" name="LVTOT"> F  </i>
   <i type="logical" name="LVHAR"> F  </i>
   <i type="logical" name="LELF"> F  </i>
   <i type="logical" name="LOPTICS"> F  </i>
   <v name="STM">      0.00000000      0.00000000      0.00000000      0.00000000      0.00000000      0.00000000      0.00000000</v>
  </separator>
  <separator name="performance" >
   <i type="int" name="NPAR">     2</i>
   <i type="int" name="NSIM">     4</i>
   <i type="int" name="NBLK">    -1</i>
   <i type="logical" name="LPLANE"> T  </i>
   <i type="logical" name="LSCALAPACK"> T  </i>
   <i type="logical" name="LSCAAWARE"> F  </i>
   <i type="logical" name="LSCALU"> F  </i>
   <i type="logical" name="LASYNC"> F  </i>
   <i type="logical" name="LORBITALREAL"> F  </i>
  </separator>
  <separator name="miscellaneous" >
   <i type="int" name="IDIOT">     3</i>
   <i type="int" name="ISPECIAL">     0</i>
   <i type="logical" name="LMUSIC"> F  </i>
   <v name="POMASS">     58.69000000     32.06600000</v>
   <v name="DARWINR">      0.00000000      0.00000000</v>
   <v name="DARWINV">      1.00000000      1.00000000</v>
   <i type="logical" name="LCORR"> T  </i>
  </separator>
  <i type="logical" name="GGA_COMPAT"> T  </i>
  <i type="logical" name="LBERRY"> F  </i>
  <i type="int" name="ICORELEVEL">     0</i>
  <i type="logical" name="LDAU"> F  </i>
  <i type="int" name="I_CONSTRAINED_M">     0</i>
  <separator name="electronic exchange-correlation" >
   <i type="string" name="GGA">--</i>
   <i type="int" name="VOSKOWN">     0</i>
   <i type="logical" name="LHFCALC"> F  </i>
   <i type="string" name="PRECFOCK"></i>
   <i type="logical" name="LSYMGRAD"> F  </i>
   <i type="logical" name="LHFONE"> F  </i>
   <i type="logical" name="LRHFCALC"> F  </i>
   <i type="logical" name="LTHOMAS"> F  </i>
   <i type="logical" name="LMODELHF"> F  </i>
   <i name="ENCUT4O">     -1.00000000</i>
   <i type="int" name="EXXOEP">     0</i>
   <i type="int" name="FOURORBIT">     0</i>
   <i name="AEXX">      0.00000000</i>
   <i name="HFALPHA">      0.00000000</i>
   <i name="MCALPHA">      0.00000000</i>
   <i name="ALDAX">      1.00000000</i>
   <i name="AGGAX">      1.00000000</i>
   <i name="ALDAC">      1.00000000</i>
   <i name="AGGAC">      1.00000000</i>
   <i type="int" name="NKREDX">     1</i>
   <i type="int" name="NKREDY">     1</i>
   <i type="int" name="NKREDZ">     1</i>
   <i type="logical" name="SHIFTRED"> F  </i>
   <i type="logical" name="ODDONLY"> F  </i>
   <i type="logical" name="EVENONLY"> F  </i>
   <i type="int" name="LMAXFOCK">     0</i>
   <i type="int" name="NMAXFOCKAE">     0</i>
   <i type="logical" name="LFOCKAEDFT"> F  </i>
   <i name="HFSCREEN">      0.00000000</i>
   <i name="HFSCREENC">      0.00000000</i>
   <i type="int" name="NBANDSGWLOW">     0</i>
  </separator>
  <separator name="vdW DFT" >
   <i type="logical" name="LUSE_VDW"> F  </i>
   <i name="Zab_VDW">     -0.84910000</i>
   <i name="PARAM1">      0.12340000</i>
   <i name="PARAM2">      1.00000000</i>
   <i name="PARAM3">      0.00000000</i>
  </separator>
  <separator name="model GW" >
   <i type="int" name="MODEL_GW">     0</i>
   <i name="MODEL_EPS0">     14.95425785</i>
   <i name="MODEL_ALPHA">      1.00000000</i>
  </separator>
  <separator name="linear response parameters" >
   <i type="logical" name="LEPSILON"> F  </i>
   <i type="logical" name="LRPA"> F  </i>
   <i type="logical" name="LNABLA"> F  </i>
   <i type="logical" name="LVEL"> F  </i>
   <i type="int" name="KINTER">     0</i>
   <i name="CSHIFT">      0.10000000</i>
   <i name="OMEGAMAX">     -1.00000000</i>
   <i name="DEG_THRESHOLD">      0.00200000</i>
   <i name="RTIME">     -0.10000000</i>
   <i name="WPLASMAI">      0.00000000</i>
   <v name="DFIELD">      0.00000000      0.00000000      0.00000000</v>
   <v name="WPLASMA">      0.00000000      0.00000000      0.00000000      0.00000000      0.00000000      0.00000000      0.00000000      0.00000000      0.00000000</v>
  </separator>
  <separator name="orbital magnetization" >
   <i type="logical" name="NUCIND"> F  </i>
   <v name="MAGPOS">      0.00000000      0.00000000      0.00000000</v>
   <i type="logical" name="LNICSALL"> T  </i>
   <i type="logical" name="ORBITALMAG"> F  </i>
   <i type="logical" name="LMAGBLOCH"> F  </i>
   <i type="logical" name="LCHIMAG"> F  </i>
   <i type="logical" name="LGAUGE"> T  </i>
   <i type="int" name="MAGATOM">     0</i>
   <v name="MAGDIPOL">      0.00000000      0.00000000      0.00000000</v>
   <v name="AVECCONST">      0.00000000      0.00000000      0.00000000</v>
  </separator>
  <separator name="response functions" >
   <i type="logical" name="LADDER"> F  </i>
   <i type="logical" name="LRPAFORCE"> F  </i>
   <i type="logical" name="LFXC"> F  </i>
   <i type="logical" name="LHARTREE"> T  </i>
   <i type="int" name="IBSE">     0</i>
   <v type="int" name="KPOINT">    -1     0     0     0</v>
   <i type="logical" name="LTCTE"> F  </i>
   <i type="logical" name="LTETE"> F  </i>
   <i type="logical" name="LTRIPLET"> F  </i>
   <i type="logical" name="LFXCEPS"> F  </i>
   <i type="logical" name="LFXHEG"> F  </i>
   <i type="int" name="NATURALO">     2</i>
   <i type="logical" name="L2ORDER"> F  </i>
   <i type="logical" name="LMP2LT"> F  </i>
   <i type="logical" name="LUSEW"> F  </i>
   <i name="ENCUTGW">     -2.00000000</i>
   <i name="ENCUTGWSOFT">     -2.00000000</i>
   <i name="ENCUTLF">     -1.00000000</i>
   <i type="int" name="LMAXMP2">    -1</i>
   <i name="SCISSOR">      0.00000000</i>
   <i type="int" name="NOMEGA">     0</i>
   <i type="int" name="NOMEGAR">     0</i>
   <i type="int" name="NBANDSGW">    -1</i>
   <i type="int" name="NBANDSO">    -1</i>
   <i type="int" name="NBANDSV">    -1</i>
   <i type="int" name="NELM">   100</i>
   <i type="int" name="NELMHF">     1</i>
   <i type="int" name="DIM">     3</i>
   <i type="int" name="ANTIRES">     0</i>
   <i name="OMEGAMAX">    -30.00000000</i>
   <i name="OMEGAMIN">    -30.00000000</i>
   <i name="OMEGATL">   -200.00000000</i>
   <i type="int" name="OMEGAGRID">   140</i>
   <i name="CSHIFT">     -0.10000000</i>
   <i type="logical" name="SELFENERGY"> F  </i>
   <i type="logical" name="LSPECTRAL"> F  </i>
   <i type="logical" name="LSPECTRALGW"> F  </i>
   <i type="logical" name="LSINGLES"> F  </i>
   <i type="logical" name="LFERMIGW"> F  </i>
   <i type="logical" name="ODDONLYGW"> F  </i>
   <i type="logical" name="EVENONLYGW"> F  </i>
   <i type="int" name="NKREDLFX">     1</i>
   <i type="int" name="NKREDLFY">     1</i>
   <i type="int" name="NKREDLFZ">     1</i>
   <i type="int" name="MAXMEM">  2800</i>
   <i type="int" name="TELESCOPE">     0</i>
   <i type="int" name="TAUPAR">     1</i>
   <i type="int" name="OMEGAPAR">    -1</i>
   <i name="LAMBDA">      1.00000000</i>
  </separator>
  <separator name="External order field" >
   <i name="OFIELD_KAPPA">      0.00000000</i>
   <v name="OFIELD_K">      0.00000000      0.00000000      0.00000000</v>
   <i name="OFIELD_Q6_NEAR">      0.00000000</i>
   <i name="OFIELD_Q6_FAR">      0.00000000</i>
   <i name="OFIELD_A">      0.00000000</i>
  </separator>
 </parameters>
 <atominfo>
  <atoms>     104 </atoms>
  <types>       2 </types>
  <array name="atoms" >
   <dimension dim="1">ion</dimension>
   <field type="string">element</field>
   <field type="int">atomtype</field>
   <set>
    <rc><c>Ni</c><c>   1</c></rc>
    <rc><c>Ni</c><c>   1</c></rc>
    <rc><c>Ni</c><c>   1</c></rc>
    <rc><c>Ni</c><c>   1</c></rc>
    <rc><c>Ni</c><c>   1</c></rc>
    <rc><c>Ni</c><c>   1</c></rc>
    <rc><c>Ni</c><c>   1</c></rc>
    <rc><c>Ni</c><c>   1</c></rc>
    <rc><c>Ni</c><c>   1</c></rc>
    <rc><c>Ni</c><c>   1</c></rc>
    <rc><c>Ni</c><c>   1</c></rc>
    <rc><c>Ni</c><c>   1</c></rc>
    <rc><c>Ni</c><c>   1</c></rc>
    <rc><c>Ni</c><c>   1</c></rc>
    <rc><c>Ni</c><c>   1</c></rc>
    <rc><c>Ni</c><c>   1</c></rc>
    <rc><c>Ni</c><c>   1</c></rc>
    <rc><c>Ni</c><c>   1</c></rc>
    <rc><c>Ni</c><c>   1</c></rc>
    <rc><c>Ni</c><c>   1</c></rc>
    <rc><c>Ni</c><c>   1</c></rc>
    <rc><c>Ni</c><c>   1</c></rc>
    <rc><c>Ni</c><c>   1</c></rc>
    <rc><c>Ni</c><c>   1</c></rc>
    <rc><c>Ni</c><c>   1</c></rc>
    <rc><c>Ni</c><c>   1</c></rc>
    <rc><c>Ni</c><c>   1</c></rc>
    <rc><c>Ni</c><c>   1</c></rc>
    <rc><c>Ni</c><c>   1</c></rc>
    <rc><c>Ni</c><c>   1</c></rc>
    <rc><c>Ni</c><c>   1</c></rc>
    <rc><c>Ni</c><c>   1</c></rc>
    <rc><c>Ni</c><c>   1</c></rc>
    <rc><c>Ni</c><c>   1</c></rc>
    <rc><c>Ni</c><c>   1</c></rc>
    <rc><c>Ni</c><c>   1</c></rc>
    <rc><c>Ni</c><c>   1</c></rc>
    <rc><c>Ni</c><c>   1</c></rc>
    <rc><c>Ni</c><c>   1</c></rc>
    <rc><c>Ni</c><c>   1</c></rc>
    <rc><c>Ni</c><c>   1</c></rc>
    <rc><c>Ni</c><c>   1</c></rc>
    <rc><c>Ni</c><c>   1</c></rc>
    <rc><c>Ni</c><c>   1</c></rc>
    <rc><c>Ni</c><c>   1</c></rc>
    <rc><c>Ni</c><c>   1</c></rc>
    <rc><c>Ni</c><c>   1</c></rc>
    <rc><c>Ni</c><c>   1</c></rc>
    <rc><c>Ni</c><c>   1</c></rc>
    <rc><c>Ni</c><c>   1</c></rc>
    <rc><c>Ni</c><c>   1</c></rc>
    <rc><c>Ni</c><c>   1</c></rc>
    <rc><c>S </c><c>   2</c></rc>
    <rc><c>S </c><c>   2</c></rc>
    <rc><c>S </c><c>   2</c></rc>
    <rc><c>S </c><c>   2</c></rc>
    <rc><c>S </c><c>   2</c></rc>
    <rc><c>S </c><c>   2</c></rc>
    <rc><c>S </c><c>   2</c></rc>
    <rc><c>S </c><c>   2</c></rc>
    <rc><c>S </c><c>   2</c></rc>
    <rc><c>S </c><c>   2</c></rc>
    <rc><c>S </c><c>   2</c></rc>
    <rc><c>S </c><c>   2</c></rc>
    <rc><c>S </c><c>   2</c></rc>
    <rc><c>S </c><c>   2</c></rc>
    <rc><c>S </c><c>   2</c></rc>
    <rc><c>S </c><c>   2</c></rc>
    <rc><c>S </c><c>   2</c></rc>
    <rc><c>S </c><c>   2</c></rc>
    <rc><c>S </c><c>   2</c></rc>
    <rc><c>S </c><c>   2</c></rc>
    <rc><c>S </c><c>   2</c></rc>
    <rc><c>S </c><c>   2</c></rc>
    <rc><c>S </c><c>   2</c></rc>
    <rc><c>S </c><c>   2</c></rc>
    <rc><c>S </c><c>   2</c></rc>
    <rc><c>S </c><c>   2</c></rc>
    <rc><c>S </c><c>   2</c></rc>
    <rc><c>S </c><c>   2</c></rc>
    <rc><c>S </c><c>   2</c></rc>
    <rc><c>S </c><c>   2</c></rc>
    <rc><c>S </c><c>   2</c></rc>
    <rc><c>S </c><c>   2</c></rc>
    <rc><c>S </c><c>   2</c></rc>
    <rc><c>S </c><c>   2</c></rc>
    <rc><c>S </c><c>   2</c></rc>
    <rc><c>S </c><c>   2</c></rc>
    <rc><c>S </c><c>   2</c></rc>
    <rc><c>S </c><c>   2</c></rc>
    <rc><c>S </c><c>   2</c></rc>
    <rc><c>S </c><c>   2</c></rc>
    <rc><c>S </c><c>   2</c></rc>
    <rc><c>S </c><c>   2</c></rc>
    <rc><c>S </c><c>   2</c></rc>
    <rc><c>S </c><c>   2</c></rc>
    <rc><c>S </c><c>   2</c></rc>
    <rc><c>S </c><c>   2</c></rc>
    <rc><c>S </c><c>   2</c></rc>
    <rc><c>S </c><c>   2</c></rc>
    <rc><c>S </c><c>   2</c></rc>
    <rc><c>S </c><c>   2</c></rc>
    <rc><c>S </c><c>   2</c></rc>
    <rc><c>S </c><c>   2</c></rc>
   </set>
  </array>
  <array name="atomtypes" >
   <dimension dim="1">type</dimension>
   <field type="int">atomspertype</field>
   <field type="string">element</field>
   <field>mass</field>
   <field>valence</field>
   <field type="string">pseudopotential</field>
   <set>
    <rc><c>  52</c><c>Ni</c><c>     58.69000000</c><c>     16.00000000</c><c>  PAW_PBE Ni_pv 06Sep2000               </c></rc>
    <rc><c>  52</c><c>S </c><c>     32.06600000</c><c>      6.00000000</c><c>  PAW_PBE S 06Sep2000                   </c></rc>
   </set>
  </array>
 </atominfo>
 <structure name="initialpos" >
  <crystal>
   <varray name="basis" >
    <v>      11.25646304       0.00000000       0.00000000 </v>
    <v>       5.04456212      10.06282034       0.00000000 </v>
    <v>       0.00000000       0.00000000      22.88364939 </v>
   </varray>
   <i name="volume">   2592.07135999 </i>
   <varray name="rec_basis" >
    <v>       0.08883785      -0.04453504       0.00000000 </v>
    <v>       0.00000000       0.09937572       0.00000000 </v>
    <v>       0.00000000       0.00000000       0.04369932 </v>
   </varray>
  </crystal>
  <varray name="positions" >
   <v>       0.26092070       0.47878036       0.29050611 </v>
   <v>       0.35488056       0.38482049       0.41880986 </v>
   <v>       0.16696083       0.07274024       0.16220237 </v>
   <v>       0.21376316       0.52401955       0.04418689 </v>
   <v>       0.27423906       0.33335899       0.12830375 </v>
   <v>       0.36819893       0.23939913       0.25660749 </v>
   <v>       0.46215880       0.14543926       0.38491124 </v>
   <v>       0.00030194       0.37150212       0.25660749 </v>
   <v>       0.09426181       0.27754226       0.38491124 </v>
   <v>       0.22912084       0.15218114       0.46863717 </v>
   <v>       0.40634206       0.46546199       0.12830375 </v>
   <v>       0.76092070       0.47878036       0.29050611 </v>
   <v>       0.85488056       0.38482049       0.41880986 </v>
   <v>       0.54244590       0.21909266       0.09045533 </v>
   <v>       0.66696083       0.07274024       0.16220237 </v>
   <v>       0.55962568       0.04560138       0.50063394 </v>
   <v>       0.68067330       0.33487554       0.03820154 </v>
   <v>       0.77423906       0.33335899       0.12830375 </v>
   <v>       0.86819893       0.23939913       0.25660749 </v>
   <v>       0.96215880       0.14543926       0.38491124 </v>
   <v>       0.50030194       0.37150212       0.25660749 </v>
   <v>       0.59426181       0.27754226       0.38491124 </v>
   <v>       0.68984110       0.19396652       0.49498599 </v>
   <v>       0.90634206       0.46546199       0.12830375 </v>
   <v>       0.94293463       0.00329244       0.03130838 </v>
   <v>       0.26092070       0.97878036       0.29050611 </v>
   <v>       0.35488056       0.88482049       0.41880986 </v>
   <v>       0.44177520       0.79776724       0.53277527 </v>
   <v>       0.04244544       0.71909076       0.09045382 </v>
   <v>       0.16696083       0.57274024       0.16220237 </v>
   <v>       0.18067451       0.83487484       0.03820146 </v>
   <v>       0.27423907       0.83335899       0.12830375 </v>
   <v>       0.36819893       0.73939913       0.25660749 </v>
   <v>       0.46215880       0.64543926       0.38491124 </v>
   <v>       0.00030194       0.87150212       0.25660749 </v>
   <v>       0.09426181       0.77754226       0.38491124 </v>
   <v>       0.20418162       0.65972296       0.47563195 </v>
   <v>       0.40634206       0.96546199       0.12830375 </v>
   <v>       0.44293364       0.50329374       0.03130844 </v>
   <v>       0.76092070       0.97878036       0.29050611 </v>
   <v>       0.85488056       0.88482049       0.41880986 </v>
   <v>       0.82148331       0.88408093       0.51834441 </v>
   <v>       0.66696083       0.57274024       0.16220237 </v>
   <v>       0.54324934       0.55056763       0.49465504 </v>
   <v>       0.71376280       0.02402038       0.04418676 </v>
   <v>       0.77423907       0.83335899       0.12830375 </v>
   <v>       0.86819893       0.73939913       0.25660749 </v>
   <v>       0.96215880       0.64543926       0.38491124 </v>
   <v>       0.50030194       0.87150212       0.25660749 </v>
   <v>       0.59426181       0.77754226       0.38491124 </v>
   <v>       0.68623226       0.69565478       0.49676259 </v>
   <v>       0.90634206       0.96546199       0.12830375 </v>
   <v>       0.07287763       0.16682343       0.30639927 </v>
   <v>       0.16708863       0.06281573       0.40498647 </v>
   <v>       0.38495789       0.35474317       0.04979178 </v>
   <v>       0.47891775       0.26078330       0.17809552 </v>
   <v>       0.28857428       0.46936813       0.50153163 </v>
   <v>       0.03313859       0.31004668       0.46846998 </v>
   <v>       0.43627354       0.47164251       0.34956450 </v>
   <v>       0.26146646       0.15681602       0.11202103 </v>
   <v>       0.34231368       0.06560239       0.22126075 </v>
   <v>       0.08013882       0.49134724       0.09295701 </v>
   <v>       0.17409868       0.39738738       0.22126075 </v>
   <v>       0.26805855       0.30342751       0.34956450 </v>
   <v>       0.38399076       0.20559965       0.46760423 </v>
   <v>       0.57287763       0.16682343       0.30639927 </v>
   <v>       0.66683750       0.07286357       0.43470302 </v>
   <v>       0.83176483       0.39717975       0.05708622 </v>
   <v>       0.97891775       0.26078330       0.17809552 </v>
   <v>       0.60311685       0.63177602       0.56201947 </v>
   <v>       0.53852418       0.37390474       0.46450320 </v>
   <v>       0.93627354       0.47164251       0.34956450 </v>
   <v>       0.74835381       0.15956225       0.09295701 </v>
   <v>       0.84231368       0.06560239       0.22126075 </v>
   <v>       0.57787220       0.48706128       0.09864608 </v>
   <v>       0.67409868       0.39738738       0.22126075 </v>
   <v>       0.76805855       0.30342751       0.34956450 </v>
   <v>       0.84479412       0.22195528       0.45906725 </v>
   <v>       0.07287764       0.66682343       0.30639927 </v>
   <v>       0.16511027       0.56688771       0.40594997 </v>
   <v>       0.33176584       0.89717912       0.05708618 </v>
   <v>       0.47891775       0.76078330       0.17809552 </v>
   <v>       0.27925881       0.97144311       0.50705334 </v>
   <v>       0.01830046       0.82942507       0.47325281 </v>
   <v>       0.43627354       0.97164251       0.34956450 </v>
   <v>       0.24835381       0.65956226       0.09295701 </v>
   <v>       0.34231368       0.56560239       0.22126075 </v>
   <v>       0.07787309       0.98706070       0.09864610 </v>
   <v>       0.17409868       0.89738738       0.22126075 </v>
   <v>       0.26805855       0.80342751       0.34956450 </v>
   <v>       0.36201842       0.70946764       0.47786825 </v>
   <v>       0.57287764       0.66682343       0.30639927 </v>
   <v>       0.66683750       0.57286357       0.43470302 </v>
   <v>       0.88495789       0.85474317       0.04979178 </v>
   <v>       0.97891775       0.76078330       0.17809552 </v>
   <v>       0.69808649       0.05638358       0.55615445 </v>
   <v>       0.53023342       0.87768264       0.47786825 </v>
   <v>       0.93627354       0.97164251       0.34956450 </v>
   <v>       0.76146657       0.65681610       0.11202135 </v>
   <v>       0.84231368       0.56560239       0.22126075 </v>
   <v>       0.58013882       0.99134724       0.09295701 </v>
   <v>       0.67409868       0.89738738       0.22126075 </v>
   <v>       0.76805855       0.80342751       0.34956450 </v>
   <v>       0.84872972       0.72242651       0.46525040 </v>
  </varray>
 </structure>
 <calculation>
  <scstep>
   <time name="dav">   15.73   15.73</time>
   <time name="total">   16.12   16.13</time>
   <energy>
    <i name="alphaZ">   2994.23548884 </i>
    <i name="ewald"> 338158.91429027 </i>
    <i name="hartreedc">-515683.31072909 </i>
    <i name="XCdc">   5316.41805306 </i>
    <i name="pawpsdc"> 162831.54814933 </i>
    <i name="pawaedc">-169926.62828172 </i>
    <i name="eentropy">     -0.57446705 </i>
    <i name="bandstr">  -5210.15643062 </i>
    <i name="atom"> 196448.20729987 </i>
    <i name="e_fr_energy">  14928.65337288 </i>
    <i name="e_wo_entrp">  14929.22783993 </i>
    <i name="e_0_energy">  14928.94060640 </i>
   </energy>
  </scstep>
  <scstep>
   <time name="dav">   13.97   13.97</time>
   <time name="total">   13.97   13.97</time>
   <energy>
    <i name="e_fr_energy">   1000.75917875 </i>
    <i name="e_wo_entrp">   1001.70958604 </i>
    <i name="e_0_energy">   1001.23438240 </i>
   </energy>
  </scstep>
  <scstep>
   <time name="dav">   14.77   14.78</time>
   <time name="total">   14.77   14.78</time>
   <energy>
    <i name="e_fr_energy">   -476.44649930 </i>
    <i name="e_wo_entrp">   -475.01800592 </i>
    <i name="e_0_energy">   -475.73225261 </i>
   </energy>
  </scstep>
  <scstep>
   <time name="dav">   14.94   14.94</time>
   <time name="total">   14.94   14.94</time>
   <energy>
    <i name="e_fr_energy">   -572.58617898 </i>
    <i name="e_wo_entrp">   -571.09667209 </i>
    <i name="e_0_energy">   -571.84142554 </i>
   </energy>
  </scstep>
  <scstep>
   <time name="dav">   16.95   16.95</time>
   <time name="total">   17.40   17.40</time>
   <energy>
    <i name="e_fr_energy">   -576.79144133 </i>
    <i name="e_wo_entrp">   -575.30283220 </i>
    <i name="e_0_energy">   -576.04713677 </i>
   </energy>
  </scstep>
  <scstep>
   <time name="dav">   16.20   16.20</time>
   <time name="total">   17.02   17.03</time>
   <energy>
    <i name="e_fr_energy">   -679.65005673 </i>
    <i name="e_wo_entrp">   -678.58547829 </i>
    <i name="e_0_energy">   -679.11776751 </i>
   </energy>
  </scstep>
  <scstep>
   <time name="dav">   14.92   14.92</time>
   <time name="total">   15.74   15.75</time>
   <energy>
    <i name="e_fr_energy">   -540.53857454 </i>
    <i name="e_wo_entrp">   -539.58101214 </i>
    <i name="e_0_energy">   -540.05979334 </i>
   </energy>
  </scstep>
  <scstep>
   <time name="dav">   16.93   16.94</time>
   <time name="total">   17.76   17.77</time>
   <energy>
    <i name="e_fr_energy">   -659.83560221 </i>
    <i name="e_wo_entrp">   -658.66073400 </i>
    <i name="e_0_energy">   -659.24816810 </i>
   </energy>
  </scstep>
  <scstep>
   <time name="dav">   16.83   16.83</time>
   <time name="total">   17.92   17.92</time>
   <energy>
    <i name="e_fr_energy">   -596.84959374 </i>
    <i name="e_wo_entrp">   -595.09867200 </i>
    <i name="e_0_energy">   -595.97413287 </i>
   </energy>
  </scstep>
  <scstep>
   <time name="dav">   16.93   16.93</time>
   <time name="total">   17.76   17.76</time>
   <energy>
    <i name="e_fr_energy">   -598.80592430 </i>
    <i name="e_wo_entrp">   -596.95706487 </i>
    <i name="e_0_energy">   -597.88149459 </i>
   </energy>
  </scstep>
  <scstep>
   <time name="dav">   17.34   17.34</time>
   <time name="total">   18.16   18.16</time>
   <energy>
    <i name="e_fr_energy">   -603.03053103 </i>
    <i name="e_wo_entrp">   -601.52020032 </i>
    <i name="e_0_energy">   -602.27536568 </i>
   </energy>
  </scstep>
  <scstep>
   <time name="dav">   17.44   17.45</time>
   <time name="total">   18.54   18.54</time>
   <energy>
    <i name="e_fr_energy">   -568.90070770 </i>
    <i name="e_wo_entrp">   -567.68713435 </i>
    <i name="e_0_energy">   -568.29392103 </i>
   </energy>
  </scstep>
  <scstep>
   <time name="dav">   16.84   16.84</time>
   <time name="total">   17.67   17.67</time>
   <energy>
    <i name="e_fr_energy">   -546.56445253 </i>
    <i name="e_wo_entrp">   -545.45565884 </i>
    <i name="e_0_energy">   -546.01005569 </i>
   </energy>
  </scstep>
  <scstep>
   <time name="dav">   16.81   16.82</time>
   <time name="total">   17.64   17.65</time>
   <energy>
    <i name="e_fr_energy">   -541.05404740 </i>
    <i name="e_wo_entrp">   -539.86855224 </i>
    <i name="e_0_energy">   -540.46129982 </i>
   </energy>
  </scstep>
  <scstep>
   <time name="dav">   17.35   17.35</time>
   <time name="total">   18.19   18.19</time>
   <energy>
    <i name="e_fr_energy">   -527.03823404 </i>
    <i name="e_wo_entrp">   -525.86687507 </i>
    <i name="e_0_energy">   -526.45255456 </i>
   </energy>
  </scstep>
  <scstep>
   <time name="dav">   17.64   17.65</time>
   <time name="total">   18.47   18.47</time>
   <energy>
    <i name="e_fr_energy">   -521.05702141 </i>
    <i name="e_wo_entrp">   -519.90967152 </i>
    <i name="e_0_energy">   -520.48334647 </i>
   </energy>
  </scstep>
  <scstep>
   <time name="dav">   17.39   17.39</time>
   <time name="total">   18.21   18.22</time>
   <energy>
    <i name="e_fr_energy">   -518.38799082 </i>
    <i name="e_wo_entrp">   -517.22363696 </i>
    <i name="e_0_energy">   -517.80581389 </i>
   </energy>
  </scstep>
  <scstep>
   <time name="dav">   16.89   16.89</time>
   <time name="total">   17.73   17.73</time>
   <energy>
    <i name="e_fr_energy">   -516.81230536 </i>
    <i name="e_wo_entrp">   -515.64136101 </i>
    <i name="e_0_energy">   -516.22683319 </i>
   </energy>
  </scstep>
  <scstep>
   <time name="dav">   17.75   17.80</time>
   <time name="total">   18.58   18.64</time>
   <energy>
    <i name="e_fr_energy">   -514.98356420 </i>
    <i name="e_wo_entrp">   -513.79896363 </i>
    <i name="e_0_energy">   -514.39126391 </i>
   </energy>
  </scstep>
  <scstep>
   <time name="dav">   17.39   17.39</time>
   <time name="total">   18.22   18.23</time>
   <energy>
    <i name="e_fr_energy">   -512.88292211 </i>
    <i name="e_wo_entrp">   -511.68043446 </i>
    <i name="e_0_energy">   -512.28167828 </i>
   </energy>
  </scstep>
  <scstep>
   <time name="dav">   17.45   17.46</time>
   <time name="total">   18.45   18.45</time>
   <energy>
    <i name="e_fr_energy">   -510.22310729 </i>
    <i name="e_wo_entrp">   -508.99156534 </i>
    <i name="e_0_energy">   -509.60733632 </i>
   </energy>
  </scstep>
  <scstep>
   <time name="dav">   17.38   17.38</time>
   <time name="total">   18.27   18.27</time>
   <energy>
    <i name="e_fr_energy">   -509.01483221 </i>
    <i name="e_wo_entrp">   -507.74697066 </i>
    <i name="e_0_energy">   -508.38090143 </i>
   </energy>
  </scstep>
  <scstep>
   <time name="dav">   16.75   16.75</time>
   <time name="total">   17.59   17.59</time>
   <energy>
    <i name="e_fr_energy">   -509.08141435 </i>
    <i name="e_wo_entrp">   -507.82780915 </i>
    <i name="e_0_energy">   -508.45461175 </i>
   </energy>
  </scstep>
  <scstep>
   <time name="dav">   17.14   17.14</time>
   <time name="total">   17.99   17.99</time>
   <energy>
    <i name="e_fr_energy">   -508.89049673 </i>
    <i name="e_wo_entrp">   -507.62700137 </i>
    <i name="e_0_energy">   -508.25874905 </i>
   </energy>
  </scstep>
  <scstep>
   <time name="dav">   16.68   16.68</time>
   <time name="total">   17.76   17.77</time>
   <energy>
    <i name="e_fr_energy">   -508.52322825 </i>
    <i name="e_wo_entrp">   -507.25546885 </i>
    <i name="e_0_energy">   -507.88934855 </i>
   </energy>
  </scstep>
  <scstep>
   <time name="dav">   18.87   18.88</time>
   <time name="total">   19.72   19.72</time>
   <energy>
    <i name="e_fr_energy">   -507.62394856 </i>
    <i name="e_wo_entrp">   -506.32043316 </i>
    <i name="e_0_energy">   -506.97219086 </i>
   </energy>
  </scstep>
  <scstep>
   <time name="dav">   17.31   17.32</time>
   <time name="total">   18.37   18.38</time>
   <energy>
    <i name="e_fr_energy">   -507.29865607 </i>
    <i name="e_wo_entrp">   -505.98214160 </i>
    <i name="e_0_energy">   -506.64039883 </i>
   </energy>
  </scstep>
  <scstep>
   <time name="dav">   16.43   16.43</time>
   <time name="total">   17.27   17.27</time>
   <energy>
    <i name="e_fr_energy">   -507.28025087 </i>
    <i name="e_wo_entrp">   -505.94887577 </i>
    <i name="e_0_energy">   -506.61456332 </i>
   </energy>
  </scstep>
  <scstep>
   <time name="dav">   14.18   14.19</time>
   <time name="total">   15.20   15.20</time>
   <energy>
    <i name="e_fr_energy">   -507.27498292 </i>
    <i name="e_wo_entrp">   -505.94856241 </i>
    <i name="e_0_energy">   -506.61177266 </i>
   </energy>
  </scstep>
  <scstep>
   <time name="dav">   15.30   15.31</time>
   <time name="total">   16.40   16.40</time>
   <energy>
    <i name="e_fr_energy">   -507.27455307 </i>
    <i name="e_wo_entrp">   -505.94601999 </i>
    <i name="e_0_energy">   -506.61028653 </i>
   </energy>
  </scstep>
  <scstep>
   <time name="dav">   16.83   16.83</time>
   <time name="total">   17.69   17.69</time>
   <energy>
    <i name="e_fr_energy">   -507.27433749 </i>
    <i name="e_wo_entrp">   -505.94340464 </i>
    <i name="e_0_energy">   -506.60887106 </i>
   </energy>
  </scstep>
  <scstep>
   <time name="dav">   17.29   17.29</time>
   <time name="total">   18.16   18.16</time>
   <energy>
    <i name="e_fr_energy">   -507.29650265 </i>
    <i name="e_wo_entrp">   -505.96418025 </i>
    <i name="e_0_energy">   -506.63034145 </i>
   </energy>
  </scstep>
  <scstep>
   <time name="dav">   18.42   18.42</time>
   <time name="total">   19.31   19.31</time>
   <energy>
    <i name="e_fr_energy">   -507.26322059 </i>
    <i name="e_wo_entrp">   -505.94199511 </i>
    <i name="e_0_energy">   -506.60260785 </i>
   </energy>
  </scstep>
  <scstep>
   <time name="dav">   17.04   17.04</time>
   <time name="total">   17.91   17.91</time>
   <energy>
    <i name="e_fr_energy">   -507.26588005 </i>
    <i name="e_wo_entrp">   -505.94550593 </i>
    <i name="e_0_energy">   -506.60569299 </i>
   </energy>
  </scstep>
  <scstep>
   <time name="dav">   16.92   16.92</time>
   <time name="total">   17.80   17.81</time>
   <energy>
    <i name="e_fr_energy">   -507.26466957 </i>
    <i name="e_wo_entrp">   -505.94547226 </i>
    <i name="e_0_energy">   -506.60507092 </i>
   </energy>
  </scstep>
  <scstep>
   <time name="dav">   15.10   15.11</time>
   <time name="total">   15.99   15.99</time>
   <energy>
    <i name="e_fr_energy">   -507.26450266 </i>
    <i name="e_wo_entrp">   -505.94415693 </i>
    <i name="e_0_energy">   -506.60432979 </i>
   </energy>
  </scstep>
  <scstep>
   <time name="dav">   14.61   14.62</time>
   <time name="total">   15.50   15.50</time>
   <energy>
    <i name="e_fr_energy">   -507.26466883 </i>
    <i name="e_wo_entrp">   -505.94282688 </i>
    <i name="e_0_energy">   -506.60374786 </i>
   </energy>
  </scstep>
  <scstep>
   <time name="dav">   14.49   14.49</time>
   <time name="total">   15.39   15.39</time>
   <energy>
    <i name="e_fr_energy">   -507.26444513 </i>
    <i name="e_wo_entrp">   -505.94334545 </i>
    <i name="e_0_energy">   -506.60389529 </i>
   </energy>
  </scstep>
  <scstep>
   <time name="dav">   13.02   13.02</time>
   <time name="total">   13.92   13.93</time>
   <energy>
    <i name="e_fr_energy">   -507.26472286 </i>
    <i name="e_wo_entrp">   -505.94306873 </i>
    <i name="e_0_energy">   -506.60389580 </i>
   </energy>
  </scstep>
  <scstep>
   <time name="dav">   13.44   13.45</time>
   <time name="total">   14.48   14.48</time>
   <energy>
    <i name="e_fr_energy">   -507.26513526 </i>
    <i name="e_wo_entrp">   -505.94310679 </i>
    <i name="e_0_energy">   -506.60412103 </i>
   </energy>
  </scstep>
  <scstep>
   <time name="dav">   10.19   10.20</time>
   <time name="total">   11.10   11.10</time>
   <energy>
    <i name="e_fr_energy">   -507.26531659 </i>
    <i name="e_wo_entrp">   -505.94305450 </i>
    <i name="e_0_energy">   -506.60418554 </i>
   </energy>
  </scstep>
  <scstep>
   <time name="dav">    9.82    9.82</time>
   <time name="total">   10.74   10.74</time>
   <energy>
    <i name="e_fr_energy">   -507.26555620 </i>
    <i name="e_wo_entrp">   -505.94368406 </i>
    <i name="e_0_energy">   -506.60462013 </i>
   </energy>
  </scstep>
  <scstep>
   <time name="dav">    9.63    9.63</time>
   <time name="total">   10.55   10.55</time>
   <energy>
    <i name="e_fr_energy">   -507.26569635 </i>
    <i name="e_wo_entrp">   -505.94398318 </i>
    <i name="e_0_energy">   -506.60483977 </i>
   </energy>
  </scstep>
  <scstep>
   <time name="dav">    9.70    9.70</time>
   <time name="total">   10.63   10.63</time>
   <energy>
    <i name="e_fr_energy">   -507.26601341 </i>
    <i name="e_wo_entrp">   -505.94448649 </i>
    <i name="e_0_energy">   -506.60524995 </i>
   </energy>
  </scstep>
  <scstep>
   <time name="dav">    9.65    9.65</time>
   <time name="total">   10.58   10.59</time>
   <energy>
    <i name="e_fr_energy">   -507.26625458 </i>
    <i name="e_wo_entrp">   -505.94475719 </i>
    <i name="e_0_energy">   -506.60550589 </i>
   </energy>
  </scstep>
  <scstep>
   <time name="dav">    9.80    9.80</time>
   <time name="total">   10.74   10.74</time>
   <energy>
    <i name="e_fr_energy">   -507.26655872 </i>
    <i name="e_wo_entrp">   -505.94462826 </i>
    <i name="e_0_energy">   -506.60559349 </i>
   </energy>
  </scstep>
  <scstep>
   <time name="dav">    9.61    9.62</time>
   <time name="total">   10.56   10.56</time>
   <energy>
    <i name="e_fr_energy">   -507.26668934 </i>
    <i name="e_wo_entrp">   -505.94478637 </i>
    <i name="e_0_energy">   -506.60573785 </i>
   </energy>
  </scstep>
  <scstep>
   <time name="dav">    9.63    9.63</time>
   <time name="total">   10.58   10.59</time>
   <energy>
    <i name="e_fr_energy">   -507.26694860 </i>
    <i name="e_wo_entrp">   -505.94476184 </i>
    <i name="e_0_energy">   -506.60585522 </i>
   </energy>
  </scstep>
  <scstep>
   <time name="dav">    9.56    9.57</time>
   <time name="total">   10.52   10.52</time>
   <energy>
    <i name="e_fr_energy">   -507.26713286 </i>
    <i name="e_wo_entrp">   -505.94496856 </i>
    <i name="e_0_energy">   -506.60605071 </i>
   </energy>
  </scstep>
  <scstep>
   <time name="dav">    9.74    9.74</time>
   <time name="total">   10.70   10.71</time>
   <energy>
    <i name="e_fr_energy">   -507.26737823 </i>
    <i name="e_wo_entrp">   -505.94518022 </i>
    <i name="e_0_energy">   -506.60627922 </i>
   </energy>
  </scstep>
  <scstep>
   <time name="dav">    9.35    9.36</time>
   <time name="total">    9.74    9.75</time>
   <energy>
    <i name="alphaZ">   2994.23548884 </i>
    <i name="ewald"> 338158.91429027 </i>
    <i name="hartreedc">-514648.12695835 </i>
    <i name="XCdc">   5272.62827120 </i>
    <i name="pawpsdc"> 200329.12975971 </i>
    <i name="pawaedc">-207529.66361478 </i>
    <i name="eentropy">     -1.32208071 </i>
    <i name="bandstr"> -21531.26984875 </i>
    <i name="atom"> 196448.20729987 </i>
    <i name="e_fr_energy">   -507.26739270 </i>
    <i name="e_wo_entrp">   -505.94531199 </i>
    <i name="e_0_energy">   -506.60635234 </i>
   </energy>
  </scstep>
  <structure>
   <crystal>
    <varray name="basis" >
     <v>      11.25646304       0.00000000       0.00000000 </v>
     <v>       5.04456212      10.06282034       0.00000000 </v>
     <v>       0.00000000       0.00000000      22.88364939 </v>
    </varray>
    <i name="volume">   2592.07135999 </i>
    <varray name="rec_basis" >
     <v>       0.08883785      -0.04453504       0.00000000 </v>
     <v>       0.00000000       0.09937572       0.00000000 </v>
     <v>       0.00000000       0.00000000       0.04369932 </v>
    </varray>
   </crystal>
   <varray name="positions" >
    <v>       0.26092070       0.47878036       0.29050611 </v>
    <v>       0.35488056       0.38482049       0.41880986 </v>
    <v>       0.16696083       0.07274024       0.16220237 </v>
    <v>       0.21376316       0.52401955       0.04418689 </v>
    <v>       0.27423906       0.33335899       0.12830375 </v>
    <v>       0.36819893       0.23939913       0.25660749 </v>
    <v>       0.46215880       0.14543926       0.38491124 </v>
    <v>       0.00030194       0.37150212       0.25660749 </v>
    <v>       0.09426181       0.27754226       0.38491124 </v>
    <v>       0.22912084       0.15218114       0.46863717 </v>
    <v>       0.40634206       0.46546199       0.12830375 </v>
    <v>       0.76092070       0.47878036       0.29050611 </v>
    <v>       0.85488056       0.38482049       0.41880986 </v>
    <v>       0.54244590       0.21909266       0.09045533 </v>
    <v>       0.66696083       0.07274024       0.16220237 </v>
    <v>       0.55962568       0.04560138       0.50063394 </v>
    <v>       0.68067330       0.33487554       0.03820154 </v>
    <v>       0.77423906       0.33335899       0.12830375 </v>
    <v>       0.86819893       0.23939913       0.25660749 </v>
    <v>       0.96215880       0.14543926       0.38491124 </v>
    <v>       0.50030194       0.37150212       0.25660749 </v>
    <v>       0.59426181       0.27754226       0.38491124 </v>
    <v>       0.68984110       0.19396652       0.49498599 </v>
    <v>       0.90634206       0.46546199       0.12830375 </v>
    <v>       0.94293463       0.00329244       0.03130838 </v>
    <v>       0.26092070       0.97878036       0.29050611 </v>
    <v>       0.35488056       0.88482049       0.41880986 </v>
    <v>       0.44177520       0.79776724       0.53277527 </v>
    <v>       0.04244544       0.71909076       0.09045382 </v>
    <v>       0.16696083       0.57274024       0.16220237 </v>
    <v>       0.18067451       0.83487484       0.03820146 </v>
    <v>       0.27423907       0.83335899       0.12830375 </v>
    <v>       0.36819893       0.73939913       0.25660749 </v>
    <v>       0.46215880       0.64543926       0.38491124 </v>
    <v>       0.00030194       0.87150212       0.25660749 </v>
    <v>       0.09426181       0.77754226       0.38491124 </v>
    <v>       0.20418162       0.65972296       0.47563195 </v>
    <v>       0.40634206       0.96546199       0.12830375 </v>
    <v>       0.44293364       0.50329374       0.03130844 </v>
    <v>       0.76092070       0.97878036       0.29050611 </v>
    <v>       0.85488056       0.88482049       0.41880986 </v>
    <v>       0.82148331       0.88408093       0.51834441 </v>
    <v>       0.66696083       0.57274024       0.16220237 </v>
    <v>       0.54324934       0.55056763       0.49465504 </v>
    <v>       0.71376280       0.02402038       0.04418676 </v>
    <v>       0.77423907       0.83335899       0.12830375 </v>
    <v>       0.86819893       0.73939913       0.25660749 </v>
    <v>       0.96215880       0.64543926       0.38491124 </v>
    <v>       0.50030194       0.87150212       0.25660749 </v>
    <v>       0.59426181       0.77754226       0.38491124 </v>
    <v>       0.68623226       0.69565478       0.49676259 </v>
    <v>       0.90634206       0.96546199       0.12830375 </v>
    <v>       0.07287763       0.16682343       0.30639927 </v>
    <v>       0.16708863       0.06281573       0.40498647 </v>
    <v>       0.38495789       0.35474317       0.04979178 </v>
    <v>       0.47891775       0.26078330       0.17809552 </v>
    <v>       0.28857428       0.46936813       0.50153163 </v>
    <v>       0.03313859       0.31004668       0.46846998 </v>
    <v>       0.43627354       0.47164251       0.34956450 </v>
    <v>       0.26146646       0.15681602       0.11202103 </v>
    <v>       0.34231368       0.06560239       0.22126075 </v>
    <v>       0.08013882       0.49134724       0.09295701 </v>
    <v>       0.17409868       0.39738738       0.22126075 </v>
    <v>       0.26805855       0.30342751       0.34956450 </v>
    <v>       0.38399076       0.20559965       0.46760423 </v>
    <v>       0.57287763       0.16682343       0.30639927 </v>
    <v>       0.66683750       0.07286357       0.43470302 </v>
    <v>       0.83176483       0.39717975       0.05708622 </v>
    <v>       0.97891775       0.26078330       0.17809552 </v>
    <v>       0.60311685       0.63177602       0.56201947 </v>
    <v>       0.53852418       0.37390474       0.46450320 </v>
    <v>       0.93627354       0.47164251       0.34956450 </v>
    <v>       0.74835381       0.15956225       0.09295701 </v>
    <v>       0.84231368       0.06560239       0.22126075 </v>
    <v>       0.57787220       0.48706128       0.09864608 </v>
    <v>       0.67409868       0.39738738       0.22126075 </v>
    <v>       0.76805855       0.30342751       0.34956450 </v>
    <v>       0.84479412       0.22195528       0.45906725 </v>
    <v>       0.07287764       0.66682343       0.30639927 </v>
    <v>       0.16511027       0.56688771       0.40594997 </v>
    <v>       0.33176584       0.89717912       0.05708618 </v>
    <v>       0.47891775       0.76078330       0.17809552 </v>
    <v>       0.27925881       0.97144311       0.50705334 </v>
    <v>       0.01830046       0.82942507       0.47325281 </v>
    <v>       0.43627354       0.97164251       0.34956450 </v>
    <v>       0.24835381       0.65956226       0.09295701 </v>
    <v>       0.34231368       0.56560239       0.22126075 </v>
    <v>       0.07787309       0.98706070       0.09864610 </v>
    <v>       0.17409868       0.89738738       0.22126075 </v>
    <v>       0.26805855       0.80342751       0.34956450 </v>
    <v>       0.36201842       0.70946764       0.47786825 </v>
    <v>       0.57287764       0.66682343       0.30639927 </v>
    <v>       0.66683750       0.57286357       0.43470302 </v>
    <v>       0.88495789       0.85474317       0.04979178 </v>
    <v>       0.97891775       0.76078330       0.17809552 </v>
    <v>       0.69808649       0.05638358       0.55615445 </v>
    <v>       0.53023342       0.87768264       0.47786825 </v>
    <v>       0.93627354       0.97164251       0.34956450 </v>
    <v>       0.76146657       0.65681610       0.11202135 </v>
    <v>       0.84231368       0.56560239       0.22126075 </v>
    <v>       0.58013882       0.99134724       0.09295701 </v>
    <v>       0.67409868       0.89738738       0.22126075 </v>
    <v>       0.76805855       0.80342751       0.34956450 </v>
    <v>       0.84872972       0.72242651       0.46525040 </v>
   </varray>
  </structure>
  <varray name="forces" >
   <v>       0.07604609      -0.34797330      -0.10816967 </v>
   <v>       0.38375980      -0.54718291      -0.73422517 </v>
   <v>      -0.51055595       0.06937134       1.40171532 </v>
   <v>      -0.14412763       0.42832167      -1.56409892 </v>
   <v>       0.04204864       0.22013202       0.85964366 </v>
   <v>      -0.15306955      -0.10869373       0.13018217 </v>
   <v>       0.56568902      -0.43686017      -1.55643053 </v>
   <v>      -0.01948241       0.08657491      -0.03678468 </v>
   <v>       0.49850227      -0.01555911      -2.55650431 </v>
   <v>      -0.08301650       0.94315837       0.37998683 </v>
   <v>      -0.09606801      -0.31923756       2.09516842 </v>
   <v>       0.07763195      -0.16838273      -0.05668503 </v>
   <v>      -0.35334020       1.16981445      -1.28572714 </v>
   <v>      -0.04490041      -0.59305160      -0.75386724 </v>
   <v>      -0.12110393      -0.90536738       1.56066653 </v>
   <v>      -1.21608201      -0.57463524       0.42508707 </v>
   <v>      -0.54202093      -0.41815320      -1.08481243 </v>
   <v>       0.12903968      -0.65709192       3.39401035 </v>
   <v>       0.01577094       0.17532593       0.06576508 </v>
   <v>      -1.02390410      -0.36083792      -1.73172603 </v>
   <v>      -0.01561768       0.06479902       0.04701579 </v>
   <v>       0.14782790      -0.49894698      -1.68802316 </v>
   <v>       0.84639961       0.87688807       0.45475144 </v>
   <v>       0.93376875      -0.61241225       1.13027634 </v>
   <v>       0.06440926       0.60154912      -1.04057653 </v>
   <v>       0.08296222      -0.27273382      -0.08002025 </v>
   <v>       0.16841472      -0.32333953       0.36122437 </v>
   <v>       0.05719501       0.90274145       1.70192999 </v>
   <v>      -0.04735683      -0.60622832      -0.73977149 </v>
   <v>      -0.08707504      -0.91368662       1.53249103 </v>
   <v>      -0.56403490      -0.39197522      -1.07997078 </v>
   <v>       0.13083327      -0.67063184       3.41893843 </v>
   <v>       0.01124270       0.10239763       0.09568260 </v>
   <v>       0.23361141      -0.02480432      -0.10043220 </v>
   <v>       0.03298051       0.09627744       0.03205382 </v>
   <v>       0.15902276       0.49695542      -1.42612884 </v>
   <v>      -0.13263408       1.40052765       0.74388690 </v>
   <v>       0.92137883      -0.61194545       1.09081622 </v>
   <v>       0.06406172       0.59871060      -1.05878051 </v>
   <v>       0.09321189      -0.22010846      -0.08802630 </v>
   <v>      -0.64242037       0.88989770      -2.77171185 </v>
   <v>       0.62800454      -1.17372339       0.38296494 </v>
   <v>      -0.51123107       0.09527517       1.32699127 </v>
   <v>      -0.66884768      -1.80090223      -0.07465828 </v>
   <v>      -0.13688042       0.43491682      -1.58238686 </v>
   <v>       0.03449658       0.19909712       0.84953691 </v>
   <v>      -0.24202951      -0.03983255       0.11754015 </v>
   <v>      -1.13226122       0.03876794      -1.05992530 </v>
   <v>       0.02306533       0.06011034       0.03933923 </v>
   <v>      -0.09761138      -0.20708424      -0.26735712 </v>
   <v>       1.94490365       0.18708387       0.05030095 </v>
   <v>      -0.08237632      -0.33781779       2.14357677 </v>
   <v>      -0.21307675       0.24896782      -1.12494005 </v>
   <v>      -0.32575669      -0.39779213      -0.05584855 </v>
   <v>      -0.66890127      -0.61745113      -3.08170661 </v>
   <v>      -0.10571409       0.24011765       1.49622498 </v>
   <v>      -0.33224696      -0.86054732       2.42621508 </v>
   <v>       0.23234488       1.43531638       3.63784571 </v>
   <v>       0.34636585       0.21157383      -0.85098239 </v>
   <v>      -0.19941878       1.48974861      -2.18589099 </v>
   <v>       0.20625384      -0.07210861       0.53423302 </v>
   <v>      -1.93076104      -0.40166823       0.57119251 </v>
   <v>       0.08804754       0.11658548       0.19267402 </v>
   <v>      -0.04951400      -0.05243688      -0.95828311 </v>
   <v>      -1.13966982      -0.15049899       2.12026589 </v>
   <v>      -0.00017300      -0.22082565      -0.13391174 </v>
   <v>       0.65434746      -1.08571097      -3.12830274 </v>
   <v>       1.63429815      -0.33884802      -3.71702471 </v>
   <v>       0.00347998      -0.20237729      -0.25679162 </v>
   <v>       0.88318767      -1.63296450       4.00250068 </v>
   <v>      -0.21090210       1.17824150       2.17302794 </v>
   <v>      -0.16081971       0.38022532       0.01940801 </v>
   <v>       2.34543495       0.82755775      -0.10437901 </v>
   <v>      -0.07756069      -0.02477116      -0.10073044 </v>
   <v>      -0.59972772       1.36405033       0.02167982 </v>
   <v>      -0.27837180      -0.16962478       0.13083811 </v>
   <v>      -0.14135420       0.32602038      -0.93148413 </v>
   <v>       0.60285765      -0.64867779       2.47313860 </v>
   <v>      -0.31807016       0.23763290      -1.24780711 </v>
   <v>      -0.06759177      -0.60536163       0.53566903 </v>
   <v>       1.62983038      -0.35783487      -3.71737111 </v>
   <v>      -0.02444159      -0.17507465      -0.31623060 </v>
   <v>      -1.71843183       0.72686801       1.88289232 </v>
   <v>       1.46017538       1.79920604       2.74993457 </v>
   <v>       0.51367967      -0.22557609      -0.57595952 </v>
   <v>       2.32147010       0.80748648      -0.04343411 </v>
   <v>      -0.07759977      -0.04381262      -0.12614837 </v>
   <v>      -0.59286488       1.40072177      -0.00681828 </v>
   <v>      -0.25218924      -0.15795546       0.07908299 </v>
   <v>       0.03361577      -0.39663247      -0.49848448 </v>
   <v>      -2.38068472      -0.42175827      -1.54436715 </v>
   <v>      -0.06216171      -0.05205551      -0.02558333 </v>
   <v>       0.95200659      -1.14918047      -2.37264234 </v>
   <v>      -0.70699890      -0.64081204      -3.09272204 </v>
   <v>      -0.10919846       0.21228274       1.56106459 </v>
   <v>       0.48941525       0.63707547       3.66598423 </v>
   <v>       1.13162231       1.66224471      -1.19919455 </v>
   <v>      -0.12149426       0.15697890      -0.07536244 </v>
   <v>      -0.23542373       1.49106452      -2.19274550 </v>
   <v>       0.23675129      -0.02810423       0.56251952 </v>
   <v>      -1.93373341      -0.38965060       0.58565428 </v>
   <v>       0.09071589       0.07555927       0.24613707 </v>
   <v>      -0.21208388       0.25785478      -0.66127161 </v>
   <v>      -0.30719458      -1.74276252       1.35349373 </v>
  </varray>
  <varray name="stress" >
   <v>      72.69018775      -3.93985222       1.82530572 </v>
   <v>      -3.93985254      73.86670269      -1.53131946 </v>
   <v>       1.82530578      -1.53131943      78.24768597 </v>
  </varray>
  <energy>
   <i name="e_fr_energy">   -507.26739270 </i>
   <i name="e_wo_entrp">   -506.60635234 </i>
   <i name="e_0_energy">     -1.32208071 </i>
  </energy>
  <time name="totalsc">  817.47  817.71</time>
  <eigenvalues>
   <array>
    <dimension dim="1">band</dimension>
    <dimension dim="2">kpoint</dimension>
    <dimension dim="3">spin</dimension>
    <field>eigene</field>
    <field>occ</field>
    <set>
     <set comment="spin 1">
      <set comment="kpoint 1">
       <r>  -62.7347    1.0000 </r>
       <r>  -62.6528    1.0000 </r>
       <r>  -62.6195    1.0000 </r>
       <r>  -62.5705    1.0000 </r>
       <r>  -62.5384    1.0000 </r>
       <r>  -62.5356    1.0000 </r>
       <r>  -62.5236    1.0000 </r>
       <r>  -62.5141    1.0000 </r>
       <r>  -62.5084    1.0000 </r>
       <r>  -62.5023    1.0000 </r>
       <r>  -62.4719    1.0000 </r>
       <r>  -62.4676    1.0000 </r>
       <r>  -62.4474    1.0000 </r>
       <r>  -62.4467    1.0000 </r>
       <r>  -62.4324    1.0000 </r>
       <r>  -62.4121    1.0000 </r>
       <r>  -62.4072    1.0000 </r>
       <r>  -62.4069    1.0000 </r>
       <r>  -62.4008    1.0000 </r>
       <r>  -62.3915    1.0000 </r>
       <r>  -62.3894    1.0000 </r>
       <r>  -62.3788    1.0000 </r>
       <r>  -62.3757    1.0000 </r>
       <r>  -62.3682    1.0000 </r>
       <r>  -62.3472    1.0000 </r>
       <r>  -62.3444    1.0000 </r>
       <r>  -62.3427    1.0000 </r>
       <r>  -62.3327    1.0000 </r>
       <r>  -62.3238    1.0000 </r>
       <r>  -62.3204    1.0000 </r>
       <r>  -62.3096    1.0000 </r>
       <r>  -62.3077    1.0000 </r>
       <r>  -62.3048    1.0000 </r>
       <r>  -62.3042    1.0000 </r>
       <r>  -62.3007    1.0000 </r>
       <r>  -62.2982    1.0000 </r>
       <r>  -62.2870    1.0000 </r>
       <r>  -62.2758    1.0000 </r>
       <r>  -62.2683    1.0000 </r>
       <r>  -62.2429    1.0000 </r>
       <r>  -62.2092    1.0000 </r>
       <r>  -62.2016    1.0000 </r>
       <r>  -62.1983    1.0000 </r>
       <r>  -62.1894    1.0000 </r>
       <r>  -62.1848    1.0000 </r>
       <r>  -62.1682    1.0000 </r>
       <r>  -62.1591    1.0000 </r>
       <r>  -62.1572    1.0000 </r>
       <r>  -62.1559    1.0000 </r>
       <r>  -62.1470    1.0000 </r>
       <r>  -62.1456    1.0000 </r>
       <r>  -62.1451    1.0000 </r>
       <r>  -62.1280    1.0000 </r>
       <r>  -62.1240    1.0000 </r>
       <r>  -62.1239    1.0000 </r>
       <r>  -62.1126    1.0000 </r>
       <r>  -62.1122    1.0000 </r>
       <r>  -62.1098    1.0000 </r>
       <r>  -62.1077    1.0000 </r>
       <r>  -62.1052    1.0000 </r>
       <r>  -62.1015    1.0000 </r>
       <r>  -62.0906    1.0000 </r>
       <r>  -62.0894    1.0000 </r>
       <r>  -62.0887    1.0000 </r>
       <r>  -62.0731    1.0000 </r>
       <r>  -62.0608    1.0000 </r>
       <r>  -62.0601    1.0000 </r>
       <r>  -62.0573    1.0000 </r>
       <r>  -62.0547    1.0000 </r>
       <r>  -62.0526    1.0000 </r>
       <r>  -62.0476    1.0000 </r>
       <r>  -62.0433    1.0000 </r>
       <r>  -62.0387    1.0000 </r>
       <r>  -62.0387    1.0000 </r>
       <r>  -62.0310    1.0000 </r>
       <r>  -62.0216    1.0000 </r>
       <r>  -62.0214    1.0000 </r>
       <r>  -62.0187    1.0000 </r>
       <r>  -62.0127    1.0000 </r>
       <r>  -62.0099    1.0000 </r>
       <r>  -62.0091    1.0000 </r>
       <r>  -62.0087    1.0000 </r>
       <r>  -62.0063    1.0000 </r>
       <r>  -62.0014    1.0000 </r>
       <r>  -61.9967    1.0000 </r>
       <r>  -61.9941    1.0000 </r>
       <r>  -61.9927    1.0000 </r>
       <r>  -61.9866    1.0000 </r>
       <r>  -61.9862    1.0000 </r>
       <r>  -61.9851    1.0000 </r>
       <r>  -61.9845    1.0000 </r>
       <r>  -61.9828    1.0000 </r>
       <r>  -61.9810    1.0000 </r>
       <r>  -61.9711    1.0000 </r>
       <r>  -61.9676    1.0000 </r>
       <r>  -61.9673    1.0000 </r>
       <r>  -61.9667    1.0000 </r>
       <r>  -61.9640    1.0000 </r>
       <r>  -61.9600    1.0000 </r>
       <r>  -61.9565    1.0000 </r>
       <r>  -61.9554    1.0000 </r>
       <r>  -61.9547    1.0000 </r>
       <r>  -61.9519    1.0000 </r>
       <r>  -61.9508    1.0000 </r>
       <r>  -61.9495    1.0000 </r>
       <r>  -61.9492    1.0000 </r>
       <r>  -61.9423    1.0000 </r>
       <r>  -61.9395    1.0000 </r>
       <r>  -61.9372    1.0000 </r>
       <r>  -61.9352    1.0000 </r>
       <r>  -61.9348    1.0000 </r>
       <r>  -61.9341    1.0000 </r>
       <r>  -61.9339    1.0000 </r>
       <r>  -61.9327    1.0000 </r>
       <r>  -61.9287    1.0000 </r>
       <r>  -61.9263    1.0000 </r>
       <r>  -61.9215    1.0000 </r>
       <r>  -61.9201    1.0000 </r>
       <r>  -61.9171    1.0000 </r>
       <r>  -61.9096    1.0000 </r>
       <r>  -61.9075    1.0000 </r>
       <r>  -61.8939    1.0000 </r>
       <r>  -61.8906    1.0000 </r>
       <r>  -61.8893    1.0000 </r>
       <r>  -61.8692    1.0000 </r>
       <r>  -61.8322    1.0000 </r>
       <r>  -61.8058    1.0000 </r>
       <r>  -61.8014    1.0000 </r>
       <r>  -61.7965    1.0000 </r>
       <r>  -61.7941    1.0000 </r>
       <r>  -61.7935    1.0000 </r>
       <r>  -61.7652    1.0000 </r>
       <r>  -61.7526    1.0000 </r>
       <r>  -61.7525    1.0000 </r>
       <r>  -61.7489    1.0000 </r>
       <r>  -61.7429    1.0000 </r>
       <r>  -61.7427    1.0000 </r>
       <r>  -61.7422    1.0000 </r>
       <r>  -61.7366    1.0000 </r>
       <r>  -61.7349    1.0000 </r>
       <r>  -61.7240    1.0000 </r>
       <r>  -61.7211    1.0000 </r>
       <r>  -61.6985    1.0000 </r>
       <r>  -61.6913    1.0000 </r>
       <r>  -61.5799    1.0000 </r>
       <r>  -61.5760    1.0000 </r>
       <r>  -61.5578    1.0000 </r>
       <r>  -61.5539    1.0000 </r>
       <r>  -61.4754    1.0000 </r>
       <r>  -61.4706    1.0000 </r>
       <r>  -61.4082    1.0000 </r>
       <r>  -61.3668    1.0000 </r>
       <r>  -61.3639    1.0000 </r>
       <r>  -61.1849    1.0000 </r>
       <r>  -61.1841    1.0000 </r>
       <r>  -61.0927    1.0000 </r>
       <r>  -14.3042    1.0000 </r>
       <r>  -14.1024    1.0000 </r>
       <r>  -13.8335    1.0000 </r>
       <r>  -13.6353    1.0000 </r>
       <r>  -13.5700    1.0000 </r>
       <r>  -13.4965    1.0000 </r>
       <r>  -13.4113    1.0000 </r>
       <r>  -13.2476    1.0000 </r>
       <r>  -13.1829    1.0000 </r>
       <r>  -13.1324    1.0000 </r>
       <r>  -13.0427    1.0000 </r>
       <r>  -13.0365    1.0000 </r>
       <r>  -12.7716    1.0000 </r>
       <r>  -12.7235    1.0000 </r>
       <r>  -12.6676    1.0000 </r>
       <r>  -12.5889    1.0000 </r>
       <r>  -12.5795    1.0000 </r>
       <r>  -12.5064    1.0000 </r>
       <r>  -12.4555    1.0000 </r>
       <r>  -12.4110    1.0000 </r>
       <r>  -12.3495    1.0000 </r>
       <r>  -12.2992    1.0000 </r>
       <r>  -12.2561    1.0000 </r>
       <r>  -12.1614    1.0000 </r>
       <r>  -12.0954    1.0000 </r>
       <r>  -12.0590    1.0000 </r>
       <r>  -12.0217    1.0000 </r>
       <r>  -11.9416    1.0000 </r>
       <r>  -11.9287    1.0000 </r>
       <r>  -11.9020    1.0000 </r>
       <r>  -11.8381    1.0000 </r>
       <r>  -11.7481    1.0000 </r>
       <r>  -11.7155    1.0000 </r>
       <r>  -11.6400    1.0000 </r>
       <r>  -11.6054    1.0000 </r>
       <r>  -11.5667    1.0000 </r>
       <r>  -11.5588    1.0000 </r>
       <r>  -11.5237    1.0000 </r>
       <r>  -11.4908    1.0000 </r>
       <r>  -11.4835    1.0000 </r>
       <r>  -11.4361    1.0000 </r>
       <r>  -11.3780    1.0000 </r>
       <r>  -11.3101    1.0000 </r>
       <r>  -11.2947    1.0000 </r>
       <r>  -11.2699    1.0000 </r>
       <r>  -11.2042    1.0000 </r>
       <r>  -11.0830    1.0000 </r>
       <r>  -11.0277    1.0000 </r>
       <r>  -10.9857    1.0000 </r>
       <r>  -10.9095    1.0000 </r>
       <r>  -10.8175    1.0000 </r>
       <r>  -10.6501    1.0000 </r>
       <r>   -6.0927    1.0000 </r>
       <r>   -6.0628    1.0000 </r>
       <r>   -5.9748    1.0000 </r>
       <r>   -5.9520    1.0000 </r>
       <r>   -5.8621    1.0000 </r>
       <r>   -5.7402    1.0000 </r>
       <r>   -5.7295    1.0000 </r>
       <r>   -5.6876    1.0000 </r>
       <r>   -5.6477    1.0000 </r>
       <r>   -5.4852    1.0000 </r>
       <r>   -5.4618    1.0000 </r>
       <r>   -5.4000    1.0000 </r>
       <r>   -5.3400    1.0000 </r>
       <r>   -5.2801    1.0000 </r>
       <r>   -5.2237    1.0000 </r>
       <r>   -5.1779    1.0000 </r>
       <r>   -5.1047    1.0000 </r>
       <r>   -5.0465    1.0000 </r>
       <r>   -5.0119    1.0000 </r>
       <r>   -4.9608    1.0000 </r>
       <r>   -4.9424    1.0000 </r>
       <r>   -4.9166    1.0000 </r>
       <r>   -4.8861    1.0000 </r>
       <r>   -4.8406    1.0000 </r>
       <r>   -4.8122    1.0000 </r>
       <r>   -4.7365    1.0000 </r>
       <r>   -4.7163    1.0000 </r>
       <r>   -4.6942    1.0000 </r>
       <r>   -4.6634    1.0000 </r>
       <r>   -4.6156    1.0000 </r>
       <r>   -4.6070    1.0000 </r>
       <r>   -4.5853    1.0000 </r>
       <r>   -4.5178    1.0000 </r>
       <r>   -4.5076    1.0000 </r>
       <r>   -4.4767    1.0000 </r>
       <r>   -4.4399    1.0000 </r>
       <r>   -4.3931    1.0000 </r>
       <r>   -4.3818    1.0000 </r>
       <r>   -4.3470    1.0000 </r>
       <r>   -4.2893    1.0000 </r>
       <r>   -4.2478    1.0000 </r>
       <r>   -4.2251    1.0000 </r>
       <r>   -4.2049    1.0000 </r>
       <r>   -4.1934    1.0000 </r>
       <r>   -4.1665    1.0000 </r>
       <r>   -4.1369    1.0000 </r>
       <r>   -4.0879    1.0000 </r>
       <r>   -4.0723    1.0000 </r>
       <r>   -4.0545    1.0000 </r>
       <r>   -4.0425    1.0000 </r>
       <r>   -4.0230    1.0000 </r>
       <r>   -3.9769    1.0000 </r>
       <r>   -3.9184    1.0000 </r>
       <r>   -3.8763    1.0000 </r>
       <r>   -3.8304    1.0000 </r>
       <r>   -3.7850    1.0000 </r>
       <r>   -3.7575    1.0000 </r>
       <r>   -3.7515    1.0000 </r>
       <r>   -3.7129    1.0000 </r>
       <r>   -3.7007    1.0000 </r>
       <r>   -3.6602    1.0000 </r>
       <r>   -3.6128    1.0000 </r>
       <r>   -3.6053    1.0000 </r>
       <r>   -3.5706    1.0000 </r>
       <r>   -3.5549    1.0000 </r>
       <r>   -3.5341    1.0000 </r>
       <r>   -3.4994    1.0000 </r>
       <r>   -3.4606    1.0000 </r>
       <r>   -3.4439    1.0000 </r>
       <r>   -3.4066    1.0000 </r>
       <r>   -3.3854    1.0000 </r>
       <r>   -3.3740    1.0000 </r>
       <r>   -3.3390    1.0000 </r>
       <r>   -3.3016    1.0000 </r>
       <r>   -3.2512    1.0000 </r>
       <r>   -3.2237    1.0000 </r>
       <r>   -3.1754    1.0000 </r>
       <r>   -3.1629    1.0000 </r>
       <r>   -3.1334    1.0000 </r>
       <r>   -3.1226    1.0000 </r>
       <r>   -3.0924    1.0000 </r>
       <r>   -3.0688    1.0000 </r>
       <r>   -3.0512    1.0000 </r>
       <r>   -3.0464    1.0000 </r>
       <r>   -2.9966    1.0000 </r>
       <r>   -2.9717    1.0000 </r>
       <r>   -2.9685    1.0000 </r>
       <r>   -2.9407    1.0000 </r>
       <r>   -2.9131    1.0000 </r>
       <r>   -2.8985    1.0000 </r>
       <r>   -2.8918    1.0000 </r>
       <r>   -2.8566    1.0000 </r>
       <r>   -2.8430    1.0000 </r>
       <r>   -2.8225    1.0000 </r>
       <r>   -2.8080    1.0000 </r>
       <r>   -2.7757    1.0000 </r>
       <r>   -2.7601    1.0000 </r>
       <r>   -2.7293    1.0000 </r>
       <r>   -2.7168    1.0000 </r>
       <r>   -2.6895    1.0000 </r>
       <r>   -2.6661    1.0000 </r>
       <r>   -2.6603    1.0000 </r>
       <r>   -2.6485    1.0000 </r>
       <r>   -2.6289    1.0000 </r>
       <r>   -2.6036    1.0000 </r>
       <r>   -2.5929    1.0000 </r>
       <r>   -2.5791    1.0000 </r>
       <r>   -2.5481    1.0000 </r>
       <r>   -2.5065    1.0000 </r>
       <r>   -2.4798    1.0000 </r>
       <r>   -2.4669    1.0000 </r>
       <r>   -2.4225    1.0000 </r>
       <r>   -2.3940    1.0000 </r>
       <r>   -2.3701    1.0000 </r>
       <r>   -2.3234    1.0000 </r>
       <r>   -2.3180    1.0000 </r>
       <r>   -2.2848    1.0000 </r>
       <r>   -2.2646    1.0000 </r>
       <r>   -2.2602    1.0000 </r>
       <r>   -2.2461    1.0000 </r>
       <r>   -2.2047    1.0000 </r>
       <r>   -2.1890    1.0000 </r>
       <r>   -2.1589    1.0000 </r>
       <r>   -2.1237    1.0000 </r>
       <r>   -2.1148    1.0000 </r>
       <r>   -2.0822    1.0000 </r>
       <r>   -2.0776    1.0000 </r>
       <r>   -2.0514    1.0000 </r>
       <r>   -2.0262    1.0000 </r>
       <r>   -2.0108    1.0000 </r>
       <r>   -1.9879    1.0000 </r>
       <r>   -1.9615    1.0000 </r>
       <r>   -1.9324    1.0000 </r>
       <r>   -1.9274    1.0000 </r>
       <r>   -1.8726    1.0000 </r>
       <r>   -1.8541    1.0000 </r>
[...]
       <r>   -55.6139     0.0000   312.0000 </r>
       <r>   -55.3537     0.0000   312.0000 </r>
       <r>   -55.0934     0.0000   312.0000 </r>
       <r>   -54.8332     0.0000   312.0000 </r>
       <r>   -54.5730     0.0000   312.0000 </r>
       <r>   -54.3128     0.0000   312.0000 </r>
       <r>   -54.0525     0.0000   312.0000 </r>
       <r>   -53.7923     0.0000   312.0000 </r>
       <r>   -53.5321     0.0000   312.0000 </r>
       <r>   -53.2718     0.0000   312.0000 </r>
       <r>   -53.0116     0.0000   312.0000 </r>
       <r>   -52.7514     0.0000   312.0000 </r>
       <r>   -52.4912     0.0000   312.0000 </r>
       <r>   -52.2309     0.0000   312.0000 </r>
       <r>   -51.9707     0.0000   312.0000 </r>
       <r>   -51.7105     0.0000   312.0000 </r>
       <r>   -51.4503     0.0000   312.0000 </r>
       <r>   -51.1900     0.0000   312.0000 </r>
       <r>   -50.9298     0.0000   312.0000 </r>
       <r>   -50.6696     0.0000   312.0000 </r>
       <r>   -50.4093     0.0000   312.0000 </r>
       <r>   -50.1491     0.0000   312.0000 </r>
       <r>   -49.8889     0.0000   312.0000 </r>
       <r>   -49.6287     0.0000   312.0000 </r>
       <r>   -49.3684     0.0000   312.0000 </r>
       <r>   -49.1082     0.0000   312.0000 </r>
       <r>   -48.8480     0.0000   312.0000 </r>
       <r>   -48.5877     0.0000   312.0000 </r>
       <r>   -48.3275     0.0000   312.0000 </r>
       <r>   -48.0673     0.0000   312.0000 </r>
       <r>   -47.8071     0.0000   312.0000 </r>
       <r>   -47.5468     0.0000   312.0000 </r>
       <r>   -47.2866     0.0000   312.0000 </r>
       <r>   -47.0264     0.0000   312.0000 </r>
       <r>   -46.7662     0.0000   312.0000 </r>
       <r>   -46.5059     0.0000   312.0000 </r>
       <r>   -46.2457     0.0000   312.0000 </r>
       <r>   -45.9855     0.0000   312.0000 </r>
       <r>   -45.7252     0.0000   312.0000 </r>
       <r>   -45.4650     0.0000   312.0000 </r>
       <r>   -45.2048     0.0000   312.0000 </r>
       <r>   -44.9446     0.0000   312.0000 </r>
       <r>   -44.6843     0.0000   312.0000 </r>
       <r>   -44.4241     0.0000   312.0000 </r>
       <r>   -44.1639     0.0000   312.0000 </r>
       <r>   -43.9037     0.0000   312.0000 </r>
       <r>   -43.6434     0.0000   312.0000 </r>
       <r>   -43.3832     0.0000   312.0000 </r>
       <r>   -43.1230     0.0000   312.0000 </r>
       <r>   -42.8627     0.0000   312.0000 </r>
       <r>   -42.6025     0.0000   312.0000 </r>
       <r>   -42.3423     0.0000   312.0000 </r>
       <r>   -42.0821     0.0000   312.0000 </r>
       <r>   -41.8218     0.0000   312.0000 </r>
       <r>   -41.5616     0.0000   312.0000 </r>
       <r>   -41.3014     0.0000   312.0000 </r>
       <r>   -41.0412     0.0000   312.0000 </r>
       <r>   -40.7809     0.0000   312.0000 </r>
       <r>   -40.5207     0.0000   312.0000 </r>
       <r>   -40.2605     0.0000   312.0000 </r>
       <r>   -40.0002     0.0000   312.0000 </r>
       <r>   -39.7400     0.0000   312.0000 </r>
       <r>   -39.4798     0.0000   312.0000 </r>
       <r>   -39.2196     0.0000   312.0000 </r>
       <r>   -38.9593     0.0000   312.0000 </r>
       <r>   -38.6991     0.0000   312.0000 </r>
       <r>   -38.4389     0.0000   312.0000 </r>
       <r>   -38.1787     0.0000   312.0000 </r>
       <r>   -37.9184     0.0000   312.0000 </r>
       <r>   -37.6582     0.0000   312.0000 </r>
       <r>   -37.3980     0.0000   312.0000 </r>
       <r>   -37.1377     0.0000   312.0000 </r>
       <r>   -36.8775     0.0000   312.0000 </r>
       <r>   -36.6173     0.0000   312.0000 </r>
       <r>   -36.3571     0.0000   312.0000 </r>
       <r>   -36.0968     0.0000   312.0000 </r>
       <r>   -35.8366     0.0000   312.0000 </r>
       <r>   -35.5764     0.0000   312.0000 </r>
       <r>   -35.3161     0.0000   312.0000 </r>
       <r>   -35.0559     0.0000   312.0000 </r>
       <r>   -34.7957     0.0000   312.0000 </r>
       <r>   -34.5355     0.0000   312.0000 </r>
       <r>   -34.2752     0.0000   312.0000 </r>
       <r>   -34.0150     0.0000   312.0000 </r>
       <r>   -33.7548     0.0000   312.0000 </r>
       <r>   -33.4946     0.0000   312.0000 </r>
       <r>   -33.2343     0.0000   312.0000 </r>
       <r>   -32.9741     0.0000   312.0000 </r>
       <r>   -32.7139     0.0000   312.0000 </r>
       <r>   -32.4536     0.0000   312.0000 </r>
       <r>   -32.1934     0.0000   312.0000 </r>
       <r>   -31.9332     0.0000   312.0000 </r>
       <r>   -31.6730     0.0000   312.0000 </r>
       <r>   -31.4127     0.0000   312.0000 </r>
       <r>   -31.1525     0.0000   312.0000 </r>
       <r>   -30.8923     0.0000   312.0000 </r>
       <r>   -30.6321     0.0000   312.0000 </r>
       <r>   -30.3718     0.0000   312.0000 </r>
       <r>   -30.1116     0.0000   312.0000 </r>
       <r>   -29.8514     0.0000   312.0000 </r>
       <r>   -29.5911     0.0000   312.0000 </r>
       <r>   -29.3309     0.0000   312.0000 </r>
       <r>   -29.0707     0.0000   312.0000 </r>
       <r>   -28.8105     0.0000   312.0000 </r>
       <r>   -28.5502     0.0000   312.0000 </r>
       <r>   -28.2900     0.0000   312.0000 </r>
       <r>   -28.0298     0.0000   312.0000 </r>
       <r>   -27.7696     0.0000   312.0000 </r>
       <r>   -27.5093     0.0000   312.0000 </r>
       <r>   -27.2491     0.0000   312.0000 </r>
       <r>   -26.9889     0.0000   312.0000 </r>
       <r>   -26.7286     0.0000   312.0000 </r>
       <r>   -26.4684     0.0000   312.0000 </r>
       <r>   -26.2082     0.0000   312.0000 </r>
       <r>   -25.9480     0.0000   312.0000 </r>
       <r>   -25.6877     0.0000   312.0000 </r>
       <r>   -25.4275     0.0000   312.0000 </r>
       <r>   -25.1673     0.0000   312.0000 </r>
       <r>   -24.9070     0.0000   312.0000 </r>
       <r>   -24.6468     0.0000   312.0000 </r>
       <r>   -24.3866     0.0000   312.0000 </r>
       <r>   -24.1264     0.0000   312.0000 </r>
       <r>   -23.8661     0.0000   312.0000 </r>
       <r>   -23.6059     0.0000   312.0000 </r>
       <r>   -23.3457     0.0000   312.0000 </r>
       <r>   -23.0855     0.0000   312.0000 </r>
       <r>   -22.8252     0.0000   312.0000 </r>
       <r>   -22.5650     0.0000   312.0000 </r>
       <r>   -22.3048     0.0000   312.0000 </r>
       <r>   -22.0445     0.0000   312.0000 </r>
       <r>   -21.7843     0.0000   312.0000 </r>
       <r>   -21.5241     0.0000   312.0000 </r>
       <r>   -21.2639     0.0000   312.0000 </r>
       <r>   -21.0036     0.0000   312.0000 </r>
       <r>   -20.7434     0.0000   312.0000 </r>
       <r>   -20.4832     0.0000   312.0000 </r>
       <r>   -20.2230     0.0000   312.0000 </r>
       <r>   -19.9627     0.0000   312.0000 </r>
       <r>   -19.7025     0.0000   312.0000 </r>
       <r>   -19.4423     0.0000   312.0000 </r>
       <r>   -19.1820     0.0000   312.0000 </r>
       <r>   -18.9218     0.0000   312.0000 </r>
       <r>   -18.6616     0.0000   312.0000 </r>
       <r>   -18.4014     0.0000   312.0000 </r>
       <r>   -18.1411     0.0000   312.0000 </r>
       <r>   -17.8809     0.0000   312.0000 </r>
       <r>   -17.6207     0.0000   312.0000 </r>
       <r>   -17.3605     0.0000   312.0000 </r>
       <r>   -17.1002     0.0000   312.0000 </r>
       <r>   -16.8400     0.0000   312.0000 </r>
       <r>   -16.5798     0.0000   312.0000 </r>
       <r>   -16.3195     0.0000   312.0000 </r>
       <r>   -16.0593     0.0000   312.0000 </r>
       <r>   -15.7991     0.0000   312.0000 </r>
       <r>   -15.5389     0.0000   312.0000 </r>
       <r>   -15.2786     0.0000   312.0000 </r>
       <r>   -15.0184     0.0000   312.0000 </r>
       <r>   -14.7582     0.0051   312.0013 </r>
       <r>   -14.4979     0.6707   312.1759 </r>
       <r>   -14.2377     5.8746   313.7046 </r>
       <r>   -13.9775     8.5544   315.9307 </r>
       <r>   -13.7173    10.2282   318.5923 </r>
       <r>   -13.4570    19.0340   323.5455 </r>
       <r>   -13.1968    21.7800   329.2132 </r>
       <r>   -12.9366    23.2035   335.2514 </r>
       <r>   -12.6764    22.6994   341.1585 </r>
       <r>   -12.4161    35.8862   350.4970 </r>
       <r>   -12.1559    35.7199   359.7923 </r>
       <r>   -11.8957    39.1039   369.9682 </r>
       <r>   -11.6354    42.7015   381.0803 </r>
       <r>   -11.3752    51.9321   394.5945 </r>
       <r>   -11.1150    38.5176   404.6178 </r>
       <r>   -10.8548    26.5947   411.5385 </r>
       <r>   -10.5945    13.9026   415.1563 </r>
       <r>   -10.3343     3.1412   415.9738 </r>
       <r>   -10.0741     0.1006   416.0000 </r>
       <r>    -9.8139     0.0002   416.0000 </r>
       <r>    -9.5536     0.0000   416.0000 </r>
       <r>    -9.2934     0.0000   416.0000 </r>
       <r>    -9.0332     0.0000   416.0000 </r>
       <r>    -8.7729     0.0000   416.0000 </r>
       <r>    -8.5127     0.0000   416.0000 </r>
       <r>    -8.2525     0.0000   416.0000 </r>
       <r>    -7.9923     0.0000   416.0000 </r>
       <r>    -7.7320     0.0000   416.0000 </r>
       <r>    -7.4718     0.0000   416.0000 </r>
       <r>    -7.2116     0.0000   416.0000 </r>
       <r>    -6.9514     0.0000   416.0000 </r>
       <r>    -6.6911     0.0001   416.0000 </r>
       <r>    -6.4309     0.1077   416.0281 </r>
       <r>    -6.1707     5.0780   417.3495 </r>
       <r>    -5.9104    23.4357   423.4481 </r>
       <r>    -5.6502    30.7257   431.4438 </r>
       <r>    -5.3900    30.6330   439.4153 </r>
       <r>    -5.1298    35.9861   448.7799 </r>
       <r>    -4.8695    48.0488   461.2835 </r>
       <r>    -4.6093    57.9591   476.3661 </r>
       <r>    -4.3491    61.6319   492.4044 </r>
       <r>    -4.0888    67.3606   509.9335 </r>
       <r>    -3.8286    62.6321   526.2321 </r>
       <r>    -3.5684    67.1062   543.6950 </r>
       <r>    -3.3082    70.3896   562.0123 </r>
       <r>    -3.0479    76.1927   581.8397 </r>
       <r>    -2.7877    93.8466   606.2612 </r>
       <r>    -2.5275    93.7427   630.6556 </r>
       <r>    -2.2673    81.7558   651.9307 </r>
       <r>    -2.0070    86.4518   674.4278 </r>
       <r>    -1.7468    72.8662   693.3896 </r>
       <r>    -1.4866    55.4689   707.8241 </r>
       <r>    -1.2263    70.4843   726.1661 </r>
       <r>    -0.9661    92.7123   750.2924 </r>
       <r>    -0.7059   105.1871   777.6649 </r>
       <r>    -0.4457   118.0995   808.3977 </r>
       <r>    -0.1854   154.5384   848.6128 </r>
       <r>     0.0748   179.3100   895.2742 </r>
       <r>     0.3350   196.9011   946.5133 </r>
       <r>     0.5952   194.2686   997.0673 </r>
       <r>     0.8555   157.9563  1038.1719 </r>
       <r>     1.1157   116.3683  1068.4541 </r>
       <r>     1.3759    92.5640  1092.5418 </r>
       <r>     1.6362    82.5051  1114.0119 </r>
       <r>     1.8964    71.9833  1132.7440 </r>
       <r>     2.1566    66.2451  1149.9828 </r>
       <r>     2.4168    61.0912  1165.8804 </r>
       <r>     2.6771    70.4243  1184.2067 </r>
       <r>     2.9373    78.0843  1204.5264 </r>
       <r>     3.1975    66.8490  1221.9223 </r>
       <r>     3.4577    49.1620  1234.7156 </r>
       <r>     3.7180    34.2882  1243.6384 </r>
       <r>     3.9782    19.0699  1248.6009 </r>
       <r>     4.2384     5.5054  1250.0335 </r>
       <r>     4.4987     5.0164  1251.3389 </r>
       <r>     4.7589     8.2409  1253.4834 </r>
       <r>     5.0191     5.7202  1254.9720 </r>
       <r>     5.2793    10.6404  1257.7409 </r>
       <r>     5.5396    11.6547  1260.7737 </r>
       <r>     5.7998    19.4614  1265.8381 </r>
       <r>     6.0600    19.3048  1270.8618 </r>
       <r>     6.3203    29.1832  1278.4560 </r>
       <r>     6.5805    34.7531  1287.4998 </r>
       <r>     6.8407    33.9549  1296.3358 </r>
       <r>     7.1009    39.2460  1306.5486 </r>
       <r>     7.3612    48.3764  1319.1375 </r>
       <r>     7.6214    55.8509  1333.6714 </r>
       <r>     7.8816    60.6930  1349.4654 </r>
       <r>     8.1418    57.7442  1364.4921 </r>
       <r>     8.4021    26.4417  1371.3729 </r>
       <r>     8.6623     2.3919  1371.9953 </r>
       <r>     8.9225     0.0179  1372.0000 </r>
       <r>     9.1828     0.0000  1372.0000 </r>
       <r>     9.4430     0.0000  1372.0000 </r>
       <r>     9.7032     0.0000  1372.0000 </r>
       <r>     9.9634     0.0000  1372.0000 </r>
       <r>    10.2237     0.0000  1372.0000 </r>
       <r>    10.4839     0.0000  1372.0000 </r>
       <r>    10.7441     0.0000  1372.0000 </r>
       <r>    11.0043     0.0000  1372.0000 </r>
       <r>    11.2646     0.0000  1372.0000 </r>
       <r>    11.5248     0.0000  1372.0000 </r>
       <r>    11.7850     0.0000  1372.0000 </r>
      </set>
     </set>
    </array>
   </total>
  </dos>
 </calculation>
 <structure name="finalpos" >
  <crystal>
   <varray name="basis" >
    <v>      11.25646304       0.00000000       0.00000000 </v>
    <v>       5.04456212      10.06282034       0.00000000 </v>
    <v>       0.00000000       0.00000000      22.88364939 </v>
   </varray>
   <i name="volume">   2592.07135999 </i>
   <varray name="rec_basis" >
    <v>       0.08883785      -0.04453504       0.00000000 </v>
    <v>       0.00000000       0.09937572       0.00000000 </v>
    <v>       0.00000000       0.00000000       0.04369932 </v>
   </varray>
  </crystal>
  <varray name="positions" >
   <v>       0.26092070       0.47878036       0.29050611 </v>
   <v>       0.35488056       0.38482049       0.41880986 </v>
   <v>       0.16696083       0.07274024       0.16220237 </v>
   <v>       0.21376316       0.52401955       0.04418689 </v>
   <v>       0.27423906       0.33335899       0.12830375 </v>
   <v>       0.36819893       0.23939913       0.25660749 </v>
   <v>       0.46215880       0.14543926       0.38491124 </v>
   <v>       0.00030194       0.37150212       0.25660749 </v>
   <v>       0.09426181       0.27754226       0.38491124 </v>
   <v>       0.22912084       0.15218114       0.46863717 </v>
   <v>       0.40634206       0.46546199       0.12830375 </v>
   <v>       0.76092070       0.47878036       0.29050611 </v>
   <v>       0.85488056       0.38482049       0.41880986 </v>
   <v>       0.54244590       0.21909266       0.09045533 </v>
   <v>       0.66696083       0.07274024       0.16220237 </v>
   <v>       0.55962568       0.04560138       0.50063394 </v>
   <v>       0.68067330       0.33487554       0.03820154 </v>
   <v>       0.77423906       0.33335899       0.12830375 </v>
   <v>       0.86819893       0.23939913       0.25660749 </v>
   <v>       0.96215880       0.14543926       0.38491124 </v>
   <v>       0.50030194       0.37150212       0.25660749 </v>
   <v>       0.59426181       0.27754226       0.38491124 </v>
   <v>       0.68984110       0.19396652       0.49498599 </v>
   <v>       0.90634206       0.46546199       0.12830375 </v>
   <v>       0.94293463       0.00329244       0.03130838 </v>
   <v>       0.26092070       0.97878036       0.29050611 </v>
   <v>       0.35488056       0.88482049       0.41880986 </v>
   <v>       0.44177520       0.79776724       0.53277527 </v>
   <v>       0.04244544       0.71909076       0.09045382 </v>
   <v>       0.16696083       0.57274024       0.16220237 </v>
   <v>       0.18067451       0.83487484       0.03820146 </v>
   <v>       0.27423907       0.83335899       0.12830375 </v>
   <v>       0.36819893       0.73939913       0.25660749 </v>
   <v>       0.46215880       0.64543926       0.38491124 </v>
   <v>       0.00030194       0.87150212       0.25660749 </v>
   <v>       0.09426181       0.77754226       0.38491124 </v>
   <v>       0.20418162       0.65972296       0.47563195 </v>
   <v>       0.40634206       0.96546199       0.12830375 </v>
   <v>       0.44293364       0.50329374       0.03130844 </v>
   <v>       0.76092070       0.97878036       0.29050611 </v>
   <v>       0.85488056       0.88482049       0.41880986 </v>
   <v>       0.82148331       0.88408093       0.51834441 </v>
   <v>       0.66696083       0.57274024       0.16220237 </v>
   <v>       0.54324934       0.55056763       0.49465504 </v>
   <v>       0.71376280       0.02402038       0.04418676 </v>
   <v>       0.77423907       0.83335899       0.12830375 </v>
   <v>       0.86819893       0.73939913       0.25660749 </v>
   <v>       0.96215880       0.64543926       0.38491124 </v>
   <v>       0.50030194       0.87150212       0.25660749 </v>
   <v>       0.59426181       0.77754226       0.38491124 </v>
   <v>       0.68623226       0.69565478       0.49676259 </v>
   <v>       0.90634206       0.96546199       0.12830375 </v>
   <v>       0.07287763       0.16682343       0.30639927 </v>
   <v>       0.16708863       0.06281573       0.40498647 </v>
   <v>       0.38495789       0.35474317       0.04979178 </v>
   <v>       0.47891775       0.26078330       0.17809552 </v>
   <v>       0.28857428       0.46936813       0.50153163 </v>
   <v>       0.03313859       0.31004668       0.46846998 </v>
   <v>       0.43627354       0.47164251       0.34956450 </v>
   <v>       0.26146646       0.15681602       0.11202103 </v>
   <v>       0.34231368       0.06560239       0.22126075 </v>
   <v>       0.08013882       0.49134724       0.09295701 </v>
   <v>       0.17409868       0.39738738       0.22126075 </v>
   <v>       0.26805855       0.30342751       0.34956450 </v>
   <v>       0.38399076       0.20559965       0.46760423 </v>
   <v>       0.57287763       0.16682343       0.30639927 </v>
   <v>       0.66683750       0.07286357       0.43470302 </v>
   <v>       0.83176483       0.39717975       0.05708622 </v>
   <v>       0.97891775       0.26078330       0.17809552 </v>
   <v>       0.60311685       0.63177602       0.56201947 </v>
   <v>       0.53852418       0.37390474       0.46450320 </v>
   <v>       0.93627354       0.47164251       0.34956450 </v>
   <v>       0.74835381       0.15956225       0.09295701 </v>
   <v>       0.84231368       0.06560239       0.22126075 </v>
   <v>       0.57787220       0.48706128       0.09864608 </v>
   <v>       0.67409868       0.39738738       0.22126075 </v>
   <v>       0.76805855       0.30342751       0.34956450 </v>
   <v>       0.84479412       0.22195528       0.45906725 </v>
   <v>       0.07287764       0.66682343       0.30639927 </v>
   <v>       0.16511027       0.56688771       0.40594997 </v>
   <v>       0.33176584       0.89717912       0.05708618 </v>
   <v>       0.47891775       0.76078330       0.17809552 </v>
   <v>       0.27925881       0.97144311       0.50705334 </v>
   <v>       0.01830046       0.82942507       0.47325281 </v>
   <v>       0.43627354       0.97164251       0.34956450 </v>
   <v>       0.24835381       0.65956226       0.09295701 </v>
   <v>       0.34231368       0.56560239       0.22126075 </v>
   <v>       0.07787309       0.98706070       0.09864610 </v>
   <v>       0.17409868       0.89738738       0.22126075 </v>
   <v>       0.26805855       0.80342751       0.34956450 </v>
   <v>       0.36201842       0.70946764       0.47786825 </v>
   <v>       0.57287764       0.66682343       0.30639927 </v>
   <v>       0.66683750       0.57286357       0.43470302 </v>
   <v>       0.88495789       0.85474317       0.04979178 </v>
   <v>       0.97891775       0.76078330       0.17809552 </v>
   <v>       0.69808649       0.05638358       0.55615445 </v>
   <v>       0.53023342       0.87768264       0.47786825 </v>
   <v>       0.93627354       0.97164251       0.34956450 </v>
   <v>       0.76146657       0.65681610       0.11202135 </v>
   <v>       0.84231368       0.56560239       0.22126075 </v>
   <v>       0.58013882       0.99134724       0.09295701 </v>
   <v>       0.67409868       0.89738738       0.22126075 </v>
   <v>       0.76805855       0.80342751       0.34956450 </v>
   <v>       0.84872972       0.72242651       0.46525040 </v>
  </varray>
 </structure>
</modeling>
