       N       E                     dE             d eps       ncg     rms          rms(c)
DAV:   1     0.856812270340E+04    0.85681E+04   -0.49875E+05  1184   0.152E+03
DAV:   2     0.467368077935E+03   -0.81008E+04   -0.78167E+04  1024   0.480E+02
DAV:   3    -0.348111114779E+03   -0.81548E+03   -0.77120E+03  1120   0.155E+02
DAV:   4    -0.396217857210E+03   -0.48107E+02   -0.47542E+02  1128   0.349E+01
DAV:   5    -0.397970780826E+03   -0.17529E+01   -0.17505E+01  1208   0.708E+00    0.822E+01
DAV:   6    -0.519376724375E+03   -0.12141E+03   -0.10700E+03  1152   0.127E+02    0.179E+02
DAV:   7    -0.375261003144E+03    0.14412E+03   -0.19655E+02  1128   0.613E+01    0.749E+01
DAV:   8    -0.372704823328E+03    0.25562E+01   -0.18453E+02  1368   0.755E+01    0.835E+01
DAV:   9    -0.358080543157E+03    0.14624E+02   -0.10907E+02  1256   0.509E+01    0.554E+01
DAV:  10    -0.372762360703E+03   -0.14682E+02   -0.53121E+01  1344   0.455E+01    0.115E+02
DAV:  11    -0.368014493219E+03    0.47479E+01   -0.48630E+01  1336   0.276E+01    0.885E+01
DAV:  12    -0.352441133148E+03    0.15573E+02   -0.28992E+01  1336   0.228E+01    0.359E+01
DAV:  13    -0.350880463665E+03    0.15607E+01   -0.15651E+01  1272   0.253E+01    0.430E+01
DAV:  14    -0.348649592803E+03    0.22309E+01   -0.16020E+01  1344   0.177E+01    0.282E+01
DAV:  15    -0.346427822330E+03    0.22218E+01   -0.41771E+00  1272   0.142E+01    0.223E+01
DAV:  16    -0.345835520008E+03    0.59230E+00   -0.39516E+00  1288   0.102E+01    0.200E+01
DAV:  17    -0.344553509984E+03    0.12820E+01   -0.16672E+00  1264   0.890E+00    0.147E+01
DAV:  18    -0.344084649362E+03    0.46886E+00   -0.12327E+00  1320   0.683E+00    0.131E+01
DAV:  19    -0.343776435131E+03    0.30821E+00   -0.82805E-01  1288   0.578E+00    0.111E+01
DAV:  20    -0.343647065126E+03    0.12937E+00   -0.86836E-01  1272   0.472E+00    0.952E+00
DAV:  21    -0.343434466336E+03    0.21260E+00   -0.39939E-01  1296   0.419E+00    0.691E+00
DAV:  22    -0.343401789087E+03    0.32677E-01   -0.27981E-01  1312   0.334E+00    0.672E+00
DAV:  23    -0.343292885145E+03    0.10890E+00   -0.16915E-01  1232   0.206E+00    0.405E+00
DAV:  24    -0.343334717929E+03   -0.41833E-01   -0.27522E-01  1240   0.290E+00    0.559E+00
DAV:  25    -0.343296877760E+03    0.37840E-01   -0.18949E-01  1296   0.238E+00    0.412E+00
DAV:  26    -0.343268287734E+03    0.28590E-01   -0.13754E-01  1328   0.238E+00    0.290E+00
DAV:  27    -0.343268556292E+03   -0.26856E-03   -0.77482E-02  1320   0.163E+00    0.276E+00
DAV:  28    -0.343255955658E+03    0.12601E-01   -0.46505E-02  1272   0.144E+00    0.225E+00
DAV:  29    -0.343254730331E+03    0.12253E-02   -0.26792E-02  1312   0.975E-01    0.222E+00
DAV:  30    -0.343243627344E+03    0.11103E-01   -0.22562E-02  1304   0.780E-01    0.140E+00
DAV:  31    -0.343240056684E+03    0.35707E-02   -0.10800E-02  1304   0.615E-01    0.912E-01
DAV:  32    -0.343240832075E+03   -0.77539E-03   -0.56204E-03  1296   0.448E-01    0.103E+00
DAV:  33    -0.343238686141E+03    0.21459E-02   -0.30890E-03  1256   0.356E-01    0.695E-01
DAV:  34    -0.343238673257E+03    0.12884E-04   -0.15871E-03  1200   0.272E-01    0.561E-01
DAV:  35    -0.343238139666E+03    0.53359E-03   -0.13174E-03  1208   0.234E-01    0.239E-01
DAV:  36    -0.343238457158E+03   -0.31749E-03   -0.76795E-04  1008   0.184E-01    0.237E-01
DAV:  37    -0.343238948637E+03   -0.49148E-03   -0.65206E-04   896   0.164E-01    0.180E-01
DAV:  38    -0.343239191391E+03   -0.24275E-03   -0.37692E-04   712   0.144E-01    0.148E-01
DAV:  39    -0.343239541685E+03   -0.35029E-03   -0.25084E-04   600   0.974E-02    0.113E-01
DAV:  40    -0.343239765532E+03   -0.22385E-03   -0.15575E-04   592   0.958E-02    0.984E-02
DAV:  41    -0.343240147243E+03   -0.38171E-03   -0.13267E-04   592   0.692E-02    0.912E-02
DAV:  42    -0.343240411142E+03   -0.26390E-03   -0.10294E-04   600   0.749E-02    0.835E-02
DAV:  43    -0.343240938120E+03   -0.52698E-03   -0.10103E-04   616   0.590E-02    0.764E-02
DAV:  44    -0.343241141148E+03   -0.20303E-03   -0.80336E-05   592   0.580E-02    0.553E-02
DAV:  45    -0.343241578031E+03   -0.43688E-03   -0.71062E-05   624   0.418E-02    0.621E-02
DAV:  46    -0.343241749294E+03   -0.17126E-03   -0.59644E-05   592   0.462E-02    0.516E-02
DAV:  47    -0.343241957683E+03   -0.20839E-03   -0.38116E-05   592   0.305E-02    0.453E-02
DAV:  48    -0.343242126561E+03   -0.16888E-03   -0.36936E-05   600   0.331E-02    0.391E-02
DAV:  49    -0.343242317641E+03   -0.19108E-03   -0.32269E-05   608   0.254E-02    0.285E-02
DAV:  50    -0.343242380351E+03   -0.62710E-04   -0.25600E-05   584   0.229E-02
   1 F= -.34324238E+03 E0= -.34256382E+03  d E =-.135711E+01
