 vasp.5.4.4.18Apr17-6-g9f103f2a35 (build Aug 13 2019 17:33:20) gamma-only       
  
 executed on             LinuxIFC date 2020.05.11  12:16:27
 running on   12 total cores
 distrk:  each k-point on   12 cores,    1 groups
 distr:  one band on NCORES_PER_BAND=   6 cores,    2 groups


--------------------------------------------------------------------------------------------------------


 INCAR:
 POTCAR:    PAW_PBE Ni_pv 06Sep2000               
 POTCAR:    PAW_PBE S 06Sep2000                   
 POTCAR:    PAW_PBE Ni_pv 06Sep2000               
   VRHFIN =Ni:                                                                  
   LEXCH  = PE                                                                  
   EATOM  =  3501.1230 eV,  257.3253 Ry                                         
                                                                                
   TITEL  = PAW_PBE Ni_pv 06Sep2000                                             
   LULTRA =        F    use ultrasoft PP ?                                      
   IUNSCR =        1    unscreen: 0-lin 1-nonlin 2-no                           
   RPACOR =    1.500    partial core radius                                     
   POMASS =   58.690; ZVAL   =   16.000    mass and valenz                      
   RCORE  =    2.000    outmost cutoff radius                                   
   RWIGS  =    2.000; RWIGS  =    1.058    wigner-seitz radius (au A)           
   ENMAX  =  367.986; ENMIN  =  275.989 eV                                      
   RCLOC  =    1.301    cutoff for local pot                                    
   LCOR   =        T    correct aug charges                                     
   LPAW   =        T    paw PP                                                  
   EAUG   =  703.443                                                            
   DEXC   =    0.000                                                            
   RMAX   =    2.041    core radius for proj-oper                               
   RAUG   =    1.300    factor for augmentation sphere                          
   RDEP   =    2.103    radius for radial grids                                 
   RDEPT  =    1.618    core radius for aug-charge                              
                                                                                
   Atomic configuration                                                         
    8 entries                                                                   
     n  l   j            E        occ.                                          
     1  0  0.50     -8206.4253   2.0000                                         
     2  0  0.50      -976.1748   2.0000                                         
     2  1  1.50      -839.0571   6.0000                                         
     3  0  0.50      -105.9991   2.0000                                         
     3  1  1.50       -66.4603   6.0000                                         
     3  2  2.50        -4.6458   9.0000                                         
     4  0  0.50        -4.4926   1.0000                                         
     4  3  2.50        -1.3606   0.0000                                         
   Description                                                                  
     l       E           TYP  RCUT    TYP  RCUT                                 
     1    -66.4602962     23  1.700                                             
     1     -1.3605826     23  1.700                                             
     2     -4.6457867     23  2.000                                             
     2     -6.0063693     23  2.000                                             
     0     -4.4925576     23  1.900                                             
     0     16.3626226     23  1.900                                             
  local pseudopotential read in
  partial core-charges read in
  partial kinetic energy density read in
  atomic valenz-charges read in
  non local Contribution for L=           1  read in
    real space projection operators read in
  non local Contribution for L=           1  read in
    real space projection operators read in
  non local Contribution for L=           2  read in
    real space projection operators read in
  non local Contribution for L=           2  read in
    real space projection operators read in
  non local Contribution for L=           0  read in
    real space projection operators read in
  non local Contribution for L=           0  read in
    real space projection operators read in
    PAW grid and wavefunctions read in
 
   number of l-projection  operators is LMAX  =           6
   number of lm-projection operators is LMMAX =          18
 
 POTCAR:    PAW_PBE S 06Sep2000                   
   VRHFIN =S : s2p4                                                             
   LEXCH  = PE                                                                  
   EATOM  =   276.8230 eV,   20.3459 Ry                                         
                                                                                
   TITEL  = PAW_PBE S 06Sep2000                                                 
   LULTRA =        F    use ultrasoft PP ?                                      
   IUNSCR =        1    unscreen: 0-lin 1-nonlin 2-no                           
   RPACOR =    1.500    partial core radius                                     
   POMASS =   32.066; ZVAL   =    6.000    mass and valenz                      
   RCORE  =    1.900    outmost cutoff radius                                   
   RWIGS  =    2.200; RWIGS  =    1.164    wigner-seitz radius (au A)           
   ENMAX  =  258.689; ENMIN  =  194.016 eV                                      
   ICORE  =        2    local potential                                         
   LCOR   =        T    correct aug charges                                     
   LPAW   =        T    paw PP                                                  
   EAUG   =  335.092                                                            
   DEXC   =    0.000                                                            
   RMAX   =    1.942    core radius for proj-oper                               
   RAUG   =    1.300    factor for augmentation sphere                          
   RDEP   =    1.954    radius for radial grids                                 
   RDEPT  =    1.744    core radius for aug-charge                              
                                                                                
   Atomic configuration                                                         
    6 entries                                                                   
     n  l   j            E        occ.                                          
     1  0  0.50     -2405.8406   2.0000                                         
     2  0  0.50      -211.7007   2.0000                                         
     2  1  1.50      -156.4958   6.0000                                         
     3  0  0.50       -17.2562   2.0000                                         
     3  1  0.50        -7.0085   4.0000                                         
     3  2  1.50        -6.8029   0.0000                                         
   Description                                                                  
     l       E           TYP  RCUT    TYP  RCUT                                 
     0    -17.2561641     23  1.900                                             
     0    -15.8743224     23  1.900                                             
     1     -7.0085400     23  1.900                                             
     1     -2.7779785     23  1.900                                             
     2     -6.8029130     23  1.900                                             
  local pseudopotential read in
  partial core-charges read in
  partial kinetic energy density read in
  atomic valenz-charges read in
  non local Contribution for L=           0  read in
    real space projection operators read in
  non local Contribution for L=           0  read in
    real space projection operators read in
  non local Contribution for L=           1  read in
    real space projection operators read in
  non local Contribution for L=           1  read in
    real space projection operators read in
    PAW grid and wavefunctions read in
 
   number of l-projection  operators is LMAX  =           4
   number of lm-projection operators is LMMAX =           8
 
 Optimization of the real space projectors (new method)

 maximal supplied QI-value         = 18.90
 optimisation between [QCUT,QGAM] = [ 10.77, 21.73] = [ 32.49,132.25] Ry 
 Optimized for a Real-space Cutoff    1.38 Angstroem

   l    n(q)    QCUT    max X(q) W(low)/X(q) W(high)/X(q)  e(spline) 
   1      8    10.771     2.836    0.40E-04    0.29E-04    0.12E-06
   1      8    10.771     4.023    0.10E-03    0.48E-04    0.29E-06
   2      8    10.771    73.368    0.42E-03    0.97E-04    0.44E-06
   2      8    10.771    69.010    0.42E-03    0.99E-04    0.45E-06
   0      9    10.771    54.797    0.10E-03    0.56E-04    0.74E-07
   0      9    10.771    24.266    0.89E-04    0.49E-04    0.67E-07
 Optimization of the real space projectors (new method)

 maximal supplied QI-value         = 19.84
 optimisation between [QCUT,QGAM] = [ 10.71, 21.63] = [ 32.15,130.99] Ry 
 Optimized for a Real-space Cutoff    1.19 Angstroem

   l    n(q)    QCUT    max X(q) W(low)/X(q) W(high)/X(q)  e(spline) 
   0      8    10.715   187.594    0.41E-03    0.53E-04    0.66E-07
   0      8    10.715   164.243    0.41E-03    0.53E-04    0.65E-07
   1      7    10.715    67.533    0.19E-03    0.59E-03    0.68E-07
   1      7    10.715    50.729    0.19E-03    0.58E-03    0.67E-07
  PAW_PBE Ni_pv 06Sep2000               :
 energy of atom  1       EATOM=-3501.1230
 kinetic energy error for atom=    0.0925 (will be added to EATOM!!)
  PAW_PBE S 06Sep2000                   :
 energy of atom  2       EATOM= -276.8230
 kinetic energy error for atom=    0.0033 (will be added to EATOM!!)
 
 
 POSCAR: Type_048 Type_148                       
  positions in cartesian coordinates
  No initial velocities read in
 exchange correlation table for  LEXCH =        8
   RHO(1)=    0.500       N(1)  =     2000
   RHO(2)=  100.500       N(2)  =     4000
 


--------------------------------------------------------------------------------------------------------


 ion  position               nearest neighbor table
   1  0.261  0.479  0.295-  73 2.25  58 2.26  80 2.26  59 2.36  54 2.36   7 2.53  21 2.53
   2  0.355  0.385  0.426-  65 2.06  60 2.07  74 2.17  54 2.26  59 2.26   8 2.53  22 2.53
   3  0.167  0.073  0.165-  81 2.05  55 2.20  64 2.25  56 2.36  82 2.36  35 2.53  30 2.53
   4  0.969  0.007  0.471-  77 2.04  72 2.07  50 2.18  20 2.36  38 2.49
   5  0.227  0.304  0.036-  51 2.13  55 2.13  57 2.14   6 2.26  36 2.51
   6  0.274  0.333  0.130-  57 2.10  55 2.15  51 2.26   5 2.26  52 2.36  58 2.36  11 2.53  28 2.53

   7  0.368  0.239  0.261-  56 2.25  58 2.26  52 2.26  59 2.36  61 2.36   1 2.53  21 2.53
   8  0.462  0.145  0.391-  60 2.08  78 2.25  59 2.26  61 2.26  62 2.36   2 2.53  22 2.53  17 2.53

   9  0.000  0.372  0.261-  58 2.25  64 2.26  92 2.26  49 2.36  66 2.36  19 2.53  12 2.53
  10  0.094  0.278  0.391-  53 2.07  59 2.25  49 2.26  66 2.26  14 2.47  13 2.53  20 2.53
  11  0.406  0.465  0.130-  79 2.11  69 2.15  51 2.26  52 2.36  80 2.36  28 2.53   6 2.53
  12  0.761  0.479  0.295-  85 2.25  70 2.26  92 2.26  71 2.36  66 2.36  19 2.53   9 2.53
  13  0.855  0.385  0.426-  53 2.07  66 2.26  71 2.26  86 2.27  72 2.36  20 2.53  10 2.53
  14  0.048  0.196  0.486-  53 2.03  72 2.03  50 2.05  10 2.47  20 2.52
  15  0.524  0.197  0.091-  51 1.99  93 2.11  52 2.12  16 2.29  67 2.34  41 2.48
  16  0.667  0.073  0.165-  67 2.10  52 2.25  93 2.26  15 2.29  68 2.36  94 2.36  47 2.53  42 2.53

  17  0.528  0.068  0.497-  60 2.01  62 2.02  89 2.08   8 2.53
  18  0.774  0.333  0.130-  63 2.05  69 2.12  67 2.19  64 2.36  70 2.36  24 2.53  40 2.53  48 2.53

  19  0.868  0.239  0.261-  68 2.25  70 2.26  64 2.26  71 2.36  49 2.36  12 2.53   9 2.53
  20  0.962  0.145  0.391-  50 2.14  90 2.25  71 2.26  49 2.26   4 2.36  72 2.36  14 2.52  13 2.53
                            10 2.53
  21  0.500  0.372  0.261-  70 2.25  52 2.26  80 2.26  61 2.36  54 2.36   7 2.53   1 2.53
  22  0.594  0.278  0.391-  65 2.06  71 2.25  61 2.26  54 2.26  62 2.36   2 2.53   8 2.53
  23  0.685  0.201  0.499-  62 2.01  65 2.03  72 2.06
  24  0.906  0.465  0.130-  63 2.07  91 2.12  57 2.18  64 2.36  92 2.36  48 2.52  40 2.53  18 2.53

  25  0.261  0.979  0.295-  49 2.25  82 2.26  56 2.26  83 2.36  78 2.36  31 2.53  45 2.53
  26  0.355  0.885  0.426-  84 2.08  89 2.12  50 2.21  78 2.26  83 2.26  32 2.53  46 2.53
  27  0.543  0.708  0.487-  84 2.00  89 2.05  86 2.06  46 2.45
  28  0.167  0.573  0.165-  79 2.10  88 2.25  80 2.36  58 2.36  36 2.46  57 2.50  11 2.53   6 2.53

  29  0.051  0.630  0.491-  96 2.04  74 2.04  77 2.05  44 2.44  39 2.48
  30  0.274  0.833  0.130-  75 1.99  81 2.08  79 2.14  76 2.36  82 2.36  35 2.53   3 2.53
  31  0.368  0.739  0.261-  80 2.25  82 2.26  76 2.26  83 2.36  85 2.36  25 2.53  45 2.53
  32  0.462  0.645  0.391-  84 2.06  86 2.16  54 2.25  83 2.26  85 2.26  26 2.53  46 2.53
  33  0.000  0.872  0.261-  82 2.25  88 2.26  68 2.26  73 2.36  90 2.36  43 2.53  37 2.53
  34  0.094  0.778  0.391-  77 2.13  74 2.22  83 2.25  73 2.26  90 2.26  38 2.53  44 2.53
  35  0.406  0.965  0.130-  75 1.99  55 2.16  93 2.25  76 2.36  56 2.36   3 2.53  30 2.53
  36  0.213  0.528  0.058-  51 2.05  57 2.06  79 2.07  28 2.46   5 2.51
  37  0.761  0.979  0.295-  61 2.25  94 2.26  68 2.26  95 2.36  90 2.36  43 2.53  33 2.53
  38  0.855  0.885  0.426-  96 2.11  62 2.25  90 2.26  95 2.26  39 2.37  77 2.47   4 2.49  44 2.53
                            34 2.53
  39  0.890  0.850  0.529-  77 2.04  96 2.06  38 2.37  29 2.48
  40  0.667  0.573  0.165-  69 2.11  91 2.12  76 2.25  92 2.36  70 2.36  48 2.44  24 2.53  18 2.53

  41  0.732  0.014  0.054-  87 2.01  93 2.05  67 2.07  15 2.48  47 2.48
  42  0.774  0.833  0.130-  87 2.06  91 2.13  93 2.26  88 2.36  94 2.36  47 2.53  16 2.53
  43  0.868  0.739  0.261-  92 2.25  94 2.26  88 2.26  95 2.36  73 2.36  37 2.53  33 2.53
  44  0.962  0.645  0.391-  74 2.18  96 2.18  66 2.25  95 2.26  73 2.26  29 2.44  38 2.53  34 2.53

  45  0.500  0.872  0.261-  94 2.25  76 2.26  56 2.26  85 2.36  78 2.36  31 2.53  25 2.53
  46  0.594  0.778  0.391-  86 2.16  89 2.17  95 2.25  85 2.26  78 2.26  27 2.45  26 2.53  32 2.53

  47  0.906  0.965  0.130-  87 2.06  81 2.10  67 2.24  88 2.36  68 2.36  41 2.48  16 2.53  42 2.53

  48  0.715  0.526  0.059-  63 2.01  91 2.06  69 2.06  40 2.44  24 2.52  18 2.53
  49  0.073  0.167  0.311-  25 2.25  10 2.26  20 2.26   9 2.36  19 2.36
  50  0.143  0.024  0.438-  14 2.05  20 2.14   4 2.18  26 2.21
  51  0.385  0.355  0.051-  15 1.99  36 2.05   5 2.13   6 2.26  11 2.26
  52  0.479  0.261  0.181-  15 2.12  16 2.25   7 2.26  21 2.26  11 2.36   6 2.36
  53  0.018  0.384  0.468-  14 2.03  13 2.07  10 2.07  66 2.74
  54  0.436  0.472  0.355-  32 2.25   2 2.26  22 2.26   1 2.36  21 2.36
  55  0.257  0.159  0.103-   5 2.13   6 2.15  35 2.16   3 2.20
  56  0.342  0.066  0.225-   7 2.25  25 2.26  45 2.26   3 2.36  35 2.36
  57  0.089  0.455  0.092-  36 2.06   6 2.10   5 2.14  24 2.18  28 2.50
  58  0.174  0.397  0.225-   9 2.25   1 2.26   7 2.26   6 2.36  28 2.36
  59  0.268  0.303  0.355-  10 2.25   8 2.26   2 2.26   7 2.36   1 2.36  60 2.77
  60  0.359  0.222  0.470-  17 2.01   2 2.07   8 2.08  59 2.77
  61  0.573  0.167  0.311-  37 2.25  22 2.26   8 2.26  21 2.36   7 2.36
  62  0.667  0.073  0.442-  23 2.01  17 2.02  38 2.25  22 2.36   8 2.36
  63  0.883  0.355  0.062-  48 2.01  18 2.05  24 2.07
  64  0.979  0.261  0.181-   3 2.25  19 2.26   9 2.26  24 2.36  18 2.36
  65  0.521  0.364  0.472-  23 2.03  22 2.06   2 2.06
  66  0.936  0.472  0.355-  44 2.25  13 2.26  10 2.26  12 2.36   9 2.36  53 2.74
  67  0.743  0.163  0.104-  41 2.07  16 2.10  18 2.19  47 2.24  15 2.34
  68  0.842  0.066  0.225-  19 2.25  37 2.26  33 2.26  16 2.36  47 2.36
  69  0.583  0.483  0.107-  48 2.06  40 2.11  18 2.12  11 2.15
  70  0.674  0.397  0.225-  21 2.25  12 2.26  19 2.26  18 2.36  40 2.36
  71  0.768  0.303  0.355-  22 2.25  20 2.26  13 2.26  19 2.36  12 2.36
  72  0.862  0.209  0.486-  14 2.03  23 2.06   4 2.07  20 2.36  13 2.36
  73  0.073  0.667  0.311-   1 2.25  34 2.26  44 2.26  33 2.36  43 2.36  74 2.66
  74  0.170  0.566  0.417-  29 2.04   2 2.17  44 2.18  34 2.22  73 2.66
  75  0.358  0.883  0.063-  35 1.99  30 1.99
  76  0.479  0.761  0.181-  40 2.25  31 2.26  45 2.26  35 2.36  30 2.36
  77  0.061  0.807  0.484-  39 2.04   4 2.04  29 2.05  34 2.13  38 2.47
  78  0.436  0.972  0.355-   8 2.25  26 2.26  46 2.26  25 2.36  45 2.36  89 2.75
  79  0.257  0.657  0.108-  36 2.07  28 2.10  11 2.11  30 2.14
  80  0.342  0.566  0.225-  31 2.25   1 2.26  21 2.26  28 2.36  11 2.36
  81  0.083  0.980  0.113-   3 2.05  30 2.08  47 2.10  82 2.72
  82  0.174  0.897  0.225-  33 2.25  25 2.26  31 2.26  30 2.36   3 2.36  81 2.72
  83  0.268  0.803  0.355-  34 2.25  32 2.26  26 2.26  31 2.36  25 2.36
  84  0.364  0.719  0.470-  27 2.00  32 2.06  26 2.08
  85  0.573  0.667  0.311-  12 2.25  46 2.26  32 2.26  45 2.36  31 2.36  86 2.75
  86  0.663  0.577  0.424-  27 2.06  46 2.16  32 2.16  13 2.27  85 2.75
  87  0.898  0.842  0.065-  41 2.01  42 2.06  47 2.06  88 2.79
  88  0.979  0.761  0.181-  28 2.25  43 2.26  33 2.26  47 2.36  42 2.36  87 2.79
  89  0.515  0.897  0.470-  27 2.05  17 2.08  26 2.12  46 2.17  78 2.75
  90  0.936  0.972  0.355-  20 2.25  38 2.26  34 2.26  37 2.36  33 2.36
  91  0.758  0.657  0.108-  48 2.06  24 2.12  40 2.12  42 2.13
  92  0.842  0.566  0.225-  43 2.25  12 2.26   9 2.26  40 2.36  24 2.36
  93  0.580  0.991  0.094-  41 2.05  15 2.11  35 2.25  42 2.26  16 2.26
  94  0.674  0.897  0.225-  45 2.25  37 2.26  43 2.26  42 2.36  16 2.36
  95  0.768  0.803  0.355-  46 2.25  44 2.26  38 2.26  43 2.36  37 2.36
  96  0.853  0.725  0.473-  29 2.04  39 2.06  38 2.11  44 2.18
 
  LATTYP: Found a base centered orthorhombic cell.
 ALAT       =    11.8257374459
 B/A-ratio  =     1.6199260857
 C/A-ratio  =     1.9043172636
  
  Lattice vectors:
  
 A1 = (  11.2564630382,   0.0000000000,   0.0000000000)
 A2 = (  -5.0445621212, -10.0628203371,   0.0000000000)
 A3 = (   0.0000000000,   0.0000000000, -22.5199559732)


Analysis of symmetry for initial positions (statically):
=====================================================================
 Subroutine PRICEL returns:
 Original cell was already a primitive cell.
 

 Routine SETGRP: Setting up the symmetry group for a 
 base centered orthorhombic supercell.


 Subroutine GETGRP returns: Found  1 space group operations
 (whereof  1 operations were pure point group operations)
 out of a pool of  8 trial point group operations.


The static configuration has the point symmetry C_1 .


Analysis of symmetry for dynamics (positions and initial velocities):
=====================================================================
 Subroutine PRICEL returns:
 Original cell was already a primitive cell.
 

 Routine SETGRP: Setting up the symmetry group for a 
 base centered orthorhombic supercell.


 Subroutine GETGRP returns: Found  1 space group operations
 (whereof  1 operations were pure point group operations)
 out of a pool of  8 trial point group operations.


The dynamic configuration has the point symmetry C_1 .


 Subroutine INISYM returns: Found  1 space group operations
 (whereof  1 operations are pure point group operations),
 and found     1 'primitive' translations

 
 
 KPOINTS: gamma-point-only calculation. no periodi

Automatic generation of k-mesh.
Space group operators:
 irot       det(A)        alpha          n_x          n_y          n_z        tau_x        tau_y        tau_z
    1     1.000000     0.000000     1.000000     0.000000     0.000000     0.000000     0.000000     0.000000
 
 Subroutine IBZKPT returns following result:
 ===========================================
 
 Found      1 irreducible k-points:
 
 Following reciprocal coordinates:
            Coordinates               Weight
  0.000000  0.000000  0.000000      1.000000
 
 Following cartesian coordinates:
            Coordinates               Weight
  0.000000  0.000000  0.000000      1.000000
 


--------------------------------------------------------------------------------------------------------




 Dimension of arrays:
   k-points           NKPTS =      1   k-points in BZ     NKDIM =      1   number of bands    NBANDS=    634
   number of dos      NEDOS =    301   number of ions     NIONS =     96
   non local maximal  LDIM  =      6   non local SUM 2l+1 LMDIM =     18
   total plane-waves  NPLWV = 432000
   max r-space proj   IRMAX =   1917   max aug-charges    IRDMAX=   5534
   dimension x,y,z NGX =    60 NGY =   60 NGZ =  120
   dimension x,y,z NGXF=   120 NGYF=  120 NGZF=  240
   support grid    NGXF=   120 NGYF=  120 NGZF=  240
   ions per type =              48  48
   NGX,Y,Z   is equivalent  to a cutoff of   8.86,  8.86,  8.86 a.u.
   NGXF,Y,Z  is equivalent  to a cutoff of  17.72, 17.72, 17.72 a.u.

 SYSTEM =  "Millerite NiS"                         
 POSCAR =  Type_048 Type_148                       

 Startparameter for this run:
   NWRITE =      2    write-flag & timer
   PREC   = normal    normal or accurate (medium, high low for compatibility)
   ISTART =      0    job   : 0-new  1-cont  2-samecut
   ICHARG =      2    charge: 1-file 2-atom 10-const
   ISPIN  =      1    spin polarized calculation?
   LNONCOLLINEAR =      F non collinear calculations
   LSORBIT =      F    spin-orbit coupling
   INIWAV =      1    electr: 0-lowe 1-rand  2-diag
   LASPH  =      F    aspherical Exc in radial PAW
   METAGGA=      F    non-selfconsistent MetaGGA calc.

 Electronic Relaxation 1
   ENCUT  =  450.0 eV  33.07 Ry    5.75 a.u.  19.47 19.47 38.95*2*pi/ulx,y,z
   ENINI  =  450.0     initial cutoff
   ENAUG  =  703.4 eV  augmentation charge cutoff
   NELM   =    100;   NELMIN=  2; NELMDL= -5     # of ELM steps 
   EDIFF  = 0.1E-03   stopping-criterion for ELM
   LREAL  =      T    real-space projection
   NLSPLINE    = F    spline interpolate recip. space projectors
   LCOMPAT=      F    compatible to vasp.4.4
   GGA_COMPAT  = T    GGA compatible to vasp.4.4-vasp.4.6
   LMAXPAW     = -100 max onsite density
   LMAXMIX     =    2 max onsite mixed and CHGCAR
   VOSKOWN=      0    Vosko Wilk Nusair interpolation
   ROPT   =   -0.00050  -0.00050
 Ionic relaxation
   EDIFFG = 0.1E-02   stopping-criterion for IOM
   NSW    =      0    number of steps for IOM
   NBLOCK =      1;   KBLOCK =      1    inner block; outer block 
   IBRION =     -1    ionic relax: 0-MD 1-quasi-New 2-CG
   NFREE  =      0    steps in history (QN), initial steepest desc. (CG)
   ISIF   =      2    stress and relaxation
   IWAVPR =     10    prediction:  0-non 1-charg 2-wave 3-comb
   ISYM   =      2    0-nonsym 1-usesym 2-fastsym
   LCORR  =      T    Harris-Foulkes like correction to forces

   POTIM  = 0.5000    time-step for ionic-motion
   TEIN   =    0.0    initial temperature
   TEBEG  =    0.0;   TEEND  =   0.0 temperature during run
   SMASS  =  -3.00    Nose mass-parameter (am)
   estimated Nose-frequenzy (Omega)   =  0.10E-29 period in steps =****** mass=  -0.290E-26a.u.
   SCALEE = 1.0000    scale energy and forces
   NPACO  =    256;   APACO  = 16.0  distance and # of slots for P.C.
   PSTRESS=    0.0 pullay stress

  Mass of Ions in am
   POMASS =  58.69 32.07
  Ionic Valenz
   ZVAL   =  16.00  6.00
  Atomic Wigner-Seitz radii
   RWIGS  =  -1.00 -1.00
  virtual crystal weights 
   VCA    =   1.00  1.00
   NELECT =    1056.0000    total number of electrons
   NUPDOWN=      -1.0000    fix difference up-down

 DOS related values:
   EMIN   =  10.00;   EMAX   =-10.00  energy-range for DOS
   EFERMI =   0.00
   ISMEAR =     0;   SIGMA  =   0.20  broadening in eV -4-tet -1-fermi 0-gaus

 Electronic relaxation 2 (details)
   IALGO  =     38    algorithm
   LDIAG  =      T    sub-space diagonalisation (order eigenvalues)
   LSUBROT=      F    optimize rotation matrix (better conditioning)
   TURBO    =      0    0=normal 1=particle mesh
   IRESTART =      0    0=no restart 2=restart with 2 vectors
   NREBOOT  =      0    no. of reboots
   NMIN     =      0    reboot dimension
   EREF     =   0.00    reference energy to select bands
   IMIX   =      4    mixing-type and parameters
     AMIX     =   0.40;   BMIX     =  1.00
     AMIX_MAG =   1.60;   BMIX_MAG =  1.00
     AMIN     =   0.10
     WC   =   100.;   INIMIX=   1;  MIXPRE=   1;  MAXMIX= -45

 Intra band minimization:
   WEIMIN = 0.0000     energy-eigenvalue tresh-hold
   EBREAK =  0.39E-07  absolut break condition
   DEPER  =   0.30     relativ break condition  

   TIME   =   0.40     timestep for ELM

  volume/ion in A,a.u.               =      26.57       179.31
  Fermi-wavevector in a.u.,A,eV,Ry     =   1.220112  2.305678 20.254633  1.488674
  Thomas-Fermi vector in A             =   2.355341
 
 Write flags
   LWAVE        =      F    write WAVECAR
   LDOWNSAMPLE  =      F    k-point downsampling of WAVECAR
   LCHARG       =      F    write CHGCAR
   LVTOT        =      F    write LOCPOT, total local potential
   LVHAR        =      F    write LOCPOT, Hartree potential only
   LELF         =      F    write electronic localiz. function (ELF)
   LORBIT       =      0    0 simple, 1 ext, 2 COOP (PROOUT), +10 PAW based schemes


 Dipole corrections
   LMONO  =      F    monopole corrections only (constant potential shift)
   LDIPOL =      F    correct potential (dipole corrections)
   IDIPOL =      0    1-x, 2-y, 3-z, 4-all directions 
   EPSILON=  1.0000000 bulk dielectric constant

 Exchange correlation treatment:
   GGA     =    --    GGA type
   LEXCH   =     8    internal setting for exchange type
   VOSKOWN=      0    Vosko Wilk Nusair interpolation
   LHFCALC =     F    Hartree Fock is set to
   LHFONE  =     F    Hartree Fock one center treatment
   AEXX    =    0.0000 exact exchange contribution

 Linear response parameters
   LEPSILON=     F    determine dielectric tensor
   LRPA    =     F    only Hartree local field effects (RPA)
   LNABLA  =     F    use nabla operator in PAW spheres
   LVEL    =     F    velocity operator in full k-point grid
   LINTERFAST=   F  fast interpolation
   KINTER  =     0    interpolate to denser k-point grid
   CSHIFT  =0.1000    complex shift for real part using Kramers Kronig
   OMEGAMAX=  -1.0    maximum frequency
   DEG_THRESHOLD= 0.2000000E-02 threshold for treating states as degnerate
   RTIME   =   -0.100 relaxation time in fs
  (WPLASMAI=    0.000 imaginary part of plasma frequency in eV, 0.658/RTIME)
   DFIELD  = 0.0000000 0.0000000 0.0000000 field for delta impulse in time
 
 Orbital magnetization related:
   ORBITALMAG=     F  switch on orbital magnetization
   LCHIMAG   =     F  perturbation theory with respect to B field
   DQ        =  0.001000  dq finite difference perturbation B field
   LLRAUG    =     F  two centre corrections for induced B field



--------------------------------------------------------------------------------------------------------


 Static calculation
 charge density and potential will be updated during run
 non-spin polarized calculation
 Variant of blocked Davidson
 Davidson routine will perform the subspace rotation
 perform sub-space diagonalisation
    after iterative eigenvector-optimisation
 modified Broyden-mixing scheme, WC =      100.0
 initial mixing is a Kerker type mixing with AMIX =  0.4000 and BMIX =      1.0000
 Hartree-type preconditioning will be used
 using additional bands          106
 real space projection scheme for non local part
 use partial core corrections
 calculate Harris-corrections to forces 
   (improved forces if not selfconsistent)
 use gradient corrections 
 use of overlap-Matrix (Vanderbilt PP)
 Gauss-broadening in eV      SIGMA  =   0.20


--------------------------------------------------------------------------------------------------------


  energy-cutoff  :      450.00
  volume of cell :     2550.88
      direct lattice vectors                 reciprocal lattice vectors
    11.256463038  0.000000000  0.000000000     0.088837852 -0.044535036  0.000000000
     5.044562121 10.062820337  0.000000000     0.000000000  0.099375718  0.000000000
     0.000000000  0.000000000 22.519955973     0.000000000  0.000000000  0.044405060

  length of vectors
    11.256463038 11.256463038 22.519955973     0.099375718  0.099375718  0.044405060


 
 k-points in units of 2pi/SCALE and weight: gamma-point-only calculation. no periodi
   0.00000000  0.00000000  0.00000000       1.000
 
 k-points in reciprocal lattice and weights: gamma-point-only calculation. no periodi
   0.00000000  0.00000000  0.00000000       1.000
 
 position of ions in fractional coordinates (direct lattice) 
   0.26092069  0.47878037  0.29519774
   0.35488056  0.38482050  0.42557357
   0.16696082  0.07274025  0.16482191
   0.96931054  0.00718152  0.47127282
   0.22669624  0.30384672  0.03561224
   0.27423906  0.33335901  0.13037583
   0.36819893  0.23939914  0.26075166
   0.46215879  0.14543927  0.39112749
   0.00030194  0.37150214  0.26075166
   0.09426180  0.27754227  0.39112749
   0.40634206  0.46546200  0.13037583
   0.76092069  0.47878037  0.29519774
   0.85488056  0.38482050  0.42557357
   0.04847687  0.19564070  0.48608078
   0.52417441  0.19690915  0.09143975
   0.66696082  0.07274025  0.16482191
   0.52781455  0.06810378  0.49697138
   0.77423906  0.33335901  0.13037583
   0.86819893  0.23939914  0.26075166
   0.96215879  0.14543927  0.39112749
   0.50030194  0.37150214  0.26075166
   0.59426180  0.27754227  0.39112749
   0.68521254  0.20060990  0.49875871
   0.90634206  0.46546200  0.13037583
   0.26092069  0.97878037  0.29519774
   0.35488056  0.88482051  0.42557357
   0.54308109  0.70770510  0.48701715
   0.16696083  0.57274025  0.16482191
   0.05133002  0.62953479  0.49094810
   0.27423906  0.83335901  0.13037583
   0.36819893  0.73939914  0.26075166
   0.46215879  0.64543927  0.39112749
   0.00030194  0.87150214  0.26075166
   0.09426180  0.77754227  0.39112749
   0.40634206  0.96546200  0.13037583
   0.21334088  0.52801381  0.05845442
   0.76092069  0.97878037  0.29519774
   0.85488056  0.88482051  0.42557357
   0.88969896  0.84982378  0.52913479
   0.66696083  0.57274025  0.16482191
   0.73239070  0.01370632  0.05386346
   0.77423906  0.83335901  0.13037583
   0.86819893  0.73939914  0.26075166
   0.96215879  0.64543927  0.39112749
   0.50030194  0.87150214  0.26075166
   0.59426180  0.77754227  0.39112749
   0.90634206  0.96546200  0.13037583
   0.71519048  0.52591853  0.05924013
   0.07287763  0.16682345  0.31134757
   0.14265298  0.02423091  0.43750928
   0.38495788  0.35474318  0.05059590
   0.47891775  0.26078331  0.18097174
   0.01769010  0.38426782  0.46843297
   0.43627354  0.47164252  0.35520991
   0.25737747  0.15888673  0.10257834
   0.34231367  0.06560240  0.22483408
   0.08863836  0.45519842  0.09237358
   0.17409868  0.39738739  0.22483408
   0.26805854  0.30342752  0.35520991
   0.35873434  0.22195449  0.46951555
   0.57287763  0.16682345  0.31134757
   0.66683750  0.07286358  0.44172340
   0.88333225  0.35482786  0.06199493
   0.97891775  0.26078331  0.18097174
   0.52078419  0.36445408  0.47230967
   0.93627354  0.47164252  0.35520991
   0.74325732  0.16253575  0.10386837
   0.84231367  0.06560240  0.22483408
   0.58282818  0.48320336  0.10706176
   0.67409868  0.39738739  0.22483408
   0.76805854  0.30342752  0.35520991
   0.86201841  0.20946766  0.48558574
   0.07287763  0.66682345  0.31134757
   0.16996926  0.56609519  0.41745474
   0.35752241  0.88261595  0.06282769
   0.47891775  0.76078331  0.18097174
   0.06132078  0.80676407  0.48435139
   0.43627354  0.97164252  0.35520991
   0.25722541  0.65699394  0.10849593
   0.34231367  0.56560240  0.22483408
   0.08262039  0.98040875  0.11316105
   0.17409868  0.89738739  0.22483408
   0.26805854  0.80342752  0.35520991
   0.36383368  0.71879169  0.47011542
   0.57287763  0.66682345  0.31134757
   0.66282441  0.57693868  0.42375325
   0.89777176  0.84182931  0.06469464
   0.97891775  0.76078331  0.18097174
   0.51509762  0.89711088  0.47026121
   0.93627354  0.97164252  0.35520991
   0.75798213  0.65720533  0.10754002
   0.84231367  0.56560240  0.22483408
   0.58013881  0.99134726  0.09445824
   0.67409868  0.89738739  0.22483408
   0.76805854  0.80342752  0.35520991
   0.85253079  0.72488411  0.47348165
 
 position of ions in cartesian coordinates  (Angst):
   5.35228144  4.81788086  6.64784004
   5.93595083  3.87237960  9.58389801
   2.24633108  0.73197210  3.71178209
  10.94723593  0.07226637 10.61304308
   4.08457147  3.05755497  0.80198614
   4.76861206  3.35453179  2.93605795
   5.35228145  2.40903053  5.87211593
   5.93595082  1.46352927  8.80817388
   1.87746436  3.73835925  5.87211593
   2.46113373  2.79285799  8.80817388
   6.92202632  4.68386050  2.93605795
  10.98051296  4.81788086  6.64784004
  11.56418235  3.87237960  9.58389801
   1.53259976  1.96869719 10.94651783
   6.89367029  1.98146142  2.05921922
   7.87456260  0.73197210  3.71178209
   6.28487873  0.68531611 11.19177353
  10.39684358  3.35453179  2.93605795
  10.98051297  2.40903053  5.87211593
  11.56418234  1.46352927  8.80817388
   7.50569588  3.73835925  5.87211593
   8.08936525  2.79285799  8.80817388
   8.72505871  2.01870141 11.23202414
  12.55025784  4.68386050  2.93605795
   7.87456250  9.84929103  6.64784004
   8.45823189  8.90378977  9.58389801
   9.68323455  7.12150927 10.96760470
   4.76861214  5.76338227  3.71178209
   3.75352178  6.33489548 11.05612967
   7.29089312  8.38594195  2.93605795
   7.87456251  7.44044070  5.87211593
   8.45823188  6.49493944  8.80817388
   4.39974542  8.76976942  5.87211593
   4.98341479  7.82426816  8.80817388
   9.44430738  9.71527067  2.93605795
   5.06506220  5.31330814  1.31639087
  13.50279402  9.84929103  6.64784004
  14.08646341  8.90378977  9.58389801
  14.30185225  8.55162398 11.91609221
  10.39684366  5.76338227  3.71178209
   8.31327127  0.13792425  1.21300269
  12.91912464  8.38594195  2.93605795
  13.50279403  7.44044070  5.87211593
  14.08646340  6.49493944  8.80817388
  10.02797694  8.76976942  5.87211593
  10.61164631  7.82426816  8.80817388
  15.07253890  9.71527067  2.93605795
  10.70354386  5.29222370  1.33408517
   1.66189560  1.67871438  7.01153346
   1.72800230  0.24383133  9.85268971
   6.12278818  3.56971688  1.13941755
   6.70645757  2.62421563  4.07547550
   2.13759085  3.86681800 10.54908986
   7.29012695  4.74605393  7.99931144
   3.69867395  1.59884862  2.31005963
   4.18417659  0.66014516  5.06325349
   3.29403115  4.58057992  2.08024901
   3.96438071  3.99883791  5.06325349
   4.54805009  3.05333666  7.99931144
   5.15774304  2.23348811 10.57346941
   7.29012712  1.67871438  7.01153346
   7.87379650  0.73321311  9.94759143
  11.73314793  3.57056896  1.39612309
  12.33468909  2.62421563  4.07547550
   7.70069917  3.66743589 10.63639302
  12.91835847  4.74605393  7.99931144
   9.18637028  1.63556801  2.33911105
   9.81240811  0.66014516  5.06325349
   8.99813325  4.86238862  2.41102606
   9.59261223  3.99883791  5.06325349
  10.17628161  3.05333666  7.99931144
  10.75995099  2.10783540 10.93536940
   4.18417666  6.71012454  7.01153346
   4.76895503  5.69651417  9.40106229
   8.47684884  8.88160573  1.41487683
   9.22873863  7.65562579  4.07547550
   4.76002651  8.11832187 10.90757207
   9.81240801  9.77746410  7.99931144
   6.20969506  6.61121196  2.44332354
   6.70645765  5.69155533  5.06325349
   5.87574621  9.86567711  2.54838185
   6.48666177  9.03024808  5.06325349
   7.07033115  8.08474683  7.99931144
   7.72146966  7.23307164 10.58697859
   9.81240818  6.71012454  7.01153346
  10.37146147  5.80563029  9.54290451
  14.35239481  8.47117707  1.45692054
  14.85697015  7.65562579  4.07547550
  10.32370895  9.02746563 10.59026181
  15.44063953  9.77746410  7.99931144
  11.84751096  6.61333916  2.42179650
  12.33468917  5.69155533  5.06325349
  11.53122390  9.97574934  2.12719552
  12.11489329  9.03024808  5.06325349
  12.69856267  8.08474683  7.99931144
  13.25320432  7.29437859 10.66278586
 


--------------------------------------------------------------------------------------------------------


 use parallel FFT for orbitals z direction half grid
 k-point  1 :   0.0000 0.0000 0.0000  plane waves:   27671

 maximum and minimum number of plane-waves per node :      4613     4610

 maximum number of plane-waves:     27671
 maximum index in each direction: 
   IXMAX=   19   IYMAX=   19   IZMAX=   38
   IXMIN=  -19   IYMIN=  -19   IZMIN=    0


 real space projection operators:
  total allocation   :      15705.50 KBytes
  max/ min on nodes  :       2643.19       2593.53


 parallel 3D FFT for wavefunctions:
    minimum data exchange during FFTs selected (reduces bandwidth)
 parallel 3D FFT for charge:
    minimum data exchange during FFTs selected (reduces bandwidth)


 total amount of memory used by VASP MPI-rank0    87634. kBytes
=======================================================================

   base      :      30000. kBytes
   nonlr-proj:       3204. kBytes
   fftplans  :      11274. kBytes
   grid      :      19113. kBytes
   one-center:        124. kBytes
   wavefun   :      23919. kBytes
 
     INWAV:  cpu time    0.0000: real time    0.0000
 Broyden mixing: mesh for mixing (old mesh)
   NGX = 39   NGY = 39   NGZ = 77
  (NGX  =120   NGY  =120   NGZ  =240)
  gives a total of 117117 points

 initial charge density was supplied:
 charge density of overlapping atoms calculated
 number of electron    1056.0000000 magnetization 
 keeping initial charge density in first step


--------------------------------------------------------------------------------------------------------


 Maximum index for non-local projection operator          321
 Maximum index for augmentation-charges          492 (set IRDMAX)


--------------------------------------------------------------------------------------------------------


 First call to EWALD:  gamma=   0.130
 Maximum number of real-space cells 4x 4x 2
 Maximum number of reciprocal cells 2x 2x 4

    FEWALD:  cpu time    0.0386: real time    0.0386


--------------------------------------- Iteration      1(   1)  ---------------------------------------


    POTLOK:  cpu time    0.3828: real time    0.3832
    SETDIJ:  cpu time    0.0281: real time    0.0281
     EDDAV:  cpu time   15.9310: real time   15.9345
       DOS:  cpu time    0.0034: real time    0.0034
    --------------------------------------------
      LOOP:  cpu time   16.3454: real time   16.3493

 eigenvalue-minimisations  :  1540
 total energy-change (2. order) : 0.1341350E+05  (-0.6847761E+05)
 number of electron    1056.0000000 magnetization 
 augmentation part     1056.0000000 magnetization 

 Free energy of the ion-electron system (eV)
  ---------------------------------------------------
  alpha Z        PSCENC =      2592.50432107
  Ewald energy   TEWEN  =    328356.35074052
  -Hartree energ DENC   =   -491574.16401086
  -exchange      EXHF   =         0.00000000
  -V(xc)+E(xc)   XCENC  =      4904.84930520
  PAW double counting   =    150306.04444553  -156855.34918313
  entropy T*S    EENTRO =        -0.51276307
  eigenvalues    EBANDS =     -5653.03389098
  atomic energy  EATOM  =    181336.80673834
  Solvation  Ediel_sol  =         0.00000000
  ---------------------------------------------------
  free energy    TOTEN  =     13413.49570262 eV

  energy without entropy =    13414.00846569  energy(sigma->0) =    13413.75208416


--------------------------------------------------------------------------------------------------------




--------------------------------------- Iteration      1(   2)  ---------------------------------------


     EDDAV:  cpu time   14.2623: real time   14.2648
       DOS:  cpu time    0.0015: real time    0.0015
    --------------------------------------------
      LOOP:  cpu time   14.2638: real time   14.2663

 eigenvalue-minimisations  :  1334
 total energy-change (2. order) :-0.1255569E+05  (-0.1212040E+05)
 number of electron    1056.0000000 magnetization 
 augmentation part     1056.0000000 magnetization 

 Free energy of the ion-electron system (eV)
  ---------------------------------------------------
  alpha Z        PSCENC =      2592.50432107
  Ewald energy   TEWEN  =    328356.35074052
  -Hartree energ DENC   =   -491574.16401086
  -exchange      EXHF   =         0.00000000
  -V(xc)+E(xc)   XCENC  =      4904.84930520
  PAW double counting   =    150306.04444553  -156855.34918313
  entropy T*S    EENTRO =        -0.89366652
  eigenvalues    EBANDS =    -18208.34007889
  atomic energy  EATOM  =    181336.80673834
  Solvation  Ediel_sol  =         0.00000000
  ---------------------------------------------------
  free energy    TOTEN  =       857.80861127 eV

  energy without entropy =      858.70227779  energy(sigma->0) =      858.25544453


--------------------------------------------------------------------------------------------------------




--------------------------------------- Iteration      1(   3)  ---------------------------------------


     EDDAV:  cpu time   14.6336: real time   14.6359
       DOS:  cpu time    0.0019: real time    0.0019
    --------------------------------------------
      LOOP:  cpu time   14.6355: real time   14.6378

 eigenvalue-minimisations  :  1432
 total energy-change (2. order) :-0.1307389E+04  (-0.1240026E+04)
 number of electron    1056.0000000 magnetization 
 augmentation part     1056.0000000 magnetization 

 Free energy of the ion-electron system (eV)
  ---------------------------------------------------
  alpha Z        PSCENC =      2592.50432107
  Ewald energy   TEWEN  =    328356.35074052
  -Hartree energ DENC   =   -491574.16401086
  -exchange      EXHF   =         0.00000000
  -V(xc)+E(xc)   XCENC  =      4904.84930520
  PAW double counting   =    150306.04444553  -156855.34918313
  entropy T*S    EENTRO =        -1.31558458
  eigenvalues    EBANDS =    -19515.30728794
  atomic energy  EATOM  =    181336.80673834
  Solvation  Ediel_sol  =         0.00000000
  ---------------------------------------------------
  free energy    TOTEN  =      -449.58051584 eV

  energy without entropy =     -448.26493127  energy(sigma->0) =     -448.92272356


--------------------------------------------------------------------------------------------------------




--------------------------------------- Iteration      1(   4)  ---------------------------------------


     EDDAV:  cpu time   15.4906: real time   15.4932
       DOS:  cpu time    0.0015: real time    0.0015
    --------------------------------------------
      LOOP:  cpu time   15.4921: real time   15.4947

 eigenvalue-minimisations  :  1448
 total energy-change (2. order) :-0.8193382E+02  (-0.8095790E+02)
 number of electron    1056.0000000 magnetization 
 augmentation part     1056.0000000 magnetization 

 Free energy of the ion-electron system (eV)
  ---------------------------------------------------
  alpha Z        PSCENC =      2592.50432107
  Ewald energy   TEWEN  =    328356.35074052
  -Hartree energ DENC   =   -491574.16401086
  -exchange      EXHF   =         0.00000000
  -V(xc)+E(xc)   XCENC  =      4904.84930520
  PAW double counting   =    150306.04444553  -156855.34918313
  entropy T*S    EENTRO =        -1.36775560
  eigenvalues    EBANDS =    -19597.18894037
  atomic energy  EATOM  =    181336.80673834
  Solvation  Ediel_sol  =         0.00000000
  ---------------------------------------------------
  free energy    TOTEN  =      -531.51433930 eV

  energy without entropy =     -530.14658370  energy(sigma->0) =     -530.83046150


--------------------------------------------------------------------------------------------------------




--------------------------------------- Iteration      1(   5)  ---------------------------------------


     EDDAV:  cpu time   17.7153: real time   17.7187
       DOS:  cpu time    0.0015: real time    0.0015
    CHARGE:  cpu time    0.6929: real time    0.6930
    MIXING:  cpu time    0.0216: real time    0.0217
    --------------------------------------------
      LOOP:  cpu time   18.4314: real time   18.4348

 eigenvalue-minimisations  :  1648
 total energy-change (2. order) :-0.3398975E+01  (-0.3394328E+01)
 number of electron    1056.0000546 magnetization 
 augmentation part      382.7512776 magnetization 

 Broyden mixing:
  rms(total) = 0.11021E+02    rms(broyden)= 0.11007E+02
  rms(prec ) = 0.11355E+02
  weight for this iteration     100.00

 Free energy of the ion-electron system (eV)
  ---------------------------------------------------
  alpha Z        PSCENC =      2592.50432107
  Ewald energy   TEWEN  =    328356.35074052
  -Hartree energ DENC   =   -491574.16401086
  -exchange      EXHF   =         0.00000000
  -V(xc)+E(xc)   XCENC  =      4904.84930520
  PAW double counting   =    150306.04444553  -156855.34918313
  entropy T*S    EENTRO =        -1.37008299
  eigenvalues    EBANDS =    -19600.58558826
  atomic energy  EATOM  =    181336.80673834
  Solvation  Ediel_sol  =         0.00000000
  ---------------------------------------------------
  free energy    TOTEN  =      -534.91331457 eV

  energy without entropy =     -533.54323159  energy(sigma->0) =     -534.22827308


--------------------------------------------------------------------------------------------------------




--------------------------------------- Iteration      1(   6)  ---------------------------------------


    POTLOK:  cpu time    0.4425: real time    0.4426
    SETDIJ:  cpu time    0.0317: real time    0.0317
     EDDAV:  cpu time   17.2319: real time   17.2349
       DOS:  cpu time    0.0015: real time    0.0015
    CHARGE:  cpu time    0.6295: real time    0.6296
    MIXING:  cpu time    0.0155: real time    0.0156
    --------------------------------------------
      LOOP:  cpu time   18.3527: real time   18.3559

 eigenvalue-minimisations  :  1624
 total energy-change (2. order) :-0.1014349E+03  (-0.1220334E+03)
 number of electron    1056.0000472 magnetization 
 augmentation part      454.5826512 magnetization 

 Broyden mixing:
  rms(total) = 0.19278E+02    rms(broyden)= 0.19274E+02
  rms(prec ) = 0.20118E+02
  weight for this iteration     100.00

 eigenvalues of (default mixing * dielectric matrix)
  average eigenvalue GAMMA=   0.2193
  0.2193

 Free energy of the ion-electron system (eV)
  ---------------------------------------------------
  alpha Z        PSCENC =      2592.50432107
  Ewald energy   TEWEN  =    328356.35074052
  -Hartree energ DENC   =   -488008.40205872
  -exchange      EXHF   =         0.00000000
  -V(xc)+E(xc)   XCENC  =      4807.13864249
  PAW double counting   =    156444.99016750  -162690.58556554
  entropy T*S    EENTRO =        -0.97406594
  eigenvalues    EBANDS =    -23474.17712773
  atomic energy  EATOM  =    181336.80673834
  Solvation  Ediel_sol  =         0.00000000
  ---------------------------------------------------
  free energy    TOTEN  =      -636.34820802 eV

  energy without entropy =     -635.37414208  energy(sigma->0) =     -635.86117505


--------------------------------------------------------------------------------------------------------




--------------------------------------- Iteration      1(   7)  ---------------------------------------


    POTLOK:  cpu time    0.3893: real time    0.3893
    SETDIJ:  cpu time    0.0350: real time    0.0350
     EDDAV:  cpu time   14.7183: real time   14.7207
       DOS:  cpu time    0.0016: real time    0.0016
    CHARGE:  cpu time    0.3945: real time    0.3945
    MIXING:  cpu time    0.0119: real time    0.0119
    --------------------------------------------
      LOOP:  cpu time   15.5505: real time   15.5530

 eigenvalue-minimisations  :  1464
 total energy-change (2. order) : 0.1192491E+03  (-0.2766651E+02)
 number of electron    1056.0000610 magnetization 
 augmentation part      445.5909920 magnetization 

 Broyden mixing:
  rms(total) = 0.10027E+02    rms(broyden)= 0.10025E+02
  rms(prec ) = 0.10404E+02
  weight for this iteration     100.00

 eigenvalues of (default mixing * dielectric matrix)
  average eigenvalue GAMMA=   0.3714
  0.3714  0.3714

 Free energy of the ion-electron system (eV)
  ---------------------------------------------------
  alpha Z        PSCENC =      2592.50432107
  Ewald energy   TEWEN  =    328356.35074052
  -Hartree energ DENC   =   -489390.33796386
  -exchange      EXHF   =         0.00000000
  -V(xc)+E(xc)   XCENC  =      4833.61856423
  PAW double counting   =    161373.44306484  -167766.97204930
  entropy T*S    EENTRO =        -1.10704808
  eigenvalues    EBANDS =    -21851.40544075
  atomic energy  EATOM  =    181336.80673834
  Solvation  Ediel_sol  =         0.00000000
  ---------------------------------------------------
  free energy    TOTEN  =      -517.09907299 eV

  energy without entropy =     -515.99202491  energy(sigma->0) =     -516.54554895


--------------------------------------------------------------------------------------------------------




--------------------------------------- Iteration      1(   8)  ---------------------------------------


    POTLOK:  cpu time    0.3653: real time    0.3655
    SETDIJ:  cpu time    0.0236: real time    0.0236
     EDDAV:  cpu time   14.7076: real time   14.7105
       DOS:  cpu time    0.0015: real time    0.0015
    CHARGE:  cpu time    0.6234: real time    0.6235
    MIXING:  cpu time    0.0124: real time    0.0124
    --------------------------------------------
      LOOP:  cpu time   15.7339: real time   15.7371

 eigenvalue-minimisations  :  1720
 total energy-change (2. order) :-0.4764202E+02  (-0.2728799E+02)
 number of electron    1056.0000383 magnetization 
 augmentation part      413.4136351 magnetization 

 Broyden mixing:
  rms(total) = 0.15793E+02    rms(broyden)= 0.15790E+02
  rms(prec ) = 0.18820E+02
  weight for this iteration     100.00

 eigenvalues of (default mixing * dielectric matrix)
  average eigenvalue GAMMA=   0.4126
  0.5384  0.5384  0.1609

 Free energy of the ion-electron system (eV)
  ---------------------------------------------------
  alpha Z        PSCENC =      2592.50432107
  Ewald energy   TEWEN  =    328356.35074052
  -Hartree energ DENC   =   -490229.94746316
  -exchange      EXHF   =         0.00000000
  -V(xc)+E(xc)   XCENC  =      4866.11901461
  PAW double counting   =    168085.87542418  -174648.27153083
  entropy T*S    EENTRO =        -1.06234826
  eigenvalues    EBANDS =    -20923.11599189
  atomic energy  EATOM  =    181336.80673834
  Solvation  Ediel_sol  =         0.00000000
  ---------------------------------------------------
  free energy    TOTEN  =      -564.74109543 eV

  energy without entropy =     -563.67874717  energy(sigma->0) =     -564.20992130


--------------------------------------------------------------------------------------------------------




--------------------------------------- Iteration      1(   9)  ---------------------------------------


    POTLOK:  cpu time    0.3552: real time    0.3552
    SETDIJ:  cpu time    0.0239: real time    0.0239
     EDDAV:  cpu time   14.2356: real time   14.2387
       DOS:  cpu time    0.0015: real time    0.0015
    CHARGE:  cpu time    0.3916: real time    0.3916
    MIXING:  cpu time    0.0130: real time    0.0130
    --------------------------------------------
      LOOP:  cpu time   15.0208: real time   15.0238

 eigenvalue-minimisations  :  1648
 total energy-change (2. order) :-0.1244442E+02  (-0.2088614E+02)
 number of electron    1056.0000496 magnetization 
 augmentation part      406.2769984 magnetization 

 Broyden mixing:
  rms(total) = 0.14300E+02    rms(broyden)= 0.14293E+02
  rms(prec ) = 0.17814E+02
  weight for this iteration     100.00

 eigenvalues of (default mixing * dielectric matrix)
  average eigenvalue GAMMA=   0.4310
  0.9428  0.4388  0.2406  0.1018

 Free energy of the ion-electron system (eV)
  ---------------------------------------------------
  alpha Z        PSCENC =      2592.50432107
  Ewald energy   TEWEN  =    328356.35074052
  -Hartree energ DENC   =   -490656.64240844
  -exchange      EXHF   =         0.00000000
  -V(xc)+E(xc)   XCENC  =      4869.19414105
  PAW double counting   =    172694.27515130  -179304.84657762
  entropy T*S    EENTRO =        -1.30538230
  eigenvalues    EBANDS =    -20463.52223973
  atomic energy  EATOM  =    181336.80673834
  Solvation  Ediel_sol  =         0.00000000
  ---------------------------------------------------
  free energy    TOTEN  =      -577.18551580 eV

  energy without entropy =     -575.88013350  energy(sigma->0) =     -576.53282465


--------------------------------------------------------------------------------------------------------




--------------------------------------- Iteration      1(  10)  ---------------------------------------


    POTLOK:  cpu time    0.3536: real time    0.3538
    SETDIJ:  cpu time    0.0329: real time    0.0329
     EDDAV:  cpu time   15.7578: real time   15.7612
       DOS:  cpu time    0.0016: real time    0.0016
    CHARGE:  cpu time    0.3972: real time    0.3972
    MIXING:  cpu time    0.0136: real time    0.0136
    --------------------------------------------
      LOOP:  cpu time   16.5566: real time   16.5603

 eigenvalue-minimisations  :  1832
 total energy-change (2. order) : 0.2033237E+01  (-0.2190697E+02)
 number of electron    1056.0000803 magnetization 
 augmentation part      404.0819239 magnetization 

 Broyden mixing:
  rms(total) = 0.13857E+02    rms(broyden)= 0.13853E+02
  rms(prec ) = 0.15537E+02
  weight for this iteration     100.00

 eigenvalues of (default mixing * dielectric matrix)
  average eigenvalue GAMMA=   0.4383
  1.3070  0.3369  0.3369  0.1053  0.1053

 Free energy of the ion-electron system (eV)
  ---------------------------------------------------
  alpha Z        PSCENC =      2592.50432107
  Ewald energy   TEWEN  =    328356.35074052
  -Hartree energ DENC   =   -490867.45214230
  -exchange      EXHF   =         0.00000000
  -V(xc)+E(xc)   XCENC  =      4864.69114613
  PAW double counting   =    177240.56300022  -183875.31466715
  entropy T*S    EENTRO =        -1.62794226
  eigenvalues    EBANDS =    -20221.67347298
  atomic energy  EATOM  =    181336.80673834
  Solvation  Ediel_sol  =         0.00000000
  ---------------------------------------------------
  free energy    TOTEN  =      -575.15227841 eV

  energy without entropy =     -573.52433615  energy(sigma->0) =     -574.33830728


--------------------------------------------------------------------------------------------------------




--------------------------------------- Iteration      1(  11)  ---------------------------------------


    POTLOK:  cpu time    0.3564: real time    0.3567
    SETDIJ:  cpu time    0.0232: real time    0.0232
     EDDAV:  cpu time   15.0362: real time   15.0393
       DOS:  cpu time    0.0015: real time    0.0015
    CHARGE:  cpu time    0.3943: real time    0.3945
    MIXING:  cpu time    0.0134: real time    0.0134
    --------------------------------------------
      LOOP:  cpu time   15.8251: real time   15.8286

 eigenvalue-minimisations  :  1728
 total energy-change (2. order) : 0.2349341E+02  (-0.1146022E+02)
 number of electron    1056.0000454 magnetization 
 augmentation part      409.0699670 magnetization 

 Broyden mixing:
  rms(total) = 0.98598E+01    rms(broyden)= 0.98554E+01
  rms(prec ) = 0.10587E+02
  weight for this iteration     100.00

 eigenvalues of (default mixing * dielectric matrix)
  average eigenvalue GAMMA=   0.4536
  1.6161  0.3530  0.3530  0.1517  0.1517  0.0959

 Free energy of the ion-electron system (eV)
  ---------------------------------------------------
  alpha Z        PSCENC =      2592.50432107
  Ewald energy   TEWEN  =    328356.35074052
  -Hartree energ DENC   =   -490655.63826073
  -exchange      EXHF   =         0.00000000
  -V(xc)+E(xc)   XCENC  =      4863.12062791
  PAW double counting   =    181619.39841733  -188290.98333356
  entropy T*S    EENTRO =        -1.26455731
  eigenvalues    EBANDS =    -20371.95356646
  atomic energy  EATOM  =    181336.80673834
  Solvation  Ediel_sol  =         0.00000000
  ---------------------------------------------------
  free energy    TOTEN  =      -551.65887288 eV

  energy without entropy =     -550.39431557  energy(sigma->0) =     -551.02659422


--------------------------------------------------------------------------------------------------------




--------------------------------------- Iteration      1(  12)  ---------------------------------------


    POTLOK:  cpu time    0.3559: real time    0.3559
    SETDIJ:  cpu time    0.0233: real time    0.0233
     EDDAV:  cpu time   15.2128: real time   15.2154
       DOS:  cpu time    0.0016: real time    0.0016
    CHARGE:  cpu time    0.3916: real time    0.3916
    MIXING:  cpu time    0.0144: real time    0.0145
    --------------------------------------------
      LOOP:  cpu time   15.9996: real time   16.0024

 eigenvalue-minimisations  :  1768
 total energy-change (2. order) : 0.3297930E+02  (-0.8128209E+01)
 number of electron    1056.0000709 magnetization 
 augmentation part      412.8649136 magnetization 

 Broyden mixing:
  rms(total) = 0.74944E+01    rms(broyden)= 0.74882E+01
  rms(prec ) = 0.84752E+01
  weight for this iteration     100.00

 eigenvalues of (default mixing * dielectric matrix)
  average eigenvalue GAMMA=   0.5195
  1.9413  0.5156  0.3895  0.3895  0.1932  0.1036  0.1036

 Free energy of the ion-electron system (eV)
  ---------------------------------------------------
  alpha Z        PSCENC =      2592.50432107
  Ewald energy   TEWEN  =    328356.35074052
  -Hartree energ DENC   =   -490582.93315059
  -exchange      EXHF   =         0.00000000
  -V(xc)+E(xc)   XCENC  =      4861.38129345
  PAW double counting   =    185283.01086667  -191981.69046677
  entropy T*S    EENTRO =        -1.21931050
  eigenvalues    EBANDS =    -20382.89060437
  atomic energy  EATOM  =    181336.80673834
  Solvation  Ediel_sol  =         0.00000000
  ---------------------------------------------------
  free energy    TOTEN  =      -518.67957219 eV

  energy without entropy =     -517.46026169  energy(sigma->0) =     -518.06991694


--------------------------------------------------------------------------------------------------------




--------------------------------------- Iteration      1(  13)  ---------------------------------------


    POTLOK:  cpu time    0.3592: real time    0.3592
    SETDIJ:  cpu time    0.0233: real time    0.0233
     EDDAV:  cpu time   15.0556: real time   15.0586
       DOS:  cpu time    0.0016: real time    0.0016
    CHARGE:  cpu time    0.4001: real time    0.4001
    MIXING:  cpu time    0.0150: real time    0.0150
    --------------------------------------------
      LOOP:  cpu time   15.8549: real time   15.8579

 eigenvalue-minimisations  :  1728
 total energy-change (2. order) :-0.3310970E+01  (-0.9936584E+01)
 number of electron    1056.0000670 magnetization 
 augmentation part      413.2000849 magnetization 

 Broyden mixing:
  rms(total) = 0.91257E+01    rms(broyden)= 0.91225E+01
  rms(prec ) = 0.10122E+02
  weight for this iteration     100.00

 eigenvalues of (default mixing * dielectric matrix)
  average eigenvalue GAMMA=   0.5076
  2.1347  0.5416  0.4042  0.4042  0.2205  0.1409  0.1124  0.1023

 Free energy of the ion-electron system (eV)
  ---------------------------------------------------
  alpha Z        PSCENC =      2592.50432107
  Ewald energy   TEWEN  =    328356.35074052
  -Hartree energ DENC   =   -490593.48972723
  -exchange      EXHF   =         0.00000000
  -V(xc)+E(xc)   XCENC  =      4860.24504229
  PAW double counting   =    188038.31757486  -194748.71651438
  entropy T*S    EENTRO =        -1.20180689
  eigenvalues    EBANDS =    -20362.80691039
  atomic energy  EATOM  =    181336.80673834
  Solvation  Ediel_sol  =         0.00000000
  ---------------------------------------------------
  free energy    TOTEN  =      -521.99054181 eV

  energy without entropy =     -520.78873492  energy(sigma->0) =     -521.38963837


--------------------------------------------------------------------------------------------------------




--------------------------------------- Iteration      1(  14)  ---------------------------------------


    POTLOK:  cpu time    0.3577: real time    0.3578
    SETDIJ:  cpu time    0.0233: real time    0.0233
     EDDAV:  cpu time   15.2834: real time   15.2864
       DOS:  cpu time    0.0015: real time    0.0015
    CHARGE:  cpu time    0.3870: real time    0.3871
    MIXING:  cpu time    0.0163: real time    0.0162
    --------------------------------------------
      LOOP:  cpu time   16.0691: real time   16.0723

 eigenvalue-minimisations  :  1752
 total energy-change (2. order) : 0.2126513E+02  (-0.7320848E+01)
 number of electron    1056.0000666 magnetization 
 augmentation part      416.1029197 magnetization 

 Broyden mixing:
  rms(total) = 0.62596E+01    rms(broyden)= 0.62572E+01
  rms(prec ) = 0.70244E+01
  weight for this iteration     100.00

 eigenvalues of (default mixing * dielectric matrix)
  average eigenvalue GAMMA=   0.4724
  2.1594  0.4883  0.4169  0.4169  0.2622  0.1512  0.1512  0.1028  0.1028

 Free energy of the ion-electron system (eV)
  ---------------------------------------------------
  alpha Z        PSCENC =      2592.50432107
  Ewald energy   TEWEN  =    328356.35074052
  -Hartree energ DENC   =   -490559.88978521
  -exchange      EXHF   =         0.00000000
  -V(xc)+E(xc)   XCENC  =      4859.76483295
  PAW double counting   =    189281.69625385  -195997.72301694
  entropy T*S    EENTRO =        -1.25824774
  eigenvalues    EBANDS =    -20368.97724980
  atomic energy  EATOM  =    181336.80673834
  Solvation  Ediel_sol  =         0.00000000
  ---------------------------------------------------
  free energy    TOTEN  =      -500.72541296 eV

  energy without entropy =     -499.46716522  energy(sigma->0) =     -500.09628909


--------------------------------------------------------------------------------------------------------




--------------------------------------- Iteration      1(  15)  ---------------------------------------


    POTLOK:  cpu time    0.3577: real time    0.3577
    SETDIJ:  cpu time    0.0232: real time    0.0232
     EDDAV:  cpu time   14.9383: real time   14.9420
       DOS:  cpu time    0.0015: real time    0.0015
    CHARGE:  cpu time    0.3969: real time    0.3969
    MIXING:  cpu time    0.0163: real time    0.0163
    --------------------------------------------
      LOOP:  cpu time   15.7339: real time   15.7377

 eigenvalue-minimisations  :  1712
 total energy-change (2. order) : 0.1701791E+02  (-0.2566286E+01)
 number of electron    1056.0000627 magnetization 
 augmentation part      418.1383570 magnetization 

 Broyden mixing:
  rms(total) = 0.38053E+01    rms(broyden)= 0.38041E+01
  rms(prec ) = 0.43162E+01
  weight for this iteration     100.00

 eigenvalues of (default mixing * dielectric matrix)
  average eigenvalue GAMMA=   0.4436
  2.0913  0.4346  0.4346  0.4018  0.2957  0.2156  0.2156  0.1032  0.1076  0.1359

 Free energy of the ion-electron system (eV)
  ---------------------------------------------------
  alpha Z        PSCENC =      2592.50432107
  Ewald energy   TEWEN  =    328356.35074052
  -Hartree energ DENC   =   -490534.14382090
  -exchange      EXHF   =         0.00000000
  -V(xc)+E(xc)   XCENC  =      4860.19832288
  PAW double counting   =    189419.10533293  -196136.19295611
  entropy T*S    EENTRO =        -1.13417504
  eigenvalues    EBANDS =    -20377.20200253
  atomic energy  EATOM  =    181336.80673834
  Solvation  Ediel_sol  =         0.00000000
  ---------------------------------------------------
  free energy    TOTEN  =      -483.70749882 eV

  energy without entropy =     -482.57332379  energy(sigma->0) =     -483.14041131


--------------------------------------------------------------------------------------------------------




--------------------------------------- Iteration      1(  16)  ---------------------------------------


    POTLOK:  cpu time    0.3586: real time    0.3586
    SETDIJ:  cpu time    0.0236: real time    0.0236
     EDDAV:  cpu time   15.2528: real time   15.2626
       DOS:  cpu time    0.0015: real time    0.0015
    CHARGE:  cpu time    0.3935: real time    0.3936
    MIXING:  cpu time    0.0190: real time    0.0190
    --------------------------------------------
      LOOP:  cpu time   16.0491: real time   16.0590

 eigenvalue-minimisations  :  1752
 total energy-change (2. order) : 0.2210189E+01  (-0.1295504E+01)
 number of electron    1056.0000613 magnetization 
 augmentation part      417.3471917 magnetization 

 Broyden mixing:
  rms(total) = 0.35550E+01    rms(broyden)= 0.35540E+01
  rms(prec ) = 0.40331E+01
  weight for this iteration     100.00

 eigenvalues of (default mixing * dielectric matrix)
  average eigenvalue GAMMA=   0.4313
  1.9870  0.5440  0.5440  0.3534  0.3534  0.2423  0.2423  0.1355  0.1355  0.1033
  0.1033

 Free energy of the ion-electron system (eV)
  ---------------------------------------------------
  alpha Z        PSCENC =      2592.50432107
  Ewald energy   TEWEN  =    328356.35074052
  -Hartree energ DENC   =   -490547.68845503
  -exchange      EXHF   =         0.00000000
  -V(xc)+E(xc)   XCENC  =      4861.09138716
  PAW double counting   =    188971.26229754  -195685.31233308
  entropy T*S    EENTRO =        -1.14896188
  eigenvalues    EBANDS =    -20365.36304412
  atomic energy  EATOM  =    181336.80673834
  Solvation  Ediel_sol  =         0.00000000
  ---------------------------------------------------
  free energy    TOTEN  =      -481.49730948 eV

  energy without entropy =     -480.34834760  energy(sigma->0) =     -480.92282854


--------------------------------------------------------------------------------------------------------




--------------------------------------- Iteration      1(  17)  ---------------------------------------


    POTLOK:  cpu time    0.3575: real time    0.3576
    SETDIJ:  cpu time    0.0232: real time    0.0232
     EDDAV:  cpu time   15.1386: real time   15.1413
       DOS:  cpu time    0.0015: real time    0.0015
    CHARGE:  cpu time    0.3988: real time    0.3988
    MIXING:  cpu time    0.0182: real time    0.0182
    --------------------------------------------
      LOOP:  cpu time   15.9378: real time   15.9406

 eigenvalue-minimisations  :  1752
 total energy-change (2. order) : 0.4112842E+01  (-0.4197652E+00)
 number of electron    1056.0000602 magnetization 
 augmentation part      416.5398185 magnetization 

 Broyden mixing:
  rms(total) = 0.28372E+01    rms(broyden)= 0.28369E+01
  rms(prec ) = 0.32279E+01
  weight for this iteration     100.00

 eigenvalues of (default mixing * dielectric matrix)
  average eigenvalue GAMMA=   0.4097
  1.9689  0.5574  0.5574  0.2986  0.2986  0.3011  0.3011  0.1528  0.1528  0.1026
  0.1124  0.1124

 Free energy of the ion-electron system (eV)
  ---------------------------------------------------
  alpha Z        PSCENC =      2592.50432107
  Ewald energy   TEWEN  =    328356.35074052
  -Hartree energ DENC   =   -490576.16734550
  -exchange      EXHF   =         0.00000000
  -V(xc)+E(xc)   XCENC  =      4862.48200499
  PAW double counting   =    188193.46867904  -194902.78208330
  entropy T*S    EENTRO =        -1.14037642
  eigenvalues    EBANDS =    -20338.90714627
  atomic energy  EATOM  =    181336.80673834
  Solvation  Ediel_sol  =         0.00000000
  ---------------------------------------------------
  free energy    TOTEN  =      -477.38446752 eV

  energy without entropy =     -476.24409110  energy(sigma->0) =     -476.81427931


--------------------------------------------------------------------------------------------------------




--------------------------------------- Iteration      1(  18)  ---------------------------------------


    POTLOK:  cpu time    0.3576: real time    0.3579
    SETDIJ:  cpu time    0.0235: real time    0.0234
     EDDAV:  cpu time   14.2325: real time   14.2363
       DOS:  cpu time    0.0015: real time    0.0015
    CHARGE:  cpu time    0.6317: real time    0.6317
    MIXING:  cpu time    0.0190: real time    0.0190
    --------------------------------------------
      LOOP:  cpu time   15.2657: real time   15.2698

 eigenvalue-minimisations  :  1648
 total energy-change (2. order) : 0.6812298E+00  (-0.1324090E+00)
 number of electron    1056.0000602 magnetization 
 augmentation part      416.1732965 magnetization 

 Broyden mixing:
  rms(total) = 0.27223E+01    rms(broyden)= 0.27222E+01
  rms(prec ) = 0.31066E+01
  weight for this iteration     100.00

 eigenvalues of (default mixing * dielectric matrix)
  average eigenvalue GAMMA=   0.4091
  1.9494  0.5910  0.5910  0.3657  0.3657  0.3040  0.3040  0.1876  0.1876  0.1038
  0.1038  0.1320  0.1320

 Free energy of the ion-electron system (eV)
  ---------------------------------------------------
  alpha Z        PSCENC =      2592.50432107
  Ewald energy   TEWEN  =    328356.35074052
  -Hartree energ DENC   =   -490584.80453084
  -exchange      EXHF   =         0.00000000
  -V(xc)+E(xc)   XCENC  =      4862.76108838
  PAW double counting   =    188006.00648038  -194713.72999380
  entropy T*S    EENTRO =        -1.15232326
  eigenvalues    EBANDS =    -20331.44575856
  atomic energy  EATOM  =    181336.80673834
  Solvation  Ediel_sol  =         0.00000000
  ---------------------------------------------------
  free energy    TOTEN  =      -476.70323777 eV

  energy without entropy =     -475.55091451  energy(sigma->0) =     -476.12707614


--------------------------------------------------------------------------------------------------------




--------------------------------------- Iteration      1(  19)  ---------------------------------------


    POTLOK:  cpu time    0.3598: real time    0.3599
    SETDIJ:  cpu time    0.0233: real time    0.0233
     EDDAV:  cpu time   14.8184: real time   14.8214
       DOS:  cpu time    0.0015: real time    0.0015
    CHARGE:  cpu time    0.4555: real time    0.4556
    MIXING:  cpu time    0.0355: real time    0.0355
    --------------------------------------------
      LOOP:  cpu time   15.6940: real time   15.6972

 eigenvalue-minimisations  :  1728
 total energy-change (2. order) : 0.8890949E+00  (-0.2771904E-01)
 number of electron    1056.0000603 magnetization 
 augmentation part      415.9430553 magnetization 

 Broyden mixing:
  rms(total) = 0.26216E+01    rms(broyden)= 0.26215E+01
  rms(prec ) = 0.29865E+01
  weight for this iteration     100.00

 eigenvalues of (default mixing * dielectric matrix)
  average eigenvalue GAMMA=   0.4315
  1.9447  0.7323  0.7323  0.4353  0.4353  0.3051  0.3051  0.2612  0.2612  0.1474
  0.1474  0.1044  0.1044  0.1254

 Free energy of the ion-electron system (eV)
  ---------------------------------------------------
  alpha Z        PSCENC =      2592.50432107
  Ewald energy   TEWEN  =    328356.35074052
  -Hartree energ DENC   =   -490593.37049662
  -exchange      EXHF   =         0.00000000
  -V(xc)+E(xc)   XCENC  =      4863.13834816
  PAW double counting   =    187657.12569521  -194361.48119375
  entropy T*S    EENTRO =        -1.16043595
  eigenvalues    EBANDS =    -20325.72785987
  atomic energy  EATOM  =    181336.80673834
  Solvation  Ediel_sol  =         0.00000000
  ---------------------------------------------------
  free energy    TOTEN  =      -475.81414289 eV

  energy without entropy =     -474.65370694  energy(sigma->0) =     -475.23392492


--------------------------------------------------------------------------------------------------------




--------------------------------------- Iteration      1(  20)  ---------------------------------------


    POTLOK:  cpu time    0.4329: real time    0.4329
    SETDIJ:  cpu time    0.0233: real time    0.0233
     EDDAV:  cpu time   15.4267: real time   15.4347
       DOS:  cpu time    0.0017: real time    0.0017
    CHARGE:  cpu time    0.5462: real time    0.5463
    MIXING:  cpu time    0.0397: real time    0.0407
    --------------------------------------------
      LOOP:  cpu time   16.4706: real time   16.4796

 eigenvalue-minimisations  :  1832
 total energy-change (2. order) : 0.9037081E+00  (-0.2669260E-01)
 number of electron    1056.0000602 magnetization 
 augmentation part      415.7873105 magnetization 

 Broyden mixing:
  rms(total) = 0.25284E+01    rms(broyden)= 0.25284E+01
  rms(prec ) = 0.28776E+01
  weight for this iteration     100.00

 eigenvalues of (default mixing * dielectric matrix)
  average eigenvalue GAMMA=   0.5020
  1.9838  1.2583  1.2583  0.4688  0.4688  0.3887  0.3887  0.2545  0.2545  0.1655
  0.1655  0.1042  0.1042  0.1330  0.1330

 Free energy of the ion-electron system (eV)
  ---------------------------------------------------
  alpha Z        PSCENC =      2592.50432107
  Ewald energy   TEWEN  =    328356.35074052
  -Hartree energ DENC   =   -490602.56115985
  -exchange      EXHF   =         0.00000000
  -V(xc)+E(xc)   XCENC  =      4863.43348436
  PAW double counting   =    187293.58511608  -193993.74012569
  entropy T*S    EENTRO =        -1.17554509
  eigenvalues    EBANDS =    -20320.11400449
  atomic energy  EATOM  =    181336.80673834
  Solvation  Ediel_sol  =         0.00000000
  ---------------------------------------------------
  free energy    TOTEN  =      -474.91043475 eV

  energy without entropy =     -473.73488966  energy(sigma->0) =     -474.32266221


--------------------------------------------------------------------------------------------------------




--------------------------------------- Iteration      1(  21)  ---------------------------------------


    POTLOK:  cpu time    0.4154: real time    0.4157
    SETDIJ:  cpu time    0.0237: real time    0.0237
     EDDAV:  cpu time   15.9194: real time   15.9229
       DOS:  cpu time    0.0045: real time    0.0045
    CHARGE:  cpu time    0.6317: real time    0.6317
    MIXING:  cpu time    0.0228: real time    0.0228
    --------------------------------------------
      LOOP:  cpu time   17.0176: real time   17.0214

 eigenvalue-minimisations  :  1904
 total energy-change (2. order) : 0.2644186E+01  (-0.1314485E+00)
 number of electron    1056.0000600 magnetization 
 augmentation part      415.6014600 magnetization 

 Broyden mixing:
  rms(total) = 0.20931E+01    rms(broyden)= 0.20929E+01
  rms(prec ) = 0.23805E+01
  weight for this iteration     100.00

 eigenvalues of (default mixing * dielectric matrix)
  average eigenvalue GAMMA=   0.5474
  2.0666  1.6284  1.6284  0.5062  0.5062  0.4297  0.4297  0.2856  0.2856  0.1826
  0.1826  0.1043  0.1043  0.1513  0.1319  0.1349

 Free energy of the ion-electron system (eV)
  ---------------------------------------------------
  alpha Z        PSCENC =      2592.50432107
  Ewald energy   TEWEN  =    328356.35074052
  -Hartree energ DENC   =   -490629.33916748
  -exchange      EXHF   =         0.00000000
  -V(xc)+E(xc)   XCENC  =      4864.10781709
  PAW double counting   =    186185.31678246  -192870.29388874
  entropy T*S    EENTRO =        -1.20259768
  eigenvalues    EBANDS =    -20306.51699474
  atomic energy  EATOM  =    181336.80673834
  Solvation  Ediel_sol  =         0.00000000
  ---------------------------------------------------
  free energy    TOTEN  =      -472.26624915 eV

  energy without entropy =     -471.06365148  energy(sigma->0) =     -471.66495032


--------------------------------------------------------------------------------------------------------




--------------------------------------- Iteration      1(  22)  ---------------------------------------


    POTLOK:  cpu time    0.3629: real time    0.3631
    SETDIJ:  cpu time    0.0232: real time    0.0232
     EDDAV:  cpu time   14.7449: real time   14.7480
       DOS:  cpu time    0.0036: real time    0.0036
    CHARGE:  cpu time    0.6187: real time    0.6188
    MIXING:  cpu time    0.0418: real time    0.0418
    --------------------------------------------
      LOOP:  cpu time   15.7949: real time   15.7983

 eigenvalue-minimisations  :  1728
 total energy-change (2. order) : 0.2009718E+01  (-0.2454988E+00)
 number of electron    1056.0000587 magnetization 
 augmentation part      415.7236499 magnetization 

 Broyden mixing:
  rms(total) = 0.13486E+01    rms(broyden)= 0.13479E+01
  rms(prec ) = 0.14955E+01
  weight for this iteration     100.00

 eigenvalues of (default mixing * dielectric matrix)
  average eigenvalue GAMMA=   0.5543
  2.0578  1.7893  1.7893  0.5820  0.5820  0.4145  0.4145  0.2965  0.2965  0.2255
  0.1754  0.1754  0.1042  0.1042  0.1476  0.1376  0.1313

 Free energy of the ion-electron system (eV)
  ---------------------------------------------------
  alpha Z        PSCENC =      2592.50432107
  Ewald energy   TEWEN  =    328356.35074052
  -Hartree energ DENC   =   -490641.96427795
  -exchange      EXHF   =         0.00000000
  -V(xc)+E(xc)   XCENC  =      4864.49853797
  PAW double counting   =    185224.26807218  -191892.83223307
  entropy T*S    EENTRO =        -1.24249104
  eigenvalues    EBANDS =    -20308.64593894
  atomic energy  EATOM  =    181336.80673834
  Solvation  Ediel_sol  =         0.00000000
  ---------------------------------------------------
  free energy    TOTEN  =      -470.25653092 eV

  energy without entropy =     -469.01403987  energy(sigma->0) =     -469.63528540


--------------------------------------------------------------------------------------------------------




--------------------------------------- Iteration      1(  23)  ---------------------------------------


    POTLOK:  cpu time    0.3763: real time    0.3763
    SETDIJ:  cpu time    0.0246: real time    0.0246
     EDDAV:  cpu time   14.7266: real time   14.7299
       DOS:  cpu time    0.0043: real time    0.0043
    CHARGE:  cpu time    0.4037: real time    0.4038
    MIXING:  cpu time    0.0227: real time    0.0227
    --------------------------------------------
      LOOP:  cpu time   15.5583: real time   15.5617

 eigenvalue-minimisations  :  1728
 total energy-change (2. order) : 0.6893412E+00  (-0.1921495E+00)
 number of electron    1056.0000572 magnetization 
 augmentation part      415.4788297 magnetization 

 Broyden mixing:
  rms(total) = 0.91106E+00    rms(broyden)= 0.91010E+00
  rms(prec ) = 0.99688E+00
  weight for this iteration     100.00

 eigenvalues of (default mixing * dielectric matrix)
  average eigenvalue GAMMA=   0.5392
  2.0015  1.8141  1.8141  0.5881  0.5881  0.4064  0.4064  0.3391  0.3016  0.3016
  0.1840  0.1840  0.1042  0.1042  0.1540  0.1540  0.1301  0.1301

 Free energy of the ion-electron system (eV)
  ---------------------------------------------------
  alpha Z        PSCENC =      2592.50432107
  Ewald energy   TEWEN  =    328356.35074052
  -Hartree energ DENC   =   -490657.24208464
  -exchange      EXHF   =         0.00000000
  -V(xc)+E(xc)   XCENC  =      4864.97543237
  PAW double counting   =    184405.52055371  -191061.25105449
  entropy T*S    EENTRO =        -1.25366668
  eigenvalues    EBANDS =    -20305.97816994
  atomic energy  EATOM  =    181336.80673834
  Solvation  Ediel_sol  =         0.00000000
  ---------------------------------------------------
  free energy    TOTEN  =      -469.56718973 eV

  energy without entropy =     -468.31352306  energy(sigma->0) =     -468.94035640


[...]
   -.369E+02 -.513E+03 -.578E+04   0.351E+02 0.515E+03 0.579E+04   0.182E+01 -.157E+01 0.495E-01   0.241E+00 -.167E+00 0.140E+00
   -.635E+03 -.610E+01 0.386E+04   0.639E+03 0.655E+01 -.386E+04   -.290E+01 -.639E+00 0.104E+01   0.165E+00 -.157E+00 0.617E+00
   0.217E+03 -.385E+03 -.526E+03   -.218E+03 0.386E+03 0.525E+03   0.776E+00 -.135E+01 0.373E+00   -.158E-01 -.698E-01 -.635E-01
   0.346E+03 -.564E+03 -.407E+04   -.348E+03 0.568E+03 0.407E+04   0.135E+01 -.257E+01 -.235E+01   0.271E-01 -.899E-01 0.475E-01
   -.124E+03 0.492E+03 -.604E+04   0.124E+03 -.495E+03 0.604E+04   0.116E+01 0.230E+01 -.444E+01   0.311E-01 0.107E+00 -.636E-01
   0.401E+03 -.687E+03 0.258E+04   -.404E+03 0.689E+03 -.258E+04   0.192E+01 -.172E+01 -.945E+00   0.645E-01 0.868E-01 0.300E+00
   -.277E+03 0.108E+04 -.573E+04   0.277E+03 -.108E+04 0.573E+04   0.124E+00 0.110E+01 -.527E+00   -.849E-01 0.208E+00 0.231E+00
   0.227E+03 0.356E+03 0.426E+04   -.229E+03 -.359E+03 -.427E+04   0.688E+00 0.162E+01 0.445E+01   0.228E+00 0.352E+00 0.156E+00
   0.227E+03 0.427E+03 0.617E+03   -.228E+03 -.428E+03 -.618E+03   0.716E+00 0.654E+00 0.101E+01   0.126E+00 0.184E+00 0.895E-01
   0.382E+03 0.637E+03 -.283E+04   -.386E+03 -.642E+03 0.283E+04   0.302E+01 0.446E+01 0.410E+00   0.286E+00 0.248E+00 0.301E-01
   -.566E+03 0.139E+02 0.681E+03   0.566E+03 -.138E+02 -.682E+03   -.501E+00 -.265E+00 0.143E+01   0.827E-02 0.107E+00 0.991E-01
   -.779E+03 0.223E+03 -.260E+04   0.782E+03 -.223E+03 0.260E+04   -.341E+01 -.116E+01 0.142E+01   0.796E-01 0.322E+00 0.903E-01
   -.271E+03 0.237E+03 0.412E+04   0.274E+03 -.237E+03 -.412E+04   -.194E+01 0.710E-01 0.300E+01   -.119E+00 0.107E+00 0.108E+00
   0.795E+02 -.106E+04 0.600E+04   -.802E+02 0.107E+04 -.600E+04   0.196E+00 -.437E+01 0.235E+01   0.153E+00 -.660E-01 0.157E-01
   0.273E+03 -.364E+03 -.497E+03   -.274E+03 0.365E+03 0.497E+03   0.839E+00 -.137E+01 0.352E+00   0.417E-01 -.512E-01 -.108E+00
   0.572E+03 -.255E+03 -.338E+04   -.574E+03 0.259E+03 0.338E+04   0.179E+01 -.280E+01 -.739E+00   0.179E+00 0.834E-01 0.197E+00
   0.334E+03 -.207E+02 -.635E+04   -.332E+03 0.180E+02 0.634E+04   -.207E+01 0.352E+01 0.657E+01   0.175E+00 -.694E-01 -.197E+00
   0.330E+03 -.608E+03 0.264E+04   -.332E+03 0.612E+03 -.264E+04   0.179E+01 -.302E+01 -.111E+01   -.176E+00 0.144E+00 0.720E+00
   -.210E+03 0.123E+03 0.633E+04   0.212E+03 -.125E+03 -.634E+04   -.210E+01 0.268E+01 0.580E+01   -.283E+00 0.302E+00 0.131E+00
   0.331E+03 0.758E+03 0.392E+04   -.333E+03 -.761E+03 -.391E+04   0.155E+01 0.228E+01 0.394E+00   -.138E+00 0.430E+00 0.274E+00
   0.259E+03 0.493E+03 0.619E+03   -.259E+03 -.494E+03 -.620E+03   0.616E+00 0.486E+00 0.142E+01   -.717E-01 0.680E-01 0.143E+00
   0.419E+03 0.672E+03 -.258E+04   -.422E+03 -.675E+03 0.257E+04   0.261E+01 0.267E+01 0.124E+01   -.173E+00 0.992E-01 0.415E-01
   -.454E+03 0.258E+02 0.610E+03   0.455E+03 -.253E+02 -.611E+03   -.877E+00 -.589E+00 0.137E+01   -.130E+00 0.861E-02 0.424E-01
   -.568E+03 0.437E+02 -.267E+04   0.573E+03 -.428E+02 0.267E+04   -.445E+01 -.207E+00 0.128E+01   -.164E+00 -.966E-01 0.839E-01
   -.952E+03 0.616E+02 0.397E+04   0.958E+03 -.615E+02 -.397E+04   -.497E+01 -.124E+00 0.990E+00   -.235E-01 0.222E+00 0.221E+00
   0.254E+03 -.484E+03 0.616E+04   -.254E+03 0.485E+03 -.617E+04   -.353E+00 0.653E+00 0.586E+01   -.182E+00 0.100E+00 0.465E-01
   -.106E+03 0.109E+03 -.162E+03   0.107E+03 -.111E+03 0.160E+03   -.974E+00 0.193E+01 0.181E+01   -.426E-01 -.816E-02 -.693E-01
   -.318E+03 0.202E+03 -.155E+04   0.319E+03 -.203E+03 0.155E+04   0.800E+00 0.609E+00 0.105E+01   -.920E-01 0.153E-01 0.736E-01
   -.318E+03 -.206E+02 0.239E+04   0.322E+03 0.199E+02 -.240E+04   -.326E+01 0.129E+01 0.296E+01   0.637E-01 -.162E+00 0.919E-02
   -.718E+02 0.594E+02 0.804E+03   0.724E+02 -.601E+02 -.803E+03   -.880E+00 0.104E+01 -.627E+00   0.569E-01 -.117E+00 0.595E-01
   -.246E+03 -.297E+03 -.211E+04   0.248E+03 0.300E+03 0.211E+04   0.914E-01 -.356E+00 -.218E+00   -.971E-01 -.628E-01 0.882E-01
   -.793E+02 -.176E+03 -.753E+03   0.801E+02 0.178E+03 0.753E+03   -.878E+00 -.190E+01 -.790E+00   0.171E+00 0.644E-01 -.104E+00
   0.237E+03 0.155E+03 0.179E+04   -.239E+03 -.154E+03 -.180E+04   0.101E+01 -.420E+00 0.142E+00   0.298E-02 -.179E+00 0.869E-01
   -.275E+02 -.114E+03 0.535E+03   0.285E+02 0.117E+03 -.536E+03   -.672E+00 -.289E+01 0.139E+01   -.358E-01 -.386E-01 -.847E-02
   0.406E+03 -.190E+03 0.179E+04   -.408E+03 0.192E+03 -.179E+04   0.512E+00 -.537E+00 0.116E+01   0.405E-01 -.522E-01 0.340E-01
   0.206E+03 -.146E+02 0.493E+03   -.209E+03 0.150E+02 -.494E+03   0.284E+01 -.107E+00 0.563E+00   -.965E-01 -.988E-01 0.782E-01
   0.184E+03 -.308E+01 -.740E+03   -.187E+03 0.332E+01 0.740E+03   0.236E+01 -.339E+00 -.364E+00   -.852E-01 -.105E+00 -.116E+00
   0.377E+03 -.139E+03 -.208E+04   -.382E+03 0.139E+03 0.209E+04   0.231E+01 0.401E+00 -.555E+00   -.719E-01 -.141E+00 0.133E+00
   -.561E+02 0.104E+03 -.196E+03   0.572E+02 -.106E+03 0.195E+03   -.910E+00 0.170E+01 0.120E+01   0.239E-01 -.207E-02 -.129E+00
   0.137E+02 0.116E+03 -.139E+04   -.136E+02 -.117E+03 0.139E+04   0.573E+00 0.433E+00 -.101E+01   0.452E-01 -.670E-01 0.517E-01
   -.179E+03 0.382E+03 0.231E+04   0.180E+03 -.385E+03 -.232E+04   -.438E+00 0.124E+01 0.739E+00   0.530E-01 -.199E+00 -.136E-01
   -.816E+02 0.172E+03 0.110E+04   0.821E+02 -.173E+03 -.110E+04   -.409E+00 0.938E+00 0.177E+01   0.552E-01 -.110E+00 0.224E+00
   -.261E+02 -.424E+03 -.212E+04   0.284E+02 0.429E+03 0.212E+04   -.149E+01 -.201E+01 -.729E+00   0.130E+00 0.151E-01 0.981E-01
   -.677E+02 -.154E+03 -.713E+03   0.686E+02 0.157E+03 0.713E+03   -.102E+01 -.281E+01 -.111E+00   -.132E+00 -.483E-02 -.110E+00
   -.333E+03 -.234E+03 0.182E+04   0.335E+03 0.237E+03 -.182E+04   -.867E+00 -.497E+00 0.731E+00   -.170E+00 -.732E-01 0.565E-01
   -.122E+03 -.141E+03 0.548E+03   0.123E+03 0.144E+03 -.548E+03   -.971E+00 -.259E+01 0.365E+00   0.951E-03 0.223E-01 0.789E-01
   0.241E+03 -.130E+03 0.182E+04   -.243E+03 0.131E+03 -.182E+04   0.160E+00 0.416E-01 0.149E+01   -.156E+00 -.278E-01 0.149E+00
   0.146E+03 -.236E+02 0.516E+03   -.148E+03 0.238E+02 -.517E+03   0.246E+01 -.300E+00 0.739E+00   0.118E-03 -.283E-01 0.184E+00
   0.172E+03 -.739E+02 -.681E+03   -.175E+03 0.739E+02 0.681E+03   0.285E+01 -.483E-01 -.503E+00   0.833E-01 0.248E-01 -.684E-01
   0.888E+02 -.312E+03 -.215E+04   -.919E+02 0.314E+03 0.215E+04   0.208E+01 0.869E-02 -.243E+01   0.129E+00 -.119E+00 -.159E-02
   -.810E+02 0.136E+03 -.154E+03   0.821E+02 -.138E+03 0.153E+03   -.119E+01 0.189E+01 0.712E-02   -.663E-01 0.131E+00 -.481E-01
   -.210E+03 0.231E+03 -.136E+04   0.212E+03 -.232E+03 0.136E+04   -.857E+00 0.447E+00 0.148E+01   -.715E-01 0.147E+00 0.886E-01
   0.640E+01 0.115E+03 0.238E+04   -.602E+01 -.116E+03 -.239E+04   0.561E-01 0.217E+00 0.796E+00   0.164E-01 0.943E-01 0.810E-01
   -.582E+02 0.108E+03 0.113E+04   0.591E+02 -.110E+03 -.113E+04   -.560E+00 0.145E+01 0.176E+01   -.434E-01 0.112E+00 0.114E+00
   -.520E+03 0.175E+03 -.209E+04   0.528E+03 -.175E+03 0.209E+04   -.479E+01 0.235E+00 -.252E+01   -.341E-01 0.121E+00 0.513E-01
   -.386E+02 -.162E+03 -.687E+03   0.398E+02 0.165E+03 0.687E+03   -.134E+01 -.262E+01 -.774E+00   -.595E-01 -.105E+00 -.230E-01
   -.141E+03 -.395E+03 0.180E+04   0.141E+03 0.397E+03 -.181E+04   0.135E+00 -.871E-01 0.110E+01   0.598E-01 0.768E-01 0.759E-01
   -.916E+02 -.199E+03 0.516E+03   0.926E+02 0.201E+03 -.516E+03   -.105E+01 -.233E+01 0.958E+00   0.110E+00 0.219E-01 0.495E-01
   0.747E+02 -.698E+02 0.192E+04   -.758E+02 0.727E+02 -.192E+04   -.351E+00 -.199E+01 0.348E+01   0.144E+00 0.351E-01 0.945E-01
   0.151E+03 -.326E+01 0.587E+03   -.154E+03 0.312E+01 -.587E+03   0.270E+01 -.113E+00 0.673E+00   0.651E-01 0.589E-01 0.605E-01
   0.139E+03 0.326E+02 -.691E+03   -.142E+03 -.327E+02 0.691E+03   0.239E+01 -.252E-01 -.853E+00   0.739E-01 0.720E-01 -.113E-01
   0.372E+03 0.163E+03 -.214E+04   -.376E+03 -.164E+03 0.214E+04   0.122E+01 0.796E+00 -.901E+00   0.119E+00 0.809E-01 0.580E-02
   -.638E+02 0.123E+03 -.180E+03   0.647E+02 -.124E+03 0.178E+03   -.930E+00 0.199E+01 0.446E+00   0.186E-01 -.349E-02 0.238E-01
   -.123E+03 0.270E+03 -.150E+04   0.124E+03 -.272E+03 0.150E+04   0.441E+00 -.442E+00 0.104E+01   -.157E-01 0.887E-01 0.474E-02
   -.266E+03 0.375E+03 0.228E+04   0.268E+03 -.379E+03 -.228E+04   -.462E+00 0.103E+01 0.108E+01   -.204E-01 0.113E+00 -.469E-01
   -.965E+02 0.130E+03 0.109E+04   0.971E+02 -.132E+03 -.109E+04   -.684E+00 0.112E+01 0.169E+01   0.613E-02 0.455E-01 0.191E+00
   -.442E+02 -.114E+03 -.201E+04   0.454E+02 0.115E+03 0.202E+04   -.252E+00 -.398E+00 -.580E+00   -.600E-01 -.998E-01 0.724E-02
   -.728E+02 -.132E+03 -.539E+03   0.737E+02 0.134E+03 0.538E+03   -.126E+01 -.185E+01 0.865E+00   0.671E-01 0.373E-01 0.126E-01
   -.749E+02 -.291E+03 0.181E+04   0.748E+02 0.293E+03 -.181E+04   0.628E+00 -.214E+00 0.128E+01   -.376E-03 0.159E+00 0.141E+00
   -.740E+02 -.157E+03 0.535E+03   0.753E+02 0.159E+03 -.536E+03   -.966E+00 -.260E+01 0.122E+01   -.166E-01 -.392E-01 0.242E+00
   0.366E+03 0.275E+03 0.191E+04   -.369E+03 -.277E+03 -.191E+04   0.156E+01 0.870E-01 0.292E+01   -.199E-01 0.152E+00 0.546E-01
   0.189E+03 0.401E+02 0.535E+03   -.192E+03 -.398E+02 -.536E+03   0.287E+01 -.355E+00 0.476E+00   -.203E-01 0.393E-01 0.636E-01
   0.213E+03 0.340E+02 -.660E+03   -.216E+03 -.337E+02 0.660E+03   0.263E+01 -.558E-01 -.130E+00   -.665E-01 -.251E-01 -.487E-01
   0.538E+03 0.264E+03 -.193E+04   -.545E+03 -.265E+03 0.194E+04   0.388E+01 0.453E+00 -.418E+00   0.141E-01 0.145E-01 0.791E-01
 -----------------------------------------------------------------------------------------------
   -.101E+02 0.155E+02 -.603E+02   -.227E-11 -.455E-12 0.114E-11   0.924E+01 -.144E+02 0.532E+02   0.623E+00 -.107E+01 0.725E+01
 
 
 POSITION                                       TOTAL-FORCE (eV/Angst)
 -----------------------------------------------------------------------------------
      5.35228      4.81788      6.64784         0.212705     -0.377382     -0.321557
      5.93595      3.87238      9.58390        -0.179488      0.424478     -1.022935
      2.24633      0.73197      3.71178         0.284021      0.715284      1.574710
     10.94724      0.07227     10.61304         0.236872      0.110084      0.648582
      4.08457      3.05755      0.80199        -0.674359     -0.534848     -1.461316
      4.76861      3.35453      2.93606         0.915179     -0.818699      3.483725
      5.35228      2.40903      5.87212        -0.028147      0.026556      0.056530
      5.93595      1.46353      8.80817         0.281572     -0.132662     -1.793025
      1.87746      3.73836      5.87212        -0.097104     -0.013529      0.145578
      2.46113      2.79286      8.80817         0.410753      0.010361     -1.692195
      6.92203      4.68386      2.93606         0.822830     -0.537161      1.224224
     10.98051      4.81788      6.64784         0.168886     -0.298814     -0.155264
     11.56418      3.87238      9.58390        -1.395359      0.442264     -1.126159
      1.53260      1.96870     10.94652         1.258052     -0.825715      1.468173
      6.89367      1.98146      2.05922         0.729729     -0.051621     -0.660377
      7.87456      0.73197      3.71178         0.060946     -0.813923      2.651349
      6.28488      0.68532     11.19177         0.011227     -0.952089      1.277657
     10.39684      3.35453      2.93606        -0.707903     -1.478800      2.143914
     10.98051      2.40903      5.87212         0.011176      0.138335      0.004912
     11.56418      1.46353      8.80817        -0.595730      0.318682     -2.146010
      7.50570      3.73836      5.87212         0.149335      0.175552      0.076667
      8.08937      2.79286      8.80817         0.200159     -0.544546     -1.612787
      8.72506      2.01870     11.23202         0.307370     -0.302108      1.426769
     12.55026      4.68386      2.93606         1.395385     -0.353303      2.011768
      7.87456      9.84929      6.64784         0.152306     -0.260296     -0.141055
      8.45823      8.90379      9.58390        -0.777642      1.453157     -1.517844
      9.68323      7.12151     10.96760         1.055606     -0.855998      1.918671
      4.76861      5.76338      3.71178        -0.643005      0.202731      1.416593
      3.75352      6.33490     11.05613        -0.096206     -1.582642      1.440814
      7.29089      8.38594      2.93606        -0.664153     -1.102468      2.635709
      7.87456      7.44044      5.87212        -0.077565      0.121265      0.033515
      8.45823      6.49494      8.80817        -0.442333     -0.557198     -2.267886
      4.39975      8.76977      5.87212        -0.063268     -0.057055     -0.083051
      4.98341      7.82427      8.80817        -0.100657     -0.283330     -1.460319
      9.44431      9.71527      2.93606         1.311651      0.408608      2.089637
      5.06506      5.31331      1.31639        -0.342713      1.089578     -1.358772
     13.50279      9.84929      6.64784         0.105075     -0.204603     -0.132347
     14.08646      8.90379      9.58390        -0.381523      1.245107     -2.133613
     14.30185      8.55162     11.91609        -0.289927      0.792673      1.145102
     10.39684      5.76338      3.71178        -0.519685      0.684424      2.263668
      8.31327      0.13792      1.21300        -0.189258      0.830345     -1.997777
     12.91912      8.38594      2.93606        -0.757124     -0.573654      1.745674
     13.50279      7.44044      5.87212         0.086346      0.100595      0.042640
     14.08646      6.49494      8.80817        -0.541138     -0.124638     -1.708669
     10.02798      8.76977      5.87212        -0.262819     -0.077276     -0.023874
     10.61165      7.82427      8.80817         0.797788      0.607189     -1.731957
     15.07254      9.71527      2.93606         0.941085      0.183018      2.130661
     10.70354      5.29222      1.33409        -0.750953      1.160672     -1.975551
      1.66190      1.67871      7.01153         0.162641     -0.173446      0.148877
      1.72800      0.24383      9.85269         1.276710     -0.498897      0.645747
      6.12279      3.56972      1.13942         0.628508      0.386778     -3.235389
      6.70646      2.62422      4.07548        -0.316548      0.262450      1.062557
      2.13759      3.86682     10.54909         1.625518      1.735194      2.708797
      7.29013      4.74605      7.99931         0.178548      0.175229     -0.578381
      3.69867      1.59885      2.31006        -0.572709     -0.035708     -1.127602
      4.18418      0.66015      5.06325         0.316404      0.162849      0.271336
      3.29403      4.58058      2.08025        -1.763861      1.439694     -0.453928
      3.96438      3.99884      5.06325        -0.041308      0.117824      0.119137
      4.54805      3.05334      7.99931        -0.362377     -0.202373     -0.805775
      5.15774      2.23349     10.57347        -2.601985      0.435237      2.374143
      7.29013      1.67871      7.01153         0.167241     -0.240962     -0.102359
      7.87380      0.73321      9.94759         0.738405     -1.520046     -1.454341
     11.73315      3.57057      1.39612         1.226585     -2.050108     -3.471560
     12.33469      2.62422      4.07548         0.067256     -0.092725      0.180969
      7.70070      3.66744     10.63639         0.920092      2.175407      2.439327
     12.91836      4.74605      7.99931        -0.240831      0.146200     -0.864707
      9.18637      1.63557      2.33911         1.265220      1.548232     -1.107103
      9.81241      0.66015      5.06325        -0.031194     -0.027007      0.436746
      8.99813      4.86239      2.41103        -1.867521      0.413807     -1.377772
      9.59261      3.99884      5.06325         0.022768     -0.190830      0.520371
     10.17628      3.05334      7.99931        -0.022239     -0.114338     -0.177759
     10.75995      2.10784     10.93537        -0.847431      1.923602      1.209273
      4.18418      6.71012      7.01153        -0.247521      0.418315     -1.153908
      4.76896      5.69651      9.40106         0.930228     -0.636679      0.795384
      8.47685      8.88161      1.41488         0.448602     -0.725589     -4.421383
      9.22874      7.65563      4.07548         0.255727      0.001290     -0.091519
      4.76003      8.11832     10.90757         2.607758      0.055518      2.133773
      9.81241      9.77746      7.99931        -0.184971      0.164880     -0.652816
      6.20970      6.61121      2.44332         0.361911      1.457508     -1.457962
      6.70646      5.69156      5.06325         0.085204     -0.196187      0.674384
      5.87575      9.86568      2.54838        -1.281661      0.867914     -2.602515
      6.48666      9.03025      5.06325        -0.117801     -0.195691      0.652994
      7.07033      8.08475      7.99931         0.000633     -0.094852     -0.886220
      7.72147      7.23307     10.58698        -2.739489     -0.902991      2.841421
      9.81241      6.71012      7.01153        -0.017716      0.244267     -0.742252
     10.37146      5.80563      9.54290         1.009841     -1.902925      1.299754
     14.35239      8.47118      1.45692         1.386193     -2.148386     -3.174482
     14.85697      7.65563      4.07548        -0.051130     -0.476142      0.550828
     10.32371      9.02747     10.59026         0.879037      0.592644      2.308323
     15.44064      9.77746      7.99931        -0.273841      0.134871     -0.161189
     11.84751      6.61334      2.42180         0.560181      1.937090     -1.285709
     12.33469      5.69156      5.06325         0.281297     -0.138337      0.532700
     11.53122      9.97575      2.12720        -2.003497     -1.159095     -0.147737
     12.11489      9.03025      5.06325        -0.114608      0.031943      0.038609
     12.69856      8.08475      7.99931         0.027780      0.169871     -0.526268
     13.25320      7.29438     10.66279        -3.058043     -0.801903      1.582284
 -----------------------------------------------------------------------------------
    total drift:                               -0.218668      0.063554      0.179540


--------------------------------------------------------------------------------------------------------



  FREE ENERGIE OF THE ION-ELECTRON SYSTEM (eV)
  ---------------------------------------------------
  free  energy   TOTEN  =      -469.25478869 eV

  energy  without entropy=     -467.96311184  energy(sigma->0) =     -468.60895026
 


--------------------------------------------------------------------------------------------------------


    POTLOK:  cpu time    0.3920: real time    0.3922


--------------------------------------------------------------------------------------------------------


     LOOP+:  cpu time  637.6264: real time  637.7883
    4ORBIT:  cpu time    0.0000: real time    0.0000

 total amount of memory used by VASP MPI-rank0    87634. kBytes
=======================================================================

   base      :      30000. kBytes
   nonlr-proj:       3204. kBytes
   fftplans  :      11274. kBytes
   grid      :      19113. kBytes
   one-center:        124. kBytes
   wavefun   :      23919. kBytes
 
  
  
 General timing and accounting informations for this job:
 ========================================================
  
                  Total CPU time used (sec):      642.333
                            User time (sec):      641.964
                          System time (sec):        0.369
                         Elapsed time (sec):      642.735
  
                   Maximum memory used (kb):      247948.
                   Average memory used (kb):           0.
  
                          Minor page faults:       141831
                          Major page faults:            0
                 Voluntary context switches:          130
