 vasp.5.4.4.18Apr17-6-g9f103f2a35 (build Aug 13 2019 17:33:20) gamma-only       
  
 executed on             LinuxIFC date 2020.05.10  11:50:11
 running on   12 total cores
 distrk:  each k-point on   12 cores,    1 groups
 distr:  one band on NCORES_PER_BAND=   6 cores,    2 groups


--------------------------------------------------------------------------------------------------------


 INCAR:
 POTCAR:    PAW_PBE Ni_pv 06Sep2000               
 POTCAR:    PAW_PBE S 06Sep2000                   
 POTCAR:    PAW_PBE Ni_pv 06Sep2000               
   VRHFIN =Ni:                                                                  
   LEXCH  = PE                                                                  
   EATOM  =  3501.1230 eV,  257.3253 Ry                                         
                                                                                
   TITEL  = PAW_PBE Ni_pv 06Sep2000                                             
   LULTRA =        F    use ultrasoft PP ?                                      
   IUNSCR =        1    unscreen: 0-lin 1-nonlin 2-no                           
   RPACOR =    1.500    partial core radius                                     
   POMASS =   58.690; ZVAL   =   16.000    mass and valenz                      
   RCORE  =    2.000    outmost cutoff radius                                   
   RWIGS  =    2.000; RWIGS  =    1.058    wigner-seitz radius (au A)           
   ENMAX  =  367.986; ENMIN  =  275.989 eV                                      
   RCLOC  =    1.301    cutoff for local pot                                    
   LCOR   =        T    correct aug charges                                     
   LPAW   =        T    paw PP                                                  
   EAUG   =  703.443                                                            
   DEXC   =    0.000                                                            
   RMAX   =    2.041    core radius for proj-oper                               
   RAUG   =    1.300    factor for augmentation sphere                          
   RDEP   =    2.103    radius for radial grids                                 
   RDEPT  =    1.618    core radius for aug-charge                              
                                                                                
   Atomic configuration                                                         
    8 entries                                                                   
     n  l   j            E        occ.                                          
     1  0  0.50     -8206.4253   2.0000                                         
     2  0  0.50      -976.1748   2.0000                                         
     2  1  1.50      -839.0571   6.0000                                         
     3  0  0.50      -105.9991   2.0000                                         
     3  1  1.50       -66.4603   6.0000                                         
     3  2  2.50        -4.6458   9.0000                                         
     4  0  0.50        -4.4926   1.0000                                         
     4  3  2.50        -1.3606   0.0000                                         
   Description                                                                  
     l       E           TYP  RCUT    TYP  RCUT                                 
     1    -66.4602962     23  1.700                                             
     1     -1.3605826     23  1.700                                             
     2     -4.6457867     23  2.000                                             
     2     -6.0063693     23  2.000                                             
     0     -4.4925576     23  1.900                                             
     0     16.3626226     23  1.900                                             
  local pseudopotential read in
  partial core-charges read in
  partial kinetic energy density read in
  atomic valenz-charges read in
  non local Contribution for L=           1  read in
    real space projection operators read in
  non local Contribution for L=           1  read in
    real space projection operators read in
  non local Contribution for L=           2  read in
    real space projection operators read in
  non local Contribution for L=           2  read in
    real space projection operators read in
  non local Contribution for L=           0  read in
    real space projection operators read in
  non local Contribution for L=           0  read in
    real space projection operators read in
    PAW grid and wavefunctions read in
 
   number of l-projection  operators is LMAX  =           6
   number of lm-projection operators is LMMAX =          18
 
 POTCAR:    PAW_PBE S 06Sep2000                   
   VRHFIN =S : s2p4                                                             
   LEXCH  = PE                                                                  
   EATOM  =   276.8230 eV,   20.3459 Ry                                         
                                                                                
   TITEL  = PAW_PBE S 06Sep2000                                                 
   LULTRA =        F    use ultrasoft PP ?                                      
   IUNSCR =        1    unscreen: 0-lin 1-nonlin 2-no                           
   RPACOR =    1.500    partial core radius                                     
   POMASS =   32.066; ZVAL   =    6.000    mass and valenz                      
   RCORE  =    1.900    outmost cutoff radius                                   
   RWIGS  =    2.200; RWIGS  =    1.164    wigner-seitz radius (au A)           
   ENMAX  =  258.689; ENMIN  =  194.016 eV                                      
   ICORE  =        2    local potential                                         
   LCOR   =        T    correct aug charges                                     
   LPAW   =        T    paw PP                                                  
   EAUG   =  335.092                                                            
   DEXC   =    0.000                                                            
   RMAX   =    1.942    core radius for proj-oper                               
   RAUG   =    1.300    factor for augmentation sphere                          
   RDEP   =    1.954    radius for radial grids                                 
   RDEPT  =    1.744    core radius for aug-charge                              
                                                                                
   Atomic configuration                                                         
    6 entries                                                                   
     n  l   j            E        occ.                                          
     1  0  0.50     -2405.8406   2.0000                                         
     2  0  0.50      -211.7007   2.0000                                         
     2  1  1.50      -156.4958   6.0000                                         
     3  0  0.50       -17.2562   2.0000                                         
     3  1  0.50        -7.0085   4.0000                                         
     3  2  1.50        -6.8029   0.0000                                         
   Description                                                                  
     l       E           TYP  RCUT    TYP  RCUT                                 
     0    -17.2561641     23  1.900                                             
     0    -15.8743224     23  1.900                                             
     1     -7.0085400     23  1.900                                             
     1     -2.7779785     23  1.900                                             
     2     -6.8029130     23  1.900                                             
  local pseudopotential read in
  partial core-charges read in
  partial kinetic energy density read in
  atomic valenz-charges read in
  non local Contribution for L=           0  read in
    real space projection operators read in
  non local Contribution for L=           0  read in
    real space projection operators read in
  non local Contribution for L=           1  read in
    real space projection operators read in
  non local Contribution for L=           1  read in
    real space projection operators read in
    PAW grid and wavefunctions read in
 
   number of l-projection  operators is LMAX  =           4
   number of lm-projection operators is LMMAX =           8
 
 Optimization of the real space projectors (new method)

 maximal supplied QI-value         = 18.90
 optimisation between [QCUT,QGAM] = [ 10.77, 21.73] = [ 32.49,132.25] Ry 
 Optimized for a Real-space Cutoff    1.38 Angstroem

   l    n(q)    QCUT    max X(q) W(low)/X(q) W(high)/X(q)  e(spline) 
   1      8    10.771     2.836    0.40E-04    0.29E-04    0.12E-06
   1      8    10.771     4.023    0.10E-03    0.48E-04    0.29E-06
   2      8    10.771    73.368    0.42E-03    0.97E-04    0.44E-06
   2      8    10.771    69.010    0.42E-03    0.99E-04    0.45E-06
   0      9    10.771    54.797    0.10E-03    0.56E-04    0.74E-07
   0      9    10.771    24.266    0.89E-04    0.49E-04    0.67E-07
 Optimization of the real space projectors (new method)

 maximal supplied QI-value         = 19.84
 optimisation between [QCUT,QGAM] = [ 10.71, 21.63] = [ 32.15,130.99] Ry 
 Optimized for a Real-space Cutoff    1.19 Angstroem

   l    n(q)    QCUT    max X(q) W(low)/X(q) W(high)/X(q)  e(spline) 
   0      8    10.715   187.594    0.41E-03    0.53E-04    0.66E-07
   0      8    10.715   164.243    0.41E-03    0.53E-04    0.65E-07
   1      7    10.715    67.533    0.19E-03    0.59E-03    0.68E-07
   1      7    10.715    50.729    0.19E-03    0.58E-03    0.67E-07
  PAW_PBE Ni_pv 06Sep2000               :
 energy of atom  1       EATOM=-3501.1230
 kinetic energy error for atom=    0.0925 (will be added to EATOM!!)
  PAW_PBE S 06Sep2000                   :
 energy of atom  2       EATOM= -276.8230
 kinetic energy error for atom=    0.0033 (will be added to EATOM!!)
 
 
 POSCAR: Type_026 Type_126                       
  positions in cartesian coordinates
  No initial velocities read in
 exchange correlation table for  LEXCH =        8
   RHO(1)=    0.500       N(1)  =     2000
   RHO(2)=  100.500       N(2)  =     4000
 


--------------------------------------------------------------------------------------------------------


 ion  position               nearest neighbor table
   1  0.446  0.489  0.185-  44 2.08  45 2.09  29 2.16  35 2.27   2 2.48
   2  0.484  0.468  0.326-  41 2.04  35 2.09  45 2.10  30 2.15   1 2.48
   3  0.158  0.981  0.103-  36 2.07  37 2.07  27 2.08  33 2.16
   4  0.215  0.964  0.253-  38 2.07  34 2.21  28 2.25  37 2.26  33 2.26  12 2.53   8 2.53
   5  0.447  0.176  0.182-  39 2.08  40 2.10  33 2.17  35 2.29   6 2.49
   6  0.482  0.192  0.325-  41 2.04  35 2.09  40 2.10  34 2.16   5 2.49
   7  0.158  0.683  0.103-  36 2.07  37 2.07  31 2.08  29 2.16
   8  0.215  0.700  0.253-  38 2.07  30 2.20  32 2.25  37 2.26  29 2.26  12 2.53   4 2.53
   9  0.124  0.332  0.155-  27 2.09  31 2.09  28 2.16  32 2.16  18 2.44  14 2.44  10 2.51
  10  0.183  0.332  0.296-  28 2.05  32 2.05  35 2.14   9 2.51
  11  0.455  0.833  0.095-  50 2.04  51 2.12  33 2.29  29 2.30  12 2.36
  12  0.407  0.832  0.229-  34 2.15  30 2.15  51 2.25  29 2.26  33 2.26  11 2.36  13 2.38   8 2.53
                             4 2.53
  13  0.474  0.827  0.360-  52 2.02  34 2.07  30 2.07  12 2.38
  14  0.939  0.464  0.163-  31 2.07  48 2.09  42 2.25  49 2.36  32 2.36   9 2.44  18 2.53
  15  0.971  0.489  0.312-  32 2.03  49 2.04  43 2.08
  16  0.656  0.984  0.105-  51 2.07  39 2.07  50 2.08  46 2.17
  17  0.715  0.964  0.253-  52 2.09  47 2.16  40 2.25  51 2.26  46 2.26  25 2.53  21 2.53
  18  0.939  0.200  0.163-  27 2.07  48 2.09  46 2.25  49 2.36  28 2.36   9 2.44  14 2.53
  19  0.971  0.175  0.312-  28 2.03  49 2.04  47 2.08
  20  0.655  0.679  0.105-  51 2.07  44 2.08  50 2.08  42 2.17
  21  0.715  0.700  0.253-  52 2.08  43 2.16  45 2.25  51 2.26  42 2.26  25 2.53  17 2.53
  22  0.631  0.332  0.139-  39 2.07  44 2.07  48 2.11  40 2.36  45 2.36
  23  0.681  0.332  0.299-  41 2.04  40 2.07  45 2.07  49 2.16
  24  0.954  0.832  0.095-  36 2.04  37 2.12  46 2.29  42 2.29  25 2.36
  25  0.907  0.832  0.229-  43 2.14  47 2.14  37 2.25  42 2.26  46 2.26  24 2.36  26 2.39  21 2.53
                            17 2.53
  26  0.993  0.832  0.355-  38 2.01  47 2.07  43 2.07  25 2.39
  27  0.073  0.170  0.082-  18 2.07   3 2.08   9 2.09  28 2.74
  28  0.111  0.164  0.239-  19 2.03  10 2.05   9 2.16   4 2.25  18 2.36  27 2.74
  29  0.336  0.664  0.149-   7 2.16   1 2.16  12 2.26   8 2.26  11 2.30
  30  0.388  0.660  0.308-  13 2.07  12 2.15   2 2.15   8 2.20
  31  0.073  0.494  0.082-  14 2.07   7 2.08   9 2.09  32 2.74
  32  0.111  0.500  0.239-  15 2.03  10 2.05   9 2.16   8 2.25  14 2.36  31 2.74
  33  0.336  1.000  0.149-   3 2.16   5 2.17  12 2.26   4 2.26  11 2.29
  34  0.387  0.998  0.312-  13 2.07  12 2.15   6 2.16   4 2.21
  35  0.368  0.332  0.269-   2 2.09   6 2.09  10 2.14   1 2.27   5 2.29
  36  0.100  0.832  0.025-  24 2.04   7 2.07   3 2.07  37 2.66
  37  0.092  0.832  0.179-   7 2.07   3 2.07  24 2.12  25 2.25   4 2.26   8 2.26  36 2.66
  38  0.171  0.831  0.343-  26 2.01   8 2.07   4 2.07
  39  0.555  0.162  0.085-  22 2.07  16 2.07   5 2.08  40 2.73
  40  0.611  0.164  0.239-  23 2.07   5 2.10   6 2.10  17 2.25  22 2.36  39 2.73
  41  0.572  0.329  0.394-   2 2.04   6 2.04  23 2.04
  42  0.836  0.664  0.149-  20 2.17  14 2.25  25 2.26  21 2.26  24 2.29
  43  0.879  0.678  0.317-  26 2.07  15 2.08  25 2.14  21 2.16
  44  0.553  0.502  0.086-  22 2.07  20 2.08   1 2.08  45 2.71
  45  0.611  0.500  0.239-  23 2.07   1 2.09   2 2.10  21 2.25  22 2.36  44 2.71
  46  0.836  1.000  0.149-  16 2.17  18 2.25  25 2.26  17 2.26  24 2.29
  47  0.879  0.986  0.317-  26 2.07  19 2.08  25 2.14  17 2.16
  48  0.813  0.332  0.113-  14 2.09  18 2.09  22 2.11  49 2.76
  49  0.868  0.332  0.269-  15 2.04  19 2.04  23 2.16  14 2.36  18 2.36  48 2.76
  50  0.603  0.831  0.026-  11 2.04  16 2.08  20 2.08  51 2.64
  51  0.592  0.832  0.179-  16 2.07  20 2.07  11 2.12  12 2.25  17 2.26  21 2.26  50 2.64
  52  0.651  0.832  0.339-  13 2.02  21 2.08  17 2.09
 
  LATTYP: Found a simple orthorhombic cell.
 ALAT       =     9.5784100000
 B/A-ratio  =     1.1751911892
 C/A-ratio  =     1.7949213288
  
  Lattice vectors:
  
 A1 = (   0.0000000000,  -9.5784100000,   0.0000000000)
 A2 = ( -11.2564630382,   0.0000000000,   0.0000000000)
 A3 = (   0.0000000000,   0.0000000000, -17.1924924047)


Analysis of symmetry for initial positions (statically):
=====================================================================
 Subroutine PRICEL returns:
 Original cell was already a primitive cell.
 

 Routine SETGRP: Setting up the symmetry group for a 
 simple orthorhombic supercell.


 Subroutine GETGRP returns: Found  1 space group operations
 (whereof  1 operations were pure point group operations)
 out of a pool of  8 trial point group operations.


The static configuration has the point symmetry C_1 .


Analysis of symmetry for dynamics (positions and initial velocities):
=====================================================================
 Subroutine PRICEL returns:
 Original cell was already a primitive cell.
 

 Routine SETGRP: Setting up the symmetry group for a 
 simple orthorhombic supercell.


 Subroutine GETGRP returns: Found  1 space group operations
 (whereof  1 operations were pure point group operations)
 out of a pool of  8 trial point group operations.


The dynamic configuration has the point symmetry C_1 .


 Subroutine INISYM returns: Found  1 space group operations
 (whereof  1 operations are pure point group operations),
 and found     1 'primitive' translations

 
 
 KPOINTS: gamma-point-only calculation. no periodi

Automatic generation of k-mesh.
Space group operators:
 irot       det(A)        alpha          n_x          n_y          n_z        tau_x        tau_y        tau_z
    1     1.000000     0.000000     1.000000     0.000000     0.000000     0.000000     0.000000     0.000000
 
 Subroutine IBZKPT returns following result:
 ===========================================
 
 Found      1 irreducible k-points:
 
 Following reciprocal coordinates:
            Coordinates               Weight
  0.000000  0.000000  0.000000      1.000000
 
 Following cartesian coordinates:
            Coordinates               Weight
  0.000000  0.000000  0.000000      1.000000
 


--------------------------------------------------------------------------------------------------------




 Dimension of arrays:
   k-points           NKPTS =      1   k-points in BZ     NKDIM =      1   number of bands    NBANDS=    344
   number of dos      NEDOS =    301   number of ions     NIONS =     52
   non local maximal  LDIM  =      6   non local SUM 2l+1 LMDIM =     18
   total plane-waves  NPLWV = 270000
   max r-space proj   IRMAX =   1656   max aug-charges    IRDMAX=   4788
   dimension x,y,z NGX =    60 NGY =   50 NGZ =   90
   dimension x,y,z NGXF=   120 NGYF=  100 NGZF=  180
   support grid    NGXF=   120 NGYF=  100 NGZF=  180
   ions per type =              26  26
   NGX,Y,Z   is equivalent  to a cutoff of   8.86,  8.68,  8.70 a.u.
   NGXF,Y,Z  is equivalent  to a cutoff of  17.72, 17.36, 17.41 a.u.

 SYSTEM =  "Millerite NiS"                         
 POSCAR =  Type_026 Type_126                       

 Startparameter for this run:
   NWRITE =      2    write-flag & timer
   PREC   = normal    normal or accurate (medium, high low for compatibility)
   ISTART =      0    job   : 0-new  1-cont  2-samecut
   ICHARG =      2    charge: 1-file 2-atom 10-const
   ISPIN  =      1    spin polarized calculation?
   LNONCOLLINEAR =      F non collinear calculations
   LSORBIT =      F    spin-orbit coupling
   INIWAV =      1    electr: 0-lowe 1-rand  2-diag
   LASPH  =      F    aspherical Exc in radial PAW
   METAGGA=      F    non-selfconsistent MetaGGA calc.

 Electronic Relaxation 1
   ENCUT  =  450.0 eV  33.07 Ry    5.75 a.u.  19.47 16.57 29.74*2*pi/ulx,y,z
   ENINI  =  450.0     initial cutoff
   ENAUG  =  703.4 eV  augmentation charge cutoff
   NELM   =    100;   NELMIN=  2; NELMDL= -5     # of ELM steps 
   EDIFF  = 0.1E-03   stopping-criterion for ELM
   LREAL  =      T    real-space projection
   NLSPLINE    = F    spline interpolate recip. space projectors
   LCOMPAT=      F    compatible to vasp.4.4
   GGA_COMPAT  = T    GGA compatible to vasp.4.4-vasp.4.6
   LMAXPAW     = -100 max onsite density
   LMAXMIX     =    2 max onsite mixed and CHGCAR
   VOSKOWN=      0    Vosko Wilk Nusair interpolation
   ROPT   =   -0.00050  -0.00050
 Ionic relaxation
   EDIFFG = 0.1E-02   stopping-criterion for IOM
   NSW    =      0    number of steps for IOM
   NBLOCK =      1;   KBLOCK =      1    inner block; outer block 
   IBRION =     -1    ionic relax: 0-MD 1-quasi-New 2-CG
   NFREE  =      0    steps in history (QN), initial steepest desc. (CG)
   ISIF   =      2    stress and relaxation
   IWAVPR =     10    prediction:  0-non 1-charg 2-wave 3-comb
   ISYM   =      2    0-nonsym 1-usesym 2-fastsym
   LCORR  =      T    Harris-Foulkes like correction to forces

   POTIM  = 0.5000    time-step for ionic-motion
   TEIN   =    0.0    initial temperature
   TEBEG  =    0.0;   TEEND  =   0.0 temperature during run
   SMASS  =  -3.00    Nose mass-parameter (am)
   estimated Nose-frequenzy (Omega)   =  0.10E-29 period in steps =****** mass=  -0.290E-26a.u.
   SCALEE = 1.0000    scale energy and forces
   NPACO  =    256;   APACO  = 16.0  distance and # of slots for P.C.
   PSTRESS=    0.0 pullay stress

  Mass of Ions in am
   POMASS =  58.69 32.07
  Ionic Valenz
   ZVAL   =  16.00  6.00
  Atomic Wigner-Seitz radii
   RWIGS  =  -1.00 -1.00
  virtual crystal weights 
   VCA    =   1.00  1.00
   NELECT =     572.0000    total number of electrons
   NUPDOWN=      -1.0000    fix difference up-down

 DOS related values:
   EMIN   =  10.00;   EMAX   =-10.00  energy-range for DOS
   EFERMI =   0.00
   ISMEAR =     0;   SIGMA  =   0.20  broadening in eV -4-tet -1-fermi 0-gaus

 Electronic relaxation 2 (details)
   IALGO  =     38    algorithm
   LDIAG  =      T    sub-space diagonalisation (order eigenvalues)
   LSUBROT=      F    optimize rotation matrix (better conditioning)
   TURBO    =      0    0=normal 1=particle mesh
   IRESTART =      0    0=no restart 2=restart with 2 vectors
   NREBOOT  =      0    no. of reboots
   NMIN     =      0    reboot dimension
   EREF     =   0.00    reference energy to select bands
   IMIX   =      4    mixing-type and parameters
     AMIX     =   0.40;   BMIX     =  1.00
     AMIX_MAG =   1.60;   BMIX_MAG =  1.00
     AMIN     =   0.10
     WC   =   100.;   INIMIX=   1;  MIXPRE=   1;  MAXMIX= -45

 Intra band minimization:
   WEIMIN = 0.0000     energy-eigenvalue tresh-hold
   EBREAK =  0.73E-07  absolut break condition
   DEPER  =   0.30     relativ break condition  

   TIME   =   0.40     timestep for ELM

  volume/ion in A,a.u.               =      35.65       240.56
  Fermi-wavevector in a.u.,A,eV,Ry     =   1.106272  2.090552 16.651337  1.223839
  Thomas-Fermi vector in A             =   2.242771
 
 Write flags
   LWAVE        =      F    write WAVECAR
   LDOWNSAMPLE  =      F    k-point downsampling of WAVECAR
   LCHARG       =      F    write CHGCAR
   LVTOT        =      F    write LOCPOT, total local potential
   LVHAR        =      F    write LOCPOT, Hartree potential only
   LELF         =      F    write electronic localiz. function (ELF)
   LORBIT       =      0    0 simple, 1 ext, 2 COOP (PROOUT), +10 PAW based schemes


 Dipole corrections
   LMONO  =      F    monopole corrections only (constant potential shift)
   LDIPOL =      F    correct potential (dipole corrections)
   IDIPOL =      0    1-x, 2-y, 3-z, 4-all directions 
   EPSILON=  1.0000000 bulk dielectric constant

 Exchange correlation treatment:
   GGA     =    --    GGA type
   LEXCH   =     8    internal setting for exchange type
   VOSKOWN=      0    Vosko Wilk Nusair interpolation
   LHFCALC =     F    Hartree Fock is set to
   LHFONE  =     F    Hartree Fock one center treatment
   AEXX    =    0.0000 exact exchange contribution

 Linear response parameters
   LEPSILON=     F    determine dielectric tensor
   LRPA    =     F    only Hartree local field effects (RPA)
   LNABLA  =     F    use nabla operator in PAW spheres
   LVEL    =     F    velocity operator in full k-point grid
   LINTERFAST=   F  fast interpolation
   KINTER  =     0    interpolate to denser k-point grid
   CSHIFT  =0.1000    complex shift for real part using Kramers Kronig
   OMEGAMAX=  -1.0    maximum frequency
   DEG_THRESHOLD= 0.2000000E-02 threshold for treating states as degnerate
   RTIME   =   -0.100 relaxation time in fs
  (WPLASMAI=    0.000 imaginary part of plasma frequency in eV, 0.658/RTIME)
   DFIELD  = 0.0000000 0.0000000 0.0000000 field for delta impulse in time
 
 Orbital magnetization related:
   ORBITALMAG=     F  switch on orbital magnetization
   LCHIMAG   =     F  perturbation theory with respect to B field
   DQ        =  0.001000  dq finite difference perturbation B field
   LLRAUG    =     F  two centre corrections for induced B field



--------------------------------------------------------------------------------------------------------


 Static calculation
 charge density and potential will be updated during run
 non-spin polarized calculation
 Variant of blocked Davidson
 Davidson routine will perform the subspace rotation
 perform sub-space diagonalisation
    after iterative eigenvector-optimisation
 modified Broyden-mixing scheme, WC =      100.0
 initial mixing is a Kerker type mixing with AMIX =  0.4000 and BMIX =      1.0000
 Hartree-type preconditioning will be used
 using additional bands           58
 real space projection scheme for non local part
 use partial core corrections
 calculate Harris-corrections to forces 
   (improved forces if not selfconsistent)
 use gradient corrections 
 use of overlap-Matrix (Vanderbilt PP)
 Gauss-broadening in eV      SIGMA  =   0.20


--------------------------------------------------------------------------------------------------------


  energy-cutoff  :      450.00
  volume of cell :     1853.68
      direct lattice vectors                 reciprocal lattice vectors
    11.256463038  0.000000000  0.000000000     0.088837852  0.000000000  0.000000000
     0.000000000  9.578410000  0.000000000     0.000000000  0.104401461  0.000000000
     0.000000000  0.000000000 17.192492405     0.000000000  0.000000000  0.058164923

  length of vectors
    11.256463038  9.578410000 17.192492405     0.088837852  0.104401461  0.058164923


 
 k-points in units of 2pi/SCALE and weight: gamma-point-only calculation. no periodi
   0.00000000  0.00000000  0.00000000       1.000
 
 k-points in reciprocal lattice and weights: gamma-point-only calculation. no periodi
   0.00000000  0.00000000  0.00000000       1.000
 
 position of ions in fractional coordinates (direct lattice) 
   0.44564407  0.48947322  0.18453343
   0.48370134  0.46803240  0.32611686
   0.15769237  0.98099202  0.10338085
   0.21526096  0.96388800  0.25253989
   0.44681550  0.17562938  0.18234016
   0.48169046  0.19201659  0.32528588
   0.15763200  0.68252659  0.10338991
   0.21526096  0.69968200  0.25253989
   0.12436300  0.33177100  0.15530935
   0.18267027  0.33173376  0.29613243
   0.45501713  0.83253489  0.09504477
   0.40656566  0.83178500  0.22883899
   0.47432954  0.82731846  0.35971342
   0.93933499  0.46388800  0.16283377
   0.97054693  0.48895210  0.31245184
   0.65577170  0.98410289  0.10464152
   0.71526096  0.96388800  0.25253989
   0.93933499  0.19968200  0.16283377
   0.97051980  0.17451056  0.31241779
   0.65539351  0.67876522  0.10493312
   0.71526096  0.69968200  0.25253989
   0.63063970  0.33178500  0.13913288
   0.68134002  0.33155212  0.29922252
   0.95426678  0.83183058  0.09509774
   0.90656566  0.83178500  0.22883899
   0.99331217  0.83184011  0.35546835
   0.07284271  0.16957362  0.08170320
   0.11148904  0.16357000  0.23893853
   0.33556306  0.66357000  0.14923241
   0.38817186  0.65984772  0.30820027
   0.07281382  0.49396730  0.08170164
   0.11148904  0.50000000  0.23893853
   0.33556306  1.00000000  0.14923241
   0.38733198  0.99751352  0.31187679
   0.36788880  0.33178500  0.26911836
   0.09984644  0.83173388  0.02489854
   0.09196284  0.83178500  0.17941224
   0.17114411  0.83134779  0.34337219
   0.55472368  0.16162148  0.08462642
   0.61148904  0.16357000  0.23893853
   0.57232213  0.32860079  0.39434740
   0.83556306  0.66357000  0.14923241
   0.87888169  0.67751918  0.31696142
   0.55259209  0.50211420  0.08586000
   0.61148904  0.50000000  0.23893853
   0.83556306  1.00000000  0.14923241
   0.87876828  0.98602584  0.31698697
   0.81331163  0.33180869  0.11259684
   0.86788880  0.33178500  0.26911836
   0.60250981  0.83130045  0.02620652
   0.59196284  0.83178500  0.17941224
   0.65084876  0.83170608  0.33921510
 
 position of ions in cartesian coordinates  (Angst):
   5.01637598  4.68837517  3.17258956
   5.44476622  4.48300620  5.60676163
   1.77505830  9.39634381  1.77737448
   2.42307708  9.23251443  4.34179014
   5.02956219  1.68225017  3.13488189
   5.42213091  1.83921362  5.59247494
   1.77437880  6.53751955  1.77753030
   2.42307708  6.70184104  4.34179014
   1.39988757  3.17783863  2.67015484
   2.05622110  3.17748199  5.09125447
   5.12188345  7.97436050  1.63405647
   4.57649135  7.96717773  3.93431268
   5.33927298  7.92439536  6.18437031
  10.57358960  4.44330943  2.79951837
  10.92492568  4.68338365  5.37182582
   7.38166989  9.42614092  1.79904846
   8.05130860  9.23251443  4.34179014
  10.57358960  1.91263604  2.79951837
  10.92462021  1.67153365  5.37124053
   7.37741277  6.50149161  1.80406186
   8.05130860  6.70184104  4.34179014
   7.09877251  3.17797273  2.39204091
   7.66947876  3.17574215  5.14438096
  10.74166874  7.96761433  1.63496717
  10.20472287  7.96717773  3.93431268
  11.18118178  7.96770565  6.11138686
   0.81995122  1.62424569  1.40468163
   1.25497224  1.56674049  4.10794885
   3.77725322  6.35594549  2.56567706
   4.36944218  6.32029202  5.29873076
   0.81962611  4.73142131  1.40465488
   1.25497224  4.78920497  4.10794885
   3.77725322  9.57840997  2.56567706
   4.35998810  9.55459347  5.36193927
   4.14112671  3.17797273  4.62681534
   1.12391774  7.96668808  0.42806799
   1.03517635  7.96717773  3.08454356
   1.92647740  7.96298994  5.90342373
   6.24422663  1.54807676  1.45493913
   6.88320375  1.56674049  4.10794885
   6.44232290  3.14747312  6.77981462
   9.40548473  6.35594549  2.56567706
   9.89309923  6.48955649  5.44935679
   6.22023246  4.80945569  1.47614744
   6.88320375  4.78920497  4.10794885
   9.40548473  9.57840997  2.56567706
   9.89182263  9.44455975  5.44979612
   9.15501233  3.17819964  1.93582025
   9.76935823  3.17797273  4.62681534
   6.78212945  7.96253656  0.45055544
   6.66340787  7.96717773  3.08454356
   7.32625500  7.96642181  5.83195303
 


--------------------------------------------------------------------------------------------------------


 use parallel FFT for orbitals z direction half grid
 k-point  1 :   0.0000 0.0000 0.0000  plane waves:   20117

 maximum and minimum number of plane-waves per node :      3359     3348

 maximum number of plane-waves:     20117
 maximum index in each direction: 
   IXMAX=   19   IYMAX=   16   IZMAX=   29
   IXMIN=  -19   IYMIN=  -16   IZMIN=    0


 real space projection operators:
  total allocation   :       7331.92 KBytes
  max/ min on nodes  :       1232.44       1213.61


 parallel 3D FFT for wavefunctions:
    minimum data exchange during FFTs selected (reduces bandwidth)
 parallel 3D FFT for charge:
    minimum data exchange during FFTs selected (reduces bandwidth)


 total amount of memory used by VASP MPI-rank0    60031. kBytes
=======================================================================

   base      :      30000. kBytes
   nonlr-proj:       1496. kBytes
   fftplans  :       7078. kBytes
   grid      :      11974. kBytes
   one-center:         69. kBytes
   wavefun   :       9414. kBytes
 
     INWAV:  cpu time    0.0000: real time    0.0000
 Broyden mixing: mesh for mixing (old mesh)
   NGX = 39   NGY = 33   NGZ = 59
  (NGX  =120   NGY  =100   NGZ  =180)
  gives a total of  75933 points

 initial charge density was supplied:
 charge density of overlapping atoms calculated
 number of electron     572.0000000 magnetization 
 keeping initial charge density in first step


--------------------------------------------------------------------------------------------------------


 Maximum index for non-local projection operator          267
 Maximum index for augmentation-charges          430 (set IRDMAX)


--------------------------------------------------------------------------------------------------------


 First call to EWALD:  gamma=   0.144
 Maximum number of real-space cells 3x 3x 2
 Maximum number of reciprocal cells 3x 2x 4

    FEWALD:  cpu time    0.0060: real time    0.0060


--------------------------------------- Iteration      1(   1)  ---------------------------------------


    POTLOK:  cpu time    0.2165: real time    0.2165
    SETDIJ:  cpu time    0.0142: real time    0.0143
     EDDAV:  cpu time    4.0904: real time    4.0916
       DOS:  cpu time    0.0008: real time    0.0008
    --------------------------------------------
      LOOP:  cpu time    4.3220: real time    4.3233

 eigenvalue-minimisations  :   848
 total energy-change (2. order) : 0.6469841E+04  (-0.3662567E+05)
 number of electron     572.0000000 magnetization 
 augmentation part      572.0000000 magnetization 

 Free energy of the ion-electron system (eV)
  ---------------------------------------------------
  alpha Z        PSCENC =      1046.73971423
  Ewald energy   TEWEN  =    124899.05325899
  -Hartree energ DENC   =   -211874.40485556
  -exchange      EXHF   =         0.00000000
  -V(xc)+E(xc)   XCENC  =      2658.97089565
  PAW double counting   =     81415.77407466   -84963.31414086
  entropy T*S    EENTRO =        -0.35551086
  eigenvalues    EBANDS =     -4936.72602273
  atomic energy  EATOM  =     98224.10364994
  Solvation  Ediel_sol  =         0.00000000
  ---------------------------------------------------
  free energy    TOTEN  =      6469.84106345 eV

  energy without entropy =     6470.19657432  energy(sigma->0) =     6470.01881888


--------------------------------------------------------------------------------------------------------




--------------------------------------- Iteration      1(   2)  ---------------------------------------


     EDDAV:  cpu time    3.6937: real time    3.6954
       DOS:  cpu time    0.0009: real time    0.0008
    --------------------------------------------
      LOOP:  cpu time    3.6945: real time    3.6963

 eigenvalue-minimisations  :   736
 total energy-change (2. order) :-0.6126036E+04  (-0.5909809E+04)
 number of electron     572.0000000 magnetization 
 augmentation part      572.0000000 magnetization 

 Free energy of the ion-electron system (eV)
  ---------------------------------------------------
  alpha Z        PSCENC =      1046.73971423
  Ewald energy   TEWEN  =    124899.05325899
  -Hartree energ DENC   =   -211874.40485556
  -exchange      EXHF   =         0.00000000
  -V(xc)+E(xc)   XCENC  =      2658.97089565
  PAW double counting   =     81415.77407466   -84963.31414086
  entropy T*S    EENTRO =        -0.71558591
  eigenvalues    EBANDS =    -11062.40198998
  atomic energy  EATOM  =     98224.10364994
  Solvation  Ediel_sol  =         0.00000000
  ---------------------------------------------------
  free energy    TOTEN  =       343.80502115 eV

  energy without entropy =      344.52060706  energy(sigma->0) =      344.16281411


--------------------------------------------------------------------------------------------------------




--------------------------------------- Iteration      1(   3)  ---------------------------------------


     EDDAV:  cpu time    3.6396: real time    3.6404
       DOS:  cpu time    0.0009: real time    0.0009
    --------------------------------------------
      LOOP:  cpu time    3.6405: real time    3.6412

 eigenvalue-minimisations  :   792
 total energy-change (2. order) :-0.5991850E+03  (-0.5763091E+03)
 number of electron     572.0000000 magnetization 
 augmentation part      572.0000000 magnetization 

 Free energy of the ion-electron system (eV)
  ---------------------------------------------------
  alpha Z        PSCENC =      1046.73971423
  Ewald energy   TEWEN  =    124899.05325899
  -Hartree energ DENC   =   -211874.40485556
  -exchange      EXHF   =         0.00000000
  -V(xc)+E(xc)   XCENC  =      2658.97089565
  PAW double counting   =     81415.77407466   -84963.31414086
  entropy T*S    EENTRO =        -0.87166026
  eigenvalues    EBANDS =    -11661.43087781
  atomic energy  EATOM  =     98224.10364994
  Solvation  Ediel_sol  =         0.00000000
  ---------------------------------------------------
  free energy    TOTEN  =      -255.37994103 eV

  energy without entropy =     -254.50828077  energy(sigma->0) =     -254.94411090


--------------------------------------------------------------------------------------------------------




--------------------------------------- Iteration      1(   4)  ---------------------------------------


     EDDAV:  cpu time    3.9252: real time    3.9258
       DOS:  cpu time    0.0009: real time    0.0009
    --------------------------------------------
      LOOP:  cpu time    3.9262: real time    3.9268

 eigenvalue-minimisations  :   808
 total energy-change (2. order) :-0.3074306E+02  (-0.3045128E+02)
 number of electron     572.0000000 magnetization 
 augmentation part      572.0000000 magnetization 

 Free energy of the ion-electron system (eV)
  ---------------------------------------------------
  alpha Z        PSCENC =      1046.73971423
  Ewald energy   TEWEN  =    124899.05325899
  -Hartree energ DENC   =   -211874.40485556
  -exchange      EXHF   =         0.00000000
  -V(xc)+E(xc)   XCENC  =      2658.97089565
  PAW double counting   =     81415.77407466   -84963.31414086
  entropy T*S    EENTRO =        -0.87747455
  eigenvalues    EBANDS =    -11692.16812114
  atomic energy  EATOM  =     98224.10364994
  Solvation  Ediel_sol  =         0.00000000
  ---------------------------------------------------
  free energy    TOTEN  =      -286.12299865 eV

  energy without entropy =     -285.24552409  energy(sigma->0) =     -285.68426137


--------------------------------------------------------------------------------------------------------




--------------------------------------- Iteration      1(   5)  ---------------------------------------


     EDDAV:  cpu time    4.0938: real time    4.0949
       DOS:  cpu time    0.0009: real time    0.0009
    CHARGE:  cpu time    0.1462: real time    0.1463
    MIXING:  cpu time    0.0065: real time    0.0065
    --------------------------------------------
      LOOP:  cpu time    4.2475: real time    4.2486

 eigenvalue-minimisations  :   856
 total energy-change (2. order) :-0.1170027E+01  (-0.1168103E+01)
 number of electron     572.0000173 magnetization 
 augmentation part      206.5559367 magnetization 

 Broyden mixing:
  rms(total) = 0.83275E+01    rms(broyden)= 0.83209E+01
  rms(prec ) = 0.87462E+01
  weight for this iteration     100.00

 Free energy of the ion-electron system (eV)
  ---------------------------------------------------
  alpha Z        PSCENC =      1046.73971423
  Ewald energy   TEWEN  =    124899.05325899
  -Hartree energ DENC   =   -211874.40485556
  -exchange      EXHF   =         0.00000000
  -V(xc)+E(xc)   XCENC  =      2658.97089565
  PAW double counting   =     81415.77407466   -84963.31414086
  entropy T*S    EENTRO =        -0.86673738
  eigenvalues    EBANDS =    -11693.34888565
  atomic energy  EATOM  =     98224.10364994
  Solvation  Ediel_sol  =         0.00000000
  ---------------------------------------------------
  free energy    TOTEN  =      -287.29302598 eV

  energy without entropy =     -286.42628860  energy(sigma->0) =     -286.85965729


--------------------------------------------------------------------------------------------------------




--------------------------------------- Iteration      1(   6)  ---------------------------------------


    POTLOK:  cpu time    0.2006: real time    0.2006
    SETDIJ:  cpu time    0.0158: real time    0.0158
     EDDAV:  cpu time    4.0428: real time    4.0434
       DOS:  cpu time    0.0009: real time    0.0009
    CHARGE:  cpu time    0.1430: real time    0.1430
    MIXING:  cpu time    0.0076: real time    0.0076
    --------------------------------------------
      LOOP:  cpu time    4.4107: real time    4.4113

 eigenvalue-minimisations  :   832
 total energy-change (2. order) :-0.4460912E+02  (-0.7396196E+02)
 number of electron     572.0000244 magnetization 
 augmentation part      250.6678431 magnetization 

 Broyden mixing:
  rms(total) = 0.13223E+02    rms(broyden)= 0.13221E+02
  rms(prec ) = 0.13798E+02
  weight for this iteration     100.00

 eigenvalues of (default mixing * dielectric matrix)
  average eigenvalue GAMMA=   0.2466
  0.2466

 Free energy of the ion-electron system (eV)
  ---------------------------------------------------
  alpha Z        PSCENC =      1046.73971423
  Ewald energy   TEWEN  =    124899.05325899
  -Hartree energ DENC   =   -209960.87263897
  -exchange      EXHF   =         0.00000000
  -V(xc)+E(xc)   XCENC  =      2605.01594315
  PAW double counting   =     85088.44994423   -88467.63472198
  entropy T*S    EENTRO =        -0.45301078
  eigenvalues    EBANDS =    -13766.30428899
  atomic energy  EATOM  =     98224.10364994
  Solvation  Ediel_sol  =         0.00000000
  ---------------------------------------------------
  free energy    TOTEN  =      -331.90215019 eV

  energy without entropy =     -331.44913941  energy(sigma->0) =     -331.67564480


--------------------------------------------------------------------------------------------------------




--------------------------------------- Iteration      1(   7)  ---------------------------------------


    POTLOK:  cpu time    0.2012: real time    0.2012
    SETDIJ:  cpu time    0.0159: real time    0.0159
     EDDAV:  cpu time    3.6525: real time    3.6531
       DOS:  cpu time    0.0011: real time    0.0011
    CHARGE:  cpu time    0.1895: real time    0.1895
    MIXING:  cpu time    0.0122: real time    0.0122
    --------------------------------------------
      LOOP:  cpu time    4.0722: real time    4.0729

 eigenvalue-minimisations  :   768
 total energy-change (2. order) : 0.7001148E+02  (-0.1527773E+02)
 number of electron     572.0000235 magnetization 
 augmentation part      237.9752161 magnetization 

 Broyden mixing:
  rms(total) = 0.56332E+01    rms(broyden)= 0.56320E+01
  rms(prec ) = 0.59051E+01
  weight for this iteration     100.00

 eigenvalues of (default mixing * dielectric matrix)
  average eigenvalue GAMMA=   0.5542
  0.6125  0.4958

 Free energy of the ion-electron system (eV)
  ---------------------------------------------------
  alpha Z        PSCENC =      1046.73971423
  Ewald energy   TEWEN  =    124899.05325899
  -Hartree energ DENC   =   -210752.43829343
  -exchange      EXHF   =         0.00000000
  -V(xc)+E(xc)   XCENC  =      2625.25448202
  PAW double counting   =     88600.91429979   -92089.18015255
  entropy T*S    EENTRO =        -0.57944861
  eigenvalues    EBANDS =    -12815.75817951
  atomic energy  EATOM  =     98224.10364994
  Solvation  Ediel_sol  =         0.00000000
  ---------------------------------------------------
  free energy    TOTEN  =      -261.89066914 eV

  energy without entropy =     -261.31122053  energy(sigma->0) =     -261.60094484


--------------------------------------------------------------------------------------------------------




--------------------------------------- Iteration      1(   8)  ---------------------------------------


    POTLOK:  cpu time    0.2886: real time    0.2892
    SETDIJ:  cpu time    0.0162: real time    0.0162
     EDDAV:  cpu time    4.0460: real time    4.0466
       DOS:  cpu time    0.0009: real time    0.0009
    CHARGE:  cpu time    0.1415: real time    0.1415
    MIXING:  cpu time    0.0078: real time    0.0078
    --------------------------------------------
      LOOP:  cpu time    4.5012: real time    4.5024

 eigenvalue-minimisations  :   904
 total energy-change (2. order) :-0.5580194E+02  (-0.1803838E+02)
 number of electron     572.0000150 magnetization 
 augmentation part      221.0763864 magnetization 

 Broyden mixing:
  rms(total) = 0.10760E+02    rms(broyden)= 0.10759E+02
  rms(prec ) = 0.12705E+02
  weight for this iteration     100.00

 eigenvalues of (default mixing * dielectric matrix)
  average eigenvalue GAMMA=   0.5126
  0.9233  0.4311  0.1833

 Free energy of the ion-electron system (eV)
  ---------------------------------------------------
  alpha Z        PSCENC =      1046.73971423
  Ewald energy   TEWEN  =    124899.05325899
  -Hartree energ DENC   =   -211393.93057371
  -exchange      EXHF   =         0.00000000
  -V(xc)+E(xc)   XCENC  =      2642.73894048
  PAW double counting   =     94549.50308118   -98134.24399235
  entropy T*S    EENTRO =        -0.56150426
  eigenvalues    EBANDS =    -12151.09518207
  atomic energy  EATOM  =     98224.10364994
  Solvation  Ediel_sol  =         0.00000000
  ---------------------------------------------------
  free energy    TOTEN  =      -317.69260758 eV

  energy without entropy =     -317.13110332  energy(sigma->0) =     -317.41185545


--------------------------------------------------------------------------------------------------------




--------------------------------------- Iteration      1(   9)  ---------------------------------------


    POTLOK:  cpu time    0.1988: real time    0.1988
    SETDIJ:  cpu time    0.0159: real time    0.0159
     EDDAV:  cpu time    4.2232: real time    4.2239
       DOS:  cpu time    0.0009: real time    0.0009
    CHARGE:  cpu time    0.1437: real time    0.1437
    MIXING:  cpu time    0.0082: real time    0.0082
    --------------------------------------------
      LOOP:  cpu time    4.5907: real time    4.5914

 eigenvalue-minimisations  :   888
 total energy-change (2. order) : 0.5704172E+02  (-0.6935915E+01)
 number of electron     572.0000178 magnetization 
 augmentation part      220.4167743 magnetization 

 Broyden mixing:
  rms(total) = 0.39495E+01    rms(broyden)= 0.39465E+01
  rms(prec ) = 0.44590E+01
  weight for this iteration     100.00

 eigenvalues of (default mixing * dielectric matrix)
  average eigenvalue GAMMA=   0.7146
  1.8349  0.4404  0.4404  0.1426

 Free energy of the ion-electron system (eV)
  ---------------------------------------------------
  alpha Z        PSCENC =      1046.73971423
  Ewald energy   TEWEN  =    124899.05325899
  -Hartree energ DENC   =   -211419.45677657
  -exchange      EXHF   =         0.00000000
  -V(xc)+E(xc)   XCENC  =      2642.42018714
  PAW double counting   =     96907.04860158  -100506.08249748
  entropy T*S    EENTRO =        -0.74955358
  eigenvalues    EBANDS =    -12053.72747610
  atomic energy  EATOM  =     98224.10364994
  Solvation  Ediel_sol  =         0.00000000
  ---------------------------------------------------
  free energy    TOTEN  =      -260.65089186 eV

  energy without entropy =     -259.90133828  energy(sigma->0) =     -260.27611507


--------------------------------------------------------------------------------------------------------




--------------------------------------- Iteration      1(  10)  ---------------------------------------


    POTLOK:  cpu time    0.1988: real time    0.1988
    SETDIJ:  cpu time    0.0164: real time    0.0164
     EDDAV:  cpu time    4.5329: real time    4.5337
       DOS:  cpu time    0.0011: real time    0.0010
    CHARGE:  cpu time    0.1373: real time    0.1373
    MIXING:  cpu time    0.0083: real time    0.0083
    --------------------------------------------
      LOOP:  cpu time    4.8948: real time    4.8956

 eigenvalue-minimisations  :   976
 total energy-change (2. order) :-0.2213411E+02  (-0.6866847E+01)
 number of electron     572.0000243 magnetization 
 augmentation part      219.2986893 magnetization 

 Broyden mixing:
  rms(total) = 0.82968E+01    rms(broyden)= 0.82940E+01
  rms(prec ) = 0.98720E+01
  weight for this iteration     100.00

 eigenvalues of (default mixing * dielectric matrix)
  average eigenvalue GAMMA=   0.6905
  2.2711  0.4496  0.4496  0.1411  0.1411

 Free energy of the ion-electron system (eV)
  ---------------------------------------------------
  alpha Z        PSCENC =      1046.73971423
  Ewald energy   TEWEN  =    124899.05325899
  -Hartree energ DENC   =   -211336.68402506
  -exchange      EXHF   =         0.00000000
  -V(xc)+E(xc)   XCENC  =      2639.74217532
  PAW double counting   =    101581.55763727  -105202.31211294
  entropy T*S    EENTRO =        -0.68603060
  eigenvalues    EBANDS =    -12134.29926612
  atomic energy  EATOM  =     98224.10364994
  Solvation  Ediel_sol  =         0.00000000
  ---------------------------------------------------
  free energy    TOTEN  =      -282.78499898 eV

  energy without entropy =     -282.09896838  energy(sigma->0) =     -282.44198368


--------------------------------------------------------------------------------------------------------




--------------------------------------- Iteration      1(  11)  ---------------------------------------


    POTLOK:  cpu time    0.2015: real time    0.2017
    SETDIJ:  cpu time    0.0164: real time    0.0164
     EDDAV:  cpu time    4.4681: real time    4.4686
       DOS:  cpu time    0.0009: real time    0.0009
    CHARGE:  cpu time    0.1405: real time    0.1405
    MIXING:  cpu time    0.0094: real time    0.0094
    --------------------------------------------
      LOOP:  cpu time    4.8368: real time    4.8375

 eigenvalue-minimisations  :   952
 total energy-change (2. order) : 0.2195510E+02  (-0.5774899E+01)
 number of electron     572.0000187 magnetization 
 augmentation part      224.0328629 magnetization 

 Broyden mixing:
  rms(total) = 0.37357E+01    rms(broyden)= 0.37320E+01
  rms(prec ) = 0.44150E+01
  weight for this iteration     100.00

 eigenvalues of (default mixing * dielectric matrix)
  average eigenvalue GAMMA=   0.6329
  2.3847  0.4556  0.4556  0.2226  0.1638  0.1148

 Free energy of the ion-electron system (eV)
  ---------------------------------------------------
  alpha Z        PSCENC =      1046.73971423
  Ewald energy   TEWEN  =    124899.05325899
  -Hartree energ DENC   =   -211258.91830434
  -exchange      EXHF   =         0.00000000
  -V(xc)+E(xc)   XCENC  =      2637.49220239
  PAW double counting   =    104002.22856836  -107631.44747425
  entropy T*S    EENTRO =        -0.76099934
  eigenvalues    EBANDS =    -12179.32051663
  atomic energy  EATOM  =     98224.10364994
  Solvation  Ediel_sol  =         0.00000000
  ---------------------------------------------------
  free energy    TOTEN  =      -260.82990065 eV

  energy without entropy =     -260.06890131  energy(sigma->0) =     -260.44940098


--------------------------------------------------------------------------------------------------------




--------------------------------------- Iteration      1(  12)  ---------------------------------------


    POTLOK:  cpu time    0.2012: real time    0.2014
    SETDIJ:  cpu time    0.0171: real time    0.0171
     EDDAV:  cpu time    4.3251: real time    4.3730
       DOS:  cpu time    0.0009: real time    0.0009
    CHARGE:  cpu time    0.1405: real time    0.1405
    MIXING:  cpu time    0.0096: real time    0.0096
    --------------------------------------------
      LOOP:  cpu time    4.6945: real time    4.7425

 eigenvalue-minimisations  :   920
 total energy-change (2. order) : 0.6210798E+01  (-0.2063315E+01)
 number of electron     572.0000207 magnetization 
 augmentation part      225.7969468 magnetization 

 Broyden mixing:
  rms(total) = 0.21770E+01    rms(broyden)= 0.21737E+01
  rms(prec ) = 0.25938E+01
  weight for this iteration     100.00

 eigenvalues of (default mixing * dielectric matrix)
  average eigenvalue GAMMA=   0.6036
  2.3639  0.4828  0.4656  0.4656  0.1861  0.1306  0.1306

 Free energy of the ion-electron system (eV)
  ---------------------------------------------------
  alpha Z        PSCENC =      1046.73971423
  Ewald energy   TEWEN  =    124899.05325899
  -Hartree energ DENC   =   -211237.47462153
  -exchange      EXHF   =         0.00000000
  -V(xc)+E(xc)   XCENC  =      2637.05752345
  PAW double counting   =    104510.55787815  -108142.75975057
  entropy T*S    EENTRO =        -0.64972118
  eigenvalues    EBANDS =    -12191.24703448
  atomic energy  EATOM  =     98224.10364994
  Solvation  Ediel_sol  =         0.00000000
  ---------------------------------------------------
  free energy    TOTEN  =      -254.61910301 eV

  energy without entropy =     -253.96938183  energy(sigma->0) =     -254.29424242


--------------------------------------------------------------------------------------------------------




--------------------------------------- Iteration      1(  13)  ---------------------------------------


    POTLOK:  cpu time    0.2022: real time    0.2022
    SETDIJ:  cpu time    0.0165: real time    0.0165
     EDDAV:  cpu time    4.3218: real time    4.3223
       DOS:  cpu time    0.0010: real time    0.0010
    CHARGE:  cpu time    0.1394: real time    0.1395
    MIXING:  cpu time    0.0096: real time    0.0096
    --------------------------------------------
      LOOP:  cpu time    4.6904: real time    4.6909

 eigenvalue-minimisations  :   920
 total energy-change (2. order) : 0.1940600E+01  (-0.7139532E+00)
 number of electron     572.0000196 magnetization 
 augmentation part      225.4623670 magnetization 

 Broyden mixing:
  rms(total) = 0.17311E+01    rms(broyden)= 0.17300E+01
  rms(prec ) = 0.20199E+01
  weight for this iteration     100.00

 eigenvalues of (default mixing * dielectric matrix)
  average eigenvalue GAMMA=   0.5524
  2.2607  0.4797  0.4797  0.4584  0.3245  0.1454  0.1454  0.1258

 Free energy of the ion-electron system (eV)
  ---------------------------------------------------
  alpha Z        PSCENC =      1046.73971423
  Ewald energy   TEWEN  =    124899.05325899
  -Hartree energ DENC   =   -211261.24266433
  -exchange      EXHF   =         0.00000000
  -V(xc)+E(xc)   XCENC  =      2637.28255439
  PAW double counting   =    104222.77841987  -107853.68900024
  entropy T*S    EENTRO =        -0.70533031
  eigenvalues    EBANDS =    -12166.99910576
  atomic energy  EATOM  =     98224.10364994
  Solvation  Ediel_sol  =         0.00000000
  ---------------------------------------------------
  free energy    TOTEN  =      -252.67850322 eV

  energy without entropy =     -251.97317291  energy(sigma->0) =     -252.32583806


--------------------------------------------------------------------------------------------------------




--------------------------------------- Iteration      1(  14)  ---------------------------------------


    POTLOK:  cpu time    0.2103: real time    0.2104
    SETDIJ:  cpu time    0.0162: real time    0.0162
     EDDAV:  cpu time    4.2291: real time    4.2295
       DOS:  cpu time    0.0010: real time    0.0010
    CHARGE:  cpu time    0.3171: real time    0.3172
    MIXING:  cpu time    0.0118: real time    0.0118
    --------------------------------------------
      LOOP:  cpu time    4.7855: real time    4.7859

 eigenvalue-minimisations  :   952
 total energy-change (2. order) : 0.8779175E+00  (-0.2465567E+00)
 number of electron     572.0000215 magnetization 
 augmentation part      225.5051796 magnetization 

 Broyden mixing:
  rms(total) = 0.12918E+01    rms(broyden)= 0.12910E+01
  rms(prec ) = 0.15067E+01
  weight for this iteration     100.00

 eigenvalues of (default mixing * dielectric matrix)
  average eigenvalue GAMMA=   0.5098
  2.2062  0.5088  0.5088  0.4098  0.4098  0.1528  0.1528  0.1198  0.1198

 Free energy of the ion-electron system (eV)
  ---------------------------------------------------
  alpha Z        PSCENC =      1046.73971423
  Ewald energy   TEWEN  =    124899.05325899
  -Hartree energ DENC   =   -211270.39609797
  -exchange      EXHF   =         0.00000000
  -V(xc)+E(xc)   XCENC  =      2637.39219018
  PAW double counting   =    103746.57908176  -107374.17746959
  entropy T*S    EENTRO =        -0.67854353
  eigenvalues    EBANDS =    -12160.41636970
  atomic energy  EATOM  =     98224.10364994
  Solvation  Ediel_sol  =         0.00000000
  ---------------------------------------------------
  free energy    TOTEN  =      -251.80058570 eV

  energy without entropy =     -251.12204217  energy(sigma->0) =     -251.46131393


--------------------------------------------------------------------------------------------------------




--------------------------------------- Iteration      1(  15)  ---------------------------------------


    POTLOK:  cpu time    0.2014: real time    0.2014
    SETDIJ:  cpu time    0.0160: real time    0.0160
     EDDAV:  cpu time    4.0075: real time    4.1146
       DOS:  cpu time    0.0010: real time    0.0010
    CHARGE:  cpu time    0.1434: real time    0.1434
    MIXING:  cpu time    0.0106: real time    0.0106
    --------------------------------------------
      LOOP:  cpu time    4.3799: real time    4.4870

 eigenvalue-minimisations  :   904
 total energy-change (2. order) : 0.3870492E+00  (-0.5519965E-01)
 number of electron     572.0000207 magnetization 
 augmentation part      225.3351148 magnetization 

 Broyden mixing:
  rms(total) = 0.10921E+01    rms(broyden)= 0.10920E+01
  rms(prec ) = 0.12736E+01
  weight for this iteration     100.00

 eigenvalues of (default mixing * dielectric matrix)
  average eigenvalue GAMMA=   0.4878
  2.1793  0.5151  0.5151  0.3964  0.3964  0.2321  0.2321  0.1250  0.1433  0.1433

 Free energy of the ion-electron system (eV)
  ---------------------------------------------------
  alpha Z        PSCENC =      1046.73971423
  Ewald energy   TEWEN  =    124899.05325899
  -Hartree energ DENC   =   -211279.50171690
  -exchange      EXHF   =         0.00000000
  -V(xc)+E(xc)   XCENC  =      2637.58478316
  PAW double counting   =    103493.55996300  -107119.76649459
  entropy T*S    EENTRO =        -0.67464673
  eigenvalues    EBANDS =    -12152.51204756
  atomic energy  EATOM  =     98224.10364994
  Solvation  Ediel_sol  =         0.00000000
  ---------------------------------------------------
  free energy    TOTEN  =      -251.41353649 eV

  energy without entropy =     -250.73888976  energy(sigma->0) =     -251.07621312


--------------------------------------------------------------------------------------------------------




--------------------------------------- Iteration      1(  16)  ---------------------------------------


    POTLOK:  cpu time    0.2020: real time    0.2021
    SETDIJ:  cpu time    0.0166: real time    0.0166
     EDDAV:  cpu time    4.3168: real time    4.3180
       DOS:  cpu time    0.0009: real time    0.0009
    CHARGE:  cpu time    0.1431: real time    0.1431
    MIXING:  cpu time    0.0105: real time    0.0105
    --------------------------------------------
      LOOP:  cpu time    4.6900: real time    4.6913

 eigenvalue-minimisations  :   928
 total energy-change (2. order) : 0.1450448E+00  (-0.2100315E-01)
 number of electron     572.0000211 magnetization 
 augmentation part      225.2142396 magnetization 

 Broyden mixing:
  rms(total) = 0.10466E+01    rms(broyden)= 0.10465E+01
  rms(prec ) = 0.12253E+01
  weight for this iteration     100.00

 eigenvalues of (default mixing * dielectric matrix)
  average eigenvalue GAMMA=   0.5382
  2.1646  0.8220  0.8220  0.4551  0.4551  0.4205  0.2225  0.1488  0.1488  0.1301
  0.1301

 Free energy of the ion-electron system (eV)
  ---------------------------------------------------
  alpha Z        PSCENC =      1046.73971423
  Ewald energy   TEWEN  =    124899.05325899
  -Hartree energ DENC   =   -211286.12139788
  -exchange      EXHF   =         0.00000000
  -V(xc)+E(xc)   XCENC  =      2637.69237157
  PAW double counting   =    103319.32861526  -106944.27628805
  entropy T*S    EENTRO =        -0.69858549
  eigenvalues    EBANDS =    -12147.08983025
  atomic energy  EATOM  =     98224.10364994
  Solvation  Ediel_sol  =         0.00000000
  ---------------------------------------------------
  free energy    TOTEN  =      -251.26849169 eV

  energy without entropy =     -250.56990620  energy(sigma->0) =     -250.91919895


--------------------------------------------------------------------------------------------------------




--------------------------------------- Iteration      1(  17)  ---------------------------------------


    POTLOK:  cpu time    0.2037: real time    0.2037
    SETDIJ:  cpu time    0.0162: real time    0.0162
     EDDAV:  cpu time    4.5949: real time    4.5958
       DOS:  cpu time    0.0010: real time    0.0010
    CHARGE:  cpu time    0.1394: real time    0.1394
    MIXING:  cpu time    0.0109: real time    0.0109
    --------------------------------------------
      LOOP:  cpu time    4.9660: real time    4.9669

 eigenvalue-minimisations  :   984
 total energy-change (2. order) : 0.2916529E+00  (-0.2035443E-01)
 number of electron     572.0000206 magnetization 
 augmentation part      225.1749233 magnetization 

 Broyden mixing:
  rms(total) = 0.90966E+00    rms(broyden)= 0.90955E+00
  rms(prec ) = 0.10580E+01
  weight for this iteration     100.00

 eigenvalues of (default mixing * dielectric matrix)
  average eigenvalue GAMMA=   0.5454
  2.1639  1.0024  1.0024  0.4682  0.4682  0.4466  0.2652  0.1646  0.1646  0.1368
  0.1368  0.1250

 Free energy of the ion-electron system (eV)
  ---------------------------------------------------
  alpha Z        PSCENC =      1046.73971423
  Ewald energy   TEWEN  =    124899.05325899
  -Hartree energ DENC   =   -211296.84579828
  -exchange      EXHF   =         0.00000000
  -V(xc)+E(xc)   XCENC  =      2637.73747913
  PAW double counting   =    103011.33024305  -106633.10882320
  entropy T*S    EENTRO =        -0.70261680
  eigenvalues    EBANDS =    -12139.28394584
  atomic energy  EATOM  =     98224.10364994
  Solvation  Ediel_sol  =         0.00000000
  ---------------------------------------------------
  free energy    TOTEN  =      -250.97683879 eV

  energy without entropy =     -250.27422199  energy(sigma->0) =     -250.62553039


--------------------------------------------------------------------------------------------------------




--------------------------------------- Iteration      1(  18)  ---------------------------------------


    POTLOK:  cpu time    0.2066: real time    0.2069
    SETDIJ:  cpu time    0.0163: real time    0.0163
     EDDAV:  cpu time    4.4918: real time    4.4927
       DOS:  cpu time    0.0009: real time    0.0009
    CHARGE:  cpu time    0.1379: real time    0.1379
    MIXING:  cpu time    0.0118: real time    0.0118
    --------------------------------------------
      LOOP:  cpu time    4.8654: real time    4.9230

 eigenvalue-minimisations  :   960
 total energy-change (2. order) : 0.2366741E+00  (-0.1481071E-01)
 number of electron     572.0000207 magnetization 
 augmentation part      225.1587101 magnetization 

 Broyden mixing:
  rms(total) = 0.77247E+00    rms(broyden)= 0.77239E+00
  rms(prec ) = 0.89889E+00
  weight for this iteration     100.00

 eigenvalues of (default mixing * dielectric matrix)
  average eigenvalue GAMMA=   0.6283
  2.1553  1.5669  1.5669  0.5749  0.4807  0.4807  0.4019  0.2006  0.1834  0.1505
  0.1393  0.1393  0.1271

 Free energy of the ion-electron system (eV)
  ---------------------------------------------------
  alpha Z        PSCENC =      1046.73971423
  Ewald energy   TEWEN  =    124899.05325899
  -Hartree energ DENC   =   -211303.56524732
  -exchange      EXHF   =         0.00000000
  -V(xc)+E(xc)   XCENC  =      2637.77445610
  PAW double counting   =    102816.45457755  -106436.27367253
  entropy T*S    EENTRO =        -0.71645536
  eigenvalues    EBANDS =    -12134.31044633
  atomic energy  EATOM  =     98224.10364994
  Solvation  Ediel_sol  =         0.00000000
  ---------------------------------------------------
  free energy    TOTEN  =      -250.74016473 eV

  energy without entropy =     -250.02370937  energy(sigma->0) =     -250.38193705


--------------------------------------------------------------------------------------------------------




--------------------------------------- Iteration      1(  19)  ---------------------------------------


    POTLOK:  cpu time    0.2089: real time    0.2654
    SETDIJ:  cpu time    0.0161: real time    0.0161
     EDDAV:  cpu time    4.6437: real time    4.6442
       DOS:  cpu time    0.0011: real time    0.0011
    CHARGE:  cpu time    0.1390: real time    0.1391
    MIXING:  cpu time    0.0113: real time    0.0113
    --------------------------------------------
      LOOP:  cpu time    5.0201: real time    5.0666

 eigenvalue-minimisations  :  1008
 total energy-change (2. order) : 0.3100878E+00  (-0.5267517E-01)
 number of electron     572.0000205 magnetization 
 augmentation part      225.1740839 magnetization 

 Broyden mixing:
  rms(total) = 0.52670E+00    rms(broyden)= 0.52572E+00
  rms(prec ) = 0.59428E+00
  weight for this iteration     100.00

 eigenvalues of (default mixing * dielectric matrix)
  average eigenvalue GAMMA=   0.6268
  2.1670  1.7342  1.7342  0.5147  0.5147  0.4838  0.4838  0.2161  0.2161  0.1613
  0.1424  0.1424  0.1294  0.1345

 Free energy of the ion-electron system (eV)
  ---------------------------------------------------
  alpha Z        PSCENC =      1046.73971423
  Ewald energy   TEWEN  =    124899.05325899
  -Hartree energ DENC   =   -211328.02098289
  -exchange      EXHF   =         0.00000000
  -V(xc)+E(xc)   XCENC  =      2637.80053365
  PAW double counting   =    102142.99084764  -105755.58136904
  entropy T*S    EENTRO =        -0.81003758
  eigenvalues    EBANDS =    -12116.70569187
  atomic energy  EATOM  =     98224.10364994
  Solvation  Ediel_sol  =         0.00000000
  ---------------------------------------------------
  free energy    TOTEN  =      -250.43007695 eV

  energy without entropy =     -249.62003937  energy(sigma->0) =     -250.02505816


--------------------------------------------------------------------------------------------------------




--------------------------------------- Iteration      1(  20)  ---------------------------------------


    POTLOK:  cpu time    0.2070: real time    0.2529
    SETDIJ:  cpu time    0.0166: real time    0.0166
     EDDAV:  cpu time    4.3859: real time    4.3865
       DOS:  cpu time    0.0009: real time    0.0009
    CHARGE:  cpu time    0.1529: real time    0.1529
    MIXING:  cpu time    0.0127: real time    0.0127
    --------------------------------------------
      LOOP:  cpu time    4.7759: real time    4.7765

 eigenvalue-minimisations  :   936
 total energy-change (2. order) : 0.8136227E-01  (-0.4108200E-01)
 number of electron     572.0000205 magnetization 
 augmentation part      225.1302196 magnetization 

 Broyden mixing:
  rms(total) = 0.37054E+00    rms(broyden)= 0.36976E+00
  rms(prec ) = 0.41456E+00
  weight for this iteration     100.00

 eigenvalues of (default mixing * dielectric matrix)
  average eigenvalue GAMMA=   0.6304
  2.1407  1.8092  1.8092  0.6093  0.6093  0.4562  0.4562  0.4548  0.2125  0.1816
  0.1626  0.1278  0.1421  0.1421  0.1422

 Free energy of the ion-electron system (eV)
  ---------------------------------------------------
  alpha Z        PSCENC =      1046.73971423
  Ewald energy   TEWEN  =    124899.05325899
  -Hartree energ DENC   =   -211342.21240066
  -exchange      EXHF   =         0.00000000
  -V(xc)+E(xc)   XCENC  =      2637.83106226
  PAW double counting   =    101833.76890263  -105442.83504559
  entropy T*S    EENTRO =        -0.83077289
  eigenvalues    EBANDS =    -12105.96708359
  atomic energy  EATOM  =     98224.10364994
  Solvation  Ediel_sol  =         0.00000000
  ---------------------------------------------------
  free energy    TOTEN  =      -250.34871468 eV

  energy without entropy =     -249.51794179  energy(sigma->0) =     -249.93332823


--------------------------------------------------------------------------------------------------------




--------------------------------------- Iteration      1(  21)  ---------------------------------------


    POTLOK:  cpu time    0.2092: real time    0.2093
    SETDIJ:  cpu time    0.0143: real time    0.0143
     EDDAV:  cpu time    4.0268: real time    4.0716
       DOS:  cpu time    0.0011: real time    0.0010
    CHARGE:  cpu time    0.1409: real time    0.1409
    MIXING:  cpu time    0.0138: real time    0.0138
    --------------------------------------------
      LOOP:  cpu time    4.4061: real time    4.4509

 eigenvalue-minimisations  :   840
 total energy-change (2. order) : 0.9287630E-02  (-0.1936150E-01)
 number of electron     572.0000207 magnetization 
 augmentation part      225.1729699 magnetization 

 Broyden mixing:
  rms(total) = 0.28381E+00    rms(broyden)= 0.28356E+00
  rms(prec ) = 0.31433E+00
  weight for this iteration     100.00

 eigenvalues of (default mixing * dielectric matrix)
  average eigenvalue GAMMA=   0.6304
  2.1097  1.8144  1.8144  0.7896  0.7896  0.4662  0.4662  0.4875  0.2661  0.2042
  0.1751  0.1280  0.1428  0.1428  0.1422  0.1480

 Free energy of the ion-electron system (eV)
  ---------------------------------------------------
  alpha Z        PSCENC =      1046.73971423
  Ewald energy   TEWEN  =    124899.05325899
  -Hartree energ DENC   =   -211349.11425539
  -exchange      EXHF   =         0.00000000
  -V(xc)+E(xc)   XCENC  =      2637.83368476
  PAW double counting   =    101684.72930267  -105292.12641896
  entropy T*S    EENTRO =        -0.83048044
  eigenvalues    EBANDS =    -12100.72788284
  atomic energy  EATOM  =     98224.10364994
  Solvation  Ediel_sol  =         0.00000000
  ---------------------------------------------------
  free energy    TOTEN  =      -250.33942705 eV

  energy without entropy =     -249.50894661  energy(sigma->0) =     -249.92418683


--------------------------------------------------------------------------------------------------------




--------------------------------------- Iteration      1(  22)  ---------------------------------------


    POTLOK:  cpu time    0.2068: real time    0.2069
    SETDIJ:  cpu time    0.0140: real time    0.0140
     EDDAV:  cpu time    3.7141: real time    3.7147
       DOS:  cpu time    0.0010: real time    0.0010
    CHARGE:  cpu time    0.1361: real time    0.1361
    MIXING:  cpu time    0.0133: real time    0.0133
    --------------------------------------------
      LOOP:  cpu time    4.0853: real time    4.0860

 eigenvalue-minimisations  :   816
 total energy-change (2. order) : 0.1271512E-01  (-0.1048271E-01)
 number of electron     572.0000206 magnetization 
 augmentation part      225.2190545 magnetization 

 Broyden mixing:
  rms(total) = 0.20642E+00    rms(broyden)= 0.20620E+00
  rms(prec ) = 0.22237E+00
  weight for this iteration     100.00

 eigenvalues of (default mixing * dielectric matrix)
  average eigenvalue GAMMA=   0.6320
  1.9123  1.6575  1.6575  1.1281  1.1281  0.5702  0.4723  0.4723  0.4575  0.2046
  0.2046  0.1719  0.1280  0.1425  0.1425  0.1529  0.1405

 Free energy of the ion-electron system (eV)
  ---------------------------------------------------
  alpha Z        PSCENC =      1046.73971423
  Ewald energy   TEWEN  =    124899.05325899
  -Hartree energ DENC   =   -211352.66288419
  -exchange      EXHF   =         0.00000000
  -V(xc)+E(xc)   XCENC  =      2637.81545228
  PAW double counting   =    101630.54930091  -105237.35489333
  entropy T*S    EENTRO =        -0.80297439
  eigenvalues    EBANDS =    -12097.76733636
  atomic energy  EATOM  =     98224.10364994
  Solvation  Ediel_sol  =         0.00000000
  ---------------------------------------------------
  free energy    TOTEN  =      -250.32671193 eV

  energy without entropy =     -249.52373754  energy(sigma->0) =     -249.92522473


--------------------------------------------------------------------------------------------------------




--------------------------------------- Iteration      1(  23)  ---------------------------------------


    POTLOK:  cpu time    0.2056: real time    0.2056
    SETDIJ:  cpu time    0.0146: real time    0.0146
     EDDAV:  cpu time    4.4631: real time    4.4637
       DOS:  cpu time    0.0010: real time    0.0010
    CHARGE:  cpu time    0.1456: real time    0.1456
    MIXING:  cpu time    0.0139: real time    0.0139
    --------------------------------------------
      LOOP:  cpu time    4.8438: real time    4.8444

 eigenvalue-minimisations  :   936
 total energy-change (2. order) :-0.9829318E-02  (-0.8227377E-02)
 number of electron     572.0000206 magnetization 
 augmentation part      225.2756031 magnetization 

 Broyden mixing:
  rms(total) = 0.23901E+00    rms(broyden)= 0.23876E+00
  rms(prec ) = 0.27460E+00
  weight for this iteration     100.00

 eigenvalues of (default mixing * dielectric matrix)
  average eigenvalue GAMMA=   0.6297
  1.9056  1.9056  1.3297  1.3297  1.3636  0.5243  0.5243  0.4725  0.4725  0.2376
  0.2030  0.2030  0.1576  0.1576  0.1417  0.1417  0.1282  0.1373

 Free energy of the ion-electron system (eV)
  ---------------------------------------------------
  alpha Z        PSCENC =      1046.73971423
  Ewald energy   TEWEN  =    124899.05325899
  -Hartree energ DENC   =   -211359.11905260
  -exchange      EXHF   =         0.00000000
  -V(xc)+E(xc)   XCENC  =      2637.81665446
  PAW double counting   =    101545.31733076  -105151.46953215
  entropy T*S    EENTRO =        -0.83000383
  eigenvalues    EBANDS =    -12091.94856104
  atomic energy  EATOM  =     98224.10364994
  Solvation  Ediel_sol  =         0.00000000
  ---------------------------------------------------
  free energy    TOTEN  =      -250.33654125 eV

  energy without entropy =     -249.50653742  energy(sigma->0) =     -249.92153933


--------------------------------------------------------------------------------------------------------




--------------------------------------- Iteration      1(  24)  ---------------------------------------


    POTLOK:  cpu time    0.2063: real time    0.2064
    SETDIJ:  cpu time    0.0141: real time    0.0141
     EDDAV:  cpu time    4.2816: real time    4.2821
       DOS:  cpu time    0.0011: real time    0.0011
    CHARGE:  cpu time    0.1384: real time    0.1384
    MIXING:  cpu time    0.0144: real time    0.0144
    --------------------------------------------
      LOOP:  cpu time    4.6559: real time    4.6565

 eigenvalue-minimisations  :   920
 total energy-change (2. order) : 0.1844751E-01  (-0.6146118E-02)
 number of electron     572.0000207 magnetization 
 augmentation part      225.3197788 magnetization 

 Broyden mixing:
  rms(total) = 0.14654E+00    rms(broyden)= 0.14626E+00
  rms(prec ) = 0.16809E+00
  weight for this iteration     100.00

 eigenvalues of (default mixing * dielectric matrix)
  average eigenvalue GAMMA=   0.6706
  2.2668  2.2235  1.6292  1.6292  0.9143  0.5885  0.5885  0.5101  0.4665  0.4665
  0.2080  0.2080  0.1838  0.1281  0.1417  0.1417  0.1548  0.1548  0.1375

 Free energy of the ion-electron system (eV)
  ---------------------------------------------------
  alpha Z        PSCENC =      1046.73971423
  Ewald energy   TEWEN  =    124899.05325899
  -Hartree energ DENC   =   -211360.14423910
  -exchange      EXHF   =         0.00000000
  -V(xc)+E(xc)   XCENC  =      2637.80184507
  PAW double counting   =    101583.60805409  -105190.22490193
  entropy T*S    EENTRO =        -0.81591654
  eigenvalues    EBANDS =    -12090.43955848
  atomic energy  EATOM  =     98224.10364994
  Solvation  Ediel_sol  =         0.00000000
  ---------------------------------------------------
  free energy    TOTEN  =      -250.31809373 eV

  energy without entropy =     -249.50217719  energy(sigma->0) =     -249.91013546


--------------------------------------------------------------------------------------------------------




--------------------------------------- Iteration      1(  25)  ---------------------------------------


    POTLOK:  cpu time    0.2104: real time    0.2105
    SETDIJ:  cpu time    0.0142: real time    0.0142
     EDDAV:  cpu time    4.7096: real time    4.7104
       DOS:  cpu time    0.0009: real time    0.0009
    CHARGE:  cpu time    0.1399: real time    0.1399
    MIXING:  cpu time    0.0150: real time    0.0150
    --------------------------------------------
      LOOP:  cpu time    5.0900: real time    5.0908

 eigenvalue-minimisations  :  1024
 total energy-change (2. order) : 0.5760569E-02  (-0.3645169E-02)
 number of electron     572.0000207 magnetization 
 augmentation part      225.4022885 magnetization 

 Broyden mixing:
  rms(total) = 0.10424E+00    rms(broyden)= 0.10397E+00
  rms(prec ) = 0.11688E+00
  weight for this iteration     100.00

 eigenvalues of (default mixing * dielectric matrix)
  average eigenvalue GAMMA=   0.6719
  2.6640  2.0993  1.7036  1.7036  0.8244  0.6621  0.6621  0.5039  0.4676  0.4676
  0.2382  0.2000  0.2000  0.1838  0.1281  0.1422  0.1422  0.1583  0.1387  0.1477

 Free energy of the ion-electron system (eV)
  ---------------------------------------------------
  alpha Z        PSCENC =      1046.73971423
  Ewald energy   TEWEN  =    124899.05325899
  -Hartree energ DENC   =   -211363.29528971
  -exchange      EXHF   =         0.00000000
  -V(xc)+E(xc)   XCENC  =      2637.77530861
  PAW double counting   =    101649.09830437  -105256.53997269
  entropy T*S    EENTRO =        -0.79485548
  eigenvalues    EBANDS =    -12086.45245140
  atomic energy  EATOM  =     98224.10364994
  Solvation  Ediel_sol  =         0.00000000
  ---------------------------------------------------
  free energy    TOTEN  =      -250.31233317 eV

  energy without entropy =     -249.51747768  energy(sigma->0) =     -249.91490542


--------------------------------------------------------------------------------------------------------




--------------------------------------- Iteration      1(  26)  ---------------------------------------


    POTLOK:  cpu time    0.2065: real time    0.2065
    SETDIJ:  cpu time    0.0144: real time    0.0144
     EDDAV:  cpu time    4.4281: real time    4.4287
       DOS:  cpu time    0.0009: real time    0.0009
    CHARGE:  cpu time    0.1399: real time    0.1400
    MIXING:  cpu time    0.0156: real time    0.0156
    --------------------------------------------
      LOOP:  cpu time    4.8054: real time    4.8060

 eigenvalue-minimisations  :   944
 total energy-change (2. order) : 0.1705327E-02  (-0.1548843E-02)
 number of electron     572.0000207 magnetization 
 augmentation part      225.4340705 magnetization 

 Broyden mixing:
  rms(total) = 0.80317E-01    rms(broyden)= 0.80245E-01
  rms(prec ) = 0.91476E-01
  weight for this iteration     100.00

 eigenvalues of (default mixing * dielectric matrix)
  average eigenvalue GAMMA=   0.6784
  2.7622  2.0141  1.7333  1.7333  0.8362  0.8362  0.7911  0.4685  0.4685  0.5024
  0.4797  0.2068  0.2068  0.1897  0.1281  0.1651  0.1418  0.1418  0.1378  0.1516
  0.1516

 Free energy of the ion-electron system (eV)
  ---------------------------------------------------
  alpha Z        PSCENC =      1046.73971423
  Ewald energy   TEWEN  =    124899.05325899
  -Hartree energ DENC   =   -211365.15288802
  -exchange      EXHF   =         0.00000000
  -V(xc)+E(xc)   XCENC  =      2637.77055095
  PAW double counting   =    101672.92605462  -105280.65953193
  entropy T*S    EENTRO =        -0.79473320
  eigenvalues    EBANDS =    -12084.29670341
  atomic energy  EATOM  =     98224.10364994
  Solvation  Ediel_sol  =         0.00000000
  ---------------------------------------------------
  free energy    TOTEN  =      -250.31062784 eV

  energy without entropy =     -249.51589464  energy(sigma->0) =     -249.91326124


--------------------------------------------------------------------------------------------------------




--------------------------------------- Iteration      1(  27)  ---------------------------------------


    POTLOK:  cpu time    0.2048: real time    0.2048
    SETDIJ:  cpu time    0.0143: real time    0.0143
     EDDAV:  cpu time    3.9979: real time    4.0516
       DOS:  cpu time    0.0009: real time    0.0009
    CHARGE:  cpu time    0.1383: real time    0.1383
    MIXING:  cpu time    0.0170: real time    0.0170
    --------------------------------------------
      LOOP:  cpu time    4.3732: real time    4.4269

 eigenvalue-minimisations  :   816
 total energy-change (2. order) : 0.1251907E-02  (-0.5543488E-03)
 number of electron     572.0000207 magnetization 
 augmentation part      225.4512480 magnetization 

 Broyden mixing:
  rms(total) = 0.53012E-01    rms(broyden)= 0.52993E-01
  rms(prec ) = 0.61553E-01
  weight for this iteration     100.00

 eigenvalues of (default mixing * dielectric matrix)
  average eigenvalue GAMMA=   0.6622
  2.7065  1.9754  1.7343  1.7343  0.8834  0.8834  0.8320  0.4686  0.4686  0.5035
  0.4462  0.3114  0.2082  0.2082  0.1877  0.1281  0.1419  0.1419  0.1597  0.1597
  0.1380  0.1465

 Free energy of the ion-electron system (eV)
[...]
    344       5.8867      0.00000


--------------------------------------------------------------------------------------------------------


 soft charge-density along one line, spin component           1
         0         1         2         3         4         5         6         7         8         9
 total charge-density along one line
 
 pseudopotential strength for first ion, spin component:           1
-65.617   0.106   0.036  12.172  -0.047  -0.016  -0.036  -0.009
  0.106 -65.985   0.091  -0.047  12.323  -0.038   0.006   0.024
  0.036   0.091 -65.930  -0.016  -0.038  12.301   0.018   0.006
 12.172  -0.047  -0.016   4.895   0.012   0.003   0.012   0.000
 -0.047  12.323  -0.038   0.012   4.850   0.011  -0.002  -0.006
 -0.016  -0.038  12.301   0.003   0.011   4.858  -0.005  -0.002
 -0.036   0.006   0.018   0.012  -0.002  -0.005 -10.954   0.055
 -0.009   0.024   0.006   0.000  -0.006  -0.002   0.055 -10.961
 -0.003   0.004   0.011   0.001  -0.004  -0.004  -0.036   0.036
  0.006  -0.044  -0.012  -0.002   0.012   0.001   0.083   0.017
 -0.011  -0.001  -0.027   0.003   0.000   0.007  -0.007  -0.061
 -0.035   0.006   0.017   0.012  -0.002  -0.005 -11.499   0.054
 -0.009   0.023   0.006   0.000  -0.006  -0.002   0.054 -11.506
 -0.003   0.004   0.011   0.001  -0.003  -0.004  -0.036   0.036
  0.006  -0.043  -0.012  -0.002   0.012   0.001   0.082   0.017
 -0.011  -0.001  -0.027   0.003   0.000   0.007  -0.007  -0.061
 -0.004   0.003   0.012   0.001   0.003   0.000  -0.008  -0.023
 -0.009   0.007   0.028   0.002   0.008   0.001  -0.018  -0.050
 total augmentation occupancy for first ion, spin component:           1
  1.996   0.000  -0.000  -0.015   0.001   0.000   0.005  -0.008   0.006  -0.006   0.004  -0.004   0.008  -0.005   0.005  -0.004
  0.000   1.995   0.000   0.001  -0.017   0.001  -0.005  -0.004  -0.007  -0.024  -0.000   0.005   0.004   0.007   0.023   0.000
 -0.000   0.000   1.995   0.000   0.001  -0.016  -0.011  -0.005  -0.001  -0.009  -0.028   0.010   0.005   0.000   0.009   0.027
 -0.015   0.001   0.000   0.115  -0.035  -0.014   0.200  -0.022   0.017  -0.117  -0.019  -0.171   0.024  -0.040   0.124   0.010
  0.001  -0.017   0.001  -0.035   0.152  -0.007  -0.192  -0.005  -0.040  -0.309   0.014   0.160  -0.000   0.003   0.343  -0.003
  0.000   0.001  -0.016  -0.014  -0.007   0.169  -0.176  -0.226  -0.081  -0.058  -0.478   0.167   0.194   0.075   0.059   0.451
  0.005  -0.005  -0.011   0.200  -0.192  -0.176   3.974  -0.026   0.362   0.273   0.069  -2.277   0.063  -0.506   0.050  -0.141
 -0.008  -0.004  -0.005  -0.022  -0.005  -0.226  -0.026   4.172   0.152   0.065   0.446   0.066  -2.203  -0.083  -0.101  -0.477
  0.006  -0.007  -0.001   0.017  -0.040  -0.081   0.362   0.152   3.837   0.699  -0.105  -0.501  -0.082  -2.237  -0.027   0.103
 -0.006  -0.024  -0.009  -0.117  -0.309  -0.058   0.273   0.065   0.699   3.850   0.121   0.056  -0.092  -0.028  -2.788  -0.303
  0.004  -0.000  -0.028  -0.019   0.014  -0.478   0.069   0.446  -0.105   0.121   4.410  -0.146  -0.483   0.104  -0.298  -2.507
 -0.004   0.005   0.010  -0.171   0.160   0.167  -2.277   0.066  -0.501   0.056  -0.146   2.354  -0.075   0.600  -0.281   0.196
  0.008   0.004   0.005   0.024  -0.000   0.194   0.063  -2.203  -0.082  -0.092  -0.483  -0.075   2.087   0.026   0.118   0.502
 -0.005   0.007   0.000  -0.040   0.003   0.075  -0.506  -0.083  -2.237  -0.028   0.104   0.600   0.026   2.375  -0.429  -0.106
  0.005   0.023   0.009   0.124   0.343   0.059   0.050  -0.101  -0.027  -2.788  -0.298  -0.281   0.118  -0.429   3.294   0.410
 -0.004   0.000   0.027   0.010  -0.003   0.451  -0.141  -0.477   0.103  -0.303  -2.507   0.196   0.502  -0.106   0.410   2.459
  0.011  -0.019  -0.027   0.056  -0.027   0.088   0.481   0.924  -0.261   0.213  -0.732  -0.359  -0.688   0.141  -0.118   0.508
 -0.005   0.009   0.012  -0.003  -0.002  -0.009  -0.057  -0.097   0.049  -0.023   0.134   0.027   0.037   0.004  -0.012  -0.045


------------------------ aborting loop because EDIFF is reached ----------------------------------------


    CHARGE:  cpu time    0.1379: real time    0.1379
    FORLOC:  cpu time    0.0672: real time    0.0672
    FORNL :  cpu time    0.7173: real time    0.7174
    STRESS:  cpu time    2.3921: real time    2.3924
    FORCOR:  cpu time    0.2659: real time    0.2659
    FORHAR:  cpu time    0.1076: real time    0.1076
    MIXING:  cpu time    0.0228: real time    0.0228
    OFIELD:  cpu time    0.0001: real time    0.0001

  FORCE on cell =-STRESS in cart. coord.  units (eV):
  Direction    XX          YY          ZZ          XY          YZ          ZX
  --------------------------------------------------------------------------------------
  Alpha Z  1046.73971  1046.73971  1046.73971
  Ewald  161161.42502160941.33599************   -19.74559   -31.77856   304.20957
  Hartree185916.19269185666.98471************   -12.73748   -21.86069   103.72170
  E(xc)   -3649.79744 -3649.67900 -3654.64739    -0.00533    -0.01422     0.59324
  Local  ************************348272.86758    32.04061    53.11987  -386.64930
  n-local  -413.30413  -417.88367  -431.67254    -0.06476    -0.15049     0.80288
  augment  4181.11320  4186.42573  4192.03045     0.06885     0.23064    -9.43273
  Kinetic  8014.16777  7993.87224  8073.32265     0.35252     0.29698   -15.33084
  Fock        0.00000     0.00000     0.00000     0.00000     0.00000     0.00000
  -------------------------------------------------------------------------------------
  Total      82.32168    76.72904   100.54665    -0.09119    -0.15648    -2.08548
  in kB      71.15257    66.31872    86.90484    -0.07881    -0.13525    -1.80253
  external pressure =       74.79 kB  Pullay stress =        0.00 kB


 VOLUME and BASIS-vectors are now :
 -----------------------------------------------------------------------------
  energy-cutoff  :      450.00
  volume of cell :     1853.68
      direct lattice vectors                 reciprocal lattice vectors
    11.256463038  0.000000000  0.000000000     0.088837852  0.000000000  0.000000000
     0.000000000  9.578410000  0.000000000     0.000000000  0.104401461  0.000000000
     0.000000000  0.000000000 17.192492405     0.000000000  0.000000000  0.058164923

  length of vectors
    11.256463038  9.578410000 17.192492405     0.088837852  0.104401461  0.058164923


 FORCES acting on ions
    electron-ion (+dipol)            ewald-force                    non-local-force                 convergence-correction
 -----------------------------------------------------------------------------------------------
   0.561E+03 0.145E+03 0.128E+04   -.566E+03 -.143E+03 -.128E+04   0.399E+01 -.174E+01 0.441E+01   0.211E-01 -.135E-02 -.105E-01
   0.278E+03 -.365E+03 -.330E+04   -.278E+03 0.368E+03 0.330E+04   -.111E-01 -.162E+01 -.422E+01   0.153E-01 0.876E-02 0.510E-02
   -.313E+03 -.621E+03 0.310E+04   0.315E+03 0.627E+03 -.311E+04   -.825E+00 -.655E+01 0.553E+01   -.133E-01 -.122E-01 0.937E-02
   0.145E+03 -.635E+03 -.142E+04   -.145E+03 0.638E+03 0.142E+04   0.888E+00 -.183E+01 -.472E+01   -.472E-01 -.326E-01 0.287E-01
   0.574E+03 -.137E+03 0.132E+04   -.579E+03 0.135E+03 -.133E+04   0.388E+01 0.231E+01 0.389E+01   0.161E-01 -.168E-02 -.143E-01
   0.287E+03 0.376E+03 -.326E+04   -.288E+03 -.380E+03 0.326E+04   0.288E+00 0.226E+01 -.373E+01   0.111E-01 -.691E-02 0.316E-02
   -.312E+03 0.620E+03 0.310E+04   0.314E+03 -.626E+03 -.311E+04   -.791E+00 0.651E+01 0.560E+01   -.193E-01 0.182E-01 0.822E-02
   0.155E+03 0.626E+03 -.142E+04   -.156E+03 -.629E+03 0.142E+04   0.104E+01 0.171E+01 -.485E+01   -.523E-01 0.350E-01 0.371E-01
   -.854E+03 0.114E+01 0.206E+04   0.857E+03 -.116E+01 -.206E+04   -.169E+01 0.361E-01 0.529E+01   0.734E-02 0.129E-02 -.302E-03
   -.357E+03 0.284E+01 -.275E+04   0.360E+03 -.282E+01 0.275E+04   -.212E+01 -.224E-01 -.220E+00   -.217E-01 0.607E-02 0.953E-02
   0.477E+03 -.268E+01 0.351E+04   -.481E+03 0.270E+01 -.352E+04   0.240E+01 -.503E-01 0.505E+01   -.765E-04 0.439E-02 0.157E-02
   -.135E+03 -.168E+02 -.441E+03   0.137E+03 0.172E+02 0.441E+03   -.222E+01 -.329E+00 -.851E+00   -.673E-02 0.379E-02 -.712E-03
   -.688E+02 0.607E+01 -.406E+04   0.718E+02 -.571E+01 0.406E+04   -.317E+01 -.407E+00 0.196E+01   0.255E-02 -.629E-03 -.149E-01
   0.345E+03 -.258E+03 0.165E+04   -.348E+03 0.261E+03 -.165E+04   0.204E+01 -.209E+01 0.454E+01   -.797E-02 0.317E-01 0.290E-01
   0.245E+02 -.519E+02 -.319E+04   -.256E+02 0.537E+02 0.319E+04   0.887E+00 -.218E+01 0.153E+01   -.124E-01 0.619E-01 0.269E-01
   -.269E+03 -.557E+03 0.311E+04   0.270E+03 0.563E+03 -.312E+04   -.830E+00 -.599E+01 0.548E+01   0.903E-02 -.819E-03 0.193E-01
   0.861E+02 -.561E+03 -.144E+04   -.872E+02 0.564E+03 0.145E+04   0.861E+00 -.170E+01 -.402E+01   0.450E-01 -.413E-01 0.104E-01
   0.344E+03 0.258E+03 0.165E+04   -.348E+03 -.261E+03 -.165E+04   0.203E+01 0.209E+01 0.458E+01   -.377E-02 -.209E-01 0.152E-01
   0.238E+02 0.525E+02 -.319E+04   -.249E+02 -.542E+02 0.319E+04   0.920E+00 0.221E+01 0.153E+01   -.711E-02 -.466E-01 0.272E-01
   -.266E+03 0.561E+03 0.311E+04   0.267E+03 -.567E+03 -.312E+04   -.787E+00 0.595E+01 0.550E+01   0.156E-01 0.145E-02 0.281E-01
   0.788E+02 0.559E+03 -.144E+04   -.798E+02 -.561E+03 0.145E+04   0.806E+00 0.164E+01 -.400E+01   0.530E-01 0.250E-01 0.140E-01
   -.249E+03 -.549E+01 0.243E+04   0.253E+03 0.554E+01 -.244E+04   -.378E+01 -.271E-01 0.703E+01   -.320E-02 0.410E-03 0.705E-03
   -.676E+03 0.386E+01 -.248E+04   0.682E+03 -.392E+01 0.248E+04   -.452E+01 0.122E+00 -.161E+01   0.243E-01 0.705E-02 -.395E-02
   0.419E+03 0.334E-01 0.346E+04   -.423E+03 -.211E-01 -.346E+04   0.251E+01 -.141E-01 0.525E+01   -.101E-01 -.401E-03 0.324E-01
   -.195E+03 -.414E+00 -.462E+03   0.197E+03 0.426E+00 0.461E+03   -.273E+01 0.483E-02 -.824E+00   0.907E-02 -.139E-01 0.930E-01
   -.144E+03 -.115E+01 -.398E+04   0.150E+03 0.115E+01 0.398E+04   -.635E+01 0.342E-01 0.823E+00   0.417E-02 -.113E-01 0.121E-01
   -.634E+02 -.837E+02 0.154E+04   0.631E+02 0.844E+02 -.154E+04   0.938E+00 -.308E+00 0.340E+01   0.240E-02 -.486E-02 -.699E-02
   -.163E+03 0.134E+03 -.282E+03   0.165E+03 -.135E+03 0.284E+03   -.575E+00 -.445E+00 -.107E+01   -.258E-02 -.166E-01 0.517E-02
   0.465E+01 0.263E+03 0.852E+03   -.493E+01 -.265E+03 -.854E+03   0.383E+00 0.184E+01 0.152E+01   0.630E-03 0.303E-02 0.295E-02
   0.117E+03 0.211E+03 -.110E+04   -.117E+03 -.211E+03 0.110E+04   -.160E+00 -.480E+00 -.148E+01   -.876E-02 0.336E-02 0.566E-03
   -.632E+02 0.838E+02 0.154E+04   0.629E+02 -.846E+02 -.154E+04   0.952E+00 0.306E+00 0.342E+01   -.244E-02 0.103E-02 -.530E-02
   -.161E+03 -.133E+03 -.282E+03   0.163E+03 0.134E+03 0.284E+03   -.634E+00 0.510E+00 -.110E+01   -.122E-01 0.152E-01 0.107E-01
   0.415E+01 -.267E+03 0.842E+03   -.435E+01 0.269E+03 -.845E+03   0.419E+00 -.176E+01 0.155E+01   -.300E-02 -.141E-02 0.262E-02
   0.114E+03 -.216E+03 -.114E+04   -.114E+03 0.217E+03 0.114E+04   -.264E+00 0.265E+00 -.144E+01   -.117E-01 -.356E-02 -.892E-03
   0.290E+03 0.498E+01 -.494E+03   -.294E+03 -.506E+01 0.494E+03   0.597E+00 -.565E-01 -.139E+01   -.139E-02 -.511E-03 -.499E-02
   -.588E+02 0.651E-01 0.184E+04   0.591E+02 -.721E-01 -.185E+04   -.212E+00 0.835E-03 0.225E+01   -.697E-02 0.324E-02 -.744E-02
   0.446E+02 -.467E+00 0.184E+03   -.469E+02 0.489E+00 -.179E+03   0.136E+01 -.232E-01 -.192E+01   -.186E-01 0.320E-02 0.228E-01
   -.895E+02 -.156E+00 -.155E+04   0.908E+02 0.910E-01 0.155E+04   -.125E+01 0.804E-01 -.155E+01   -.474E-01 0.419E-03 0.120E-01
   0.126E+03 -.111E+03 0.152E+04   -.128E+03 0.110E+03 -.153E+04   0.790E+00 0.267E+00 0.341E+01   0.138E-02 0.672E-02 -.203E-02
   -.175E+03 0.118E+03 -.230E+03   0.178E+03 -.119E+03 0.230E+03   -.955E+00 0.433E+00 -.321E+00   0.957E-02 -.860E-02 -.753E-02
   -.125E+03 0.823E+01 -.183E+04   0.126E+03 -.828E+01 0.183E+04   -.374E+00 0.799E-02 -.420E+00   0.710E-02 0.982E-03 0.222E-01
   -.364E+02 0.216E+03 0.803E+03   0.372E+02 -.218E+03 -.805E+03   -.370E-01 0.163E+01 0.149E+01   0.302E-02 0.144E-01 0.231E-01
   0.101E+03 0.199E+03 -.124E+04   -.100E+03 -.201E+03 0.124E+04   -.767E+00 0.145E+01 -.172E+01   0.195E-01 0.323E-01 0.498E-02
   0.133E+03 0.111E+03 0.152E+04   -.135E+03 -.111E+03 -.152E+04   0.791E+00 -.289E+00 0.356E+01   0.303E-02 -.774E-02 -.243E-02
   -.180E+03 -.115E+03 -.227E+03   0.183E+03 0.117E+03 0.227E+03   -.876E+00 -.508E+00 -.344E+00   0.146E-01 0.127E-01 -.524E-02
   -.365E+02 -.216E+03 0.801E+03   0.373E+02 0.218E+03 -.804E+03   -.588E-01 -.162E+01 0.151E+01   0.320E-02 -.177E-01 0.171E-01
   0.102E+03 -.199E+03 -.124E+04   -.101E+03 0.202E+03 0.124E+04   -.759E+00 -.145E+01 -.170E+01   0.199E-01 -.414E-01 0.766E-02
   0.959E+02 -.303E+00 0.126E+04   -.961E+02 0.282E+00 -.127E+04   -.394E+00 0.272E-01 0.337E+01   -.101E-01 0.255E-02 -.207E-02
   0.182E+03 0.349E-01 -.640E+03   -.185E+03 -.407E-01 0.642E+03   0.985E+00 -.105E-01 -.166E+01   0.728E-03 0.868E-02 0.902E-02
   -.575E+02 0.262E+01 0.185E+04   0.579E+02 -.264E+01 -.185E+04   -.222E+00 0.818E-02 0.230E+01   0.979E-03 0.876E-03 -.132E-01
   0.429E+02 -.166E+01 0.192E+03   -.449E+02 0.165E+01 -.187E+03   0.911E+00 0.245E-01 -.200E+01   0.154E-01 -.189E-02 0.156E-01
   -.100E+03 -.609E+01 -.149E+04   0.101E+03 0.613E+01 0.149E+04   -.506E+00 -.340E-01 -.248E+01   0.311E-01 -.445E-02 -.130E-01
 -----------------------------------------------------------------------------------------------
   0.745E+01 -.982E-01 -.466E+02   0.398E-12 0.779E-12 -.682E-12   -.720E+01 0.200E+00 0.462E+02   0.358E-01 0.143E-01 0.452E+00
 
 
 POSITION                                       TOTAL-FORCE (eV/Angst)
 -----------------------------------------------------------------------------------
      5.01638      4.68838      3.17259        -0.622957     -0.465297     -0.160815
      5.44477      4.48301      5.60676        -0.438512      1.627634      0.571803
      1.77506      9.39634      1.77737         0.731597      0.046992     -0.250043
      2.42308      9.23251      4.34179         0.158403      1.021275     -1.578679
      5.02956      1.68225      3.13488        -0.652402      0.510335     -0.103662
      5.42213      1.83921      5.59247        -0.458888     -1.693179      0.501718
      1.77438      6.53752      1.77753         0.740248     -0.054105     -0.226501
      2.42308      6.70184      4.34179         0.079755     -1.102215     -1.674958
      1.39989      3.17784      2.67015         1.546683      0.011043      0.105398
      2.05622      3.17748      5.09125         0.372718      0.002185      1.001104
      5.12188      7.97436      1.63406        -1.074302     -0.020481     -0.221387
      4.57649      7.96718      3.93431        -0.316492      0.073788     -1.679697
      5.33927      7.92440      6.18437        -0.125858     -0.048558      1.223655
     10.57359      4.44331      2.79952        -1.208028      0.945013      1.364041
     10.92493      4.68338      5.37183        -0.214965     -0.371219      1.338601
      7.38167      9.42614      1.79905         0.935872      0.139071     -0.385322
      8.05131      9.23251      4.34179        -0.209393      0.928307     -1.213642
     10.57359      1.91264      2.79952        -1.204002     -0.944805      1.382256
     10.92462      1.67153      5.37124        -0.213373      0.376846      1.341833
      7.37741      6.50149      1.80406         0.920068     -0.148649     -0.387076
      8.05131      6.70184      4.34179        -0.175544     -0.934799     -1.218260
      7.09877      3.17797      2.39204         0.476894      0.017801      1.922714
      7.66948      3.17574      5.14438         1.728290      0.068643      0.354381
     10.74167      7.96761      1.63497        -1.000226     -0.004523     -0.100998
     10.20472      7.96718      3.93431        -0.608711      0.001169     -1.407517
     11.18118      7.96771      6.11139        -0.915019      0.016791      1.305287
      0.81995      1.62425      1.40468         0.625571      0.436496     -3.088851
      1.25497      1.56674      4.10795         1.093506     -1.702330      0.509799
      3.77725      6.35595      2.56568         0.098280     -0.517289     -1.192313
      4.36944      6.32029      5.29873        -0.352468     -0.615794      1.914368
      0.81963      4.73142      1.40465         0.624998     -0.452807     -3.064155
      1.25497      4.78920      4.10795         1.054013      1.677518      0.522071
      3.77725      9.57841      2.56568         0.212247      0.672124     -1.005366
      4.35999      9.55459      5.36194        -0.294341      0.768872      1.812849
      4.14113      3.17797      4.62682        -2.641179     -0.138923     -1.225782
      1.12392      7.96669      0.42807         0.130131     -0.005083     -3.884075
      1.03518      7.96718      3.08454        -0.986751     -0.000047      3.413897
      1.92648      7.96299      5.90342        -0.002752      0.014070      3.062374
      6.24423      1.54808      1.45494        -0.742490      0.060621     -2.656297
      6.88320      1.56674      4.10795         1.651254     -1.407807     -0.240104
      6.44232      3.14747      6.77981         0.704542     -0.046866      4.399671
      9.40548      6.35595      2.56568         0.733118     -0.619084     -0.810167
      9.89310      6.48956      5.44936         0.420299     -1.163226      1.725034
      6.22023      4.80946      1.47615        -0.778994     -0.057665     -2.642374
      6.88320      4.78920      4.10795         1.837608      1.307119     -0.230549
      9.40548      9.57841      2.56568         0.741524      0.639507     -0.824408
      9.89182      9.44456      5.44980         0.427416      1.156234      1.728801
      9.15501      3.17820      1.93582        -0.590685      0.006627     -2.543226
      9.76936      3.17797      4.62682        -1.476066     -0.009755      0.541815
      6.78213      7.96254      0.45056         0.138291     -0.015118     -3.709863
      6.66341      7.96718      3.08454        -1.106215      0.006052      2.821104
      7.32626      7.96642      5.83195         0.227288      0.007491      2.861511
 -----------------------------------------------------------------------------------
    total drift:                                0.285179      0.116328      0.039020


--------------------------------------------------------------------------------------------------------



  FREE ENERGIE OF THE ION-ELECTRON SYSTEM (eV)
  ---------------------------------------------------
  free  energy   TOTEN  =      -250.31054761 eV

  energy  without entropy=     -249.51172748  energy(sigma->0) =     -249.91113754
 


--------------------------------------------------------------------------------------------------------


    POTLOK:  cpu time    0.2215: real time    0.2217


--------------------------------------------------------------------------------------------------------


     LOOP+:  cpu time  160.6968: real time  161.0780
    4ORBIT:  cpu time    0.0000: real time    0.0000

 total amount of memory used by VASP MPI-rank0    60031. kBytes
=======================================================================

   base      :      30000. kBytes
   nonlr-proj:       1496. kBytes
   fftplans  :       7078. kBytes
   grid      :      11974. kBytes
   one-center:         69. kBytes
   wavefun   :       9414. kBytes
 
  
  
 General timing and accounting informations for this job:
 ========================================================
  
                  Total CPU time used (sec):      162.652
                            User time (sec):      162.354
                          System time (sec):        0.298
                         Elapsed time (sec):      163.280
  
                   Maximum memory used (kb):      169300.
                   Average memory used (kb):           0.
  
                          Minor page faults:        96241
                          Major page faults:            0
                 Voluntary context switches:          247
