  72  72   0   0
  0.2729146E+02  0.1007973E-08  0.1007973E-08  0.2068350E-08  0.5000000E-15
  1.000000000000000E-004
  CAR 
 "Millerite NiS"                         
     11.05776677    -66.24085627  301      1.44991865      1.00000000
    -66.241  0.0000E+00  0.0000E+00
    -65.983  0.0000E+00  0.0000E+00
    -65.726  0.0000E+00  0.0000E+00
    -65.468  0.0000E+00  0.0000E+00
    -65.210  0.0000E+00  0.0000E+00
    -64.953  0.0000E+00  0.0000E+00
    -64.695  0.0000E+00  0.0000E+00
    -64.437  0.0000E+00  0.0000E+00
    -64.180  0.0000E+00  0.0000E+00
    -63.922  0.0000E+00  0.0000E+00
    -63.664  0.4176E-09  0.1076E-09
    -63.407  0.2743E-04  0.7067E-05
    -63.149  0.8578E-01  0.2211E-01
    -62.891  0.1475E+02  0.3822E+01
    -62.634  0.1854E+03  0.5159E+02
    -62.376  0.2911E+03  0.1266E+03
    -62.118  0.1356E+03  0.1615E+03
    -61.861  0.8290E+02  0.1829E+03
    -61.603  0.6183E+02  0.1988E+03
    -61.345  0.3967E+02  0.2090E+03
    -61.088  0.2231E+02  0.2148E+03
    -60.830  0.4523E+01  0.2160E+03
    -60.572  0.1667E+00  0.2160E+03
    -60.315  0.4271E-03  0.2160E+03
    -60.057  0.4908E-07  0.2160E+03
    -59.799  0.2241E-12  0.2160E+03
    -59.542  0.0000E+00  0.2160E+03
    -59.284  0.0000E+00  0.2160E+03
    -59.026  0.0000E+00  0.2160E+03
    -58.769  0.0000E+00  0.2160E+03
    -58.511  0.0000E+00  0.2160E+03
    -58.253  0.0000E+00  0.2160E+03
    -57.996  0.0000E+00  0.2160E+03
    -57.738  0.0000E+00  0.2160E+03
    -57.480  0.0000E+00  0.2160E+03
    -57.223  0.0000E+00  0.2160E+03
    -56.965  0.0000E+00  0.2160E+03
    -56.707  0.0000E+00  0.2160E+03
    -56.450  0.0000E+00  0.2160E+03
    -56.192  0.0000E+00  0.2160E+03
    -55.934  0.0000E+00  0.2160E+03
    -55.677  0.0000E+00  0.2160E+03
    -55.419  0.0000E+00  0.2160E+03
    -55.161  0.0000E+00  0.2160E+03
    -54.904  0.0000E+00  0.2160E+03
    -54.646  0.0000E+00  0.2160E+03
    -54.388  0.0000E+00  0.2160E+03
    -54.131  0.0000E+00  0.2160E+03
    -53.873  0.0000E+00  0.2160E+03
    -53.615  0.0000E+00  0.2160E+03
    -53.358  0.0000E+00  0.2160E+03
    -53.100  0.0000E+00  0.2160E+03
    -52.842  0.0000E+00  0.2160E+03
    -52.585  0.0000E+00  0.2160E+03
    -52.327  0.0000E+00  0.2160E+03
    -52.069  0.0000E+00  0.2160E+03
    -51.812  0.0000E+00  0.2160E+03
    -51.554  0.0000E+00  0.2160E+03
    -51.296  0.0000E+00  0.2160E+03
    -51.039  0.0000E+00  0.2160E+03
    -50.781  0.0000E+00  0.2160E+03
    -50.523  0.0000E+00  0.2160E+03
    -50.266  0.0000E+00  0.2160E+03
    -50.008  0.0000E+00  0.2160E+03
    -49.750  0.0000E+00  0.2160E+03
    -49.493  0.0000E+00  0.2160E+03
    -49.235  0.0000E+00  0.2160E+03
    -48.977  0.0000E+00  0.2160E+03
    -48.720  0.0000E+00  0.2160E+03
    -48.462  0.0000E+00  0.2160E+03
    -48.205  0.0000E+00  0.2160E+03
    -47.947  0.0000E+00  0.2160E+03
    -47.689  0.0000E+00  0.2160E+03
    -47.432  0.0000E+00  0.2160E+03
    -47.174  0.0000E+00  0.2160E+03
    -46.916  0.0000E+00  0.2160E+03
    -46.659  0.0000E+00  0.2160E+03
    -46.401  0.0000E+00  0.2160E+03
    -46.143  0.0000E+00  0.2160E+03
    -45.886  0.0000E+00  0.2160E+03
    -45.628  0.0000E+00  0.2160E+03
    -45.370  0.0000E+00  0.2160E+03
    -45.113  0.0000E+00  0.2160E+03
    -44.855  0.0000E+00  0.2160E+03
    -44.597  0.0000E+00  0.2160E+03
    -44.340  0.0000E+00  0.2160E+03
    -44.082  0.0000E+00  0.2160E+03
    -43.824  0.0000E+00  0.2160E+03
    -43.567  0.0000E+00  0.2160E+03
    -43.309  0.0000E+00  0.2160E+03
    -43.051  0.0000E+00  0.2160E+03
    -42.794  0.0000E+00  0.2160E+03
    -42.536  0.0000E+00  0.2160E+03
    -42.278  0.0000E+00  0.2160E+03
    -42.021  0.0000E+00  0.2160E+03
    -41.763  0.0000E+00  0.2160E+03
    -41.505  0.0000E+00  0.2160E+03
    -41.248  0.0000E+00  0.2160E+03
    -40.990  0.0000E+00  0.2160E+03
    -40.732  0.0000E+00  0.2160E+03
    -40.475  0.0000E+00  0.2160E+03
    -40.217  0.0000E+00  0.2160E+03
    -39.959  0.0000E+00  0.2160E+03
    -39.702  0.0000E+00  0.2160E+03
    -39.444  0.0000E+00  0.2160E+03
    -39.186  0.0000E+00  0.2160E+03
    -38.929  0.0000E+00  0.2160E+03
    -38.671  0.0000E+00  0.2160E+03
    -38.413  0.0000E+00  0.2160E+03
    -38.156  0.0000E+00  0.2160E+03
    -37.898  0.0000E+00  0.2160E+03
    -37.640  0.0000E+00  0.2160E+03
    -37.383  0.0000E+00  0.2160E+03
    -37.125  0.0000E+00  0.2160E+03
    -36.867  0.0000E+00  0.2160E+03
    -36.610  0.0000E+00  0.2160E+03
    -36.352  0.0000E+00  0.2160E+03
    -36.094  0.0000E+00  0.2160E+03
    -35.837  0.0000E+00  0.2160E+03
    -35.579  0.0000E+00  0.2160E+03
    -35.321  0.0000E+00  0.2160E+03
    -35.064  0.0000E+00  0.2160E+03
    -34.806  0.0000E+00  0.2160E+03
    -34.548  0.0000E+00  0.2160E+03
    -34.291  0.0000E+00  0.2160E+03
    -34.033  0.0000E+00  0.2160E+03
    -33.775  0.0000E+00  0.2160E+03
    -33.518  0.0000E+00  0.2160E+03
    -33.260  0.0000E+00  0.2160E+03
    -33.002  0.0000E+00  0.2160E+03
    -32.745  0.0000E+00  0.2160E+03
    -32.487  0.0000E+00  0.2160E+03
    -32.229  0.0000E+00  0.2160E+03
    -31.972  0.0000E+00  0.2160E+03
    -31.714  0.0000E+00  0.2160E+03
    -31.456  0.0000E+00  0.2160E+03
    -31.199  0.0000E+00  0.2160E+03
    -30.941  0.0000E+00  0.2160E+03
    -30.683  0.0000E+00  0.2160E+03
    -30.426  0.0000E+00  0.2160E+03
    -30.168  0.0000E+00  0.2160E+03
    -29.911  0.0000E+00  0.2160E+03
    -29.653  0.0000E+00  0.2160E+03
    -29.395  0.0000E+00  0.2160E+03
    -29.138  0.0000E+00  0.2160E+03
    -28.880  0.0000E+00  0.2160E+03
    -28.622  0.0000E+00  0.2160E+03
    -28.365  0.0000E+00  0.2160E+03
    -28.107  0.0000E+00  0.2160E+03
    -27.849  0.0000E+00  0.2160E+03
    -27.592  0.0000E+00  0.2160E+03
    -27.334  0.0000E+00  0.2160E+03
    -27.076  0.0000E+00  0.2160E+03
    -26.819  0.0000E+00  0.2160E+03
    -26.561  0.0000E+00  0.2160E+03
    -26.303  0.0000E+00  0.2160E+03
    -26.046  0.0000E+00  0.2160E+03
    -25.788  0.0000E+00  0.2160E+03
    -25.530  0.0000E+00  0.2160E+03
    -25.273  0.0000E+00  0.2160E+03
    -25.015  0.0000E+00  0.2160E+03
    -24.757  0.0000E+00  0.2160E+03
    -24.500  0.0000E+00  0.2160E+03
    -24.242  0.0000E+00  0.2160E+03
    -23.984  0.0000E+00  0.2160E+03
    -23.727  0.0000E+00  0.2160E+03
    -23.469  0.0000E+00  0.2160E+03
    -23.211  0.0000E+00  0.2160E+03
    -22.954  0.0000E+00  0.2160E+03
    -22.696  0.0000E+00  0.2160E+03
    -22.438  0.0000E+00  0.2160E+03
    -22.181  0.0000E+00  0.2160E+03
    -21.923  0.0000E+00  0.2160E+03
    -21.665  0.0000E+00  0.2160E+03
    -21.408  0.0000E+00  0.2160E+03
    -21.150  0.0000E+00  0.2160E+03
    -20.892  0.0000E+00  0.2160E+03
    -20.635  0.0000E+00  0.2160E+03
    -20.377  0.0000E+00  0.2160E+03
    -20.119  0.0000E+00  0.2160E+03
    -19.862  0.0000E+00  0.2160E+03
    -19.604  0.0000E+00  0.2160E+03
    -19.346  0.0000E+00  0.2160E+03
    -19.089  0.0000E+00  0.2160E+03
    -18.831  0.0000E+00  0.2160E+03
    -18.573  0.0000E+00  0.2160E+03
    -18.316  0.0000E+00  0.2160E+03
    -18.058  0.0000E+00  0.2160E+03
    -17.800  0.0000E+00  0.2160E+03
    -17.543  0.0000E+00  0.2160E+03
    -17.285  0.0000E+00  0.2160E+03
    -17.027  0.0000E+00  0.2160E+03
    -16.770  0.0000E+00  0.2160E+03
    -16.512  0.0000E+00  0.2160E+03
    -16.254  0.0000E+00  0.2160E+03
    -15.997  0.0000E+00  0.2160E+03
    -15.739  0.0000E+00  0.2160E+03
    -15.481  0.0000E+00  0.2160E+03
    -15.224  0.0000E+00  0.2160E+03
    -14.966  0.2486E-10  0.2160E+03
    -14.708  0.1729E-05  0.2160E+03
    -14.451  0.4863E-02  0.2160E+03
    -14.193  0.6168E+00  0.2162E+03
    -13.935  0.4516E+01  0.2173E+03
    -13.678  0.2603E+01  0.2180E+03
    -13.420  0.3004E+01  0.2188E+03
    -13.162  0.1400E+02  0.2224E+03
    -12.905  0.1993E+02  0.2275E+03
    -12.647  0.2584E+02  0.2342E+03
    -12.389  0.2960E+02  0.2418E+03
    -12.132  0.2824E+02  0.2491E+03
    -11.874  0.3704E+02  0.2586E+03
    -11.616  0.2871E+02  0.2660E+03
    -11.359  0.2284E+02  0.2719E+03
    -11.101  0.2078E+02  0.2773E+03
    -10.844  0.2675E+02  0.2841E+03
    -10.586  0.1386E+02  0.2877E+03
    -10.328  0.1093E+01  0.2880E+03
    -10.071  0.7659E-02  0.2880E+03
     -9.813  0.2942E-05  0.2880E+03
     -9.555  0.4877E-10  0.2880E+03
     -9.298  0.0000E+00  0.2880E+03
     -9.040  0.0000E+00  0.2880E+03
     -8.782  0.0000E+00  0.2880E+03
     -8.525  0.0000E+00  0.2880E+03
     -8.267  0.0000E+00  0.2880E+03
     -8.009  0.0000E+00  0.2880E+03
     -7.752  0.0000E+00  0.2880E+03
     -7.494  0.0000E+00  0.2880E+03
     -7.236  0.0000E+00  0.2880E+03
     -6.979  0.0000E+00  0.2880E+03
     -6.721  0.2873E-10  0.2880E+03
     -6.463  0.2035E-05  0.2880E+03
     -6.206  0.6217E-02  0.2880E+03
     -5.948  0.9772E+00  0.2883E+03
     -5.690  0.1089E+02  0.2911E+03
     -5.433  0.1708E+02  0.2955E+03
     -5.175  0.2269E+02  0.3013E+03
     -4.917  0.3701E+02  0.3108E+03
     -4.660  0.4982E+02  0.3237E+03
     -4.402  0.4861E+02  0.3362E+03
     -4.144  0.3831E+02  0.3461E+03
     -3.887  0.3664E+02  0.3555E+03
     -3.629  0.3967E+02  0.3657E+03
     -3.371  0.3942E+02  0.3759E+03
     -3.114  0.5574E+02  0.3903E+03
     -2.856  0.7416E+02  0.4094E+03
     -2.598  0.7433E+02  0.4285E+03
     -2.341  0.7632E+02  0.4482E+03
     -2.083  0.5992E+02  0.4636E+03
     -1.825  0.4809E+02  0.4760E+03
     -1.568  0.4724E+02  0.4882E+03
     -1.310  0.5211E+02  0.5016E+03
     -1.052  0.6039E+02  0.5172E+03
     -0.795  0.8743E+02  0.5397E+03
     -0.537  0.1148E+03  0.5693E+03
     -0.279  0.1564E+03  0.6096E+03
     -0.022  0.1767E+03  0.6551E+03
      0.236  0.1482E+03  0.6933E+03
      0.494  0.1123E+03  0.7222E+03
      0.751  0.9692E+02  0.7472E+03
      1.009  0.7887E+02  0.7675E+03
      1.267  0.5804E+02  0.7825E+03
      1.524  0.5216E+02  0.7959E+03
      1.782  0.5653E+02  0.8105E+03
      2.040  0.5980E+02  0.8259E+03
      2.297  0.6167E+02  0.8418E+03
      2.555  0.5732E+02  0.8565E+03
      2.813  0.2972E+02  0.8642E+03
      3.070  0.1057E+02  0.8669E+03
      3.328  0.9817E+01  0.8695E+03
      3.586  0.2125E+01  0.8700E+03
      3.843  0.1595E+01  0.8704E+03
      4.101  0.5578E+01  0.8718E+03
      4.359  0.6286E+01  0.8735E+03
      4.616  0.1083E+02  0.8763E+03
      4.874  0.2005E+02  0.8814E+03
      5.132  0.1669E+02  0.8857E+03
      5.389  0.1277E+02  0.8890E+03
      5.647  0.1857E+02  0.8938E+03
      5.905  0.2165E+02  0.8994E+03
      6.162  0.2770E+02  0.9065E+03
      6.420  0.3339E+02  0.9151E+03
      6.678  0.2868E+02  0.9225E+03
      6.935  0.3515E+02  0.9316E+03
      7.193  0.4176E+02  0.9423E+03
      7.450  0.4277E+02  0.9533E+03
      7.708  0.2338E+02  0.9594E+03
      7.966  0.2418E+01  0.9600E+03
      8.223  0.2024E-01  0.9600E+03
      8.481  0.8922E-05  0.9600E+03
      8.739  0.1735E-09  0.9600E+03
      8.996  0.0000E+00  0.9600E+03
      9.254  0.0000E+00  0.9600E+03
      9.512  0.0000E+00  0.9600E+03
      9.769  0.0000E+00  0.9600E+03
     10.027  0.0000E+00  0.9600E+03
     10.285  0.0000E+00  0.9600E+03
     10.542  0.0000E+00  0.9600E+03
     10.800  0.0000E+00  0.9600E+03
     11.058  0.0000E+00  0.9600E+03
