"Millerite NiS"                         
           1
    10.079733    0.000000    0.000000
     3.573298    9.425103    0.000000
     0.000000    0.000000   20.510140
   Ty   Ty
  36  36
Direct configuration=     1
   0.37433215  0.75136220  0.09511235
   0.52460066  0.60109368  0.22312232
   0.67486918  0.45082517  0.35113229
   0.76318734  0.33880581  0.46414145
   0.57497039  0.23430027  0.08949971
   0.78142776  0.02218723  0.14779320
   0.01329901  0.76346597  0.37824043
   0.90802350  0.88433751  0.26579231
   0.14117783  0.31784985  0.18045233
   0.29144634  0.16758134  0.30846230
   0.42819816  0.02737637  0.42327267
   0.98896612  0.45672420  0.08591538
   0.00994000  0.11575434  0.41150025
   0.57615986  0.54588311  0.04723339
   0.70940298  0.41629137  0.15548031
   0.85967149  0.26602286  0.28349028
   0.09282582  0.69953520  0.19815030
   0.24309433  0.54926669  0.32616027
   0.39056735  0.40444104  0.43626378
   0.01433887  0.73315051  0.08816148
   0.32598014  0.13304754  0.11281032
   0.47624865  0.98277903  0.24082029
   0.62651717  0.83251052  0.36883026
   0.76642845  0.70587236  0.45995347
   0.05064058  0.34105699  0.43404029
   0.60790111  0.76868562  0.07996323
   0.74910482  0.64079553  0.18930132
   0.89937333  0.49052701  0.31731128
   0.98225915  0.07430787  0.10396133
   0.13252766  0.92403936  0.23197130
   0.26950787  0.79317681  0.34400619
   0.58935188  0.59074324  0.44857388
   0.27238490  0.51763881  0.04978629
   0.36568198  0.35755170  0.14663132
   0.51595050  0.20728318  0.27464130
   0.65747276  0.07374799  0.38833201
   0.06382158  0.26208477  0.34135992
   0.21005379  0.12742898  0.43872664
   0.76328455  0.56262179  0.08533998
   0.91355306  0.41235328  0.21334995
   0.14670739  0.84586562  0.12800997
   0.29697590  0.69559711  0.25601994
   0.44724441  0.54532860  0.38402991
   0.55413916  0.42224041  0.49424554
   0.89271639  0.94156140  0.06224579
   0.36920752  0.28617340  0.05215872
   0.53013023  0.12910945  0.17067996
   0.68039874  0.97884094  0.29868993
   0.80579206  0.86900666  0.41491179
   0.41162437  0.93364417  0.06571154
   0.52796422  0.79794212  0.17147277
   0.67823274  0.64767361  0.29948274
   0.82850125  0.49740510  0.42749271
   0.77873534  0.22356642  0.10354162
   0.91138706  0.08118595  0.21414276
   0.06165557  0.93091744  0.34215273
   0.14454139  0.51469829  0.12880278
   0.29480990  0.36442978  0.25681275
   0.44507841  0.21416127  0.38482272
   0.05839006  0.57528845  0.01748601
   0.37550672  0.64275149  0.01029795
   0.47740939  0.51206696  0.12840637
   0.62767790  0.36179845  0.25641634
   0.77794641  0.21152993  0.38442632
   0.96375234  0.23022243  0.49628943
   0.01110074  0.64504227  0.29908634
   0.17726482  0.47194504  0.41012227
   0.86083223  0.79531079  0.17107636
   0.09639934  0.22559920  0.09718560
   0.24425506  0.07855462  0.21374635
   0.39452358  0.92828611  0.34175632
   0.54860605  0.81176114  0.46066823
