 vasp.5.4.4.18Apr17-6-g9f103f2a35 (build Aug 13 2019 17:33:20) gamma-only       
  
 executed on             LinuxIFC date 2020.05.12  21:27:03
 running on   12 total cores
 distrk:  each k-point on   12 cores,    1 groups
 distr:  one band on NCORES_PER_BAND=   6 cores,    2 groups


--------------------------------------------------------------------------------------------------------


 INCAR:
 POTCAR:    PAW_PBE Ni_pv 06Sep2000               
 POTCAR:    PAW_PBE S 06Sep2000                   
 POTCAR:    PAW_PBE Ni_pv 06Sep2000               
   VRHFIN =Ni:                                                                  
   LEXCH  = PE                                                                  
   EATOM  =  3501.1230 eV,  257.3253 Ry                                         
                                                                                
   TITEL  = PAW_PBE Ni_pv 06Sep2000                                             
   LULTRA =        F    use ultrasoft PP ?                                      
   IUNSCR =        1    unscreen: 0-lin 1-nonlin 2-no                           
   RPACOR =    1.500    partial core radius                                     
   POMASS =   58.690; ZVAL   =   16.000    mass and valenz                      
   RCORE  =    2.000    outmost cutoff radius                                   
   RWIGS  =    2.000; RWIGS  =    1.058    wigner-seitz radius (au A)           
   ENMAX  =  367.986; ENMIN  =  275.989 eV                                      
   RCLOC  =    1.301    cutoff for local pot                                    
   LCOR   =        T    correct aug charges                                     
   LPAW   =        T    paw PP                                                  
   EAUG   =  703.443                                                            
   DEXC   =    0.000                                                            
   RMAX   =    2.041    core radius for proj-oper                               
   RAUG   =    1.300    factor for augmentation sphere                          
   RDEP   =    2.103    radius for radial grids                                 
   RDEPT  =    1.618    core radius for aug-charge                              
                                                                                
   Atomic configuration                                                         
    8 entries                                                                   
     n  l   j            E        occ.                                          
     1  0  0.50     -8206.4253   2.0000                                         
     2  0  0.50      -976.1748   2.0000                                         
     2  1  1.50      -839.0571   6.0000                                         
     3  0  0.50      -105.9991   2.0000                                         
     3  1  1.50       -66.4603   6.0000                                         
     3  2  2.50        -4.6458   9.0000                                         
     4  0  0.50        -4.4926   1.0000                                         
     4  3  2.50        -1.3606   0.0000                                         
   Description                                                                  
     l       E           TYP  RCUT    TYP  RCUT                                 
     1    -66.4602962     23  1.700                                             
     1     -1.3605826     23  1.700                                             
     2     -4.6457867     23  2.000                                             
     2     -6.0063693     23  2.000                                             
     0     -4.4925576     23  1.900                                             
     0     16.3626226     23  1.900                                             
  local pseudopotential read in
  partial core-charges read in
  partial kinetic energy density read in
  atomic valenz-charges read in
  non local Contribution for L=           1  read in
    real space projection operators read in
  non local Contribution for L=           1  read in
    real space projection operators read in
  non local Contribution for L=           2  read in
    real space projection operators read in
  non local Contribution for L=           2  read in
    real space projection operators read in
  non local Contribution for L=           0  read in
    real space projection operators read in
  non local Contribution for L=           0  read in
    real space projection operators read in
    PAW grid and wavefunctions read in
 
   number of l-projection  operators is LMAX  =           6
   number of lm-projection operators is LMMAX =          18
 
 POTCAR:    PAW_PBE S 06Sep2000                   
   VRHFIN =S : s2p4                                                             
   LEXCH  = PE                                                                  
   EATOM  =   276.8230 eV,   20.3459 Ry                                         
                                                                                
   TITEL  = PAW_PBE S 06Sep2000                                                 
   LULTRA =        F    use ultrasoft PP ?                                      
   IUNSCR =        1    unscreen: 0-lin 1-nonlin 2-no                           
   RPACOR =    1.500    partial core radius                                     
   POMASS =   32.066; ZVAL   =    6.000    mass and valenz                      
   RCORE  =    1.900    outmost cutoff radius                                   
   RWIGS  =    2.200; RWIGS  =    1.164    wigner-seitz radius (au A)           
   ENMAX  =  258.689; ENMIN  =  194.016 eV                                      
   ICORE  =        2    local potential                                         
   LCOR   =        T    correct aug charges                                     
   LPAW   =        T    paw PP                                                  
   EAUG   =  335.092                                                            
   DEXC   =    0.000                                                            
   RMAX   =    1.942    core radius for proj-oper                               
   RAUG   =    1.300    factor for augmentation sphere                          
   RDEP   =    1.954    radius for radial grids                                 
   RDEPT  =    1.744    core radius for aug-charge                              
                                                                                
   Atomic configuration                                                         
    6 entries                                                                   
     n  l   j            E        occ.                                          
     1  0  0.50     -2405.8406   2.0000                                         
     2  0  0.50      -211.7007   2.0000                                         
     2  1  1.50      -156.4958   6.0000                                         
     3  0  0.50       -17.2562   2.0000                                         
     3  1  0.50        -7.0085   4.0000                                         
     3  2  1.50        -6.8029   0.0000                                         
   Description                                                                  
     l       E           TYP  RCUT    TYP  RCUT                                 
     0    -17.2561641     23  1.900                                             
     0    -15.8743224     23  1.900                                             
     1     -7.0085400     23  1.900                                             
     1     -2.7779785     23  1.900                                             
     2     -6.8029130     23  1.900                                             
  local pseudopotential read in
  partial core-charges read in
  partial kinetic energy density read in
  atomic valenz-charges read in
  non local Contribution for L=           0  read in
    real space projection operators read in
  non local Contribution for L=           0  read in
    real space projection operators read in
  non local Contribution for L=           1  read in
    real space projection operators read in
  non local Contribution for L=           1  read in
    real space projection operators read in
    PAW grid and wavefunctions read in
 
   number of l-projection  operators is LMAX  =           4
   number of lm-projection operators is LMMAX =           8
 
 Optimization of the real space projectors (new method)

 maximal supplied QI-value         = 18.90
 optimisation between [QCUT,QGAM] = [ 10.77, 21.73] = [ 32.49,132.25] Ry 
 Optimized for a Real-space Cutoff    1.38 Angstroem

   l    n(q)    QCUT    max X(q) W(low)/X(q) W(high)/X(q)  e(spline) 
   1      8    10.771     2.836    0.40E-04    0.29E-04    0.12E-06
   1      8    10.771     4.023    0.10E-03    0.48E-04    0.29E-06
   2      8    10.771    73.368    0.42E-03    0.97E-04    0.44E-06
   2      8    10.771    69.010    0.42E-03    0.99E-04    0.45E-06
   0      9    10.771    54.797    0.10E-03    0.56E-04    0.74E-07
   0      9    10.771    24.266    0.89E-04    0.49E-04    0.67E-07
 Optimization of the real space projectors (new method)

 maximal supplied QI-value         = 19.84
 optimisation between [QCUT,QGAM] = [ 10.71, 21.63] = [ 32.15,130.99] Ry 
 Optimized for a Real-space Cutoff    1.19 Angstroem

   l    n(q)    QCUT    max X(q) W(low)/X(q) W(high)/X(q)  e(spline) 
   0      8    10.715   187.594    0.41E-03    0.53E-04    0.66E-07
   0      8    10.715   164.243    0.41E-03    0.53E-04    0.65E-07
   1      7    10.715    67.533    0.19E-03    0.59E-03    0.68E-07
   1      7    10.715    50.729    0.19E-03    0.58E-03    0.67E-07
  PAW_PBE Ni_pv 06Sep2000               :
 energy of atom  1       EATOM=-3501.1230
 kinetic energy error for atom=    0.0925 (will be added to EATOM!!)
  PAW_PBE S 06Sep2000                   :
 energy of atom  2       EATOM= -276.8230
 kinetic energy error for atom=    0.0033 (will be added to EATOM!!)
 
 
 POSCAR: Type_036 Type_136                       
  positions in cartesian coordinates
  No initial velocities read in
 exchange correlation table for  LEXCH =        8
   RHO(1)=    0.500       N(1)  =     2000
   RHO(2)=  100.500       N(2)  =     4000
 


--------------------------------------------------------------------------------------------------------


 ion  position               nearest neighbor table
   1  0.397  0.795  0.127-  49 2.06  61 2.08  42 2.25  50 2.36  62 2.36  13 2.45
   2  0.547  0.645  0.254-  43 2.25  62 2.26  50 2.26  63 2.36  51 2.36  27 2.53  14 2.53
   3  0.698  0.494  0.381-  64 2.17  44 2.25  51 2.26  63 2.26  52 2.36  15 2.53  28 2.53
   4  0.827  0.344  0.485-  52 2.00  64 2.00  16 2.46  25 2.49
   5  0.114  0.412  0.169-  53 2.11  45 2.25  68 2.26   8 2.36  65 2.36  54 2.36  29 2.53  17 2.53

   6  0.264  0.261  0.296-  46 2.25  65 2.26  54 2.26  55 2.36  66 2.36  18 2.53  30 2.53
   7  0.414  0.111  0.423-  56 2.10  67 2.13  55 2.26  66 2.26  47 2.30  31 2.53  19 2.53
   8  0.974  0.604  0.105-  48 2.06  45 2.11  68 2.26  53 2.30   5 2.36  21 2.49
   9  0.099  0.782  0.451-  58 2.04  59 2.07  72 2.09  37 2.13
  10  0.546  0.222  0.149-  69 2.03  70 2.12  54 2.13  38 2.14  14 2.40  36 2.49
  11  0.831  0.028  0.212-  70 2.10  39 2.25  60 2.26  57 2.36  71 2.36  23 2.53  33 2.53
  12  0.981  0.878  0.338-  40 2.25  57 2.26  71 2.26  58 2.36  72 2.36  34 2.53  24 2.53
  13  0.373  0.565  0.108-  62 2.09  49 2.10  61 2.17  38 2.19  53 2.26   1 2.45
  14  0.508  0.420  0.220-  54 2.25  62 2.26  38 2.26  39 2.36  63 2.36  10 2.40  27 2.53   2 2.53

  15  0.658  0.270  0.347-  64 2.06  55 2.25  63 2.26  39 2.26  40 2.36   3 2.53  28 2.53
  16  0.789  0.122  0.458-  40 2.03  37 2.11  56 2.12  64 2.17   4 2.46
  17  0.074  0.187  0.136-  41 2.05  60 2.25  68 2.26  42 2.36  65 2.36   5 2.53  29 2.53
  18  0.224  0.037  0.263-  57 2.25  42 2.26  65 2.26  66 2.36  43 2.36   6 2.53  30 2.53
  19  0.375  0.886  0.390-  67 2.02  58 2.25  66 2.26  43 2.26  20 2.32  44 2.36  31 2.53   7 2.53

  20  0.435  0.724  0.474-  59 2.03  67 2.10  44 2.10  19 2.32
  21  0.074  0.371  0.050-  41 2.02  68 2.05  53 2.07  29 2.47   8 2.49
  22  0.084  0.509  0.419-  46 2.03  47 2.15  72 2.16  52 2.20  35 2.52
  23  0.791  0.804  0.178-  70 2.09  48 2.11  50 2.25  71 2.36  45 2.36  11 2.53  33 2.53
  24  0.941  0.653  0.305-  51 2.25  71 2.26  45 2.26  46 2.36  72 2.36  34 2.53  12 2.53
  25  0.025  0.165  0.426-  40 2.04  37 2.12  66 2.13  52 2.15   4 2.49
  26  0.625  0.577  0.082-  49 2.00  50 2.01  38 2.04  27 2.52
  27  0.732  0.460  0.187-  68 2.25  50 2.26  38 2.26  51 2.36  39 2.36  26 2.52  14 2.53   2 2.53

  28  0.882  0.310  0.314-  65 2.25  39 2.26  51 2.26  40 2.36  52 2.36   3 2.53  15 2.53
  29  0.299  0.227  0.102-  41 2.06  69 2.16  53 2.28  54 2.36  42 2.36  21 2.47   5 2.53  17 2.53

  30  0.449  0.076  0.229-  70 2.06  42 2.26  54 2.26  55 2.36  43 2.36  18 2.53   6 2.53
  31  0.599  0.926  0.356-  56 2.15  71 2.25  55 2.26  43 2.26  44 2.36  32 2.43   7 2.53  19 2.53

  32  0.734  0.817  0.452-  56 2.04  44 2.05  72 2.06  31 2.43
  33  0.015  0.843  0.144-  61 2.05  48 2.10  60 2.26  45 2.36  57 2.36  23 2.53  11 2.53
  34  0.166  0.693  0.271-  62 2.25  57 2.26  45 2.26  46 2.36  58 2.36  12 2.53  24 2.53
  35  0.316  0.543  0.398-  59 2.06  47 2.13  63 2.25  58 2.26  46 2.26  22 2.52
  36  0.740  0.026  0.096-  70 2.07  48 2.08  60 2.09  69 2.23  10 2.49
  37  0.001  0.998  0.481-  16 2.11  25 2.12   9 2.13  40 2.60
  38  0.586  0.406  0.117-  26 2.04  10 2.14  13 2.19  14 2.26  27 2.26
  39  0.736  0.256  0.244-  11 2.25  28 2.26  15 2.26  14 2.36  27 2.36
  40  0.886  0.105  0.371-  16 2.03  25 2.04  12 2.25  15 2.36  28 2.36  37 2.60
  41  0.167  0.158  0.046-  21 2.02  17 2.05  29 2.06
  42  0.303  0.023  0.160-   1 2.25  30 2.26  18 2.26  17 2.36  29 2.36
  43  0.453  0.872  0.286-   2 2.25  19 2.26  31 2.26  18 2.36  30 2.36
  44  0.603  0.722  0.413-  32 2.05  20 2.10   3 2.25  31 2.36  19 2.36
  45  0.019  0.639  0.202-   8 2.11   5 2.25  24 2.26  34 2.26  23 2.36  33 2.36
  46  0.170  0.489  0.329-  22 2.03   6 2.25  35 2.26  34 2.36  24 2.36  47 2.57
  47  0.292  0.351  0.430-  35 2.13  22 2.15   7 2.30  46 2.57
  48  0.863  0.814  0.083-   8 2.06  36 2.08  33 2.10  23 2.11
  49  0.439  0.686  0.041-  26 2.00   1 2.06  13 2.10  61 2.48
  50  0.636  0.692  0.160-  26 2.01  23 2.25  27 2.26   2 2.26   1 2.36
  51  0.787  0.542  0.287-  24 2.25   3 2.26  28 2.26  27 2.36   2 2.36
  52  0.937  0.391  0.414-   4 2.00  25 2.15  22 2.20   3 2.36  28 2.36
  53  0.208  0.467  0.087-  21 2.07   5 2.11  13 2.26  29 2.28   8 2.30
  54  0.353  0.308  0.202-  10 2.13  14 2.25   6 2.26  30 2.26  29 2.36   5 2.36
  55  0.503  0.158  0.329-  15 2.25   7 2.26  31 2.26   6 2.36  30 2.36  56 2.76
  56  0.633  0.031  0.442-  32 2.04   7 2.10  16 2.12  31 2.15  55 2.76
  57  0.070  0.925  0.245-  18 2.25  34 2.26  12 2.26  11 2.36  33 2.36
  58  0.220  0.775  0.372-   9 2.04  19 2.25  35 2.26  34 2.36  12 2.36  59 2.75
  59  0.284  0.636  0.488-  20 2.03  35 2.06   9 2.07  58 2.75
  60  0.920  0.075  0.118-  36 2.09  17 2.25  11 2.26  33 2.26
  61  0.208  0.773  0.099-  33 2.05   1 2.08  13 2.17  49 2.48  62 2.66
  62  0.350  0.641  0.203-  13 2.09  34 2.25  14 2.26   2 2.26   1 2.36  61 2.66
  63  0.501  0.491  0.330-  35 2.25   3 2.26  15 2.26   2 2.36  14 2.36
  64  0.652  0.340  0.441-   4 2.00  15 2.06  16 2.17   3 2.17
  65  0.067  0.258  0.245-  28 2.25   6 2.26  18 2.26   5 2.36  17 2.36
  66  0.218  0.108  0.372-  25 2.13  19 2.26   7 2.26  18 2.36   6 2.36
  67  0.401  0.941  0.481-  19 2.02  20 2.10   7 2.13
  68  0.917  0.408  0.118-  21 2.05  27 2.25   8 2.26  17 2.26   5 2.26
  69  0.513  0.128  0.067-  10 2.03  29 2.16  36 2.23  70 2.74
  70  0.640  0.009  0.181-  30 2.06  36 2.07  23 2.09  11 2.10  10 2.12  71 2.72  69 2.74
  71  0.784  0.874  0.287-  31 2.25  24 2.26  12 2.26  23 2.36  11 2.36  70 2.72
  72  0.934  0.724  0.414-  32 2.06   9 2.09  22 2.16  12 2.36  24 2.36
 
  LATTYP: Found a base centered orthorhombic cell.
 ALAT       =    11.4527836704
 B/A-ratio  =     1.4485816945
 C/A-ratio  =     1.8059804630
  
  Lattice vectors:
  
 A1 = (  10.0797329849,   0.0000000000,   0.0000000000)
 A2 = (  -3.5732980427,  -9.4251025535,   0.0000000000)
 A3 = (   0.0000000000,   0.0000000000, -20.6835035552)


Analysis of symmetry for initial positions (statically):
=====================================================================
 Subroutine PRICEL returns:
 Original cell was already a primitive cell.
 

 Routine SETGRP: Setting up the symmetry group for a 
 base centered orthorhombic supercell.


 Subroutine GETGRP returns: Found  1 space group operations
 (whereof  1 operations were pure point group operations)
 out of a pool of  8 trial point group operations.


The static configuration has the point symmetry C_1 .


Analysis of symmetry for dynamics (positions and initial velocities):
=====================================================================
 Subroutine PRICEL returns:
 Original cell was already a primitive cell.
 

 Routine SETGRP: Setting up the symmetry group for a 
 base centered orthorhombic supercell.


 Subroutine GETGRP returns: Found  1 space group operations
 (whereof  1 operations were pure point group operations)
 out of a pool of  8 trial point group operations.


The dynamic configuration has the point symmetry C_1 .


 Subroutine INISYM returns: Found  1 space group operations
 (whereof  1 operations are pure point group operations),
 and found     1 'primitive' translations

 
 
 KPOINTS: gamma-point-only calculation. no periodi

Automatic generation of k-mesh.
Space group operators:
 irot       det(A)        alpha          n_x          n_y          n_z        tau_x        tau_y        tau_z
    1     1.000000     0.000000     1.000000     0.000000     0.000000     0.000000     0.000000     0.000000
 
 Subroutine IBZKPT returns following result:
 ===========================================
 
 Found      1 irreducible k-points:
 
 Following reciprocal coordinates:
            Coordinates               Weight
  0.000000  0.000000  0.000000      1.000000
 
 Following cartesian coordinates:
            Coordinates               Weight
  0.000000  0.000000  0.000000      1.000000
 


--------------------------------------------------------------------------------------------------------




 Dimension of arrays:
   k-points           NKPTS =      1   k-points in BZ     NKDIM =      1   number of bands    NBANDS=    476
   number of dos      NEDOS =    301   number of ions     NIONS =     72
   non local maximal  LDIM  =      6   non local SUM 2l+1 LMDIM =     18
   total plane-waves  NPLWV = 314928
   max r-space proj   IRMAX =   1817   max aug-charges    IRDMAX=   5248
   dimension x,y,z NGX =    54 NGY =   54 NGZ =  108
   dimension x,y,z NGXF=   108 NGYF=  108 NGZF=  216
   support grid    NGXF=   108 NGYF=  108 NGZF=  216
   ions per type =              36  36
   NGX,Y,Z   is equivalent  to a cutoff of   8.91,  8.91,  8.68 a.u.
   NGXF,Y,Z  is equivalent  to a cutoff of  17.81, 17.81, 17.36 a.u.

 SYSTEM =  "Millerite NiS"                         
 POSCAR =  Type_036 Type_136                       

 Startparameter for this run:
   NWRITE =      2    write-flag & timer
   PREC   = normal    normal or accurate (medium, high low for compatibility)
   ISTART =      0    job   : 0-new  1-cont  2-samecut
   ICHARG =      2    charge: 1-file 2-atom 10-const
   ISPIN  =      1    spin polarized calculation?
   LNONCOLLINEAR =      F non collinear calculations
   LSORBIT =      F    spin-orbit coupling
   INIWAV =      1    electr: 0-lowe 1-rand  2-diag
   LASPH  =      F    aspherical Exc in radial PAW
   METAGGA=      F    non-selfconsistent MetaGGA calc.

 Electronic Relaxation 1
   ENCUT  =  450.0 eV  33.07 Ry    5.75 a.u.  17.43 17.43 35.78*2*pi/ulx,y,z
   ENINI  =  450.0     initial cutoff
   ENAUG  =  703.4 eV  augmentation charge cutoff
   NELM   =    100;   NELMIN=  2; NELMDL= -5     # of ELM steps 
   EDIFF  = 0.1E-03   stopping-criterion for ELM
   LREAL  =      T    real-space projection
   NLSPLINE    = F    spline interpolate recip. space projectors
   LCOMPAT=      F    compatible to vasp.4.4
   GGA_COMPAT  = T    GGA compatible to vasp.4.4-vasp.4.6
   LMAXPAW     = -100 max onsite density
   LMAXMIX     =    2 max onsite mixed and CHGCAR
   VOSKOWN=      0    Vosko Wilk Nusair interpolation
   ROPT   =   -0.00050  -0.00050
 Ionic relaxation
   EDIFFG = 0.1E-02   stopping-criterion for IOM
   NSW    =      0    number of steps for IOM
   NBLOCK =      1;   KBLOCK =      1    inner block; outer block 
   IBRION =     -1    ionic relax: 0-MD 1-quasi-New 2-CG
   NFREE  =      0    steps in history (QN), initial steepest desc. (CG)
   ISIF   =      2    stress and relaxation
   IWAVPR =     10    prediction:  0-non 1-charg 2-wave 3-comb
   ISYM   =      2    0-nonsym 1-usesym 2-fastsym
   LCORR  =      T    Harris-Foulkes like correction to forces

   POTIM  = 0.5000    time-step for ionic-motion
   TEIN   =    0.0    initial temperature
   TEBEG  =    0.0;   TEEND  =   0.0 temperature during run
   SMASS  =  -3.00    Nose mass-parameter (am)
   estimated Nose-frequenzy (Omega)   =  0.10E-29 period in steps =****** mass=  -0.232E-26a.u.
   SCALEE = 1.0000    scale energy and forces
   NPACO  =    256;   APACO  = 16.0  distance and # of slots for P.C.
   PSTRESS=    0.0 pullay stress

  Mass of Ions in am
   POMASS =  58.69 32.07
  Ionic Valenz
   ZVAL   =  16.00  6.00
  Atomic Wigner-Seitz radii
   RWIGS  =  -1.00 -1.00
  virtual crystal weights 
   VCA    =   1.00  1.00
   NELECT =     792.0000    total number of electrons
   NUPDOWN=      -1.0000    fix difference up-down

 DOS related values:
   EMIN   =  10.00;   EMAX   =-10.00  energy-range for DOS
   EFERMI =   0.00
   ISMEAR =     0;   SIGMA  =   0.20  broadening in eV -4-tet -1-fermi 0-gaus

 Electronic relaxation 2 (details)
   IALGO  =     38    algorithm
   LDIAG  =      T    sub-space diagonalisation (order eigenvalues)
   LSUBROT=      F    optimize rotation matrix (better conditioning)
   TURBO    =      0    0=normal 1=particle mesh
   IRESTART =      0    0=no restart 2=restart with 2 vectors
   NREBOOT  =      0    no. of reboots
   NMIN     =      0    reboot dimension
   EREF     =   0.00    reference energy to select bands
   IMIX   =      4    mixing-type and parameters
     AMIX     =   0.40;   BMIX     =  1.00
     AMIX_MAG =   1.60;   BMIX_MAG =  1.00
     AMIN     =   0.10
     WC   =   100.;   INIMIX=   1;  MIXPRE=   1;  MAXMIX= -45

 Intra band minimization:
   WEIMIN = 0.0000     energy-eigenvalue tresh-hold
   EBREAK =  0.53E-07  absolut break condition
   DEPER  =   0.30     relativ break condition  

   TIME   =   0.40     timestep for ELM

  volume/ion in A,a.u.               =      27.29       184.17
  Fermi-wavevector in a.u.,A,eV,Ry     =   1.209289  2.285225 19.896891  1.462380
  Thomas-Fermi vector in A             =   2.344871
 
 Write flags
   LWAVE        =      F    write WAVECAR
   LDOWNSAMPLE  =      F    k-point downsampling of WAVECAR
   LCHARG       =      F    write CHGCAR
   LVTOT        =      F    write LOCPOT, total local potential
   LVHAR        =      F    write LOCPOT, Hartree potential only
   LELF         =      F    write electronic localiz. function (ELF)
   LORBIT       =      0    0 simple, 1 ext, 2 COOP (PROOUT), +10 PAW based schemes


 Dipole corrections
   LMONO  =      F    monopole corrections only (constant potential shift)
   LDIPOL =      F    correct potential (dipole corrections)
   IDIPOL =      0    1-x, 2-y, 3-z, 4-all directions 
   EPSILON=  1.0000000 bulk dielectric constant

 Exchange correlation treatment:
   GGA     =    --    GGA type
   LEXCH   =     8    internal setting for exchange type
   VOSKOWN=      0    Vosko Wilk Nusair interpolation
   LHFCALC =     F    Hartree Fock is set to
   LHFONE  =     F    Hartree Fock one center treatment
   AEXX    =    0.0000 exact exchange contribution

 Linear response parameters
   LEPSILON=     F    determine dielectric tensor
   LRPA    =     F    only Hartree local field effects (RPA)
   LNABLA  =     F    use nabla operator in PAW spheres
   LVEL    =     F    velocity operator in full k-point grid
   LINTERFAST=   F  fast interpolation
   KINTER  =     0    interpolate to denser k-point grid
   CSHIFT  =0.1000    complex shift for real part using Kramers Kronig
   OMEGAMAX=  -1.0    maximum frequency
   DEG_THRESHOLD= 0.2000000E-02 threshold for treating states as degnerate
   RTIME   =   -0.100 relaxation time in fs
  (WPLASMAI=    0.000 imaginary part of plasma frequency in eV, 0.658/RTIME)
   DFIELD  = 0.0000000 0.0000000 0.0000000 field for delta impulse in time
 
 Orbital magnetization related:
   ORBITALMAG=     F  switch on orbital magnetization
   LCHIMAG   =     F  perturbation theory with respect to B field
   DQ        =  0.001000  dq finite difference perturbation B field
   LLRAUG    =     F  two centre corrections for induced B field



--------------------------------------------------------------------------------------------------------


 Static calculation
 charge density and potential will be updated during run
 non-spin polarized calculation
 Variant of blocked Davidson
 Davidson routine will perform the subspace rotation
 perform sub-space diagonalisation
    after iterative eigenvector-optimisation
 modified Broyden-mixing scheme, WC =      100.0
 initial mixing is a Kerker type mixing with AMIX =  0.4000 and BMIX =      1.0000
 Hartree-type preconditioning will be used
 using additional bands           80
 real space projection scheme for non local part
 use partial core corrections
 calculate Harris-corrections to forces 
   (improved forces if not selfconsistent)
 use gradient corrections 
 use of overlap-Matrix (Vanderbilt PP)
 Gauss-broadening in eV      SIGMA  =   0.20


--------------------------------------------------------------------------------------------------------


  energy-cutoff  :      450.00
  volume of cell :     1964.98
      direct lattice vectors                 reciprocal lattice vectors
    10.079732985  0.000000000  0.000000000     0.099208977 -0.037612667  0.000000000
     3.573298043  9.425102554  0.000000000     0.000000000  0.106099641  0.000000000
     0.000000000  0.000000000 20.683503555     0.000000000  0.000000000  0.048347708

  length of vectors
    10.079732985 10.079732985 20.683503555     0.106099641  0.106099641  0.048347708


 
 k-points in units of 2pi/SCALE and weight: gamma-point-only calculation. no periodi
   0.00000000  0.00000000  0.00000000       1.000
 
 k-points in reciprocal lattice and weights: gamma-point-only calculation. no periodi
   0.00000000  0.00000000  0.00000000       1.000
 
 position of ions in fractional coordinates (direct lattice) 
   0.39705889  0.79495179  0.12693702
   0.54732740  0.64468328  0.25387405
   0.69759592  0.49441476  0.38081107
   0.82684842  0.34442165  0.48485083
   0.11381506  0.41152895  0.16924937
   0.26408357  0.26126044  0.29618639
   0.41435209  0.11099193  0.42312341
   0.97365140  0.60408734  0.10516123
   0.09862736  0.78233900  0.45144313
   0.54564664  0.22209174  0.14914121
   0.83057123  0.02810611  0.21156171
   0.98083975  0.87783760  0.33849873
   0.37302470  0.56522883  0.10757685
   0.50762556  0.42017912  0.22033653
   0.65789407  0.26991061  0.34727355
   0.78913922  0.12246935  0.45838791
   0.07411322  0.18702479  0.13571184
   0.22438173  0.03675628  0.26264887
   0.37465025  0.88648777  0.38958589
   0.43497616  0.72392560  0.47411965
   0.07376768  0.37065412  0.04968332
   0.08370258  0.50922859  0.41851704
   0.79086939  0.80360196  0.17802418
   0.94113790  0.65333344  0.30496121
   0.02475227  0.16536385  0.42567093
   0.62534122  0.57681206  0.08186033
   0.73212972  0.45988096  0.18679900
   0.88239823  0.30961245  0.31373603
   0.29861738  0.22672664  0.10217432
   0.44888589  0.07645812  0.22911134
   0.59915440  0.92618961  0.35604837
   0.73390890  0.81729597  0.45191147
   0.01537355  0.84330380  0.14448666
   0.16564206  0.69303529  0.27142369
   0.31591057  0.54276677  0.39836071
   0.73991673  0.02639721  0.09560636
   0.00132554  0.99768223  0.48051666
   0.58579929  0.40599939  0.11724657
   0.73606781  0.25573088  0.24418359
   0.88633632  0.10546236  0.37112062
   0.16720488  0.15784286  0.04629814
   0.30255546  0.02257655  0.15955891
   0.45282398  0.87230804  0.28649593
   0.60309249  0.72203952  0.41343296
   0.01931164  0.63915371  0.20187125
   0.16958015  0.48888520  0.32880827
   0.29161244  0.35137943  0.43021412
   0.86276865  0.81399453  0.08284227
   0.43893676  0.68564024  0.04081081
   0.63635413  0.69187455  0.15995199
   0.78662264  0.54160604  0.28688901
   0.93689115  0.39133753  0.41382604
   0.20758279  0.46661087  0.08728380
   0.35311030  0.30845171  0.20226433
   0.50337881  0.15818320  0.32920136
   0.63283453  0.03064248  0.44208128
   0.06986647  0.92502888  0.24457667
   0.22013498  0.77476036  0.37151370
   0.28445550  0.63648168  0.48818681
   0.91959796  0.07529739  0.11763965
   0.20812079  0.77286674  0.09876683
   0.35047896  0.64131972  0.20265741
   0.50074748  0.49105120  0.32959444
   0.65167473  0.33998543  0.44121591
   0.06723514  0.25789688  0.24496976
   0.21750365  0.10762837  0.37190678
   0.40141220  0.94145312  0.48125878
   0.91696662  0.40816539  0.11803273
   0.51315467  0.12824655  0.06708834
   0.63953581  0.00884031  0.18069588
   0.78399131  0.87447404  0.28728210
   0.93425982  0.72420553  0.41421912
 
 position of ions in cartesian coordinates  (Angst):
   6.84284728  7.49250214  2.62550239
   7.82055958  6.07620600  5.25100480
   8.79827188  4.65990985  7.87650718
   9.56513251  3.24620933 10.02841377
   2.61774104  3.87870257  3.50066986
   3.59545334  2.46240643  6.12617225
   4.57316564  1.04611029  8.75167464
  11.97273028  5.69358512  2.17510268
   3.78966788  7.37362527  9.33742550
   6.29357239  2.09323741  3.08476276
   8.47236779  0.26490301  4.37583732
  13.02337813  8.27370942  7.00133973
   5.77972048  5.32733969  2.22506611
   6.61815534  3.96023129  4.55733130
   7.59586764  2.54393515  7.18283371
   8.39193212  1.15428615  9.48106807
   1.41533680  1.76272786  2.80699637
   2.39304911  0.34643173  5.43249877
   6.94405944  8.35523814  8.05800116
   6.97124544  6.82307303  9.80645539
   2.06801612  3.49345312  1.02762512
   2.66332517  4.79953170  8.65639878
  10.84326159  7.57403086  3.68216384
  11.82097388  6.15773471  6.30766623
   0.84039058  1.55857126  8.80436614
   8.36439396  5.43651279  1.69315850
   9.02296382  4.33442523  3.86365782
  10.00067612  2.91812908  6.48916021
   3.82014528  2.13692181  2.11332289
   4.79785758  0.72062566  4.73882528
   9.34886792  8.72943208  7.36432769
  10.31804788  7.70309836  9.34711250
   3.16833707  7.94822479  2.98849035
   4.14604938  6.53192865  5.61399275
   5.12376167  5.11563251  8.23949514
   7.55248818  0.24879645  1.97747445
   3.57837705  9.40325737  9.93876799
   7.35545728  3.82658586  2.42506979
   8.33316958  2.41028972  5.05057219
   9.31088188  0.99399359  7.67607458
   2.24940009  1.48768511  0.95760767
   3.13035103  0.21278630  3.30023726
   7.68136138  8.22159271  5.92573965
   8.65907368  6.80529657  8.55124204
   2.47854283  6.02408928  4.17540472
   3.45625514  4.60779315  6.80090710
   4.19495892  3.31178713  8.89833520
  11.60512262  7.67198188  1.71346839
   6.87436227  6.46222957  0.84411047
   8.88655369  6.52098861  3.30836755
   9.86426599  5.10469246  5.93386996
  10.84197829  3.68839633  8.55937235
   3.75971874  4.39785526  1.80533471
   4.66144744  2.90718904  4.18353503
   5.63915974  1.49089290  6.80903742
   6.48829777  0.28880849  9.14378983
   4.00963925  8.71849203  5.05870249
   4.98735154  7.30219589  7.68420489
   5.14157422  5.99890512 10.09741371
   9.53836188  0.70968561  2.43320010
   4.85948518  7.28434832  2.04284400
   5.82436087  6.04450409  4.19166532
   6.80207317  4.62820796  6.81716773
   7.78357650  3.20439755  9.12589090
   1.59925463  2.43070453  5.06683280
   2.57696692  1.01440839  7.69233519
   7.41022040  8.87329218  9.95411759
  10.70127531  3.84700067  2.44133041
   5.63072525  1.20873688  1.38762188
   6.47793928  0.08332087  3.73742377
  11.02717941  8.24200752  5.94200025
  12.00489171  6.82571138  8.56750266
 


--------------------------------------------------------------------------------------------------------


 use parallel FFT for orbitals z direction half grid
 k-point  1 :   0.0000 0.0000 0.0000  plane waves:   21301

 maximum and minimum number of plane-waves per node :      3554     3548

 maximum number of plane-waves:     21301
 maximum index in each direction: 
   IXMAX=   17   IYMAX=   17   IZMAX=   35
   IXMIN=  -17   IYMIN=  -17   IZMIN=    0


 real space projection operators:
  total allocation   :      11163.45 KBytes
  max/ min on nodes  :       1865.06       1854.39


 parallel 3D FFT for wavefunctions:
    minimum data exchange during FFTs selected (reduces bandwidth)
 parallel 3D FFT for charge:
    minimum data exchange during FFTs selected (reduces bandwidth)


 total amount of memory used by VASP MPI-rank0    68402. kBytes
=======================================================================

   base      :      30000. kBytes
   nonlr-proj:       2287. kBytes
   fftplans  :       8265. kBytes
   grid      :      13942. kBytes
   one-center:         93. kBytes
   wavefun   :      13815. kBytes
 
     INWAV:  cpu time    0.0000: real time    0.0000
 Broyden mixing: mesh for mixing (old mesh)
   NGX = 35   NGY = 35   NGZ = 71
  (NGX  =108   NGY  =108   NGZ  =216)
  gives a total of  86975 points

 initial charge density was supplied:
 charge density of overlapping atoms calculated
 number of electron     792.0000000 magnetization 
 keeping initial charge density in first step


--------------------------------------------------------------------------------------------------------


 Maximum index for non-local projection operator          301
 Maximum index for augmentation-charges          470 (set IRDMAX)


--------------------------------------------------------------------------------------------------------


 First call to EWALD:  gamma=   0.142
 Maximum number of real-space cells 3x 3x 2
 Maximum number of reciprocal cells 2x 2x 4

    FEWALD:  cpu time    0.0050: real time    0.0050


--------------------------------------- Iteration      1(   1)  ---------------------------------------


    POTLOK:  cpu time    0.2558: real time    0.2566
    SETDIJ:  cpu time    0.0175: real time    0.0175
     EDDAV:  cpu time    6.8550: real time    6.8601
       DOS:  cpu time    0.0025: real time    0.0025
    --------------------------------------------
      LOOP:  cpu time    7.1309: real time    7.1367

 eigenvalue-minimisations  :  1160
 total energy-change (2. order) : 0.9906740E+04  (-0.5135088E+05)
 number of electron     792.0000000 magnetization 
 augmentation part      792.0000000 magnetization 

 Free energy of the ion-electron system (eV)
  ---------------------------------------------------
  alpha Z        PSCENC =      1893.09323658
  Ewald energy   TEWEN  =    220541.54904906
  -Hartree energ DENC   =   -342749.09543019
  -exchange      EXHF   =         0.00000000
  -V(xc)+E(xc)   XCENC  =      3679.73112578
  PAW double counting   =    112729.53333415  -117641.51188735
  entropy T*S    EENTRO =        -0.36411996
  eigenvalues    EBANDS =     -4548.80014359
  atomic energy  EATOM  =    136002.60505376
  Solvation  Ediel_sol  =         0.00000000
  ---------------------------------------------------
  free energy    TOTEN  =      9906.74021825 eV

  energy without entropy =     9907.10433821  energy(sigma->0) =     9906.92227823


--------------------------------------------------------------------------------------------------------




--------------------------------------- Iteration      1(   2)  ---------------------------------------


     EDDAV:  cpu time    6.1604: real time    6.1660
       DOS:  cpu time    0.0011: real time    0.0011
    --------------------------------------------
      LOOP:  cpu time    6.1614: real time    6.1670

 eigenvalue-minimisations  :  1012
 total energy-change (2. order) :-0.9299216E+04  (-0.8973847E+04)
 number of electron     792.0000000 magnetization 
 augmentation part      792.0000000 magnetization 

 Free energy of the ion-electron system (eV)
  ---------------------------------------------------
  alpha Z        PSCENC =      1893.09323658
  Ewald energy   TEWEN  =    220541.54904906
  -Hartree energ DENC   =   -342749.09543019
  -exchange      EXHF   =         0.00000000
  -V(xc)+E(xc)   XCENC  =      3679.73112578
  PAW double counting   =    112729.53333415  -117641.51188735
  entropy T*S    EENTRO =        -0.76822815
  eigenvalues    EBANDS =    -13847.61204871
  atomic energy  EATOM  =    136002.60505376
  Solvation  Ediel_sol  =         0.00000000
  ---------------------------------------------------
  free energy    TOTEN  =       607.52420494 eV

  energy without entropy =      608.29243309  energy(sigma->0) =      607.90831901


--------------------------------------------------------------------------------------------------------




--------------------------------------- Iteration      1(   3)  ---------------------------------------


     EDDAV:  cpu time    6.4223: real time    6.4236
       DOS:  cpu time    0.0012: real time    0.0012
    --------------------------------------------
      LOOP:  cpu time    6.4236: real time    6.4248

 eigenvalue-minimisations  :  1072
 total energy-change (2. order) :-0.9477293E+03  (-0.9035721E+03)
 number of electron     792.0000000 magnetization 
 augmentation part      792.0000000 magnetization 

 Free energy of the ion-electron system (eV)
  ---------------------------------------------------
  alpha Z        PSCENC =      1893.09323658
  Ewald energy   TEWEN  =    220541.54904906
  -Hartree energ DENC   =   -342749.09543019
  -exchange      EXHF   =         0.00000000
  -V(xc)+E(xc)   XCENC  =      3679.73112578
  PAW double counting   =    112729.53333415  -117641.51188735
  entropy T*S    EENTRO =        -1.01198910
  eigenvalues    EBANDS =    -14795.09758320
  atomic energy  EATOM  =    136002.60505376
  Solvation  Ediel_sol  =         0.00000000
  ---------------------------------------------------
  free energy    TOTEN  =      -340.20509051 eV

  energy without entropy =     -339.19310141  energy(sigma->0) =     -339.69909596


--------------------------------------------------------------------------------------------------------




--------------------------------------- Iteration      1(   4)  ---------------------------------------


     EDDAV:  cpu time    6.6930: real time    6.6967
       DOS:  cpu time    0.0012: real time    0.0012
    --------------------------------------------
      LOOP:  cpu time    6.6942: real time    6.6979

 eigenvalue-minimisations  :  1128
 total energy-change (2. order) :-0.5810022E+02  (-0.5745971E+02)
 number of electron     792.0000000 magnetization 
 augmentation part      792.0000000 magnetization 

 Free energy of the ion-electron system (eV)
  ---------------------------------------------------
  alpha Z        PSCENC =      1893.09323658
  Ewald energy   TEWEN  =    220541.54904906
  -Hartree energ DENC   =   -342749.09543019
  -exchange      EXHF   =         0.00000000
  -V(xc)+E(xc)   XCENC  =      3679.73112578
  PAW double counting   =    112729.53333415  -117641.51188735
  entropy T*S    EENTRO =        -1.06393559
  eigenvalues    EBANDS =    -14853.14585266
  atomic energy  EATOM  =    136002.60505376
  Solvation  Ediel_sol  =         0.00000000
  ---------------------------------------------------
  free energy    TOTEN  =      -398.30530646 eV

  energy without entropy =     -397.24137086  energy(sigma->0) =     -397.77333866


--------------------------------------------------------------------------------------------------------




--------------------------------------- Iteration      1(   5)  ---------------------------------------


     EDDAV:  cpu time    7.4391: real time    7.4413
       DOS:  cpu time    0.0012: real time    0.0012
    CHARGE:  cpu time    0.2155: real time    0.2155
    MIXING:  cpu time    0.0079: real time    0.0079
    --------------------------------------------
      LOOP:  cpu time    7.6637: real time    7.6659

 eigenvalue-minimisations  :  1248
 total energy-change (2. order) :-0.2170050E+01  (-0.2166627E+01)
 number of electron     791.9999478 magnetization 
 augmentation part      286.7358147 magnetization 

 Broyden mixing:
  rms(total) = 0.95453E+01    rms(broyden)= 0.95360E+01
  rms(prec ) = 0.98909E+01
  weight for this iteration     100.00

 Free energy of the ion-electron system (eV)
  ---------------------------------------------------
  alpha Z        PSCENC =      1893.09323658
  Ewald energy   TEWEN  =    220541.54904906
  -Hartree energ DENC   =   -342749.09543019
  -exchange      EXHF   =         0.00000000
  -V(xc)+E(xc)   XCENC  =      3679.73112578
  PAW double counting   =    112729.53333415  -117641.51188735
  entropy T*S    EENTRO =        -1.05293819
  eigenvalues    EBANDS =    -14855.32689961
  atomic energy  EATOM  =    136002.60505376
  Solvation  Ediel_sol  =         0.00000000
  ---------------------------------------------------
  free energy    TOTEN  =      -400.47535601 eV

  energy without entropy =     -399.42241782  energy(sigma->0) =     -399.94888691


--------------------------------------------------------------------------------------------------------




--------------------------------------- Iteration      1(   6)  ---------------------------------------


    POTLOK:  cpu time    0.2493: real time    0.2493
    SETDIJ:  cpu time    0.0173: real time    0.0173
     EDDAV:  cpu time    6.9406: real time    6.9419
       DOS:  cpu time    0.0012: real time    0.0012
    CHARGE:  cpu time    0.2186: real time    0.2186
    MIXING:  cpu time    0.0089: real time    0.0089
    --------------------------------------------
      LOOP:  cpu time    7.4359: real time    7.4372

 eigenvalue-minimisations  :  1184
 total energy-change (2. order) :-0.6822873E+02  (-0.9271140E+02)
 number of electron     791.9999438 magnetization 
 augmentation part      344.5634509 magnetization 

 Broyden mixing:
  rms(total) = 0.15697E+02    rms(broyden)= 0.15694E+02
  rms(prec ) = 0.16310E+02
  weight for this iteration     100.00

 eigenvalues of (default mixing * dielectric matrix)
  average eigenvalue GAMMA=   0.2434
  0.2434

 Free energy of the ion-electron system (eV)
  ---------------------------------------------------
  alpha Z        PSCENC =      1893.09323658
  Ewald energy   TEWEN  =    220541.54904906
  -Hartree energ DENC   =   -340041.07262863
  -exchange      EXHF   =         0.00000000
  -V(xc)+E(xc)   XCENC  =      3605.82893957
  PAW double counting   =    117349.86144744  -122030.56009746
  entropy T*S    EENTRO =        -0.86702930
  eigenvalues    EBANDS =    -17789.14206056
  atomic energy  EATOM  =    136002.60505376
  Solvation  Ediel_sol  =         0.00000000
  ---------------------------------------------------
  free energy    TOTEN  =      -468.70408953 eV

  energy without entropy =     -467.83706023  energy(sigma->0) =     -468.27057488


--------------------------------------------------------------------------------------------------------




--------------------------------------- Iteration      1(   7)  ---------------------------------------


    POTLOK:  cpu time    0.2417: real time    0.2417
    SETDIJ:  cpu time    0.0171: real time    0.0171
     EDDAV:  cpu time    6.4876: real time    6.4884
       DOS:  cpu time    0.0011: real time    0.0011
    CHARGE:  cpu time    0.2147: real time    0.2147
    MIXING:  cpu time    0.0130: real time    0.0130
    --------------------------------------------
      LOOP:  cpu time    6.9752: real time    6.9760

 eigenvalue-minimisations  :  1080
 total energy-change (2. order) : 0.9612412E+02  (-0.2013020E+02)
 number of electron     791.9999416 magnetization 
 augmentation part      331.4892573 magnetization 

 Broyden mixing:
  rms(total) = 0.69665E+01    rms(broyden)= 0.69650E+01
  rms(prec ) = 0.72202E+01
  weight for this iteration     100.00

 eigenvalues of (default mixing * dielectric matrix)
  average eigenvalue GAMMA=   0.4765
  0.4765  0.4765

 Free energy of the ion-electron system (eV)
  ---------------------------------------------------
  alpha Z        PSCENC =      1893.09323658
  Ewald energy   TEWEN  =    220541.54904906
  -Hartree energ DENC   =   -341166.28439130
  -exchange      EXHF   =         0.00000000
  -V(xc)+E(xc)   XCENC  =      3630.63842647
  PAW double counting   =    121672.07561576  -126486.62966286
  entropy T*S    EENTRO =        -0.88496483
  eigenvalues    EBANDS =    -16458.74232763
  atomic energy  EATOM  =    136002.60505376
  Solvation  Ediel_sol  =         0.00000000
  ---------------------------------------------------
  free energy    TOTEN  =      -372.57996501 eV

  energy without entropy =     -371.69500018  energy(sigma->0) =     -372.13748260


--------------------------------------------------------------------------------------------------------




--------------------------------------- Iteration      1(   8)  ---------------------------------------


    POTLOK:  cpu time    0.3785: real time    0.3789
    SETDIJ:  cpu time    0.0263: real time    0.0263
     EDDAV:  cpu time    7.4025: real time    7.4048
       DOS:  cpu time    0.0012: real time    0.0012
    CHARGE:  cpu time    0.2138: real time    0.2138
    MIXING:  cpu time    0.0087: real time    0.0087
    --------------------------------------------
      LOOP:  cpu time    8.0311: real time    8.0337

 eigenvalue-minimisations  :  1280
 total energy-change (2. order) :-0.5511993E+02  (-0.2262467E+02)
 number of electron     791.9999547 magnetization 
 augmentation part      305.9425833 magnetization 

 Broyden mixing:
  rms(total) = 0.13239E+02    rms(broyden)= 0.13237E+02
  rms(prec ) = 0.14996E+02
  weight for this iteration     100.00

 eigenvalues of (default mixing * dielectric matrix)
  average eigenvalue GAMMA=   0.4853
  0.8080  0.4660  0.1819

 Free energy of the ion-electron system (eV)
  ---------------------------------------------------
  alpha Z        PSCENC =      1893.09323658
  Ewald energy   TEWEN  =    220541.54904906
  -Hartree energ DENC   =   -341922.29795587
  -exchange      EXHF   =         0.00000000
  -V(xc)+E(xc)   XCENC  =      3657.06225196
  PAW double counting   =    128203.94035234  -133158.29202191
  entropy T*S    EENTRO =        -1.08390250
  eigenvalues    EBANDS =    -15644.27596252
  atomic energy  EATOM  =    136002.60505376
  Solvation  Ediel_sol  =         0.00000000
  ---------------------------------------------------
  free energy    TOTEN  =      -427.69989912 eV

  energy without entropy =     -426.61599662  energy(sigma->0) =     -427.15794787


--------------------------------------------------------------------------------------------------------




--------------------------------------- Iteration      1(   9)  ---------------------------------------


    POTLOK:  cpu time    0.2422: real time    0.2422
    SETDIJ:  cpu time    0.0172: real time    0.0172
     EDDAV:  cpu time    7.1699: real time    7.1715
       DOS:  cpu time    0.0011: real time    0.0011
    CHARGE:  cpu time    0.2288: real time    0.2288
    MIXING:  cpu time    0.0090: real time    0.0090
    --------------------------------------------
      LOOP:  cpu time    7.6680: real time    7.6697

 eigenvalue-minimisations  :  1244
 total energy-change (2. order) : 0.5084579E+02  (-0.1416200E+02)
 number of electron     791.9999439 magnetization 
 augmentation part      305.7270677 magnetization 

 Broyden mixing:
  rms(total) = 0.58495E+01    rms(broyden)= 0.58418E+01
  rms(prec ) = 0.62771E+01
  weight for this iteration     100.00

 eigenvalues of (default mixing * dielectric matrix)
  average eigenvalue GAMMA=   0.6635
  1.6821  0.4139  0.4139  0.1442

 Free energy of the ion-electron system (eV)
  ---------------------------------------------------
  alpha Z        PSCENC =      1893.09323658
  Ewald energy   TEWEN  =    220541.54904906
  -Hartree energ DENC   =   -342105.97461498
  -exchange      EXHF   =         0.00000000
  -V(xc)+E(xc)   XCENC  =      3655.61164412
  PAW double counting   =    131858.96823813  -136833.67208832
  entropy T*S    EENTRO =        -0.96986892
  eigenvalues    EBANDS =    -15388.06476152
  atomic energy  EATOM  =    136002.60505376
  Solvation  Ediel_sol  =         0.00000000
  ---------------------------------------------------
  free energy    TOTEN  =      -376.85411210 eV

  energy without entropy =     -375.88424318  energy(sigma->0) =     -376.36917764


--------------------------------------------------------------------------------------------------------




--------------------------------------- Iteration      1(  10)  ---------------------------------------


    POTLOK:  cpu time    0.2446: real time    0.2446
    SETDIJ:  cpu time    0.0172: real time    0.0172
     EDDAV:  cpu time    8.0000: real time    8.0024
       DOS:  cpu time    0.0012: real time    0.0013
    CHARGE:  cpu time    0.2109: real time    0.2109
    MIXING:  cpu time    0.0101: real time    0.0101
    --------------------------------------------
      LOOP:  cpu time    8.4840: real time    8.4864

 eigenvalue-minimisations  :  1368
 total energy-change (2. order) :-0.4846655E+01  (-0.6836597E+01)
 number of electron     791.9999402 magnetization 
 augmentation part      306.5428034 magnetization 

 Broyden mixing:
  rms(total) = 0.62566E+01    rms(broyden)= 0.62539E+01
  rms(prec ) = 0.69116E+01
  weight for this iteration     100.00

 eigenvalues of (default mixing * dielectric matrix)
  average eigenvalue GAMMA=   0.6640
  2.0918  0.4226  0.4226  0.1586  0.2243

 Free energy of the ion-electron system (eV)
  ---------------------------------------------------
  alpha Z        PSCENC =      1893.09323658
  Ewald energy   TEWEN  =    220541.54904906
  -Hartree energ DENC   =   -342020.32300743
  -exchange      EXHF   =         0.00000000
  -V(xc)+E(xc)   XCENC  =      3651.83561635
  PAW double counting   =    138293.21535134  -143304.40131145
  entropy T*S    EENTRO =        -0.96386996
  eigenvalues    EBANDS =    -15438.31088582
  atomic energy  EATOM  =    136002.60505376
  Solvation  Ediel_sol  =         0.00000000
  ---------------------------------------------------
  free energy    TOTEN  =      -381.70076757 eV

  energy without entropy =     -380.73689761  energy(sigma->0) =     -381.21883259


--------------------------------------------------------------------------------------------------------




--------------------------------------- Iteration      1(  11)  ---------------------------------------


    POTLOK:  cpu time    0.2430: real time    0.2432
    SETDIJ:  cpu time    0.0182: real time    0.0182
     EDDAV:  cpu time    7.2451: real time    7.2477
       DOS:  cpu time    0.0012: real time    0.0012
    CHARGE:  cpu time    0.2143: real time    0.2163
    MIXING:  cpu time    0.0103: real time    0.0103
    --------------------------------------------
      LOOP:  cpu time    7.7321: real time    7.7370

 eigenvalue-minimisations  :  1256
 total energy-change (2. order) : 0.6792668E+01  (-0.5065021E+01)
 number of electron     791.9999446 magnetization 
 augmentation part      309.9521947 magnetization 

 Broyden mixing:
  rms(total) = 0.52948E+01    rms(broyden)= 0.52900E+01
  rms(prec ) = 0.60384E+01
  weight for this iteration     100.00

 eigenvalues of (default mixing * dielectric matrix)
  average eigenvalue GAMMA=   0.6807
  2.4461  0.4532  0.4532  0.4204  0.1719  0.1392

 Free energy of the ion-electron system (eV)
  ---------------------------------------------------
  alpha Z        PSCENC =      1893.09323658
  Ewald energy   TEWEN  =    220541.54904906
  -Hartree energ DENC   =   -341930.88104438
  -exchange      EXHF   =         0.00000000
  -V(xc)+E(xc)   XCENC  =      3649.07921396
  PAW double counting   =    140875.43602989  -145895.58297371
  entropy T*S    EENTRO =        -0.93912235
  eigenvalues    EBANDS =    -15509.26754223
  atomic energy  EATOM  =    136002.60505376
  Solvation  Ediel_sol  =         0.00000000
  ---------------------------------------------------
  free energy    TOTEN  =      -374.90809944 eV

  energy without entropy =     -373.96897709  energy(sigma->0) =     -374.43853826


--------------------------------------------------------------------------------------------------------




--------------------------------------- Iteration      1(  12)  ---------------------------------------


    POTLOK:  cpu time    0.2433: real time    0.2433
    SETDIJ:  cpu time    0.0172: real time    0.0172
     EDDAV:  cpu time    7.6456: real time    7.6491
       DOS:  cpu time    0.0011: real time    0.0011
    CHARGE:  cpu time    0.2107: real time    0.2107
    MIXING:  cpu time    0.0109: real time    0.0109
    --------------------------------------------
      LOOP:  cpu time    8.1289: real time    8.1324

 eigenvalue-minimisations  :  1296
 total energy-change (2. order) : 0.7199312E+01  (-0.3060269E+01)
 number of electron     791.9999464 magnetization 
 augmentation part      312.9588753 magnetization 

 Broyden mixing:
  rms(total) = 0.44125E+01    rms(broyden)= 0.44095E+01
  rms(prec ) = 0.51081E+01
  weight for this iteration     100.00

 eigenvalues of (default mixing * dielectric matrix)
  average eigenvalue GAMMA=   0.6151
  2.4384  0.4531  0.4531  0.4597  0.2132  0.1442  0.1442

 Free energy of the ion-electron system (eV)
  ---------------------------------------------------
  alpha Z        PSCENC =      1893.09323658
  Ewald energy   TEWEN  =    220541.54904906
  -Hartree energ DENC   =   -341852.39168128
  -exchange      EXHF   =         0.00000000
  -V(xc)+E(xc)   XCENC  =      3646.79090707
  PAW double counting   =    142744.02496453  -147770.14555970
  entropy T*S    EENTRO =        -0.92765705
  eigenvalues    EBANDS =    -15572.30709992
  atomic energy  EATOM  =    136002.60505376
  Solvation  Ediel_sol  =         0.00000000
  ---------------------------------------------------
  free energy    TOTEN  =      -367.70878695 eV

  energy without entropy =     -366.78112990  energy(sigma->0) =     -367.24495842


--------------------------------------------------------------------------------------------------------




--------------------------------------- Iteration      1(  13)  ---------------------------------------


    POTLOK:  cpu time    0.2430: real time    0.2430
    SETDIJ:  cpu time    0.0173: real time    0.0173
     EDDAV:  cpu time    7.4367: real time    7.4386
       DOS:  cpu time    0.0011: real time    0.0011
    CHARGE:  cpu time    0.2098: real time    0.2098
    MIXING:  cpu time    0.0115: real time    0.0115
    --------------------------------------------
      LOOP:  cpu time    7.9193: real time    7.9213

 eigenvalue-minimisations  :  1296
 total energy-change (2. order) : 0.7118495E+01  (-0.1933262E+01)
 number of electron     791.9999427 magnetization 
 augmentation part      314.0352744 magnetization 

 Broyden mixing:
  rms(total) = 0.28726E+01    rms(broyden)= 0.28708E+01
  rms(prec ) = 0.32918E+01
  weight for this iteration     100.00

 eigenvalues of (default mixing * dielectric matrix)
  average eigenvalue GAMMA=   0.5765
  2.2917  0.4851  0.4851  0.4570  0.4570  0.1535  0.1535  0.1290

 Free energy of the ion-electron system (eV)
  ---------------------------------------------------
  alpha Z        PSCENC =      1893.09323658
  Ewald energy   TEWEN  =    220541.54904906
  -Hartree energ DENC   =   -341845.44879988
  -exchange      EXHF   =         0.00000000
  -V(xc)+E(xc)   XCENC  =      3646.79012870
  PAW double counting   =    142551.76704227  -147575.88741504
  entropy T*S    EENTRO =        -0.93638719
  eigenvalues    EBANDS =    -15574.12220060
  atomic energy  EATOM  =    136002.60505376
  Solvation  Ediel_sol  =         0.00000000
  ---------------------------------------------------
  free energy    TOTEN  =      -360.59029235 eV

  energy without entropy =     -359.65390516  energy(sigma->0) =     -360.12209876


--------------------------------------------------------------------------------------------------------




--------------------------------------- Iteration      1(  14)  ---------------------------------------


    POTLOK:  cpu time    0.2451: real time    0.2451
    SETDIJ:  cpu time    0.0172: real time    0.0172
     EDDAV:  cpu time    7.7632: real time    7.7672
       DOS:  cpu time    0.0011: real time    0.0011
    CHARGE:  cpu time    0.2128: real time    0.2128
    MIXING:  cpu time    0.0115: real time    0.0115
    --------------------------------------------
      LOOP:  cpu time    8.2509: real time    8.2548

 eigenvalue-minimisations  :  1320
 total energy-change (2. order) : 0.2853172E+01  (-0.7094161E+00)
 number of electron     791.9999434 magnetization 
 augmentation part      313.0847369 magnetization 

 Broyden mixing:
  rms(total) = 0.23981E+01    rms(broyden)= 0.23970E+01
  rms(prec ) = 0.27710E+01
  weight for this iteration     100.00

 eigenvalues of (default mixing * dielectric matrix)
  average eigenvalue GAMMA=   0.5308
  2.2125  0.5316  0.5316  0.4483  0.4483  0.1697  0.1697  0.1329  0.1329

 Free energy of the ion-electron system (eV)
  ---------------------------------------------------
  alpha Z        PSCENC =      1893.09323658
  Ewald energy   TEWEN  =    220541.54904906
  -Hartree energ DENC   =   -341895.40435608
  -exchange      EXHF   =         0.00000000
  -V(xc)+E(xc)   XCENC  =      3648.13595198
  PAW double counting   =    141747.72161295  -146769.33456328
  entropy T*S    EENTRO =        -0.93733123
  eigenvalues    EBANDS =    -15525.16577402
  atomic energy  EATOM  =    136002.60505376
  Solvation  Ediel_sol  =         0.00000000
  ---------------------------------------------------
  free energy    TOTEN  =      -357.73712029 eV

  energy without entropy =     -356.79978906  energy(sigma->0) =     -357.26845468


--------------------------------------------------------------------------------------------------------




--------------------------------------- Iteration      1(  15)  ---------------------------------------


    POTLOK:  cpu time    0.2429: real time    0.2429
    SETDIJ:  cpu time    0.0172: real time    0.0172
     EDDAV:  cpu time    7.4917: real time    7.4969
       DOS:  cpu time    0.0011: real time    0.0011
    CHARGE:  cpu time    0.2677: real time    0.2679
    MIXING:  cpu time    0.0132: real time    0.0132
    --------------------------------------------
      LOOP:  cpu time    8.0338: real time    8.0391

 eigenvalue-minimisations  :  1312
 total energy-change (2. order) : 0.1975988E+01  (-0.3868186E+00)
 number of electron     791.9999434 magnetization 
 augmentation part      312.8156104 magnetization 

 Broyden mixing:
  rms(total) = 0.19576E+01    rms(broyden)= 0.19571E+01
  rms(prec ) = 0.22135E+01
  weight for this iteration     100.00

 eigenvalues of (default mixing * dielectric matrix)
  average eigenvalue GAMMA=   0.5083
  2.1661  0.5770  0.5770  0.4055  0.4055  0.3578  0.1874  0.1443  0.1443  0.1181

 Free energy of the ion-electron system (eV)
  ---------------------------------------------------
  alpha Z        PSCENC =      1893.09323658
  Ewald energy   TEWEN  =    220541.54904906
  -Hartree energ DENC   =   -341907.03714100
  -exchange      EXHF   =         0.00000000
  -V(xc)+E(xc)   XCENC  =      3648.69520576
  PAW double counting   =    141369.83497869  -146389.72978940
  entropy T*S    EENTRO =        -0.93049067
  eigenvalues    EBANDS =    -15513.84123556
  atomic energy  EATOM  =    136002.60505376
  Solvation  Ediel_sol  =         0.00000000
  ---------------------------------------------------
  free energy    TOTEN  =      -355.76113279 eV

  energy without entropy =     -354.83064212  energy(sigma->0) =     -355.29588745


--------------------------------------------------------------------------------------------------------




--------------------------------------- Iteration      1(  16)  ---------------------------------------


    POTLOK:  cpu time    0.2457: real time    0.2457
    SETDIJ:  cpu time    0.0172: real time    0.0172
     EDDAV:  cpu time    7.7314: real time    7.7322
       DOS:  cpu time    0.0013: real time    0.0013
    CHARGE:  cpu time    0.2110: real time    0.2110
    MIXING:  cpu time    0.0125: real time    0.0125
    --------------------------------------------
      LOOP:  cpu time    8.2190: real time    8.2199

 eigenvalue-minimisations  :  1304
 total energy-change (2. order) : 0.5744833E+00  (-0.1295001E+00)
 number of electron     791.9999442 magnetization 
 augmentation part      312.4475868 magnetization 

 Broyden mixing:
  rms(total) = 0.18718E+01    rms(broyden)= 0.18716E+01
  rms(prec ) = 0.21103E+01
  weight for this iteration     100.00

 eigenvalues of (default mixing * dielectric matrix)
  average eigenvalue GAMMA=   0.5180
  2.1619  0.7246  0.7246  0.4469  0.4469  0.4161  0.2080  0.1593  0.1593  0.1339
  0.1165

 Free energy of the ion-electron system (eV)
  ---------------------------------------------------
  alpha Z        PSCENC =      1893.09323658
  Ewald energy   TEWEN  =    220541.54904906
  -Hartree energ DENC   =   -341920.20436592
  -exchange      EXHF   =         0.00000000
  -V(xc)+E(xc)   XCENC  =      3648.96638922
  PAW double counting   =    141085.11265598  -146102.60182803
  entropy T*S    EENTRO =        -0.94480395
  eigenvalues    EBANDS =    -15502.76203615
  atomic energy  EATOM  =    136002.60505376
  Solvation  Ediel_sol  =         0.00000000
  ---------------------------------------------------
  free energy    TOTEN  =      -355.18664946 eV

  energy without entropy =     -354.24184550  energy(sigma->0) =     -354.71424748


--------------------------------------------------------------------------------------------------------




--------------------------------------- Iteration      1(  17)  ---------------------------------------


    POTLOK:  cpu time    0.2451: real time    0.2453
    SETDIJ:  cpu time    0.0171: real time    0.0171
     EDDAV:  cpu time    7.3949: real time    7.4013
       DOS:  cpu time    0.0011: real time    0.0011
    CHARGE:  cpu time    0.2126: real time    0.2126
    MIXING:  cpu time    0.0132: real time    0.0132
    --------------------------------------------
      LOOP:  cpu time    7.8840: real time    7.8907

 eigenvalue-minimisations  :  1288
 total energy-change (2. order) : 0.6583576E+00  (-0.4414064E-01)
 number of electron     791.9999443 magnetization 
 augmentation part      312.3087683 magnetization 

 Broyden mixing:
  rms(total) = 0.17312E+01    rms(broyden)= 0.17311E+01
  rms(prec ) = 0.19561E+01
  weight for this iteration     100.00

 eigenvalues of (default mixing * dielectric matrix)
  average eigenvalue GAMMA=   0.5160
  2.1686  0.8363  0.8363  0.4561  0.4561  0.3861  0.2940  0.1784  0.1784  0.1425
  0.1425  0.1169

 Free energy of the ion-electron system (eV)
  ---------------------------------------------------
  alpha Z        PSCENC =      1893.09323658
  Ewald energy   TEWEN  =    220541.54904906
  -Hartree energ DENC   =   -341928.51656686
  -exchange      EXHF   =         0.00000000
  -V(xc)+E(xc)   XCENC  =      3649.14923324
  PAW double counting   =    140856.56518908  -145871.62009122
  entropy T*S    EENTRO =        -0.95582943
  eigenvalues    EBANDS =    -15496.39756603
  atomic energy  EATOM  =    136002.60505376
  Solvation  Ediel_sol  =         0.00000000
  ---------------------------------------------------
  free energy    TOTEN  =      -354.52829183 eV

  energy without entropy =     -353.57246240  energy(sigma->0) =     -354.05037711


--------------------------------------------------------------------------------------------------------




--------------------------------------- Iteration      1(  18)  ---------------------------------------


    POTLOK:  cpu time    0.2444: real time    0.2444
    SETDIJ:  cpu time    0.0173: real time    0.0173
     EDDAV:  cpu time    7.5210: real time    7.5250
       DOS:  cpu time    0.0012: real time    0.0012
    CHARGE:  cpu time    0.2207: real time    0.2208
    MIXING:  cpu time    0.0139: real time    0.0139
    --------------------------------------------
      LOOP:  cpu time    8.0185: real time    8.0225

 eigenvalue-minimisations  :  1272
 total energy-change (2. order) : 0.3776876E+00  (-0.2384377E-01)
 number of electron     791.9999443 magnetization 
 augmentation part      312.2566085 magnetization 

 Broyden mixing:
  rms(total) = 0.16036E+01    rms(broyden)= 0.16035E+01
  rms(prec ) = 0.18135E+01
  weight for this iteration     100.00

 eigenvalues of (default mixing * dielectric matrix)
  average eigenvalue GAMMA=   0.5770
  2.1657  1.2398  1.2398  0.4961  0.4961  0.4542  0.4542  0.2100  0.1800  0.1548
  0.1548  0.1385  0.1164

 Free energy of the ion-electron system (eV)
  ---------------------------------------------------
  alpha Z        PSCENC =      1893.09323658
  Ewald energy   TEWEN  =    220541.54904906
  -Hartree energ DENC   =   -341931.74511854
  -exchange      EXHF   =         0.00000000
  -V(xc)+E(xc)   XCENC  =      3649.23635752
  PAW double counting   =    140700.53197856  -145713.69664122
  entropy T*S    EENTRO =        -0.95860321
  eigenvalues    EBANDS =    -15494.76591671
  atomic energy  EATOM  =    136002.60505376
  Solvation  Ediel_sol  =         0.00000000
  ---------------------------------------------------
  free energy    TOTEN  =      -354.15060421 eV

  energy without entropy =     -353.19200100  energy(sigma->0) =     -353.67130261


--------------------------------------------------------------------------------------------------------




--------------------------------------- Iteration      1(  19)  ---------------------------------------


    POTLOK:  cpu time    0.2466: real time    0.2467
    SETDIJ:  cpu time    0.0173: real time    0.0173
     EDDAV:  cpu time    8.1181: real time    8.1201
       DOS:  cpu time    0.0016: real time    0.0016
    CHARGE:  cpu time    0.2135: real time    0.2135
    MIXING:  cpu time    0.0131: real time    0.0131
    --------------------------------------------
      LOOP:  cpu time    8.6101: real time    8.6123

 eigenvalue-minimisations  :  1456
 total energy-change (2. order) : 0.1047545E+01  (-0.2764322E-01)
 number of electron     791.9999447 magnetization 
 augmentation part      312.1965340 magnetization 

 Broyden mixing:
  rms(total) = 0.13360E+01    rms(broyden)= 0.13359E+01
  rms(prec ) = 0.15116E+01
  weight for this iteration     100.00

 eigenvalues of (default mixing * dielectric matrix)
  average eigenvalue GAMMA=   0.6089
  2.1624  1.5911  1.5911  0.5110  0.5110  0.4729  0.4729  0.2635  0.2158  0.1639
  0.1639  0.1444  0.1444  0.1165

 Free energy of the ion-electron system (eV)
  ---------------------------------------------------
  alpha Z        PSCENC =      1893.09323658
  Ewald energy   TEWEN  =    220541.54904906
  -Hartree energ DENC   =   -341944.93165867
  -exchange      EXHF   =         0.00000000
  -V(xc)+E(xc)   XCENC  =      3649.48508253
  PAW double counting   =    140165.00737788  -145172.00009229
  entropy T*S    EENTRO =        -0.97324950
  eigenvalues    EBANDS =    -15486.93785823
  atomic energy  EATOM  =    136002.60505376
  Solvation  Ediel_sol  =         0.00000000
  ---------------------------------------------------
  free energy    TOTEN  =      -353.10305888 eV

  energy without entropy =     -352.12980939  energy(sigma->0) =     -352.61643413


--------------------------------------------------------------------------------------------------------




--------------------------------------- Iteration      1(  20)  ---------------------------------------


    POTLOK:  cpu time    0.2465: real time    0.2466
    SETDIJ:  cpu time    0.0171: real time    0.0171
     EDDAV:  cpu time    7.7616: real time    7.7631
       DOS:  cpu time    0.0012: real time    0.0012
    CHARGE:  cpu time    0.2136: real time    0.2136
    MIXING:  cpu time    0.0138: real time    0.0138
    --------------------------------------------
      LOOP:  cpu time    8.2539: real time    8.2556

 eigenvalue-minimisations  :  1328
 total energy-change (2. order) : 0.1041471E+01  (-0.6088359E-01)
 number of electron     791.9999448 magnetization 
 augmentation part      312.0707422 magnetization 

 Broyden mixing:
  rms(total) = 0.92413E+00    rms(broyden)= 0.92393E+00
  rms(prec ) = 0.10420E+01
  weight for this iteration     100.00

 eigenvalues of (default mixing * dielectric matrix)
  average eigenvalue GAMMA=   0.6482
  2.1873  1.8490  1.8490  0.6638  0.6638  0.4654  0.4654  0.4529  0.2223  0.1164
  0.1720  0.1602  0.1602  0.1433  0.1522

 Free energy of the ion-electron system (eV)
  ---------------------------------------------------
  alpha Z        PSCENC =      1893.09323658
  Ewald energy   TEWEN  =    220541.54904906
  -Hartree energ DENC   =   -341964.94738041
  -exchange      EXHF   =         0.00000000
  -V(xc)+E(xc)   XCENC  =      3649.77820362
  PAW double counting   =    139529.73375647  -144529.07672642
  entropy T*S    EENTRO =        -0.99663788
  eigenvalues    EBANDS =    -15473.80014253
  atomic energy  EATOM  =    136002.60505376
  Solvation  Ediel_sol  =         0.00000000
  ---------------------------------------------------
  free energy    TOTEN  =      -352.06158775 eV

  energy without entropy =     -351.06494987  energy(sigma->0) =     -351.56326881


--------------------------------------------------------------------------------------------------------




--------------------------------------- Iteration      1(  21)  ---------------------------------------


    POTLOK:  cpu time    0.2485: real time    0.2486
    SETDIJ:  cpu time    0.0172: real time    0.0172
     EDDAV:  cpu time    8.1178: real time    8.1190
       DOS:  cpu time    0.0013: real time    0.0013
    CHARGE:  cpu time    0.2128: real time    0.2129
    MIXING:  cpu time    0.0144: real time    0.0144
    --------------------------------------------
      LOOP:  cpu time    8.6121: real time    8.6134

 eigenvalue-minimisations  :  1336
 total energy-change (2. order) : 0.5370982E+00  (-0.7311681E-01)
 number of electron     791.9999455 magnetization 
 augmentation part      311.9190424 magnetization 

 Broyden mixing:
  rms(total) = 0.45803E+00    rms(broyden)= 0.45746E+00
  rms(prec ) = 0.49539E+00
  weight for this iteration     100.00

 eigenvalues of (default mixing * dielectric matrix)
  average eigenvalue GAMMA=   0.6337
  2.1906  1.8869  1.8869  0.7183  0.7183  0.4666  0.4666  0.4467  0.2218  0.2218
  0.1164  0.1842  0.1614  0.1614  0.1454  0.1454

 Free energy of the ion-electron system (eV)
  ---------------------------------------------------
  alpha Z        PSCENC =      1893.09323658
  Ewald energy   TEWEN  =    220541.54904906
  -Hartree energ DENC   =   -341985.71663158
  -exchange      EXHF   =         0.00000000
  -V(xc)+E(xc)   XCENC  =      3650.05182947
  PAW double counting   =    139028.07616414  -144020.56230619
  entropy T*S    EENTRO =        -1.03711712
  eigenvalues    EBANDS =    -15459.58376767
  atomic energy  EATOM  =    136002.60505376
  Solvation  Ediel_sol  =         0.00000000
  ---------------------------------------------------
  free energy    TOTEN  =      -351.52448957 eV

  energy without entropy =     -350.48737245  energy(sigma->0) =     -351.00593101


--------------------------------------------------------------------------------------------------------




--------------------------------------- Iteration      1(  22)  ---------------------------------------


    POTLOK:  cpu time    0.2488: real time    0.2488
    SETDIJ:  cpu time    0.0171: real time    0.0171
     EDDAV:  cpu time    7.5756: real time    7.5770
       DOS:  cpu time    0.0013: real time    0.0013
    CHARGE:  cpu time    0.2178: real time    0.2179
    MIXING:  cpu time    0.0152: real time    0.0152
    --------------------------------------------
      LOOP:  cpu time    8.0758: real time    8.0772

 eigenvalue-minimisations  :  1280
 total energy-change (2. order) : 0.4165644E-01  (-0.3458330E-01)
 number of electron     791.9999454 magnetization 
 augmentation part      311.8875928 magnetization 

 Broyden mixing:
  rms(total) = 0.35941E+00    rms(broyden)= 0.35922E+00
  rms(prec ) = 0.38584E+00
  weight for this iteration     100.00

 eigenvalues of (default mixing * dielectric matrix)
  average eigenvalue GAMMA=   0.6522
  2.1601  1.9223  1.9223  0.9245  0.9245  0.4794  0.4794  0.4944  0.4944  0.2202
  0.1887  0.1164  0.1626  0.1626  0.1471  0.1471  0.1407

 Free energy of the ion-electron system (eV)
  ---------------------------------------------------
  alpha Z        PSCENC =      1893.09323658
  Ewald energy   TEWEN  =    220541.54904906
  -Hartree energ DENC   =   -341990.08996156
  -exchange      EXHF   =         0.00000000
  -V(xc)+E(xc)   XCENC  =      3650.05862145
  PAW double counting   =    138953.28024698  -143944.40891165
  entropy T*S    EENTRO =        -1.02326992
  eigenvalues    EBANDS =    -15456.54689783
  atomic energy  EATOM  =    136002.60505376
  Solvation  Ediel_sol  =         0.00000000
  ---------------------------------------------------
  free energy    TOTEN  =      -351.48283313 eV

  energy without entropy =     -350.45956321  energy(sigma->0) =     -350.97119817


--------------------------------------------------------------------------------------------------------




--------------------------------------- Iteration      1(  23)  ---------------------------------------


    POTLOK:  cpu time    0.2511: real time    0.2511
    SETDIJ:  cpu time    0.0172: real time    0.0172
     EDDAV:  cpu time    6.9085: real time    6.9099
       DOS:  cpu time    0.0013: real time    0.0013
    CHARGE:  cpu time    0.2131: real time    0.2131
    MIXING:  cpu time    0.0156: real time    0.0156
    --------------------------------------------
      LOOP:  cpu time    7.4068: real time    7.4081

 eigenvalue-minimisations  :  1152
 total energy-change (2. order) : 0.2160520E-01  (-0.8068332E-02)
 number of electron     791.9999453 magnetization 
 augmentation part      311.9576088 magnetization 

 Broyden mixing:
  rms(total) = 0.28322E+00    rms(broyden)= 0.28317E+00
  rms(prec ) = 0.31141E+00
  weight for this iteration     100.00

 eigenvalues of (default mixing * dielectric matrix)
  average eigenvalue GAMMA=   0.6662
  2.1241  1.9212  1.9212  1.1605  1.1605  0.4828  0.4828  0.5105  0.5105  0.4255
  0.2211  0.1164  0.1853  0.1630  0.1630  0.1491  0.1491  0.1445

 Free energy of the ion-electron system (eV)
  ---------------------------------------------------
  alpha Z        PSCENC =      1893.09323658
  Ewald energy   TEWEN  =    220541.54904906
  -Hartree energ DENC   =   -341996.26322140
  -exchange      EXHF   =         0.00000000
  -V(xc)+E(xc)   XCENC  =      3650.00557916
  PAW double counting   =    138799.17290878  -143788.14293022
  entropy T*S    EENTRO =        -1.02741969
  eigenvalues    EBANDS =    -15452.45348396
  atomic energy  EATOM  =    136002.60505376
  Solvation  Ediel_sol  =         0.00000000
  ---------------------------------------------------
  free energy    TOTEN  =      -351.46122793 eV

  energy without entropy =     -350.43380824  energy(sigma->0) =     -350.94751809


--------------------------------------------------------------------------------------------------------




--------------------------------------- Iteration      1(  24)  ---------------------------------------


    POTLOK:  cpu time    0.2516: real time    0.2517
    SETDIJ:  cpu time    0.0173: real time    0.0173
     EDDAV:  cpu time    6.7147: real time    6.7161
       DOS:  cpu time    0.0013: real time    0.0013
    CHARGE:  cpu time    0.4585: real time    0.4586
    MIXING:  cpu time    0.0174: real time    0.0174
    --------------------------------------------
      LOOP:  cpu time    7.4608: real time    7.4624

 eigenvalue-minimisations  :  1136
 total energy-change (2. order) :-0.2470058E-01  (-0.1618992E-01)
 number of electron     791.9999456 magnetization 
 augmentation part      312.0551824 magnetization 

 Broyden mixing:
  rms(total) = 0.35352E+00    rms(broyden)= 0.35327E+00
  rms(prec ) = 0.38927E+00
  weight for this iteration     100.00

 eigenvalues of (default mixing * dielectric matrix)
  average eigenvalue GAMMA=   0.6938
  2.1215  1.8690  1.8690  1.4969  1.4969  0.7230  0.7230  0.4753  0.4753  0.4821
  0.2200  0.1892  0.1164  0.1638  0.1638  0.1591  0.1477  0.1477  0.1433

 Free energy of the ion-electron system (eV)
  ---------------------------------------------------
  alpha Z        PSCENC =      1893.09323658
  Ewald energy   TEWEN  =    220541.54904906
  -Hartree energ DENC   =   -341999.32267300
  -exchange      EXHF   =         0.00000000
  -V(xc)+E(xc)   XCENC  =      3649.92727133
  PAW double counting   =    138689.29968262  -143676.64748575
  entropy T*S    EENTRO =        -1.02255314
  eigenvalues    EBANDS =    -15450.96750997
  atomic energy  EATOM  =    136002.60505376
  Solvation  Ediel_sol  =         0.00000000
  ---------------------------------------------------
  free energy    TOTEN  =      -351.48592851 eV

  energy without entropy =     -350.46337538  energy(sigma->0) =     -350.97465195


--------------------------------------------------------------------------------------------------------




--------------------------------------- Iteration      1(  25)  ---------------------------------------


    POTLOK:  cpu time    0.2503: real time    0.2503
    SETDIJ:  cpu time    0.0172: real time    0.0172
     EDDAV:  cpu time    7.1314: real time    7.1327
       DOS:  cpu time    0.0012: real time    0.0012
    CHARGE:  cpu time    0.2120: real time    0.2121
    MIXING:  cpu time    0.0177: real time    0.0177
    --------------------------------------------
      LOOP:  cpu time    7.6297: real time    7.6311

 eigenvalue-minimisations  :  1232
 total energy-change (2. order) : 0.4832216E-01  (-0.1156152E-01)
 number of electron     791.9999457 magnetization 
 augmentation part      312.2607425 magnetization 

 Broyden mixing:
  rms(total) = 0.17596E+00    rms(broyden)= 0.17563E+00
  rms(prec ) = 0.19203E+00
  weight for this iteration     100.00

 eigenvalues of (default mixing * dielectric matrix)
  average eigenvalue GAMMA=   0.6891
  2.2558  2.2558  1.8300  1.8300  0.9258  0.7862  0.7862  0.4752  0.4752  0.4844
  0.2241  0.2241  0.1164  0.1838  0.1634  0.1634  0.1643  0.1479  0.1479  0.1426

 Free energy of the ion-electron system (eV)
  ---------------------------------------------------
  alpha Z        PSCENC =      1893.09323658
  Ewald energy   TEWEN  =    220541.54904906
  -Hartree energ DENC   =   -342007.79522050
  -exchange      EXHF   =         0.00000000
  -V(xc)+E(xc)   XCENC  =      3649.80052699
  PAW double counting   =    138598.77805798  -143584.39796299
  entropy T*S    EENTRO =        -1.02721908
  eigenvalues    EBANDS =    -15444.04312815
  atomic energy  EATOM  =    136002.60505376
  Solvation  Ediel_sol  =         0.00000000
  ---------------------------------------------------
  free energy    TOTEN  =      -351.43760636 eV

[...]
    FORCOR:  cpu time    0.3374: real time    0.3374
    FORHAR:  cpu time    0.1494: real time    0.1494
    MIXING:  cpu time    0.0670: real time    0.0671
    OFIELD:  cpu time    0.0001: real time    0.0001

  FORCE on cell =-STRESS in cart. coord.  units (eV):
  Direction    XX          YY          ZZ          XY          YZ          ZX
  --------------------------------------------------------------------------------------
  Alpha Z  1893.09324  1893.09324  1893.09324
  Ewald  270822.24413271799.47184************ -1167.79896  -671.05479  1016.25120
  Hartree306720.57202307508.81944************  -899.23439  -597.73817   887.30634
  E(xc)   -5050.26250 -5050.06422 -5055.65131    -0.69248    -0.39208     0.27297
  Local  ************************581202.73517  2051.36115  1257.41648 -1894.66519
  n-local  -614.23077  -618.61876  -625.00167     0.04187     7.35978    -5.77192
  augment  5784.53254  5786.40617  5809.75238     3.71864    -1.42316     1.32775
  Kinetic 11066.36948 11069.14397 11144.37162    10.97289     8.15718    -6.61829
  Fock        0.00000     0.00000     0.00000     0.00000     0.00000     0.00000
  -------------------------------------------------------------------------------------
  Total      81.56540    75.55748   100.88562    -1.63127     2.32525    -1.89713
  in kB      66.50547    61.60683    82.25847    -1.33008     1.89592    -1.54685
  external pressure =       70.12 kB  Pullay stress =        0.00 kB


 VOLUME and BASIS-vectors are now :
 -----------------------------------------------------------------------------
  energy-cutoff  :      450.00
  volume of cell :     1964.98
      direct lattice vectors                 reciprocal lattice vectors
    10.079732985  0.000000000  0.000000000     0.099208977 -0.037612667  0.000000000
     3.573298043  9.425102554  0.000000000     0.000000000  0.106099641  0.000000000
     0.000000000  0.000000000 20.683503555     0.000000000  0.000000000  0.048347708

  length of vectors
    10.079732985 10.079732985 20.683503555     0.106099641  0.106099641  0.048347708


 FORCES acting on ions
    electron-ion (+dipol)            ewald-force                    non-local-force                 convergence-correction
 -----------------------------------------------------------------------------------------------
   -.149E+03 -.775E+03 0.369E+04   0.152E+03 0.782E+03 -.369E+04   -.201E+01 -.585E+01 0.501E+00   -.892E-03 0.452E-02 0.951E-02
   -.169E+02 -.500E+03 0.822E+02   0.162E+02 0.501E+03 -.823E+02   0.645E+00 -.143E+01 0.144E+00   0.253E-02 -.140E-01 -.266E-01
   -.161E+02 -.565E+03 -.306E+04   0.165E+02 0.568E+03 0.306E+04   -.143E+00 -.273E+01 0.260E+00   0.122E-01 -.500E-01 -.608E-01
   -.192E+03 -.513E+03 -.564E+04   0.191E+03 0.509E+03 0.563E+04   0.731E+00 0.346E+01 0.594E+01   0.787E-02 -.109E-01 -.375E-01
   -.140E+02 -.165E+03 0.183E+04   0.137E+02 0.165E+03 -.182E+04   0.550E+00 0.123E+00 -.274E+01   0.376E-02 -.647E-02 0.277E-01
   0.367E+02 -.400E+03 -.108E+04   -.377E+02 0.401E+03 0.108E+04   0.965E+00 -.114E+01 -.157E+00   -.154E-02 -.329E-03 -.341E-01
   0.808E+02 -.715E+03 -.441E+04   -.821E+02 0.717E+03 0.441E+04   0.759E+00 -.160E+01 -.245E+01   -.618E-02 0.467E-01 -.525E-01
   0.230E+03 -.370E+03 0.460E+04   -.232E+03 0.369E+03 -.461E+04   0.255E+01 0.911E+00 0.426E+01   0.479E-03 0.210E-01 0.336E-01
   0.923E+02 -.889E+02 -.493E+04   -.929E+02 0.927E+02 0.493E+04   -.175E-01 -.354E+01 -.375E+01   -.117E-01 0.147E-02 -.398E-01
   -.266E+03 -.219E+01 0.341E+04   0.268E+03 0.467E+01 -.342E+04   -.166E+01 -.214E+01 0.422E+01   0.968E-03 -.101E-01 0.188E-01
   -.308E+03 -.440E+03 0.115E+04   0.312E+03 0.443E+03 -.115E+04   -.277E+01 -.337E+01 -.109E+01   -.179E-03 0.347E-02 -.127E-01
   -.300E+02 -.418E+03 -.182E+04   0.298E+02 0.419E+03 0.181E+04   0.308E+00 -.151E+01 0.145E+01   0.264E-02 0.154E-01 -.532E-01
   0.385E+03 0.127E+03 0.441E+04   -.388E+03 -.132E+03 -.442E+04   0.124E+01 0.414E+01 0.279E+01   0.873E-03 -.358E-02 0.171E-01
   0.278E+03 0.237E+02 0.885E+03   -.278E+03 -.219E+02 -.883E+03   -.411E+00 -.125E+01 -.218E+01   0.333E-03 -.186E-01 -.505E-02
   0.522E+03 0.209E+03 -.193E+04   -.524E+03 -.210E+03 0.192E+04   0.200E+01 0.429E+00 0.186E+01   0.155E-01 0.477E-02 -.496E-01
   0.458E+03 0.263E+03 -.496E+04   -.460E+03 -.265E+03 0.496E+04   0.129E+01 0.191E+01 -.342E+01   0.177E-01 0.268E-01 -.404E-01
   0.706E+03 0.640E+03 0.331E+04   -.709E+03 -.642E+03 -.331E+04   0.249E+01 0.135E+01 -.275E-01   -.550E-02 -.122E-01 0.366E-01
   0.426E+03 0.343E+03 0.187E+03   -.427E+03 -.343E+03 -.187E+03   0.152E+01 0.104E+00 0.464E+00   -.107E-02 0.171E-01 -.297E-01
   0.389E+03 0.423E+02 -.280E+04   -.392E+03 -.427E+02 0.279E+04   0.231E+01 0.727E+00 0.697E+00   -.202E-01 0.377E-01 -.897E-01
   -.133E+03 0.402E+03 -.525E+04   0.129E+03 -.403E+03 0.525E+04   0.529E+01 0.890E+00 -.153E+01   -.155E-01 -.140E-01 -.269E-01
   0.399E+03 -.910E+02 0.588E+04   -.401E+03 0.893E+02 -.589E+04   0.917E+00 0.268E+01 0.640E+01   0.177E-02 -.168E-02 0.343E-01
   0.281E+03 0.356E+03 -.428E+04   -.285E+03 -.358E+03 0.428E+04   0.273E+01 0.150E+01 -.232E-01   0.273E-02 -.266E-01 -.429E-01
   0.607E+03 0.253E+03 0.227E+04   -.610E+03 -.258E+03 -.227E+04   0.235E+01 0.361E+01 -.344E+00   0.958E-02 0.144E-01 -.236E-02
   0.431E+03 0.333E+03 -.948E+03   -.432E+03 -.333E+03 0.948E+03   0.150E+01 0.412E+00 0.400E-01   0.372E-02 -.105E-01 -.409E-01
   -.760E+03 0.103E+03 -.404E+04   0.765E+03 -.104E+03 0.405E+04   -.437E+01 0.129E+01 -.115E+01   -.612E-02 0.202E-01 -.487E-01
   -.520E+03 0.195E+02 0.525E+04   0.521E+03 -.169E+02 -.526E+04   0.465E+00 -.331E+01 0.489E+01   -.153E-02 -.709E-04 0.178E-01
   -.500E+03 0.296E+03 0.221E+04   0.500E+03 -.297E+03 -.221E+04   -.231E+00 0.517E+00 -.142E+01   -.745E-03 -.139E-01 0.890E-02
   -.471E+03 0.125E+03 -.806E+03   0.472E+03 -.124E+03 0.803E+03   -.494E+00 -.653E+00 0.287E+01   -.614E-02 -.481E-02 -.275E-01
   -.441E+03 0.505E+03 0.453E+04   0.445E+03 -.507E+03 -.453E+04   -.154E+01 0.180E+01 0.444E+01   0.166E-01 -.116E-01 0.401E-01
   -.126E+03 0.404E+03 0.106E+04   0.122E+03 -.405E+03 -.106E+04   0.235E+01 0.862E+00 -.133E+01   0.251E-02 0.109E-01 -.183E-01
   -.266E+03 0.131E+03 -.182E+04   0.267E+03 -.132E+03 0.182E+04   -.177E+01 0.119E+01 0.257E+01   0.419E-02 0.298E-01 -.883E-01
   -.182E+03 0.335E+03 -.499E+04   0.182E+03 -.337E+03 0.499E+04   -.264E+00 0.114E+01 0.200E+01   0.267E-01 -.135E-02 -.387E-01
   -.667E+03 -.155E+03 0.355E+04   0.671E+03 0.158E+03 -.355E+04   -.379E+01 -.169E+01 0.162E+01   -.105E-01 0.131E-01 0.119E-01
   -.488E+03 0.138E+03 0.123E+03   0.490E+03 -.138E+03 -.123E+03   -.102E+01 -.339E+00 0.135E+00   -.109E-01 -.200E-03 -.272E-01
   -.356E+03 0.424E+03 -.330E+04   0.360E+03 -.427E+03 0.330E+04   -.427E+01 0.280E+01 -.144E+01   -.222E-01 -.346E-01 -.552E-01
   -.343E+02 -.148E+03 0.524E+04   0.337E+02 0.152E+03 -.525E+04   -.740E+00 -.393E+01 0.729E+01   0.369E-02 -.140E-02 0.314E-01
   -.118E+03 0.929E+02 -.208E+04   0.118E+03 -.940E+02 0.208E+04   -.188E+00 0.705E+00 -.181E+01   0.910E-03 0.826E-02 -.105E-01
   -.111E+03 0.241E+03 0.175E+04   0.113E+03 -.245E+03 -.175E+04   -.185E+01 0.238E+01 0.405E+01   -.104E-02 -.282E-02 0.793E-02
   -.740E+02 0.117E+03 0.331E+03   0.740E+02 -.118E+03 -.332E+03   0.236E+00 0.168E+01 0.793E+00   0.162E-02 -.250E-02 -.470E-03
   -.139E+01 0.143E+03 -.742E+03   0.316E+00 -.145E+03 0.737E+03   0.708E+00 0.164E+01 0.152E+01   0.274E-02 0.964E-02 -.219E-01
   0.115E+03 0.470E+03 0.222E+04   -.115E+03 -.473E+03 -.223E+04   0.203E+00 0.142E+01 0.738E+00   0.117E-02 -.114E-01 0.123E-01
   0.483E+02 0.219E+03 0.122E+04   -.483E+02 -.221E+03 -.122E+04   0.605E-01 0.897E+00 0.964E+00   0.217E-02 0.464E-02 0.677E-02
   0.325E+02 0.129E+03 -.256E+02   -.327E+02 -.131E+03 0.252E+02   0.108E+00 0.218E+01 0.396E+00   0.523E-05 0.875E-02 -.210E-01
   -.644E+02 0.199E+03 -.133E+04   0.657E+02 -.201E+03 0.133E+04   -.130E+01 0.369E+00 -.139E+01   0.550E-02 -.164E-01 -.357E-01
   -.372E+02 0.699E+02 0.556E+03   0.383E+02 -.711E+02 -.553E+03   -.722E+00 0.116E+01 -.120E+01   -.211E-02 0.717E-03 -.294E-02
   -.252E+02 0.146E+03 -.447E+03   0.254E+02 -.148E+03 0.443E+03   0.179E+00 0.169E+01 0.142E+01   -.239E-02 -.589E-02 -.101E-01
   -.443E+02 0.161E+03 -.174E+04   0.442E+02 -.162E+03 0.174E+04   0.513E+00 -.118E+00 -.339E+00   -.371E-02 0.179E-02 -.165E-01
   0.977E+02 -.152E+02 0.219E+04   -.987E+02 0.138E+02 -.220E+04   0.317E+00 0.458E+00 0.286E+01   0.715E-03 0.568E-02 0.125E-01
   0.295E+02 -.200E+03 0.232E+04   -.292E+02 0.201E+03 -.233E+04   0.584E-01 -.394E+00 0.235E+01   0.925E-04 -.594E-03 0.735E-02
   -.105E+03 -.254E+03 0.107E+04   0.107E+03 0.257E+03 -.107E+04   -.160E+01 -.637E+00 0.121E+01   0.381E-02 0.187E-02 0.296E-03
   -.114E+03 -.111E+03 -.146E+03   0.116E+03 0.112E+03 0.147E+03   -.215E+01 -.182E+01 -.321E+00   0.234E-02 -.119E-01 -.854E-02
   -.252E+03 -.177E+03 -.138E+04   0.254E+03 0.178E+03 0.138E+04   0.843E-02 -.287E+00 -.140E+01   -.114E-03 -.624E-02 -.202E-01
   -.296E+03 -.204E+03 0.188E+04   0.298E+03 0.206E+03 -.188E+04   -.570E+00 -.101E+01 0.648E+00   0.827E-02 0.290E-02 0.155E-01
   0.371E+02 -.163E+03 0.528E+03   -.374E+02 0.166E+03 -.528E+03   -.349E+00 -.294E+01 0.764E+00   -.801E-04 -.465E-02 0.505E-03
   -.826E+02 -.134E+03 -.584E+03   0.839E+02 0.136E+03 0.584E+03   -.149E+01 -.218E+01 -.300E+00   0.230E-02 0.773E-02 -.211E-01
   -.185E+02 -.173E+03 -.180E+04   0.198E+02 0.173E+03 0.181E+04   -.394E+00 0.453E+00 -.789E+00   0.383E-02 0.250E-01 -.171E-01
   -.153E+03 -.129E+03 0.299E+03   0.155E+03 0.131E+03 -.300E+03   -.170E+01 -.208E+01 0.974E+00   -.504E-02 0.624E-02 -.859E-02
   -.151E+03 -.666E+02 -.836E+03   0.153E+03 0.687E+02 0.835E+03   -.139E+01 -.201E+01 -.328E+00   -.110E-01 0.404E-03 -.236E-01
   0.441E+02 0.226E+03 -.219E+04   -.438E+02 -.228E+03 0.219E+04   -.210E+00 0.658E+00 -.196E+01   -.226E-01 -.150E-01 -.691E-02
   -.169E+03 -.174E+03 0.168E+04   0.170E+03 0.176E+03 -.169E+04   0.564E+00 -.163E+01 0.315E+01   -.394E-02 -.334E-02 0.108E-01
   0.829E+02 -.199E+03 0.182E+04   -.863E+02 0.200E+03 -.183E+04   0.237E+01 -.767E+00 0.317E+01   -.381E-02 0.205E-02 0.758E-02
   0.131E+03 -.158E+03 0.512E+03   -.133E+03 0.159E+03 -.511E+03   0.202E+01 -.181E+01 0.853E+00   -.130E-02 -.348E-02 -.459E-02
   0.164E+03 -.703E+02 -.644E+03   -.167E+03 0.718E+02 0.645E+03   0.211E+01 -.927E+00 -.175E+01   0.156E-02 -.132E-01 -.157E-01
   0.423E+03 -.152E+03 -.183E+04   -.428E+03 0.155E+03 0.183E+04   0.311E+01 -.174E+01 -.130E+01   0.353E-02 -.392E-02 -.215E-01
   0.165E+03 -.369E+02 0.174E+03   -.167E+03 0.381E+02 -.174E+03   0.247E+01 -.107E+01 -.271E+00   -.256E-02 -.105E-04 -.293E-02
   0.922E+02 -.899E+02 -.105E+04   -.949E+02 0.914E+02 0.105E+04   0.277E+01 -.166E+01 -.952E+00   -.564E-02 0.113E-01 -.202E-01
   0.287E+02 -.198E+03 -.222E+04   -.297E+02 0.199E+03 0.223E+04   0.661E-01 -.437E+00 -.170E+01   -.337E-02 0.263E-01 -.370E-02
   0.389E+03 0.401E+02 0.148E+04   -.393E+03 -.400E+02 -.148E+04   0.200E+01 0.680E+00 0.137E+01   -.574E-02 -.717E-03 0.170E-01
   0.202E+02 0.178E+03 0.218E+04   -.209E+02 -.178E+03 -.219E+04   0.717E+00 -.307E+00 0.329E+01   0.247E-02 -.155E-02 0.114E-01
   0.208E+03 0.128E+03 0.834E+03   -.210E+03 -.130E+03 -.831E+03   0.121E+01 0.154E+01 -.225E+01   0.261E-02 0.254E-02 0.876E-03
   0.145E+03 -.493E+02 -.210E+03   -.148E+03 0.496E+02 0.211E+03   0.291E+01 -.700E+00 -.843E+00   0.620E-02 0.474E-02 -.203E-01
   0.157E+03 0.764E+02 -.149E+04   -.159E+03 -.757E+02 0.150E+04   0.151E+01 -.957E+00 -.237E+01   0.160E-01 -.116E-01 -.245E-01
 -----------------------------------------------------------------------------------------------
   -.196E+02 0.103E+02 -.402E+02   0.227E-12 -.171E-12 -.614E-11   0.198E+02 -.102E+02 0.410E+02   0.873E-02 0.355E-01 -.889E+00
 
 
 POSITION                                       TOTAL-FORCE (eV/Angst)
 -----------------------------------------------------------------------------------
      6.84285      7.49250      2.62550         0.830844      1.556967      1.930450
      7.82056      6.07621      5.25100        -0.060559     -0.102257      0.066324
      8.79827      4.65991      7.87651         0.275775      0.417157     -0.274470
      9.56513      3.24621     10.02841         0.383916      0.056271      1.457243
      2.61774      3.87870      3.50067         0.258545     -0.713040      2.251295
      3.59545      2.46241      6.12617        -0.036326     -0.403837     -0.057359
      4.57317      1.04611      8.75167        -0.614975      1.142735     -0.782132
     11.97273      5.69359      2.17510        -0.133595     -0.235588     -0.982859
      3.78967      7.37363      9.33743        -0.645130      0.288734      0.634715
      6.29357      2.09324      3.08476         0.226269      0.328512      0.269670
      8.47237      0.26490      4.37584         0.912279     -0.014397      1.069992
     13.02338      8.27371      7.00134         0.124131     -0.382570     -0.332263
      5.77972      5.32734      2.22507        -1.615438     -1.252031     -0.185230
      6.61816      3.96023      4.55733        -0.095186      0.538503      0.645460
      7.59587      2.54394      7.18283         0.140149     -0.323549     -1.539186
      8.39193      1.15429      9.48107        -0.695766      0.372766      1.080969
      1.41534      1.76273      2.80700        -0.898895     -0.723413      1.857243
      2.39305      0.34643      5.43250         0.170559     -0.103426     -0.102260
      6.94406      8.35524      8.05800        -0.707169      0.400689     -2.863305
      6.97125      6.82307      9.80646         0.932879     -0.345110      0.822804
      2.06802      3.49345      1.02763        -0.485539      0.955127     -1.597360
      2.66333      4.79953      8.65640        -1.096942     -0.443496      1.347984
     10.84326      7.57403      3.68216        -0.240074     -1.245899      0.859262
     11.82097      6.15773      6.30767        -0.099574      0.092149     -0.064382
      0.84039      1.55857      8.80437         0.798876      0.259293      0.691413
      8.36439      5.43651      1.69316         1.966083     -0.718819     -0.971636
      9.02296      4.33443      3.86366         0.136949     -0.044853      0.312857
     10.00068      2.91813      6.48916         0.190109     -0.021833     -0.075994
      3.82015      2.13692      2.11332         1.604507     -0.387496      1.206595
      4.79786      0.72063      4.73883        -1.136032     -0.084630      1.201346
      9.34887      8.72943      7.36433        -0.324603      0.324591     -1.436120
     10.31805      7.70310      9.34711         0.423459     -0.781901      1.104301
      3.16834      7.94822      2.98849         0.330813      0.693467      1.508315
      4.14605      6.53193      5.61399         0.242815      0.138534     -0.062083
      5.12376      5.11563      8.23950         0.122829      0.129073     -1.807128
      7.55249      0.24880      1.97747        -1.300305      0.552014     -0.878858
      3.57838      9.40326      9.93877         0.629189     -0.355153      1.930841
      7.35546      3.82659      2.42507        -0.147046     -1.286976     -0.544679
      8.33317      2.41029      5.05057         0.236726      0.095305     -0.199414
      9.31088      0.99399      7.67607        -0.363200     -0.683081     -3.449913
      2.24940      1.48769      0.95761        -0.426557     -1.928741     -3.526531
      3.13035      0.21279      3.30024         0.080341     -0.416808      0.409139
      7.68136      8.22159      5.92574        -0.073486     -0.330954     -0.077337
      8.65907      6.80530      8.55124         0.058501     -1.606094     -0.270501
      2.47854      6.02409      4.17540         0.322552     -0.018624      1.425558
      3.45626      4.60779      6.80091         0.440031      0.329867     -2.828242
      4.19496      3.31179      8.89834         0.497943     -0.783298      2.149777
     11.60512      7.67198      1.71347        -0.738512     -0.890418     -3.402726
      6.87436      6.46223      0.84411         0.390513      0.642813     -4.551278
      8.88655      6.52099      3.30837         0.391283      1.780183      1.641182
      9.86427      5.10469      5.93387         0.138458     -0.108845      0.021990
     10.84198      3.68840      8.55937         1.377397      1.122505     -0.422802
      3.75972      4.39786      1.80533         1.410785      0.919463     -1.655123
      4.66145      2.90719      4.18354        -0.666456      0.578013      1.155575
      5.63916      1.49089      6.80904        -0.177963      0.146322     -0.776887
      6.48830      0.28881      9.14379         0.927161      0.026277      1.891533
      4.00964      8.71849      5.05870         0.141255      0.121888      0.424203
      4.98735      7.30220      7.68420         0.886448      0.077351     -1.968130
      5.14157      5.99891     10.09741         0.107613     -0.704005      3.545971
      9.53836      0.70969      2.43320         1.683960      0.502338     -0.050064
      4.85949      7.28435      2.04284        -1.036683      0.935876     -2.076890
      5.82436      6.04450      4.19167         0.242094      0.052055      2.636212
      6.80207      4.62821      6.81717         0.016617      0.501911     -0.652511
      7.78358      3.20440      9.12589        -2.311967      0.844947      2.344631
      1.59925      2.43070      5.06683        -0.083818      0.111823     -0.056988
      2.57697      1.01441      7.69234         0.080615     -0.109284     -0.627745
      7.41022      8.87329      9.95412        -0.932733      0.914672      3.587772
     10.70128      3.84700      2.44133        -1.805581      0.777939      0.174151
      5.63073      1.20874      1.38762         0.042066     -0.661132     -3.268891
      6.47794      0.08332      3.73742        -0.761077      0.155558      0.604697
     11.02718      8.24201      5.94200         0.374703     -0.413739      0.385677
     12.00489      6.82571      8.56750        -0.836847     -0.258390     -0.227869
 -----------------------------------------------------------------------------------
    total drift:                                0.187470      0.160613     -0.056234


--------------------------------------------------------------------------------------------------------



  FREE ENERGIE OF THE ION-ELECTRON SYSTEM (eV)
  ---------------------------------------------------
  free  energy   TOTEN  =      -351.42877811 eV

  energy  without entropy=     -350.39874578  energy(sigma->0) =     -350.91376195
 


--------------------------------------------------------------------------------------------------------


    POTLOK:  cpu time    0.3973: real time    0.3976


--------------------------------------------------------------------------------------------------------


     LOOP+:  cpu time  321.0491: real time  321.2587
    4ORBIT:  cpu time    0.0000: real time    0.0000

 total amount of memory used by VASP MPI-rank0    68402. kBytes
=======================================================================

   base      :      30000. kBytes
   nonlr-proj:       2287. kBytes
   fftplans  :       8265. kBytes
   grid      :      13942. kBytes
   one-center:         93. kBytes
   wavefun   :      13815. kBytes
 
  
  
 General timing and accounting informations for this job:
 ========================================================
  
                  Total CPU time used (sec):      323.927
                            User time (sec):      323.495
                          System time (sec):        0.432
                         Elapsed time (sec):      324.380
  
                   Maximum memory used (kb):      195692.
                   Average memory used (kb):           0.
  
                          Minor page faults:       130593
                          Major page faults:            0
                 Voluntary context switches:          235
