  52  52   0   0
  0.3564765E+02  0.1125646E-08  0.9578410E-09  0.1719249E-08  0.5000000E-15
  1.000000000000000E-004
  CAR 
 "Millerite NiS"                         
      9.33480959    -68.39281231  301     -0.10274580      1.00000000
    -68.393  0.0000E+00  0.0000E+00
    -68.134  0.0000E+00  0.0000E+00
    -67.875  0.0000E+00  0.0000E+00
    -67.616  0.0000E+00  0.0000E+00
    -67.356  0.0000E+00  0.0000E+00
    -67.097  0.0000E+00  0.0000E+00
    -66.838  0.0000E+00  0.0000E+00
    -66.579  0.0000E+00  0.0000E+00
    -66.320  0.0000E+00  0.0000E+00
    -66.061  0.0000E+00  0.0000E+00
    -65.802  0.2305E-09  0.5971E-10
    -65.543  0.1302E-04  0.3374E-05
    -65.284  0.3101E-01  0.8037E-02
    -65.025  0.4015E+01  0.1048E+01
    -64.766  0.5308E+02  0.1480E+02
    -64.506  0.1575E+03  0.5561E+02
    -64.247  0.1603E+03  0.9716E+02
    -63.988  0.1130E+03  0.1264E+03
    -63.729  0.7018E+02  0.1446E+03
    -63.470  0.3005E+02  0.1524E+03
    -63.211  0.7129E+01  0.1542E+03
    -62.952  0.5380E+01  0.1556E+03
    -62.693  0.1374E+01  0.1560E+03
    -62.434  0.2336E-01  0.1560E+03
    -62.175  0.1823E-04  0.1560E+03
    -61.916  0.5662E-09  0.1560E+03
    -61.656  0.8570E-15  0.1560E+03
    -61.397  0.0000E+00  0.1560E+03
    -61.138  0.0000E+00  0.1560E+03
    -60.879  0.0000E+00  0.1560E+03
    -60.620  0.0000E+00  0.1560E+03
    -60.361  0.0000E+00  0.1560E+03
    -60.102  0.0000E+00  0.1560E+03
    -59.843  0.0000E+00  0.1560E+03
    -59.584  0.0000E+00  0.1560E+03
    -59.325  0.0000E+00  0.1560E+03
    -59.065  0.0000E+00  0.1560E+03
    -58.806  0.0000E+00  0.1560E+03
    -58.547  0.0000E+00  0.1560E+03
    -58.288  0.0000E+00  0.1560E+03
    -58.029  0.0000E+00  0.1560E+03
    -57.770  0.0000E+00  0.1560E+03
    -57.511  0.0000E+00  0.1560E+03
    -57.252  0.0000E+00  0.1560E+03
    -56.993  0.0000E+00  0.1560E+03
    -56.734  0.0000E+00  0.1560E+03
    -56.475  0.0000E+00  0.1560E+03
    -56.215  0.0000E+00  0.1560E+03
    -55.956  0.0000E+00  0.1560E+03
    -55.697  0.0000E+00  0.1560E+03
    -55.438  0.0000E+00  0.1560E+03
    -55.179  0.0000E+00  0.1560E+03
    -54.920  0.0000E+00  0.1560E+03
    -54.661  0.0000E+00  0.1560E+03
    -54.402  0.0000E+00  0.1560E+03
    -54.143  0.0000E+00  0.1560E+03
    -53.884  0.0000E+00  0.1560E+03
    -53.625  0.0000E+00  0.1560E+03
    -53.365  0.0000E+00  0.1560E+03
    -53.106  0.0000E+00  0.1560E+03
    -52.847  0.0000E+00  0.1560E+03
    -52.588  0.0000E+00  0.1560E+03
    -52.329  0.0000E+00  0.1560E+03
    -52.070  0.0000E+00  0.1560E+03
    -51.811  0.0000E+00  0.1560E+03
    -51.552  0.0000E+00  0.1560E+03
    -51.293  0.0000E+00  0.1560E+03
    -51.034  0.0000E+00  0.1560E+03
    -50.775  0.0000E+00  0.1560E+03
    -50.515  0.0000E+00  0.1560E+03
    -50.256  0.0000E+00  0.1560E+03
    -49.997  0.0000E+00  0.1560E+03
    -49.738  0.0000E+00  0.1560E+03
    -49.479  0.0000E+00  0.1560E+03
    -49.220  0.0000E+00  0.1560E+03
    -48.961  0.0000E+00  0.1560E+03
    -48.702  0.0000E+00  0.1560E+03
    -48.443  0.0000E+00  0.1560E+03
    -48.184  0.0000E+00  0.1560E+03
    -47.925  0.0000E+00  0.1560E+03
    -47.665  0.0000E+00  0.1560E+03
    -47.406  0.0000E+00  0.1560E+03
    -47.147  0.0000E+00  0.1560E+03
    -46.888  0.0000E+00  0.1560E+03
    -46.629  0.0000E+00  0.1560E+03
    -46.370  0.0000E+00  0.1560E+03
    -46.111  0.0000E+00  0.1560E+03
    -45.852  0.0000E+00  0.1560E+03
    -45.593  0.0000E+00  0.1560E+03
    -45.334  0.0000E+00  0.1560E+03
    -45.075  0.0000E+00  0.1560E+03
    -44.815  0.0000E+00  0.1560E+03
    -44.556  0.0000E+00  0.1560E+03
    -44.297  0.0000E+00  0.1560E+03
    -44.038  0.0000E+00  0.1560E+03
    -43.779  0.0000E+00  0.1560E+03
    -43.520  0.0000E+00  0.1560E+03
    -43.261  0.0000E+00  0.1560E+03
    -43.002  0.0000E+00  0.1560E+03
    -42.743  0.0000E+00  0.1560E+03
    -42.484  0.0000E+00  0.1560E+03
    -42.225  0.0000E+00  0.1560E+03
    -41.965  0.0000E+00  0.1560E+03
    -41.706  0.0000E+00  0.1560E+03
    -41.447  0.0000E+00  0.1560E+03
    -41.188  0.0000E+00  0.1560E+03
    -40.929  0.0000E+00  0.1560E+03
    -40.670  0.0000E+00  0.1560E+03
    -40.411  0.0000E+00  0.1560E+03
    -40.152  0.0000E+00  0.1560E+03
    -39.893  0.0000E+00  0.1560E+03
    -39.634  0.0000E+00  0.1560E+03
    -39.375  0.0000E+00  0.1560E+03
    -39.115  0.0000E+00  0.1560E+03
    -38.856  0.0000E+00  0.1560E+03
    -38.597  0.0000E+00  0.1560E+03
    -38.338  0.0000E+00  0.1560E+03
    -38.079  0.0000E+00  0.1560E+03
    -37.820  0.0000E+00  0.1560E+03
    -37.561  0.0000E+00  0.1560E+03
    -37.302  0.0000E+00  0.1560E+03
    -37.043  0.0000E+00  0.1560E+03
    -36.784  0.0000E+00  0.1560E+03
    -36.524  0.0000E+00  0.1560E+03
    -36.265  0.0000E+00  0.1560E+03
    -36.006  0.0000E+00  0.1560E+03
    -35.747  0.0000E+00  0.1560E+03
    -35.488  0.0000E+00  0.1560E+03
    -35.229  0.0000E+00  0.1560E+03
    -34.970  0.0000E+00  0.1560E+03
    -34.711  0.0000E+00  0.1560E+03
    -34.452  0.0000E+00  0.1560E+03
    -34.193  0.0000E+00  0.1560E+03
    -33.934  0.0000E+00  0.1560E+03
    -33.674  0.0000E+00  0.1560E+03
    -33.415  0.0000E+00  0.1560E+03
    -33.156  0.0000E+00  0.1560E+03
    -32.897  0.0000E+00  0.1560E+03
    -32.638  0.0000E+00  0.1560E+03
    -32.379  0.0000E+00  0.1560E+03
    -32.120  0.0000E+00  0.1560E+03
    -31.861  0.0000E+00  0.1560E+03
    -31.602  0.0000E+00  0.1560E+03
    -31.343  0.0000E+00  0.1560E+03
    -31.084  0.0000E+00  0.1560E+03
    -30.824  0.0000E+00  0.1560E+03
    -30.565  0.0000E+00  0.1560E+03
    -30.306  0.0000E+00  0.1560E+03
    -30.047  0.0000E+00  0.1560E+03
    -29.788  0.0000E+00  0.1560E+03
    -29.529  0.0000E+00  0.1560E+03
    -29.270  0.0000E+00  0.1560E+03
    -29.011  0.0000E+00  0.1560E+03
    -28.752  0.0000E+00  0.1560E+03
    -28.493  0.0000E+00  0.1560E+03
    -28.234  0.0000E+00  0.1560E+03
    -27.974  0.0000E+00  0.1560E+03
    -27.715  0.0000E+00  0.1560E+03
    -27.456  0.0000E+00  0.1560E+03
    -27.197  0.0000E+00  0.1560E+03
    -26.938  0.0000E+00  0.1560E+03
    -26.679  0.0000E+00  0.1560E+03
    -26.420  0.0000E+00  0.1560E+03
    -26.161  0.0000E+00  0.1560E+03
    -25.902  0.0000E+00  0.1560E+03
    -25.643  0.0000E+00  0.1560E+03
    -25.384  0.0000E+00  0.1560E+03
    -25.124  0.0000E+00  0.1560E+03
    -24.865  0.0000E+00  0.1560E+03
    -24.606  0.0000E+00  0.1560E+03
    -24.347  0.0000E+00  0.1560E+03
    -24.088  0.0000E+00  0.1560E+03
    -23.829  0.0000E+00  0.1560E+03
    -23.570  0.0000E+00  0.1560E+03
    -23.311  0.0000E+00  0.1560E+03
    -23.052  0.0000E+00  0.1560E+03
    -22.793  0.0000E+00  0.1560E+03
    -22.534  0.0000E+00  0.1560E+03
    -22.274  0.0000E+00  0.1560E+03
    -22.015  0.0000E+00  0.1560E+03
    -21.756  0.0000E+00  0.1560E+03
    -21.497  0.0000E+00  0.1560E+03
    -21.238  0.0000E+00  0.1560E+03
    -20.979  0.0000E+00  0.1560E+03
    -20.720  0.0000E+00  0.1560E+03
    -20.461  0.0000E+00  0.1560E+03
    -20.202  0.0000E+00  0.1560E+03
    -19.943  0.0000E+00  0.1560E+03
    -19.684  0.0000E+00  0.1560E+03
    -19.424  0.0000E+00  0.1560E+03
    -19.165  0.0000E+00  0.1560E+03
    -18.906  0.0000E+00  0.1560E+03
    -18.647  0.0000E+00  0.1560E+03
    -18.388  0.0000E+00  0.1560E+03
    -18.129  0.0000E+00  0.1560E+03
    -17.870  0.1241E-09  0.1560E+03
    -17.611  0.5993E-05  0.1560E+03
    -17.352  0.1140E-01  0.1560E+03
    -17.093  0.9697E+00  0.1563E+03
    -16.833  0.4851E+01  0.1575E+03
    -16.574  0.1901E+01  0.1580E+03
    -16.315  0.2112E+01  0.1586E+03
    -16.056  0.4842E+01  0.1598E+03
    -15.797  0.4074E+01  0.1609E+03
    -15.538  0.9928E+01  0.1634E+03
    -15.279  0.9170E+01  0.1658E+03
    -15.020  0.1516E+02  0.1697E+03
    -14.761  0.2118E+02  0.1752E+03
    -14.502  0.2486E+02  0.1817E+03
    -14.243  0.1587E+02  0.1858E+03
    -13.983  0.1555E+02  0.1898E+03
    -13.724  0.2139E+02  0.1953E+03
    -13.465  0.1715E+02  0.1998E+03
    -13.206  0.1381E+02  0.2034E+03
    -12.947  0.2697E+01  0.2041E+03
    -12.688  0.5574E+01  0.2055E+03
    -12.429  0.8503E+01  0.2077E+03
    -12.170  0.1106E+01  0.2080E+03
    -11.911  0.9192E-02  0.2080E+03
    -11.652  0.3677E-05  0.2080E+03
    -11.393  0.6049E-10  0.2080E+03
    -11.133  0.0000E+00  0.2080E+03
    -10.874  0.0000E+00  0.2080E+03
    -10.615  0.0000E+00  0.2080E+03
    -10.356  0.0000E+00  0.2080E+03
    -10.097  0.0000E+00  0.2080E+03
     -9.838  0.0000E+00  0.2080E+03
     -9.579  0.7974E-12  0.2080E+03
     -9.320  0.1366E-06  0.2080E+03
     -9.061  0.8988E-03  0.2080E+03
     -8.802  0.2484E+00  0.2081E+03
     -8.543  0.3630E+01  0.2090E+03
     -8.283  0.6104E+01  0.2106E+03
     -8.024  0.9721E+01  0.2131E+03
     -7.765  0.1712E+02  0.2175E+03
     -7.506  0.2365E+02  0.2237E+03
     -7.247  0.2173E+02  0.2293E+03
     -6.988  0.2419E+02  0.2356E+03
     -6.729  0.2568E+02  0.2422E+03
     -6.470  0.2967E+02  0.2499E+03
     -6.211  0.3269E+02  0.2584E+03
     -5.952  0.3250E+02  0.2668E+03
     -5.693  0.3583E+02  0.2761E+03
     -5.433  0.4141E+02  0.2868E+03
     -5.174  0.5519E+02  0.3011E+03
     -4.915  0.4897E+02  0.3138E+03
     -4.656  0.3850E+02  0.3238E+03
     -4.397  0.3181E+02  0.3320E+03
     -4.138  0.2722E+02  0.3391E+03
     -3.879  0.3446E+02  0.3480E+03
     -3.620  0.4353E+02  0.3593E+03
     -3.361  0.4156E+02  0.3700E+03
     -3.102  0.4858E+02  0.3826E+03
     -2.843  0.5516E+02  0.3969E+03
     -2.583  0.7315E+02  0.4159E+03
     -2.324  0.8997E+02  0.4392E+03
     -2.065  0.8490E+02  0.4612E+03
     -1.806  0.8349E+02  0.4828E+03
     -1.547  0.8128E+02  0.5039E+03
     -1.288  0.6641E+02  0.5211E+03
     -1.029  0.4562E+02  0.5329E+03
     -0.770  0.5183E+02  0.5463E+03
     -0.511  0.4772E+02  0.5587E+03
     -0.252  0.3437E+02  0.5676E+03
      0.007  0.3294E+02  0.5761E+03
      0.267  0.3816E+02  0.5860E+03
      0.526  0.3084E+02  0.5940E+03
      0.785  0.3556E+02  0.6032E+03
      1.044  0.3146E+02  0.6114E+03
      1.303  0.1974E+02  0.6165E+03
      1.562  0.1437E+02  0.6202E+03
      1.821  0.1468E+02  0.6240E+03
      2.080  0.7197E+01  0.6259E+03
      2.339  0.4878E+00  0.6260E+03
      2.598  0.9039E+00  0.6262E+03
      2.858  0.8160E+01  0.6283E+03
      3.117  0.7461E+01  0.6303E+03
      3.376  0.6525E+01  0.6320E+03
      3.635  0.8692E+01  0.6342E+03
      3.894  0.1299E+02  0.6376E+03
      4.153  0.1625E+02  0.6418E+03
      4.412  0.1726E+02  0.6463E+03
      4.671  0.2388E+02  0.6525E+03
      4.930  0.3433E+02  0.6614E+03
      5.189  0.2310E+02  0.6673E+03
      5.448  0.2634E+02  0.6742E+03
      5.708  0.3309E+02  0.6827E+03
      5.967  0.1845E+02  0.6875E+03
      6.226  0.1857E+01  0.6880E+03
      6.485  0.1478E-01  0.6880E+03
      6.744  0.6188E-05  0.6880E+03
      7.003  0.1121E-09  0.6880E+03
      7.262  0.0000E+00  0.6880E+03
      7.521  0.0000E+00  0.6880E+03
      7.780  0.0000E+00  0.6880E+03
      8.039  0.0000E+00  0.6880E+03
      8.298  0.0000E+00  0.6880E+03
      8.558  0.0000E+00  0.6880E+03
      8.817  0.0000E+00  0.6880E+03
      9.076  0.0000E+00  0.6880E+03
      9.335  0.0000E+00  0.6880E+03
