"Millerite NiS"                         
           1
    11.256463    0.000000    0.000000
     5.044562   10.062820    0.000000
     0.000000    0.000000   22.519956
   Ty   Ty
  48  48
Direct configuration=     1
   0.26092069  0.47878037  0.29519774
   0.35488056  0.38482050  0.42557357
   0.03192679  0.20059345  0.09106170
   0.16696082  0.07274025  0.16482191
   0.02651277  0.04100209  0.48779122
   0.20156832  0.53849623  0.05887388
   0.27423906  0.33335901  0.13037583
   0.36819893  0.23939914  0.26075166
   0.46215879  0.14543927  0.39112749
   0.00030194  0.37150214  0.26075166
   0.09426180  0.27754227  0.39112749
   0.20163238  0.21106139  0.48776857
   0.40634206  0.46546200  0.13037583
   0.76092069  0.47878037  0.29519774
   0.85488056  0.38482050  0.42557357
   0.52649047  0.20567995  0.09068508
   0.66696082  0.07274025  0.16482191
   0.68703092  0.42719213  0.03384587
   0.77423906  0.33335901  0.13037583
   0.86819893  0.23939914  0.26075166
   0.96215879  0.14543927  0.39112749
   0.50030194  0.37150214  0.26075166
   0.59426180  0.27754227  0.39112749
   0.70976166  0.17824862  0.48171267
   0.90634206  0.46546200  0.13037583
   0.26092069  0.97878037  0.29519774
   0.35488056  0.88482051  0.42557357
   0.16696083  0.57274025  0.16482191
   0.05799516  0.52422124  0.48048098
   0.23275256  0.01178932  0.05349914
   0.27423906  0.83335901  0.13037583
   0.36819893  0.73939914  0.26075166
   0.46215879  0.64543927  0.39112749
   0.00030194  0.87150214  0.26075166
   0.09426180  0.77754227  0.39112749
   0.40634206  0.96546200  0.13037583
   0.76092069  0.97878037  0.29519774
   0.85488056  0.88482051  0.42557357
   0.66696083  0.57274025  0.16482191
   0.73046344  0.01524928  0.05373672
   0.77423906  0.83335901  0.13037583
   0.86819893  0.73939914  0.26075166
   0.96215879  0.64543927  0.39112749
   0.50030194  0.87150214  0.26075166
   0.59426180  0.77754227  0.39112749
   0.72503875  0.68277158  0.47679840
   0.90634206  0.96546200  0.13037583
   0.81174398  0.55275643  0.03405116
   0.07287763  0.16682345  0.31134757
   0.16683750  0.07286358  0.44172340
   0.37128726  0.36829870  0.05605141
   0.47891775  0.26078331  0.18097174
   0.01822199  0.36592329  0.47569414
   0.43627354  0.47164252  0.35520991
   0.24446289  0.16135223  0.10327060
   0.34231367  0.06560240  0.22483408
   0.08085221  0.48281743  0.10759867
   0.17409868  0.39738739  0.22483408
   0.26805854  0.30342752  0.35520991
   0.37412902  0.21758948  0.47179477
   0.57287763  0.16682345  0.31134757
   0.66435125  0.06918720  0.42228658
   0.88495788  0.35474318  0.05059590
   0.97891775  0.26078331  0.18097174
   0.52946927  0.34421550  0.47436242
   0.93627354  0.47164252  0.35520991
   0.74018620  0.16546016  0.10339516
   0.84231367  0.06560240  0.22483408
   0.57974277  0.48575172  0.10879490
   0.67409868  0.39738739  0.22483408
   0.76805854  0.30342752  0.35520991
   0.86640454  0.22069420  0.47400745
   0.07287763  0.66682345  0.31134757
   0.16827442  0.57510049  0.42336188
   0.39901335  0.84108795  0.06498137
   0.47891775  0.76078331  0.18097174
   0.02190625  0.86751583  0.47144837
   0.43627354  0.97164252  0.35520991
   0.25766214  0.65799592  0.10838965
   0.34231367  0.56560240  0.22483408
   0.08013881  0.99134726  0.09445824
   0.17409868  0.89738739  0.22483408
   0.26805854  0.80342752  0.35520991
   0.36108084  0.72228735  0.46632192
   0.57287763  0.66682345  0.31134757
   0.66446560  0.57250541  0.42404922
   0.89686047  0.84366442  0.06444842
   0.97891775  0.76078331  0.18097174
   0.53176996  0.83363410  0.47539111
   0.93627354  0.97164252  0.35520991
   0.75539921  0.65997741  0.10904783
   0.84231367  0.56560240  0.22483408
   0.58013881  0.99134726  0.09445824
   0.67409868  0.89738739  0.22483408
   0.76805854  0.80342752  0.35520991
   0.89194481  0.70971400  0.47685850
