LAMMPS (5 Jun 2019)
OMP_NUM_THREADS environment is not set. Defaulting to 1 thread. (../comm.cpp:88)
  using 1 OpenMP thread(s) per MPI task
Reading data file ...
  triclinic box = (0 0 0) to (6.27856 11.0602 29.1568) with tilt (2.09285 0 0)
  1 by 1 by 1 MPI processor grid
  reading atoms ...
  96 atoms
  read_data CPU = 0.000861738 secs
79 atoms in group bulk
WARNING: Using 'neigh_modify every 1 delay 0 check yes' setting during minimization (../min.cpp:168)
Neighbor list info ...
  update every 1 steps, delay 0 steps, check yes
  max neighbors/atom: 2000, page size: 100000
  master list distance cutoff = 8.5
  ghost atom cutoff = 8.5
  binsize = 4.25, bins = 2 3 7
  1 neighbor lists, perpetual/occasional/extra = 1 0 0
  (1) pair eam/alloy, perpetual
      attributes: half, newton on
      pair build: half/bin/newton/tri
      stencil: half/bin/3d/newton/tri
      bin: standard
Setting up cg style minimization ...
  Unit style    : metal
  Current step  : 0
Per MPI rank memory allocation (min/avg/max) = 4.11 | 4.11 | 4.11 Mbytes
Step Temp E_pair E_mol TotEng Press 
       0            0   -421.50868            0   -421.50868   -154094.21 
      23            0   -429.55765            0   -429.55765   -110829.81 
Loop time of 0.0251958 on 1 procs for 23 steps with 96 atoms

99.8% CPU use with 1 MPI tasks x 1 OpenMP threads

Minimization stats:
  Stopping criterion = energy tolerance
  Energy initial, next-to-last, final = 
         -421.50868005     -429.553748207       -429.5576513
  Force two-norm initial, final = 8.84453 0.16645
  Force max component initial, final = 2.55875 0.067897
  Final line search alpha, max atom move = 0.419132 0.0284578
  Iterations, force evaluations = 23 35

MPI task timing breakdown:
Section |  min time  |  avg time  |  max time  |%varavg| %total
---------------------------------------------------------------
Pair    | 0.023431   | 0.023431   | 0.023431   |   0.0 | 92.99
Neigh   | 0.00091691 | 0.00091691 | 0.00091691 |   0.0 |  3.64
Comm    | 0.00047075 | 0.00047075 | 0.00047075 |   0.0 |  1.87
Output  | 0          | 0          | 0          |   0.0 |  0.00
Modify  | 3.605e-05  | 3.605e-05  | 3.605e-05  |   0.0 |  0.14
Other   |            | 0.0003414  |            |       |  1.35

Nlocal:    96 ave 96 max 96 min
Histogram: 1 0 0 0 0 0 0 0 0 0
Nghost:    1226 ave 1226 max 1226 min
Histogram: 1 0 0 0 0 0 0 0 0 0
Neighs:    7599 ave 7599 max 7599 min
Histogram: 1 0 0 0 0 0 0 0 0 0

Total # of neighbors = 7599
Ave neighs/atom = 79.1562
Neighbor list builds = 1
Dangerous builds = 0
System init for write_data ...
Total wall time: 0:00:00
