 vasp.5.4.4.18Apr17-6-g9f103f2a35 (build Aug 13 2019 17:33:20) gamma-only       
  
 executed on             LinuxIFC date 2020.05.12  18:54:03
 running on   12 total cores
 distrk:  each k-point on   12 cores,    1 groups
 distr:  one band on NCORES_PER_BAND=   6 cores,    2 groups


--------------------------------------------------------------------------------------------------------


 INCAR:
 POTCAR:    PAW_PBE Ni_pv 06Sep2000               
 POTCAR:    PAW_PBE S 06Sep2000                   
 POTCAR:    PAW_PBE Ni_pv 06Sep2000               
   VRHFIN =Ni:                                                                  
   LEXCH  = PE                                                                  
   EATOM  =  3501.1230 eV,  257.3253 Ry                                         
                                                                                
   TITEL  = PAW_PBE Ni_pv 06Sep2000                                             
   LULTRA =        F    use ultrasoft PP ?                                      
   IUNSCR =        1    unscreen: 0-lin 1-nonlin 2-no                           
   RPACOR =    1.500    partial core radius                                     
   POMASS =   58.690; ZVAL   =   16.000    mass and valenz                      
   RCORE  =    2.000    outmost cutoff radius                                   
   RWIGS  =    2.000; RWIGS  =    1.058    wigner-seitz radius (au A)           
   ENMAX  =  367.986; ENMIN  =  275.989 eV                                      
   RCLOC  =    1.301    cutoff for local pot                                    
   LCOR   =        T    correct aug charges                                     
   LPAW   =        T    paw PP                                                  
   EAUG   =  703.443                                                            
   DEXC   =    0.000                                                            
   RMAX   =    2.041    core radius for proj-oper                               
   RAUG   =    1.300    factor for augmentation sphere                          
   RDEP   =    2.103    radius for radial grids                                 
   RDEPT  =    1.618    core radius for aug-charge                              
                                                                                
   Atomic configuration                                                         
    8 entries                                                                   
     n  l   j            E        occ.                                          
     1  0  0.50     -8206.4253   2.0000                                         
     2  0  0.50      -976.1748   2.0000                                         
     2  1  1.50      -839.0571   6.0000                                         
     3  0  0.50      -105.9991   2.0000                                         
     3  1  1.50       -66.4603   6.0000                                         
     3  2  2.50        -4.6458   9.0000                                         
     4  0  0.50        -4.4926   1.0000                                         
     4  3  2.50        -1.3606   0.0000                                         
   Description                                                                  
     l       E           TYP  RCUT    TYP  RCUT                                 
     1    -66.4602962     23  1.700                                             
     1     -1.3605826     23  1.700                                             
     2     -4.6457867     23  2.000                                             
     2     -6.0063693     23  2.000                                             
     0     -4.4925576     23  1.900                                             
     0     16.3626226     23  1.900                                             
  local pseudopotential read in
  partial core-charges read in
  partial kinetic energy density read in
  atomic valenz-charges read in
  non local Contribution for L=           1  read in
    real space projection operators read in
  non local Contribution for L=           1  read in
    real space projection operators read in
  non local Contribution for L=           2  read in
    real space projection operators read in
  non local Contribution for L=           2  read in
    real space projection operators read in
  non local Contribution for L=           0  read in
    real space projection operators read in
  non local Contribution for L=           0  read in
    real space projection operators read in
    PAW grid and wavefunctions read in
 
   number of l-projection  operators is LMAX  =           6
   number of lm-projection operators is LMMAX =          18
 
 POTCAR:    PAW_PBE S 06Sep2000                   
   VRHFIN =S : s2p4                                                             
   LEXCH  = PE                                                                  
   EATOM  =   276.8230 eV,   20.3459 Ry                                         
                                                                                
   TITEL  = PAW_PBE S 06Sep2000                                                 
   LULTRA =        F    use ultrasoft PP ?                                      
   IUNSCR =        1    unscreen: 0-lin 1-nonlin 2-no                           
   RPACOR =    1.500    partial core radius                                     
   POMASS =   32.066; ZVAL   =    6.000    mass and valenz                      
   RCORE  =    1.900    outmost cutoff radius                                   
   RWIGS  =    2.200; RWIGS  =    1.164    wigner-seitz radius (au A)           
   ENMAX  =  258.689; ENMIN  =  194.016 eV                                      
   ICORE  =        2    local potential                                         
   LCOR   =        T    correct aug charges                                     
   LPAW   =        T    paw PP                                                  
   EAUG   =  335.092                                                            
   DEXC   =    0.000                                                            
   RMAX   =    1.942    core radius for proj-oper                               
   RAUG   =    1.300    factor for augmentation sphere                          
   RDEP   =    1.954    radius for radial grids                                 
   RDEPT  =    1.744    core radius for aug-charge                              
                                                                                
   Atomic configuration                                                         
    6 entries                                                                   
     n  l   j            E        occ.                                          
     1  0  0.50     -2405.8406   2.0000                                         
     2  0  0.50      -211.7007   2.0000                                         
     2  1  1.50      -156.4958   6.0000                                         
     3  0  0.50       -17.2562   2.0000                                         
     3  1  0.50        -7.0085   4.0000                                         
     3  2  1.50        -6.8029   0.0000                                         
   Description                                                                  
     l       E           TYP  RCUT    TYP  RCUT                                 
     0    -17.2561641     23  1.900                                             
     0    -15.8743224     23  1.900                                             
     1     -7.0085400     23  1.900                                             
     1     -2.7779785     23  1.900                                             
     2     -6.8029130     23  1.900                                             
  local pseudopotential read in
  partial core-charges read in
  partial kinetic energy density read in
  atomic valenz-charges read in
  non local Contribution for L=           0  read in
    real space projection operators read in
  non local Contribution for L=           0  read in
    real space projection operators read in
  non local Contribution for L=           1  read in
    real space projection operators read in
  non local Contribution for L=           1  read in
    real space projection operators read in
    PAW grid and wavefunctions read in
 
   number of l-projection  operators is LMAX  =           4
   number of lm-projection operators is LMMAX =           8
 
 Optimization of the real space projectors (new method)

 maximal supplied QI-value         = 18.90
 optimisation between [QCUT,QGAM] = [ 10.77, 21.73] = [ 32.49,132.25] Ry 
 Optimized for a Real-space Cutoff    1.38 Angstroem

   l    n(q)    QCUT    max X(q) W(low)/X(q) W(high)/X(q)  e(spline) 
   1      8    10.771     2.836    0.40E-04    0.29E-04    0.12E-06
   1      8    10.771     4.023    0.10E-03    0.48E-04    0.29E-06
   2      8    10.771    73.368    0.42E-03    0.97E-04    0.44E-06
   2      8    10.771    69.010    0.42E-03    0.99E-04    0.45E-06
   0      9    10.771    54.797    0.10E-03    0.56E-04    0.74E-07
   0      9    10.771    24.266    0.89E-04    0.49E-04    0.67E-07
 Optimization of the real space projectors (new method)

 maximal supplied QI-value         = 19.84
 optimisation between [QCUT,QGAM] = [ 10.71, 21.63] = [ 32.15,130.99] Ry 
 Optimized for a Real-space Cutoff    1.19 Angstroem

   l    n(q)    QCUT    max X(q) W(low)/X(q) W(high)/X(q)  e(spline) 
   0      8    10.715   187.594    0.41E-03    0.53E-04    0.66E-07
   0      8    10.715   164.243    0.41E-03    0.53E-04    0.65E-07
   1      7    10.715    67.533    0.19E-03    0.59E-03    0.68E-07
   1      7    10.715    50.729    0.19E-03    0.58E-03    0.67E-07
  PAW_PBE Ni_pv 06Sep2000               :
 energy of atom  1       EATOM=-3501.1230
 kinetic energy error for atom=    0.0925 (will be added to EATOM!!)
  PAW_PBE S 06Sep2000                   :
 energy of atom  2       EATOM= -276.8230
 kinetic energy error for atom=    0.0033 (will be added to EATOM!!)
 
 
 POSCAR: Type_036 Type_136                       
  positions in cartesian coordinates
  No initial velocities read in
 exchange correlation table for  LEXCH =        8
   RHO(1)=    0.500       N(1)  =     2000
   RHO(2)=  100.500       N(2)  =     4000
 


--------------------------------------------------------------------------------------------------------


 ion  position               nearest neighbor table
   1  0.241  0.962  0.064-  41 2.01  61 2.10  42 2.22   2 2.26  49 2.30
   2  0.397  0.795  0.127-  49 1.99  61 2.12  42 2.25   1 2.26  50 2.36  62 2.36  26 2.39
   3  0.547  0.645  0.254-  43 2.25  62 2.26  50 2.26  63 2.36  51 2.36  27 2.53  14 2.53
   4  0.698  0.494  0.381-  64 2.08  52 2.24  44 2.25  51 2.26  63 2.26  15 2.53  28 2.53
   5  0.114  0.412  0.169-  53 2.11  45 2.25  68 2.26  65 2.36  54 2.36   8 2.38  29 2.53  17 2.53

   6  0.264  0.261  0.296-  46 2.25  65 2.26  54 2.26  55 2.36  66 2.36  18 2.53  30 2.53
   7  0.414  0.111  0.423-  56 2.11  67 2.12  55 2.26  66 2.26  47 2.32  31 2.53  19 2.53
   8  0.966  0.606  0.107-  48 2.06  45 2.10  68 2.23  53 2.37   5 2.38  21 2.45
   9  0.098  0.784  0.451-  58 2.04  59 2.08  72 2.10  37 2.12
  10  0.549  0.223  0.151-  69 2.03  70 2.12  38 2.12  54 2.14  14 2.37  36 2.49
  11  0.831  0.028  0.212-  70 2.10  39 2.25  60 2.26  57 2.36  71 2.36  23 2.53  33 2.53
  12  0.981  0.878  0.338-  40 2.25  57 2.26  71 2.26  58 2.36  72 2.36  34 2.53  24 2.53
  13  0.365  0.555  0.112-  62 2.04  53 2.15  38 2.20  61 2.27  26 2.47
  14  0.508  0.420  0.220-  54 2.25  62 2.26  38 2.26  39 2.36  63 2.36  10 2.37  27 2.53   3 2.53

  15  0.658  0.270  0.347-  64 2.05  55 2.25  63 2.26  39 2.26  40 2.36   4 2.53  28 2.53
  16  0.798  0.114  0.459-  40 2.02  37 2.09  64 2.09  56 2.12
  17  0.074  0.187  0.136-  41 2.14  60 2.25  68 2.26  42 2.36  65 2.36   5 2.53  29 2.53
  18  0.224  0.037  0.263-  57 2.25  42 2.26  65 2.26  66 2.36  43 2.36   6 2.53  30 2.53
  19  0.375  0.886  0.390-  67 2.02  58 2.25  66 2.26  43 2.26  20 2.33  44 2.36  31 2.53   7 2.53

  20  0.437  0.725  0.475-  59 2.02  44 2.09  67 2.09  19 2.33
  21  0.069  0.380  0.049-  41 2.01  68 2.05  53 2.05   8 2.45  29 2.54
  22  0.079  0.506  0.417-  46 2.01  47 2.15  72 2.16  52 2.18
  23  0.791  0.804  0.178-  70 2.09  48 2.11  50 2.25  71 2.36  45 2.36  11 2.53  33 2.53
  24  0.941  0.653  0.305-  51 2.25  71 2.26  45 2.26  46 2.36  72 2.36  34 2.53  12 2.53
  25  0.020  0.177  0.422-  40 2.03  52 2.12  37 2.13  66 2.13
  26  0.582  0.599  0.080-  50 2.06  38 2.08  49 2.11   2 2.39  13 2.47
  27  0.732  0.460  0.187-  68 2.25  50 2.26  38 2.26  51 2.36  39 2.36  14 2.53   3 2.53
  28  0.882  0.310  0.314-  52 2.11  65 2.25  39 2.26  51 2.26  40 2.36   4 2.53  15 2.53
  29  0.299  0.227  0.102-  41 2.11  69 2.17  53 2.28  54 2.36  42 2.36   5 2.53  17 2.53  21 2.54

  30  0.449  0.076  0.229-  70 2.06  42 2.26  54 2.26  55 2.36  43 2.36  18 2.53   6 2.53
  31  0.599  0.926  0.356-  56 2.16  71 2.25  55 2.26  43 2.26  44 2.36  32 2.42   7 2.53  19 2.53

  32  0.733  0.819  0.451-  56 2.04  44 2.05  72 2.06  31 2.42
  33  0.015  0.843  0.144-  48 2.10  61 2.12  60 2.26  45 2.36  57 2.36  23 2.53  11 2.53
  34  0.166  0.693  0.271-  62 2.25  57 2.26  45 2.26  46 2.36  58 2.36  12 2.53  24 2.53
  35  0.316  0.543  0.398-  59 2.06  47 2.13  63 2.25  58 2.26  46 2.26
  36  0.739  0.028  0.095-  48 2.07  70 2.08  60 2.09  69 2.22  10 2.49
  37  0.013  0.002  0.477-  16 2.09   9 2.12  25 2.13  40 2.56
  38  0.586  0.406  0.117-  26 2.08  10 2.12  13 2.20  14 2.26  27 2.26
  39  0.736  0.256  0.244-  11 2.25  28 2.26  15 2.26  14 2.36  27 2.36
  40  0.886  0.105  0.371-  16 2.02  25 2.03  12 2.25  15 2.36  28 2.36  37 2.56  64 2.79
  41  0.162  0.168  0.041-   1 2.01  21 2.01  29 2.11  17 2.14
  42  0.303  0.023  0.160-   1 2.22   2 2.25  30 2.26  18 2.26  17 2.36  29 2.36
  43  0.453  0.872  0.286-   3 2.25  19 2.26  31 2.26  18 2.36  30 2.36
  44  0.603  0.722  0.413-  32 2.05  20 2.09   4 2.25  31 2.36  19 2.36  67 2.79
  45  0.019  0.639  0.202-   8 2.10   5 2.25  24 2.26  34 2.26  23 2.36  33 2.36
  46  0.170  0.489  0.329-  22 2.01   6 2.25  35 2.26  34 2.36  24 2.36  47 2.56
  47  0.289  0.353  0.430-  35 2.13  22 2.15   7 2.32  46 2.56
  48  0.862  0.816  0.083-   8 2.06  36 2.07  33 2.10  23 2.11
  49  0.444  0.781  0.033-   2 1.99  26 2.11   1 2.30  61 2.69
  50  0.636  0.692  0.160-  26 2.06  23 2.25  27 2.26   3 2.26   2 2.36
  51  0.787  0.542  0.287-  24 2.25   4 2.26  28 2.26  27 2.36   3 2.36
  52  0.931  0.396  0.399-  28 2.11  25 2.12  22 2.18   4 2.24
  53  0.207  0.467  0.087-  21 2.05   5 2.11  13 2.15  29 2.28   8 2.37
  54  0.353  0.308  0.202-  10 2.14  14 2.25   6 2.26  30 2.26  29 2.36   5 2.36
  55  0.503  0.158  0.329-  15 2.25   7 2.26  31 2.26   6 2.36  30 2.36  56 2.75
  56  0.634  0.033  0.441-  32 2.04   7 2.11  16 2.12  31 2.16  55 2.75
  57  0.070  0.925  0.245-  18 2.25  34 2.26  12 2.26  11 2.36  33 2.36
  58  0.220  0.775  0.372-   9 2.04  19 2.25  35 2.26  34 2.36  12 2.36  59 2.73
  59  0.286  0.639  0.488-  20 2.02  35 2.06   9 2.08  58 2.73
  60  0.920  0.075  0.118-  36 2.09  17 2.25  11 2.26  33 2.26
  61  0.208  0.775  0.091-   1 2.10   2 2.12  33 2.12  13 2.27  49 2.69
  62  0.350  0.641  0.203-  13 2.04  34 2.25  14 2.26   3 2.26   2 2.36
  63  0.501  0.491  0.330-  35 2.25   4 2.26  15 2.26   3 2.36  14 2.36
  64  0.691  0.329  0.439-  15 2.05   4 2.08  16 2.09  40 2.79
  65  0.067  0.258  0.245-  28 2.25   6 2.26  18 2.26   5 2.36  17 2.36
  66  0.218  0.108  0.372-  25 2.13  19 2.26   7 2.26  18 2.36   6 2.36
  67  0.403  0.942  0.481-  19 2.02  20 2.09   7 2.12  44 2.79
  68  0.917  0.408  0.118-  21 2.05   8 2.23  27 2.25  17 2.26   5 2.26
  69  0.514  0.136  0.067-  10 2.03  29 2.17  36 2.22  70 2.77
  70  0.640  0.009  0.181-  30 2.06  36 2.08  23 2.09  11 2.10  10 2.12  71 2.72  69 2.77
  71  0.784  0.874  0.287-  31 2.25  24 2.26  12 2.26  23 2.36  11 2.36  70 2.72
  72  0.934  0.724  0.414-  32 2.06   9 2.10  22 2.16  12 2.36  24 2.36
 
  LATTYP: Found a base centered orthorhombic cell.
 ALAT       =    11.4527836704
 B/A-ratio  =     1.4485816945
 C/A-ratio  =     1.8059804630
  
  Lattice vectors:
  
 A1 = (  10.0797329849,   0.0000000000,   0.0000000000)
 A2 = (  -3.5732980427,  -9.4251025535,   0.0000000000)
 A3 = (   0.0000000000,   0.0000000000, -20.6835035552)


Analysis of symmetry for initial positions (statically):
=====================================================================
 Subroutine PRICEL returns:
 Original cell was already a primitive cell.
 

 Routine SETGRP: Setting up the symmetry group for a 
 base centered orthorhombic supercell.


 Subroutine GETGRP returns: Found  1 space group operations
 (whereof  1 operations were pure point group operations)
 out of a pool of  8 trial point group operations.


The static configuration has the point symmetry C_1 .


Analysis of symmetry for dynamics (positions and initial velocities):
=====================================================================
 Subroutine PRICEL returns:
 Original cell was already a primitive cell.
 

 Routine SETGRP: Setting up the symmetry group for a 
 base centered orthorhombic supercell.


 Subroutine GETGRP returns: Found  1 space group operations
 (whereof  1 operations were pure point group operations)
 out of a pool of  8 trial point group operations.


The dynamic configuration has the point symmetry C_1 .


 Subroutine INISYM returns: Found  1 space group operations
 (whereof  1 operations are pure point group operations),
 and found     1 'primitive' translations

 
 
 KPOINTS: gamma-point-only calculation. no periodi

Automatic generation of k-mesh.
Space group operators:
 irot       det(A)        alpha          n_x          n_y          n_z        tau_x        tau_y        tau_z
    1     1.000000     0.000000     1.000000     0.000000     0.000000     0.000000     0.000000     0.000000
 
 Subroutine IBZKPT returns following result:
 ===========================================
 
 Found      1 irreducible k-points:
 
 Following reciprocal coordinates:
            Coordinates               Weight
  0.000000  0.000000  0.000000      1.000000
 
 Following cartesian coordinates:
            Coordinates               Weight
  0.000000  0.000000  0.000000      1.000000
 


--------------------------------------------------------------------------------------------------------




 Dimension of arrays:
   k-points           NKPTS =      1   k-points in BZ     NKDIM =      1   number of bands    NBANDS=    476
   number of dos      NEDOS =    301   number of ions     NIONS =     72
   non local maximal  LDIM  =      6   non local SUM 2l+1 LMDIM =     18
   total plane-waves  NPLWV = 314928
   max r-space proj   IRMAX =   1817   max aug-charges    IRDMAX=   5248
   dimension x,y,z NGX =    54 NGY =   54 NGZ =  108
   dimension x,y,z NGXF=   108 NGYF=  108 NGZF=  216
   support grid    NGXF=   108 NGYF=  108 NGZF=  216
   ions per type =              36  36
   NGX,Y,Z   is equivalent  to a cutoff of   8.91,  8.91,  8.68 a.u.
   NGXF,Y,Z  is equivalent  to a cutoff of  17.81, 17.81, 17.36 a.u.

 SYSTEM =  "Millerite NiS"                         
 POSCAR =  Type_036 Type_136                       

 Startparameter for this run:
   NWRITE =      2    write-flag & timer
   PREC   = normal    normal or accurate (medium, high low for compatibility)
   ISTART =      0    job   : 0-new  1-cont  2-samecut
   ICHARG =      2    charge: 1-file 2-atom 10-const
   ISPIN  =      1    spin polarized calculation?
   LNONCOLLINEAR =      F non collinear calculations
   LSORBIT =      F    spin-orbit coupling
   INIWAV =      1    electr: 0-lowe 1-rand  2-diag
   LASPH  =      F    aspherical Exc in radial PAW
   METAGGA=      F    non-selfconsistent MetaGGA calc.

 Electronic Relaxation 1
   ENCUT  =  450.0 eV  33.07 Ry    5.75 a.u.  17.43 17.43 35.78*2*pi/ulx,y,z
   ENINI  =  450.0     initial cutoff
   ENAUG  =  703.4 eV  augmentation charge cutoff
   NELM   =    100;   NELMIN=  2; NELMDL= -5     # of ELM steps 
   EDIFF  = 0.1E-03   stopping-criterion for ELM
   LREAL  =      T    real-space projection
   NLSPLINE    = F    spline interpolate recip. space projectors
   LCOMPAT=      F    compatible to vasp.4.4
   GGA_COMPAT  = T    GGA compatible to vasp.4.4-vasp.4.6
   LMAXPAW     = -100 max onsite density
   LMAXMIX     =    2 max onsite mixed and CHGCAR
   VOSKOWN=      0    Vosko Wilk Nusair interpolation
   ROPT   =   -0.00050  -0.00050
 Ionic relaxation
   EDIFFG = 0.1E-02   stopping-criterion for IOM
   NSW    =      0    number of steps for IOM
   NBLOCK =      1;   KBLOCK =      1    inner block; outer block 
   IBRION =     -1    ionic relax: 0-MD 1-quasi-New 2-CG
   NFREE  =      0    steps in history (QN), initial steepest desc. (CG)
   ISIF   =      2    stress and relaxation
   IWAVPR =     10    prediction:  0-non 1-charg 2-wave 3-comb
   ISYM   =      2    0-nonsym 1-usesym 2-fastsym
   LCORR  =      T    Harris-Foulkes like correction to forces

   POTIM  = 0.5000    time-step for ionic-motion
   TEIN   =    0.0    initial temperature
   TEBEG  =    0.0;   TEEND  =   0.0 temperature during run
   SMASS  =  -3.00    Nose mass-parameter (am)
   estimated Nose-frequenzy (Omega)   =  0.10E-29 period in steps =****** mass=  -0.232E-26a.u.
   SCALEE = 1.0000    scale energy and forces
   NPACO  =    256;   APACO  = 16.0  distance and # of slots for P.C.
   PSTRESS=    0.0 pullay stress

  Mass of Ions in am
   POMASS =  58.69 32.07
  Ionic Valenz
   ZVAL   =  16.00  6.00
  Atomic Wigner-Seitz radii
   RWIGS  =  -1.00 -1.00
  virtual crystal weights 
   VCA    =   1.00  1.00
   NELECT =     792.0000    total number of electrons
   NUPDOWN=      -1.0000    fix difference up-down

 DOS related values:
   EMIN   =  10.00;   EMAX   =-10.00  energy-range for DOS
   EFERMI =   0.00
   ISMEAR =     0;   SIGMA  =   0.20  broadening in eV -4-tet -1-fermi 0-gaus

 Electronic relaxation 2 (details)
   IALGO  =     38    algorithm
   LDIAG  =      T    sub-space diagonalisation (order eigenvalues)
   LSUBROT=      F    optimize rotation matrix (better conditioning)
   TURBO    =      0    0=normal 1=particle mesh
   IRESTART =      0    0=no restart 2=restart with 2 vectors
   NREBOOT  =      0    no. of reboots
   NMIN     =      0    reboot dimension
   EREF     =   0.00    reference energy to select bands
   IMIX   =      4    mixing-type and parameters
     AMIX     =   0.40;   BMIX     =  1.00
     AMIX_MAG =   1.60;   BMIX_MAG =  1.00
     AMIN     =   0.10
     WC   =   100.;   INIMIX=   1;  MIXPRE=   1;  MAXMIX= -45

 Intra band minimization:
   WEIMIN = 0.0000     energy-eigenvalue tresh-hold
   EBREAK =  0.53E-07  absolut break condition
   DEPER  =   0.30     relativ break condition  

   TIME   =   0.40     timestep for ELM

  volume/ion in A,a.u.               =      27.29       184.17
  Fermi-wavevector in a.u.,A,eV,Ry     =   1.209289  2.285225 19.896891  1.462380
  Thomas-Fermi vector in A             =   2.344871
 
 Write flags
   LWAVE        =      F    write WAVECAR
   LDOWNSAMPLE  =      F    k-point downsampling of WAVECAR
   LCHARG       =      F    write CHGCAR
   LVTOT        =      F    write LOCPOT, total local potential
   LVHAR        =      F    write LOCPOT, Hartree potential only
   LELF         =      F    write electronic localiz. function (ELF)
   LORBIT       =      0    0 simple, 1 ext, 2 COOP (PROOUT), +10 PAW based schemes


 Dipole corrections
   LMONO  =      F    monopole corrections only (constant potential shift)
   LDIPOL =      F    correct potential (dipole corrections)
   IDIPOL =      0    1-x, 2-y, 3-z, 4-all directions 
   EPSILON=  1.0000000 bulk dielectric constant

 Exchange correlation treatment:
   GGA     =    --    GGA type
   LEXCH   =     8    internal setting for exchange type
   VOSKOWN=      0    Vosko Wilk Nusair interpolation
   LHFCALC =     F    Hartree Fock is set to
   LHFONE  =     F    Hartree Fock one center treatment
   AEXX    =    0.0000 exact exchange contribution

 Linear response parameters
   LEPSILON=     F    determine dielectric tensor
   LRPA    =     F    only Hartree local field effects (RPA)
   LNABLA  =     F    use nabla operator in PAW spheres
   LVEL    =     F    velocity operator in full k-point grid
   LINTERFAST=   F  fast interpolation
   KINTER  =     0    interpolate to denser k-point grid
   CSHIFT  =0.1000    complex shift for real part using Kramers Kronig
   OMEGAMAX=  -1.0    maximum frequency
   DEG_THRESHOLD= 0.2000000E-02 threshold for treating states as degnerate
   RTIME   =   -0.100 relaxation time in fs
  (WPLASMAI=    0.000 imaginary part of plasma frequency in eV, 0.658/RTIME)
   DFIELD  = 0.0000000 0.0000000 0.0000000 field for delta impulse in time
 
 Orbital magnetization related:
   ORBITALMAG=     F  switch on orbital magnetization
   LCHIMAG   =     F  perturbation theory with respect to B field
   DQ        =  0.001000  dq finite difference perturbation B field
   LLRAUG    =     F  two centre corrections for induced B field



--------------------------------------------------------------------------------------------------------


 Static calculation
 charge density and potential will be updated during run
 non-spin polarized calculation
 Variant of blocked Davidson
 Davidson routine will perform the subspace rotation
 perform sub-space diagonalisation
    after iterative eigenvector-optimisation
 modified Broyden-mixing scheme, WC =      100.0
 initial mixing is a Kerker type mixing with AMIX =  0.4000 and BMIX =      1.0000
 Hartree-type preconditioning will be used
 using additional bands           80
 real space projection scheme for non local part
 use partial core corrections
 calculate Harris-corrections to forces 
   (improved forces if not selfconsistent)
 use gradient corrections 
 use of overlap-Matrix (Vanderbilt PP)
 Gauss-broadening in eV      SIGMA  =   0.20


--------------------------------------------------------------------------------------------------------


  energy-cutoff  :      450.00
  volume of cell :     1964.98
      direct lattice vectors                 reciprocal lattice vectors
    10.079732985  0.000000000  0.000000000     0.099208977 -0.037612667  0.000000000
     3.573298043  9.425102554  0.000000000     0.000000000  0.106099641  0.000000000
     0.000000000  0.000000000 20.683503555     0.000000000  0.000000000  0.048347708

  length of vectors
    10.079732985 10.079732985 20.683503555     0.106099641  0.106099641  0.048347708


 
 k-points in units of 2pi/SCALE and weight: gamma-point-only calculation. no periodi
   0.00000000  0.00000000  0.00000000       1.000
 
 k-points in reciprocal lattice and weights: gamma-point-only calculation. no periodi
   0.00000000  0.00000000  0.00000000       1.000
 
 position of ions in fractional coordinates (direct lattice) 
   0.24107319  0.96190898  0.06430723
   0.39705889  0.79495179  0.12693702
   0.54732740  0.64468328  0.25387405
   0.69759592  0.49441476  0.38081107
   0.11381506  0.41152895  0.16924937
   0.26408357  0.26126044  0.29618639
   0.41435209  0.11099193  0.42312341
   0.96641487  0.60574278  0.10679239
   0.09816983  0.78411734  0.45129051
   0.54874514  0.22279992  0.15054506
   0.83057123  0.02810611  0.21156171
   0.98083975  0.87783760  0.33849873
   0.36509630  0.55514716  0.11231435
   0.50762556  0.42017912  0.22033653
   0.65789407  0.26991061  0.34727355
   0.79773121  0.11405435  0.45914005
   0.07411322  0.18702479  0.13571184
   0.22438173  0.03675628  0.26264887
   0.37465025  0.88648777  0.38958589
   0.43701203  0.72524485  0.47494295
   0.06891794  0.38044709  0.04856684
   0.07933861  0.50640349  0.41675635
   0.79086939  0.80360196  0.17802418
   0.94113790  0.65333344  0.30496121
   0.01985062  0.17710858  0.42167000
   0.58211299  0.59904162  0.08044189
   0.73212972  0.45988096  0.18679900
   0.88239823  0.30961245  0.31373603
   0.29861738  0.22672664  0.10217432
   0.44888589  0.07645812  0.22911134
   0.59915440  0.92618961  0.35604837
   0.73346057  0.81913550  0.45149610
   0.01537355  0.84330380  0.14448666
   0.16564206  0.69303529  0.27142369
   0.31591057  0.54276677  0.39836071
   0.73931961  0.02761703  0.09528987
   0.01258794  0.00192012  0.47705494
   0.58579929  0.40599939  0.11724657
   0.73606781  0.25573088  0.24418359
   0.88633632  0.10546236  0.37112062
   0.16191000  0.16826974  0.04064392
   0.30255546  0.02257655  0.15955891
   0.45282398  0.87230804  0.28649593
   0.60309249  0.72203952  0.41343296
   0.01931164  0.63915371  0.20187125
   0.16958015  0.48888520  0.32880827
   0.28922006  0.35262938  0.43014183
   0.86185504  0.81559418  0.08282957
   0.44383006  0.78127597  0.03313331
   0.63635413  0.69187455  0.15995199
   0.78662264  0.54160604  0.28688901
   0.93142131  0.39649871  0.39910127
   0.20700444  0.46680482  0.08733220
   0.35311030  0.30845171  0.20226433
   0.50337881  0.15818320  0.32920136
   0.63418273  0.03291177  0.44145849
   0.06986647  0.92502888  0.24457667
   0.22013498  0.77476036  0.37151370
   0.28560409  0.63895805  0.48762027
   0.91959796  0.07529739  0.11763965
   0.20776474  0.77544795  0.09147566
   0.35047896  0.64131972  0.20265741
   0.50074748  0.49105120  0.32959444
   0.69095079  0.32900973  0.43890253
   0.06723514  0.25789688  0.24496976
   0.21750365  0.10762837  0.37190678
   0.40283423  0.94229604  0.48113410
   0.91696662  0.40816539  0.11803273
   0.51445852  0.13631154  0.06667024
   0.63951737  0.00858144  0.18071061
   0.78399131  0.87447404  0.28728210
   0.93425982  0.72420553  0.41421912
 
 position of ions in cartesian coordinates  (Angst):
   5.86714080  9.06609074  1.33009874
   6.84284728  7.49250214  2.62550239
   7.82055958  6.07620600  5.25100480
   8.79827188  4.65990985  7.87650718
   2.61774104  3.87870257  3.50066986
   3.59545334  2.46240643  6.12617225
   4.57316564  1.04611029  8.75167464
  11.90570331  5.70918782  2.20884078
   3.79141057  7.39038631  9.33426881
   6.32733499  2.09991205  3.11379925
   8.47236779  0.26490301  4.37583732
  13.02337813  8.27370942  7.00133973
   5.66377946  5.23231892  2.32305423
   6.61815534  3.96023129  4.55733130
   7.59586764  2.54393515  7.18283371
   8.44846776  1.07497396  9.49662491
   1.41533680  1.76272786  2.80699637
   2.39304911  0.34643173  5.43249877
   6.94405944  8.35523814  8.05800116
   6.99648061  6.83550713  9.82348424
   2.05412531  3.58575283  1.00453240
   2.60924259  4.77290487  8.61998142
  10.84326159  7.57403086  3.68216384
  11.82097388  6.15773471  6.30766623
   0.83295068  1.66926651  8.72161290
   8.00809775  5.64602875  1.66382006
   9.02296382  4.33442523  3.86365782
  10.00067612  2.91812908  6.48916021
   3.82014528  2.13692181  2.11332289
   4.79785758  0.72062566  4.73882528
   9.34886792  8.72943208  7.36432769
  10.32010201  7.72043610  9.33852116
   3.16833707  7.94822479  2.98849035
   4.14604938  6.53192865  5.61399275
   5.12376167  5.11563251  8.23949514
   7.55082812  0.26029331  1.97092845
   0.13374424  0.01809733  9.86716757
   7.35545728  3.82658586  2.42506979
   8.33316958  2.41028972  5.05057219
   9.31088188  0.99399359  7.67607458
   2.23328749  1.58595960  0.84065858
   3.13035103  0.21278630  3.30023726
   7.68136138  8.22159271  5.92573965
   8.65907368  6.80529657  8.55124204
   2.47854283  6.02408928  4.17540472
   3.45625514  4.60779315  6.80090710
   4.17531088  3.32356805  8.89683998
  11.60162977  7.68705878  1.71320562
   7.26542041  7.36360612  0.68531299
   8.88655369  6.52098861  3.30836755
   9.86426599  5.10469246  5.93386996
  10.80528615  3.73704103  8.25481261
   3.75458226  4.39968328  1.80633585
   4.66144744  2.90718904  4.18353503
   5.63915974  1.49089290  6.80903742
   6.50999620  0.31019685  9.13090816
   4.00963925  8.71849203  5.05870249
   4.98735154  7.30219589  7.68420489
   5.16200053  6.02224520 10.08569554
   9.53836188  0.70968561  2.43320010
   4.86511976  7.30867648  1.89203720
   5.82436087  6.04450409  4.19166532
   6.80207317  4.62820796  6.81716773
   8.14024933  3.10095047  9.07804206
   1.59925463  2.43070453  5.06683280
   2.57696692  1.01440839  7.69233519
   7.42756609  8.88123678  9.95153886
  10.70127531  3.84700067  2.44133041
   5.67268631  1.28475025  1.37897423
   6.47682836  0.08088095  3.73772851
  11.02717941  8.24200752  5.94200025
  12.00489171  6.82571138  8.56750266
 


--------------------------------------------------------------------------------------------------------


 use parallel FFT for orbitals z direction half grid
 k-point  1 :   0.0000 0.0000 0.0000  plane waves:   21301

 maximum and minimum number of plane-waves per node :      3554     3548

 maximum number of plane-waves:     21301
 maximum index in each direction: 
   IXMAX=   17   IYMAX=   17   IZMAX=   35
   IXMIN=  -17   IYMIN=  -17   IZMIN=    0


 real space projection operators:
  total allocation   :      11168.50 KBytes
  max/ min on nodes  :       1864.48       1856.14


 parallel 3D FFT for wavefunctions:
    minimum data exchange during FFTs selected (reduces bandwidth)
 parallel 3D FFT for charge:
    minimum data exchange during FFTs selected (reduces bandwidth)


 total amount of memory used by VASP MPI-rank0    68403. kBytes
=======================================================================

   base      :      30000. kBytes
   nonlr-proj:       2288. kBytes
   fftplans  :       8265. kBytes
   grid      :      13942. kBytes
   one-center:         93. kBytes
   wavefun   :      13815. kBytes
 
     INWAV:  cpu time    0.0001: real time    0.0001
 Broyden mixing: mesh for mixing (old mesh)
   NGX = 35   NGY = 35   NGZ = 71
  (NGX  =108   NGY  =108   NGZ  =216)
  gives a total of  86975 points

 initial charge density was supplied:
 charge density of overlapping atoms calculated
 number of electron     792.0000000 magnetization 
 keeping initial charge density in first step


--------------------------------------------------------------------------------------------------------


 Maximum index for non-local projection operator          301
 Maximum index for augmentation-charges          469 (set IRDMAX)


--------------------------------------------------------------------------------------------------------


 First call to EWALD:  gamma=   0.142
 Maximum number of real-space cells 3x 3x 2
 Maximum number of reciprocal cells 2x 2x 4

    FEWALD:  cpu time    0.0069: real time    0.0069


--------------------------------------- Iteration      1(   1)  ---------------------------------------


    POTLOK:  cpu time    0.2557: real time    0.2566
    SETDIJ:  cpu time    0.0174: real time    0.0174
     EDDAV:  cpu time    6.9309: real time    6.9325
       DOS:  cpu time    0.0013: real time    0.0013
    --------------------------------------------
      LOOP:  cpu time    7.2054: real time    7.2079

 eigenvalue-minimisations  :  1160
 total energy-change (2. order) : 0.9917844E+04  (-0.5135284E+05)
 number of electron     792.0000000 magnetization 
 augmentation part      792.0000000 magnetization 

 Free energy of the ion-electron system (eV)
  ---------------------------------------------------
  alpha Z        PSCENC =      1893.09323658
  Ewald energy   TEWEN  =    223189.25070662
  -Hartree energ DENC   =   -345390.91028122
  -exchange      EXHF   =         0.00000000
  -V(xc)+E(xc)   XCENC  =      3680.39070379
  PAW double counting   =    112729.53333415  -117641.51188735
  entropy T*S    EENTRO =        -0.33083505
  eigenvalues    EBANDS =     -4544.27616371
  atomic energy  EATOM  =    136002.60505376
  Solvation  Ediel_sol  =         0.00000000
  ---------------------------------------------------
  free energy    TOTEN  =      9917.84386757 eV

  energy without entropy =     9918.17470262  energy(sigma->0) =     9918.00928509


--------------------------------------------------------------------------------------------------------




--------------------------------------- Iteration      1(   2)  ---------------------------------------


     EDDAV:  cpu time    6.1519: real time    6.1534
       DOS:  cpu time    0.0012: real time    0.0012
    --------------------------------------------
      LOOP:  cpu time    6.1531: real time    6.1546

 eigenvalue-minimisations  :  1012
 total energy-change (2. order) :-0.9313956E+04  (-0.8982200E+04)
 number of electron     792.0000000 magnetization 
 augmentation part      792.0000000 magnetization 

 Free energy of the ion-electron system (eV)
  ---------------------------------------------------
  alpha Z        PSCENC =      1893.09323658
  Ewald energy   TEWEN  =    223189.25070662
  -Hartree energ DENC   =   -345390.91028122
  -exchange      EXHF   =         0.00000000
  -V(xc)+E(xc)   XCENC  =      3680.39070379
  PAW double counting   =    112729.53333415  -117641.51188735
  entropy T*S    EENTRO =        -0.66425179
  eigenvalues    EBANDS =    -13857.89918894
  atomic energy  EATOM  =    136002.60505376
  Solvation  Ediel_sol  =         0.00000000
  ---------------------------------------------------
  free energy    TOTEN  =       603.88742560 eV

  energy without entropy =      604.55167739  energy(sigma->0) =      604.21955149


--------------------------------------------------------------------------------------------------------




--------------------------------------- Iteration      1(   3)  ---------------------------------------


     EDDAV:  cpu time    6.4100: real time    6.4114
       DOS:  cpu time    0.0013: real time    0.0013
    --------------------------------------------
      LOOP:  cpu time    6.4113: real time    6.4126

 eigenvalue-minimisations  :  1072
 total energy-change (2. order) :-0.9443116E+03  (-0.9005427E+03)
 number of electron     792.0000000 magnetization 
 augmentation part      792.0000000 magnetization 

 Free energy of the ion-electron system (eV)
  ---------------------------------------------------
  alpha Z        PSCENC =      1893.09323658
  Ewald energy   TEWEN  =    223189.25070662
  -Hartree energ DENC   =   -345390.91028122
  -exchange      EXHF   =         0.00000000
  -V(xc)+E(xc)   XCENC  =      3680.39070379
  PAW double counting   =    112729.53333415  -117641.51188735
  entropy T*S    EENTRO =        -1.05203556
  eigenvalues    EBANDS =    -14801.82301932
  atomic energy  EATOM  =    136002.60505376
  Solvation  Ediel_sol  =         0.00000000
  ---------------------------------------------------
  free energy    TOTEN  =      -340.42418855 eV

  energy without entropy =     -339.37215299  energy(sigma->0) =     -339.89817077


--------------------------------------------------------------------------------------------------------




--------------------------------------- Iteration      1(   4)  ---------------------------------------


     EDDAV:  cpu time    6.8892: real time    6.8904
       DOS:  cpu time    0.0012: real time    0.0012
    --------------------------------------------
      LOOP:  cpu time    6.8904: real time    6.8916

 eigenvalue-minimisations  :  1120
 total energy-change (2. order) :-0.5789112E+02  (-0.5726055E+02)
 number of electron     792.0000000 magnetization 
 augmentation part      792.0000000 magnetization 

 Free energy of the ion-electron system (eV)
  ---------------------------------------------------
  alpha Z        PSCENC =      1893.09323658
  Ewald energy   TEWEN  =    223189.25070662
  -Hartree energ DENC   =   -345390.91028122
  -exchange      EXHF   =         0.00000000
  -V(xc)+E(xc)   XCENC  =      3680.39070379
  PAW double counting   =    112729.53333415  -117641.51188735
  entropy T*S    EENTRO =        -1.11140613
  eigenvalues    EBANDS =    -14859.65476463
  atomic energy  EATOM  =    136002.60505376
  Solvation  Ediel_sol  =         0.00000000
  ---------------------------------------------------
  free energy    TOTEN  =      -398.31530443 eV

  energy without entropy =     -397.20389830  energy(sigma->0) =     -397.75960136


--------------------------------------------------------------------------------------------------------




--------------------------------------- Iteration      1(   5)  ---------------------------------------


     EDDAV:  cpu time    7.1606: real time    7.1624
       DOS:  cpu time    0.0014: real time    0.0014
    CHARGE:  cpu time    0.2143: real time    0.2144
    MIXING:  cpu time    0.0077: real time    0.0077
    --------------------------------------------
      LOOP:  cpu time    7.3841: real time    7.3859

 eigenvalue-minimisations  :  1240
 total energy-change (2. order) :-0.2150283E+01  (-0.2147307E+01)
 number of electron     791.9999744 magnetization 
 augmentation part      286.7697415 magnetization 

 Broyden mixing:
  rms(total) = 0.95294E+01    rms(broyden)= 0.95203E+01
  rms(prec ) = 0.98753E+01
  weight for this iteration     100.00

 Free energy of the ion-electron system (eV)
  ---------------------------------------------------
  alpha Z        PSCENC =      1893.09323658
  Ewald energy   TEWEN  =    223189.25070662
  -Hartree energ DENC   =   -345390.91028122
  -exchange      EXHF   =         0.00000000
  -V(xc)+E(xc)   XCENC  =      3680.39070379
  PAW double counting   =    112729.53333415  -117641.51188735
  entropy T*S    EENTRO =        -1.11370408
  eigenvalues    EBANDS =    -14861.80274955
  atomic energy  EATOM  =    136002.60505376
  Solvation  Ediel_sol  =         0.00000000
  ---------------------------------------------------
  free energy    TOTEN  =      -400.46558730 eV

  energy without entropy =     -399.35188322  energy(sigma->0) =     -399.90873526


--------------------------------------------------------------------------------------------------------




--------------------------------------- Iteration      1(   6)  ---------------------------------------


    POTLOK:  cpu time    0.2480: real time    0.2479
    SETDIJ:  cpu time    0.0226: real time    0.0226
     EDDAV:  cpu time    6.8982: real time    6.8998
       DOS:  cpu time    0.0013: real time    0.0013
    CHARGE:  cpu time    0.2085: real time    0.2085
    MIXING:  cpu time    0.0082: real time    0.0082
    --------------------------------------------
      LOOP:  cpu time    7.3867: real time    7.3884

 eigenvalue-minimisations  :  1176
 total energy-change (2. order) :-0.6721963E+02  (-0.9246852E+02)
 number of electron     791.9999740 magnetization 
 augmentation part      344.6630424 magnetization 

 Broyden mixing:
  rms(total) = 0.15706E+02    rms(broyden)= 0.15704E+02
  rms(prec ) = 0.16319E+02
  weight for this iteration     100.00

 eigenvalues of (default mixing * dielectric matrix)
  average eigenvalue GAMMA=   0.2419
  0.2419

 Free energy of the ion-electron system (eV)
  ---------------------------------------------------
  alpha Z        PSCENC =      1893.09323658
  Ewald energy   TEWEN  =    223189.25070662
  -Hartree energ DENC   =   -342676.34559055
  -exchange      EXHF   =         0.00000000
  -V(xc)+E(xc)   XCENC  =      3606.51153427
  PAW double counting   =    117362.51136145  -122043.24085436
  entropy T*S    EENTRO =        -0.85320168
  eigenvalues    EBANDS =    -17801.21746145
  atomic energy  EATOM  =    136002.60505376
  Solvation  Ediel_sol  =         0.00000000
  ---------------------------------------------------
  free energy    TOTEN  =      -467.68521535 eV

  energy without entropy =     -466.83201367  energy(sigma->0) =     -467.25861451


--------------------------------------------------------------------------------------------------------




--------------------------------------- Iteration      1(   7)  ---------------------------------------


    POTLOK:  cpu time    0.2423: real time    0.2423
    SETDIJ:  cpu time    0.0351: real time    0.0351
     EDDAV:  cpu time    6.5529: real time    6.5544
       DOS:  cpu time    0.0012: real time    0.0012
    CHARGE:  cpu time    0.2099: real time    0.2099
    MIXING:  cpu time    0.0085: real time    0.0085
    --------------------------------------------
      LOOP:  cpu time    7.0499: real time    7.0515

 eigenvalue-minimisations  :  1056
 total energy-change (2. order) : 0.9517883E+02  (-0.2053815E+02)
 number of electron     791.9999723 magnetization 
 augmentation part      331.5479356 magnetization 

 Broyden mixing:
  rms(total) = 0.69296E+01    rms(broyden)= 0.69282E+01
  rms(prec ) = 0.71918E+01
  weight for this iteration     100.00

 eigenvalues of (default mixing * dielectric matrix)
  average eigenvalue GAMMA=   0.4766
  0.4766  0.4766

 Free energy of the ion-electron system (eV)
  ---------------------------------------------------
  alpha Z        PSCENC =      1893.09323658
  Ewald energy   TEWEN  =    223189.25070662
  -Hartree energ DENC   =   -343793.11701843
  -exchange      EXHF   =         0.00000000
  -V(xc)+E(xc)   XCENC  =      3631.24443111
  PAW double counting   =    121668.30226182  -126482.54830112
  entropy T*S    EENTRO =        -0.94564969
  eigenvalues    EBANDS =    -16480.39110197
  atomic energy  EATOM  =    136002.60505376
  Solvation  Ediel_sol  =         0.00000000
  ---------------------------------------------------
  free energy    TOTEN  =      -372.50638132 eV

  energy without entropy =     -371.56073163  energy(sigma->0) =     -372.03355648


--------------------------------------------------------------------------------------------------------




--------------------------------------- Iteration      1(   8)  ---------------------------------------


    POTLOK:  cpu time    0.2480: real time    0.2483
    SETDIJ:  cpu time    0.0174: real time    0.0174
     EDDAV:  cpu time    7.2099: real time    7.2116
       DOS:  cpu time    0.0014: real time    0.0014
    CHARGE:  cpu time    0.2044: real time    0.2044
    MIXING:  cpu time    0.0091: real time    0.0091
    --------------------------------------------
      LOOP:  cpu time    7.6902: real time    7.6922

 eigenvalue-minimisations  :  1248
 total energy-change (2. order) :-0.6368748E+02  (-0.2205362E+02)
 number of electron     791.9999766 magnetization 
 augmentation part      305.1773541 magnetization 

 Broyden mixing:
  rms(total) = 0.14507E+02    rms(broyden)= 0.14506E+02
  rms(prec ) = 0.16592E+02
  weight for this iteration     100.00

 eigenvalues of (default mixing * dielectric matrix)
  average eigenvalue GAMMA=   0.4698
  0.7764  0.4678  0.1652

 Free energy of the ion-electron system (eV)
  ---------------------------------------------------
  alpha Z        PSCENC =      1893.09323658
  Ewald energy   TEWEN  =    223189.25070662
  -Hartree energ DENC   =   -344554.77146654
  -exchange      EXHF   =         0.00000000
  -V(xc)+E(xc)   XCENC  =      3657.79356168
  PAW double counting   =    128227.21740398  -133182.06922478
  entropy T*S    EENTRO =        -0.91689595
  eigenvalues    EBANDS =    -15668.39623872
  atomic energy  EATOM  =    136002.60505376
  Solvation  Ediel_sol  =         0.00000000
  ---------------------------------------------------
  free energy    TOTEN  =      -436.19386338 eV

  energy without entropy =     -435.27696743  energy(sigma->0) =     -435.73541541


--------------------------------------------------------------------------------------------------------




--------------------------------------- Iteration      1(   9)  ---------------------------------------


    POTLOK:  cpu time    0.2448: real time    0.2449
    SETDIJ:  cpu time    0.0172: real time    0.0172
     EDDAV:  cpu time    7.0481: real time    7.0493
       DOS:  cpu time    0.0013: real time    0.0013
    CHARGE:  cpu time    0.4533: real time    0.4533
    MIXING:  cpu time    0.0090: real time    0.0090
    --------------------------------------------
      LOOP:  cpu time    7.7737: real time    7.7750

 eigenvalue-minimisations  :  1216
 total energy-change (2. order) : 0.5959479E+02  (-0.1380542E+02)
 number of electron     791.9999739 magnetization 
 augmentation part      305.8465443 magnetization 

 Broyden mixing:
  rms(total) = 0.61480E+01    rms(broyden)= 0.61403E+01
  rms(prec ) = 0.67494E+01
  weight for this iteration     100.00

 eigenvalues of (default mixing * dielectric matrix)
  average eigenvalue GAMMA=   0.6502
  1.6571  0.4066  0.4066  0.1306

 Free energy of the ion-electron system (eV)
  ---------------------------------------------------
  alpha Z        PSCENC =      1893.09323658
  Ewald energy   TEWEN  =    223189.25070662
  -Hartree energ DENC   =   -344705.55122155
  -exchange      EXHF   =         0.00000000
  -V(xc)+E(xc)   XCENC  =      3656.47628127
  PAW double counting   =    131618.51259196  -136593.04881763
  entropy T*S    EENTRO =        -1.00540805
  eigenvalues    EBANDS =    -15436.93149465
  atomic energy  EATOM  =    136002.60505376
  Solvation  Ediel_sol  =         0.00000000
  ---------------------------------------------------
  free energy    TOTEN  =      -376.59907169 eV

  energy without entropy =     -375.59366364  energy(sigma->0) =     -376.09636767


--------------------------------------------------------------------------------------------------------




--------------------------------------- Iteration      1(  10)  ---------------------------------------


    POTLOK:  cpu time    0.2449: real time    0.2449
    SETDIJ:  cpu time    0.0193: real time    0.0193
     EDDAV:  cpu time    7.4228: real time    7.4254
       DOS:  cpu time    0.0016: real time    0.0016
    CHARGE:  cpu time    0.2127: real time    0.2127
    MIXING:  cpu time    0.0100: real time    0.0100
    --------------------------------------------
      LOOP:  cpu time    7.9114: real time    7.9139

 eigenvalue-minimisations  :  1288
 total energy-change (2. order) :-0.3011387E+02  (-0.9372064E+01)
 number of electron     791.9999742 magnetization 
 augmentation part      303.5837943 magnetization 

 Broyden mixing:
  rms(total) = 0.93608E+01    rms(broyden)= 0.93573E+01
  rms(prec ) = 0.11096E+02
  weight for this iteration     100.00

 eigenvalues of (default mixing * dielectric matrix)
  average eigenvalue GAMMA=   0.6451
  2.1074  0.4190  0.4190  0.1400  0.1400

 Free energy of the ion-electron system (eV)
  ---------------------------------------------------
  alpha Z        PSCENC =      1893.09323658
  Ewald energy   TEWEN  =    223189.25070662
  -Hartree energ DENC   =   -344692.67618962
  -exchange      EXHF   =         0.00000000
  -V(xc)+E(xc)   XCENC  =      3652.64672015
  PAW double counting   =    137985.61961290  -142996.45183792
  entropy T*S    EENTRO =        -1.21290550
  eigenvalues    EBANDS =    -15439.58734281
  atomic energy  EATOM  =    136002.60505376
  Solvation  Ediel_sol  =         0.00000000
  ---------------------------------------------------
  free energy    TOTEN  =      -406.71294583 eV

  energy without entropy =     -405.50004033  energy(sigma->0) =     -406.10649308


--------------------------------------------------------------------------------------------------------




--------------------------------------- Iteration      1(  11)  ---------------------------------------


    POTLOK:  cpu time    0.2424: real time    0.2427
    SETDIJ:  cpu time    0.0173: real time    0.0173
     EDDAV:  cpu time    7.2321: real time    7.2333
       DOS:  cpu time    0.0012: real time    0.0012
    CHARGE:  cpu time    0.2118: real time    0.2119
    MIXING:  cpu time    0.0102: real time    0.0103
    --------------------------------------------
      LOOP:  cpu time    7.7151: real time    7.7166

 eigenvalue-minimisations  :  1256
 total energy-change (2. order) : 0.3067699E+02  (-0.6923624E+01)
 number of electron     791.9999734 magnetization 
 augmentation part      310.1379798 magnetization 

 Broyden mixing:
  rms(total) = 0.55637E+01    rms(broyden)= 0.55596E+01
  rms(prec ) = 0.65310E+01
  weight for this iteration     100.00

 eigenvalues of (default mixing * dielectric matrix)
  average eigenvalue GAMMA=   0.6382
  2.3962  0.4298  0.4298  0.3065  0.1574  0.1097

 Free energy of the ion-electron system (eV)
  ---------------------------------------------------
  alpha Z        PSCENC =      1893.09323658
  Ewald energy   TEWEN  =    223189.25070662
  -Hartree energ DENC   =   -344539.99748308
  -exchange      EXHF   =         0.00000000
  -V(xc)+E(xc)   XCENC  =      3649.93408099
  PAW double counting   =    141172.34994307  -146197.98649795
  entropy T*S    EENTRO =        -1.07753083
  eigenvalues    EBANDS =    -15544.20746480
  atomic energy  EATOM  =    136002.60505376
  Solvation  Ediel_sol  =         0.00000000
  ---------------------------------------------------
  free energy    TOTEN  =      -376.03595564 eV

  energy without entropy =     -374.95842481  energy(sigma->0) =     -375.49719023


--------------------------------------------------------------------------------------------------------




--------------------------------------- Iteration      1(  12)  ---------------------------------------


    POTLOK:  cpu time    0.2781: real time    0.2781
    SETDIJ:  cpu time    0.0363: real time    0.0363
     EDDAV:  cpu time    7.5768: real time    7.5780
       DOS:  cpu time    0.0011: real time    0.0011
    CHARGE:  cpu time    0.2147: real time    0.2147
    MIXING:  cpu time    0.0107: real time    0.0107
    --------------------------------------------
      LOOP:  cpu time    8.1178: real time    8.1189

 eigenvalue-minimisations  :  1304
 total energy-change (2. order) : 0.1517590E+01  (-0.5147908E+01)
 number of electron     791.9999736 magnetization 
 augmentation part      312.1209436 magnetization 

 Broyden mixing:
  rms(total) = 0.51987E+01    rms(broyden)= 0.51947E+01
  rms(prec ) = 0.57557E+01
  weight for this iteration     100.00

 eigenvalues of (default mixing * dielectric matrix)
  average eigenvalue GAMMA=   0.6205
  2.5277  0.5125  0.4399  0.4399  0.1735  0.1366  0.1133

 Free energy of the ion-electron system (eV)
  ---------------------------------------------------
  alpha Z        PSCENC =      1893.09323658
  Ewald energy   TEWEN  =    223189.25070662
  -Hartree energ DENC   =   -344448.20908041
  -exchange      EXHF   =         0.00000000
  -V(xc)+E(xc)   XCENC  =      3647.98308011
  PAW double counting   =    143066.60073075  -148099.60292181
  entropy T*S    EENTRO =        -0.94506397
  eigenvalues    EBANDS =    -15625.29410725
  atomic energy  EATOM  =    136002.60505376
  Solvation  Ediel_sol  =         0.00000000
  ---------------------------------------------------
  free energy    TOTEN  =      -374.51836563 eV

  energy without entropy =     -373.57330166  energy(sigma->0) =     -374.04583365


--------------------------------------------------------------------------------------------------------




--------------------------------------- Iteration      1(  13)  ---------------------------------------


    POTLOK:  cpu time    0.2411: real time    0.2411
    SETDIJ:  cpu time    0.0182: real time    0.0182
     EDDAV:  cpu time    7.2573: real time    7.2585
       DOS:  cpu time    0.0011: real time    0.0011
    CHARGE:  cpu time    0.2130: real time    0.2130
    MIXING:  cpu time    0.0110: real time    0.0110
    --------------------------------------------
      LOOP:  cpu time    7.7418: real time    7.7430

 eigenvalue-minimisations  :  1256
 total energy-change (2. order) : 0.1188237E+02  (-0.2314061E+01)
 number of electron     791.9999732 magnetization 
 augmentation part      314.4766665 magnetization 

 Broyden mixing:
  rms(total) = 0.32057E+01    rms(broyden)= 0.32034E+01
  rms(prec ) = 0.35878E+01
  weight for this iteration     100.00

 eigenvalues of (default mixing * dielectric matrix)
  average eigenvalue GAMMA=   0.5689
  2.4068  0.4973  0.4335  0.4335  0.3735  0.1469  0.1469  0.1129

 Free energy of the ion-electron system (eV)
  ---------------------------------------------------
  alpha Z        PSCENC =      1893.09323658
  Ewald energy   TEWEN  =    223189.25070662
  -Hartree energ DENC   =   -344449.64992528
  -exchange      EXHF   =         0.00000000
  -V(xc)+E(xc)   XCENC  =      3647.06071744
  PAW double counting   =    143496.31098579  -148528.80507402
  entropy T*S    EENTRO =        -0.90459968
  eigenvalues    EBANDS =    -15611.59710003
  atomic energy  EATOM  =    136002.60505376
  Solvation  Ediel_sol  =         0.00000000
  ---------------------------------------------------
  free energy    TOTEN  =      -362.63599882 eV

  energy without entropy =     -361.73139913  energy(sigma->0) =     -362.18369897


--------------------------------------------------------------------------------------------------------




--------------------------------------- Iteration      1(  14)  ---------------------------------------


    POTLOK:  cpu time    0.2433: real time    0.2433
    SETDIJ:  cpu time    0.0172: real time    0.0172
     EDDAV:  cpu time    7.6819: real time    7.6834
       DOS:  cpu time    0.0011: real time    0.0011
    CHARGE:  cpu time    0.2168: real time    0.2168
    MIXING:  cpu time    0.0110: real time    0.0110
    --------------------------------------------
      LOOP:  cpu time    8.1713: real time    8.1727

 eigenvalue-minimisations  :  1304
 total energy-change (2. order) : 0.2993390E+01  (-0.1179786E+01)
 number of electron     791.9999733 magnetization 
 augmentation part      313.7574565 magnetization 

 Broyden mixing:
  rms(total) = 0.27558E+01    rms(broyden)= 0.27543E+01
  rms(prec ) = 0.31102E+01
  weight for this iteration     100.00

 eigenvalues of (default mixing * dielectric matrix)
  average eigenvalue GAMMA=   0.5343
  2.2275  0.5365  0.5365  0.4622  0.4622  0.1679  0.1679  0.1139  0.1339

 Free energy of the ion-electron system (eV)
  ---------------------------------------------------
  alpha Z        PSCENC =      1893.09323658
  Ewald energy   TEWEN  =    223189.25070662
  -Hartree energ DENC   =   -344484.59414828
  -exchange      EXHF   =         0.00000000
  -V(xc)+E(xc)   XCENC  =      3648.08286960
  PAW double counting   =    142772.37314781  -147801.67428507
  entropy T*S    EENTRO =        -0.88631272
  eigenvalues    EBANDS =    -15577.89287703
  atomic energy  EATOM  =    136002.60505376
  Solvation  Ediel_sol  =         0.00000000
  ---------------------------------------------------
  free energy    TOTEN  =      -359.64260873 eV

  energy without entropy =     -358.75629602  energy(sigma->0) =     -359.19945237


--------------------------------------------------------------------------------------------------------




--------------------------------------- Iteration      1(  15)  ---------------------------------------


    POTLOK:  cpu time    0.2442: real time    0.2442
    SETDIJ:  cpu time    0.0171: real time    0.0171
     EDDAV:  cpu time    7.4297: real time    7.4310
       DOS:  cpu time    0.0011: real time    0.0011
    CHARGE:  cpu time    0.2141: real time    0.2142
    MIXING:  cpu time    0.0121: real time    0.0121
    --------------------------------------------
      LOOP:  cpu time    7.9183: real time    7.9197

 eigenvalue-minimisations  :  1296
 total energy-change (2. order) : 0.3154317E+01  (-0.4123691E+00)
 number of electron     791.9999731 magnetization 
 augmentation part      313.0233642 magnetization 

 Broyden mixing:
  rms(total) = 0.21378E+01    rms(broyden)= 0.21374E+01
  rms(prec ) = 0.24090E+01
  weight for this iteration     100.00

 eigenvalues of (default mixing * dielectric matrix)
  average eigenvalue GAMMA=   0.5023
  2.2154  0.5435  0.5435  0.4119  0.4119  0.3243  0.1780  0.1122  0.1413  0.1413

 Free energy of the ion-electron system (eV)
  ---------------------------------------------------
  alpha Z        PSCENC =      1893.09323658
  Ewald energy   TEWEN  =    223189.25070662
  -Hartree energ DENC   =   -344515.48080113
  -exchange      EXHF   =         0.00000000
  -V(xc)+E(xc)   XCENC  =      3649.27696147
  PAW double counting   =    141856.75567935  -146881.38255131
  entropy T*S    EENTRO =        -0.94502291
  eigenvalues    EBANDS =    -15549.66155432
  atomic energy  EATOM  =    136002.60505376
  Solvation  Ediel_sol  =         0.00000000
  ---------------------------------------------------
  free energy    TOTEN  =      -356.48829189 eV

  energy without entropy =     -355.54326898  energy(sigma->0) =     -356.01578043


--------------------------------------------------------------------------------------------------------




--------------------------------------- Iteration      1(  16)  ---------------------------------------


    POTLOK:  cpu time    0.2464: real time    0.2464
    SETDIJ:  cpu time    0.0171: real time    0.0171
     EDDAV:  cpu time    7.6369: real time    7.6378
       DOS:  cpu time    0.0014: real time    0.0014
    CHARGE:  cpu time    0.2150: real time    0.2150
    MIXING:  cpu time    0.0121: real time    0.0121
    --------------------------------------------
      LOOP:  cpu time    8.1289: real time    8.1298

 eigenvalue-minimisations  :  1296
 total energy-change (2. order) : 0.4469436E+00  (-0.1561227E+00)
 number of electron     791.9999735 magnetization 
 augmentation part      312.7187144 magnetization 

 Broyden mixing:
  rms(total) = 0.20135E+01    rms(broyden)= 0.20133E+01
  rms(prec ) = 0.22762E+01
  weight for this iteration     100.00

 eigenvalues of (default mixing * dielectric matrix)
  average eigenvalue GAMMA=   0.5093
  2.1930  0.6906  0.6906  0.4398  0.4398  0.4301  0.1846  0.1476  0.1476  0.1134
  0.1249

 Free energy of the ion-electron system (eV)
  ---------------------------------------------------
  alpha Z        PSCENC =      1893.09323658
  Ewald energy   TEWEN  =    223189.25070662
  -Hartree energ DENC   =   -344522.68084324
  -exchange      EXHF   =         0.00000000
  -V(xc)+E(xc)   XCENC  =      3649.40450716
  PAW double counting   =    141699.72824459  -146722.83544729
  entropy T*S    EENTRO =        -0.94060309
  eigenvalues    EBANDS =    -15543.66620340
  atomic energy  EATOM  =    136002.60505376
  Solvation  Ediel_sol  =         0.00000000
  ---------------------------------------------------
  free energy    TOTEN  =      -356.04134830 eV

  energy without entropy =     -355.10074521  energy(sigma->0) =     -355.57104676


--------------------------------------------------------------------------------------------------------




--------------------------------------- Iteration      1(  17)  ---------------------------------------


    POTLOK:  cpu time    0.2434: real time    0.2438
    SETDIJ:  cpu time    0.0174: real time    0.0175
     EDDAV:  cpu time    7.3494: real time    7.3505
       DOS:  cpu time    0.0012: real time    0.0012
    CHARGE:  cpu time    0.2096: real time    0.2097
    MIXING:  cpu time    0.0133: real time    0.0133
    --------------------------------------------
      LOOP:  cpu time    7.8344: real time    7.8359

 eigenvalue-minimisations  :  1280
 total energy-change (2. order) : 0.8844774E+00  (-0.3945203E-01)
 number of electron     791.9999733 magnetization 
 augmentation part      312.5481478 magnetization 

 Broyden mixing:
  rms(total) = 0.18589E+01    rms(broyden)= 0.18588E+01
  rms(prec ) = 0.20992E+01
  weight for this iteration     100.00

 eigenvalues of (default mixing * dielectric matrix)
  average eigenvalue GAMMA=   0.5190
  2.2045  0.8372  0.8372  0.4510  0.4510  0.4009  0.3217  0.1673  0.1673  0.1123
  0.1389  0.1389

 Free energy of the ion-electron system (eV)
  ---------------------------------------------------
  alpha Z        PSCENC =      1893.09323658
  Ewald energy   TEWEN  =    223189.25070662
  -Hartree energ DENC   =   -344531.95375639
  -exchange      EXHF   =         0.00000000
  -V(xc)+E(xc)   XCENC  =      3649.62552706
  PAW double counting   =    141368.86190429  -146388.91012537
  entropy T*S    EENTRO =        -0.95942938
  eigenvalues    EBANDS =    -15536.76998810
  atomic energy  EATOM  =    136002.60505376
  Solvation  Ediel_sol  =         0.00000000
  ---------------------------------------------------
  free energy    TOTEN  =      -355.15687092 eV

  energy without entropy =     -354.19744154  energy(sigma->0) =     -354.67715623


--------------------------------------------------------------------------------------------------------




--------------------------------------- Iteration      1(  18)  ---------------------------------------


    POTLOK:  cpu time    0.2475: real time    0.2475
    SETDIJ:  cpu time    0.0171: real time    0.0171
     EDDAV:  cpu time    7.7192: real time    7.7205
       DOS:  cpu time    0.0011: real time    0.0011
    CHARGE:  cpu time    0.2130: real time    0.2131
    MIXING:  cpu time    0.0126: real time    0.0126
    --------------------------------------------
      LOOP:  cpu time    8.2106: real time    8.2119

 eigenvalue-minimisations  :  1312
 total energy-change (2. order) : 0.5240013E+00  (-0.4041587E-01)
 number of electron     791.9999735 magnetization 
 augmentation part      312.5258888 magnetization 

 Broyden mixing:
  rms(total) = 0.17546E+01    rms(broyden)= 0.17545E+01
  rms(prec ) = 0.19884E+01
  weight for this iteration     100.00

 eigenvalues of (default mixing * dielectric matrix)
  average eigenvalue GAMMA=   0.5459
  2.2084  1.0781  1.0781  0.4795  0.4795  0.4466  0.4466  0.1784  0.1784  0.1442
  0.1442  0.1127  0.1220

 Free energy of the ion-electron system (eV)
  ---------------------------------------------------
  alpha Z        PSCENC =      1893.09323658
  Ewald energy   TEWEN  =    223189.25070662
  -Hartree energ DENC   =   -344535.05317670
  -exchange      EXHF   =         0.00000000
  -V(xc)+E(xc)   XCENC  =      3649.67366018
  PAW double counting   =    141144.34995404  -146161.69549712
  entropy T*S    EENTRO =        -0.95537525
  eigenvalues    EBANDS =    -15535.90143175
  atomic energy  EATOM  =    136002.60505376
  Solvation  Ediel_sol  =         0.00000000
  ---------------------------------------------------
  free energy    TOTEN  =      -354.63286964 eV

  energy without entropy =     -353.67749439  energy(sigma->0) =     -354.15518202


--------------------------------------------------------------------------------------------------------




--------------------------------------- Iteration      1(  19)  ---------------------------------------


    POTLOK:  cpu time    0.2453: real time    0.2453
    SETDIJ:  cpu time    0.0172: real time    0.0172
     EDDAV:  cpu time    7.4298: real time    7.4312
       DOS:  cpu time    0.0012: real time    0.0012
    CHARGE:  cpu time    0.2107: real time    0.2107
    MIXING:  cpu time    0.0130: real time    0.0130
    --------------------------------------------
      LOOP:  cpu time    7.9172: real time    7.9186

 eigenvalue-minimisations  :  1304
 total energy-change (2. order) : 0.7503414E+00  (-0.2104247E-01)
 number of electron     791.9999736 magnetization 
 augmentation part      312.5092160 magnetization 

 Broyden mixing:
  rms(total) = 0.15552E+01    rms(broyden)= 0.15552E+01
  rms(prec ) = 0.17696E+01
  weight for this iteration     100.00

 eigenvalues of (default mixing * dielectric matrix)
  average eigenvalue GAMMA=   0.5774
  2.2110  1.3857  1.3857  0.5001  0.5001  0.4762  0.4762  0.2607  0.1924  0.1538
  0.1538  0.1124  0.1425  0.1333

 Free energy of the ion-electron system (eV)
  ---------------------------------------------------
  alpha Z        PSCENC =      1893.09323658
  Ewald energy   TEWEN  =    223189.25070662
  -Hartree energ DENC   =   -344542.70374467
  -exchange      EXHF   =         0.00000000
  -V(xc)+E(xc)   XCENC  =      3649.78004155
  PAW double counting   =    140819.45900308  -145833.07689182
  entropy T*S    EENTRO =        -0.97031934
  eigenvalues    EBANDS =    -15531.31961397
  atomic energy  EATOM  =    136002.60505376
  Solvation  Ediel_sol  =         0.00000000
  ---------------------------------------------------
  free energy    TOTEN  =      -353.88252822 eV

  energy without entropy =     -352.91220887  energy(sigma->0) =     -353.39736855


--------------------------------------------------------------------------------------------------------




--------------------------------------- Iteration      1(  20)  ---------------------------------------


    POTLOK:  cpu time    0.2480: real time    0.2480
    SETDIJ:  cpu time    0.0172: real time    0.0172
     EDDAV:  cpu time    8.1469: real time    8.1489
       DOS:  cpu time    0.0013: real time    0.0012
    CHARGE:  cpu time    0.2125: real time    0.2125
    MIXING:  cpu time    0.0136: real time    0.0137
    --------------------------------------------
      LOOP:  cpu time    8.6395: real time    8.6415

 eigenvalue-minimisations  :  1408
 total energy-change (2. order) : 0.1125597E+01  (-0.3456963E-01)
 number of electron     791.9999736 magnetization 
 augmentation part      312.4747745 magnetization 

 Broyden mixing:
  rms(total) = 0.12145E+01    rms(broyden)= 0.12144E+01
  rms(prec ) = 0.13767E+01
  weight for this iteration     100.00

 eigenvalues of (default mixing * dielectric matrix)
  average eigenvalue GAMMA=   0.6030
  2.2003  1.6414  1.6414  0.5745  0.5745  0.4450  0.4450  0.4168  0.2364  0.1124
  0.1711  0.1640  0.1469  0.1469  0.1276

 Free energy of the ion-electron system (eV)
  ---------------------------------------------------
  alpha Z        PSCENC =      1893.09323658
  Ewald energy   TEWEN  =    223189.25070662
  -Hartree energ DENC   =   -344555.89507242
  -exchange      EXHF   =         0.00000000
  -V(xc)+E(xc)   XCENC  =      3650.00122091
  PAW double counting   =    140261.38573396  -145268.55007067
  entropy T*S    EENTRO =        -0.98369712
  eigenvalues    EBANDS =    -15523.66404279
  atomic energy  EATOM  =    136002.60505376
  Solvation  Ediel_sol  =         0.00000000
  ---------------------------------------------------
  free energy    TOTEN  =      -352.75693117 eV

  energy without entropy =     -351.77323405  energy(sigma->0) =     -352.26508261


--------------------------------------------------------------------------------------------------------




--------------------------------------- Iteration      1(  21)  ---------------------------------------


    POTLOK:  cpu time    0.2471: real time    0.2474
    SETDIJ:  cpu time    0.0174: real time    0.0174
     EDDAV:  cpu time    7.4633: real time    7.4647
       DOS:  cpu time    0.0018: real time    0.0017
    CHARGE:  cpu time    0.2122: real time    0.2123
    MIXING:  cpu time    0.0144: real time    0.0144
    --------------------------------------------
      LOOP:  cpu time    7.9561: real time    7.9578

 eigenvalue-minimisations  :  1312
 total energy-change (2. order) : 0.7580924E+00  (-0.5296213E-01)
 number of electron     791.9999735 magnetization 
 augmentation part      312.2869740 magnetization 

 Broyden mixing:
  rms(total) = 0.85456E+00    rms(broyden)= 0.85434E+00
  rms(prec ) = 0.96293E+00
  weight for this iteration     100.00

 eigenvalues of (default mixing * dielectric matrix)
  average eigenvalue GAMMA=   0.6204
  2.1998  1.8000  1.8000  0.7134  0.7134  0.4566  0.4566  0.4668  0.2895  0.1124
  0.1808  0.1692  0.1479  0.1479  0.1302  0.1425

 Free energy of the ion-electron system (eV)
  ---------------------------------------------------
  alpha Z        PSCENC =      1893.09323658
  Ewald energy   TEWEN  =    223189.25070662
  -Hartree energ DENC   =   -344575.04762163
  -exchange      EXHF   =         0.00000000
  -V(xc)+E(xc)   XCENC  =      3650.22472512
  PAW double counting   =    139715.21545536  -144715.75549874
  entropy T*S    EENTRO =        -0.98727692
  eigenvalues    EBANDS =    -15510.59761896
  atomic energy  EATOM  =    136002.60505376
  Solvation  Ediel_sol  =         0.00000000
  ---------------------------------------------------
  free energy    TOTEN  =      -351.99883882 eV

  energy without entropy =     -351.01156190  energy(sigma->0) =     -351.50520036


--------------------------------------------------------------------------------------------------------




--------------------------------------- Iteration      1(  22)  ---------------------------------------


    POTLOK:  cpu time    0.2548: real time    0.2549
    SETDIJ:  cpu time    0.0172: real time    0.0172
     EDDAV:  cpu time    7.6377: real time    7.6393
       DOS:  cpu time    0.0013: real time    0.0012
    CHARGE:  cpu time    0.2179: real time    0.2180
    MIXING:  cpu time    0.0148: real time    0.0149
    --------------------------------------------
      LOOP:  cpu time    8.1437: real time    8.1455

 eigenvalue-minimisations  :  1296
 total energy-change (2. order) : 0.3222192E+00  (-0.3685575E-01)
 number of electron     791.9999737 magnetization 
 augmentation part      312.1701859 magnetization 

 Broyden mixing:
  rms(total) = 0.56570E+00    rms(broyden)= 0.56553E+00
  rms(prec ) = 0.62886E+00
  weight for this iteration     100.00

 eigenvalues of (default mixing * dielectric matrix)
  average eigenvalue GAMMA=   0.6342
  2.1963  1.9147  1.9147  0.8485  0.8485  0.4643  0.4643  0.4364  0.4364  0.2108
  0.1886  0.1124  0.1715  0.1484  0.1484  0.1489  0.1284

 Free energy of the ion-electron system (eV)
  ---------------------------------------------------
  alpha Z        PSCENC =      1893.09323658
  Ewald energy   TEWEN  =    223189.25070662
  -Hartree energ DENC   =   -344587.93876892
  -exchange      EXHF   =         0.00000000
  -V(xc)+E(xc)   XCENC  =      3650.38220619
  PAW double counting   =    139411.54304096  -144408.05557792
  entropy T*S    EENTRO =        -1.00999849
  eigenvalues    EBANDS =    -15501.54651836
  atomic energy  EATOM  =    136002.60505376
  Solvation  Ediel_sol  =         0.00000000
  ---------------------------------------------------
  free energy    TOTEN  =      -351.67661958 eV

  energy without entropy =     -350.66662108  energy(sigma->0) =     -351.17162033


--------------------------------------------------------------------------------------------------------




--------------------------------------- Iteration      1(  23)  ---------------------------------------


    POTLOK:  cpu time    0.2502: real time    0.2502
    SETDIJ:  cpu time    0.0172: real time    0.0172
     EDDAV:  cpu time    7.3527: real time    7.3543
       DOS:  cpu time    0.0013: real time    0.0013
    CHARGE:  cpu time    0.2133: real time    0.2133
    MIXING:  cpu time    0.0157: real time    0.0157
    --------------------------------------------
      LOOP:  cpu time    7.8504: real time    7.8521

 eigenvalue-minimisations  :  1288
 total energy-change (2. order) : 0.5419121E-01  (-0.1793685E-01)
 number of electron     791.9999735 magnetization 
 augmentation part      312.1335431 magnetization 

 Broyden mixing:
  rms(total) = 0.49587E+00    rms(broyden)= 0.49578E+00
  rms(prec ) = 0.55192E+00
  weight for this iteration     100.00

 eigenvalues of (default mixing * dielectric matrix)
  average eigenvalue GAMMA=   0.6597
  2.1567  2.0827  2.0827  1.0617  1.0617  0.5143  0.5143  0.4684  0.4684  0.2530
  0.1933  0.1124  0.1766  0.1613  0.1479  0.1479  0.1290  0.1424

 Free energy of the ion-electron system (eV)
  ---------------------------------------------------
  alpha Z        PSCENC =      1893.09323658
  Ewald energy   TEWEN  =    223189.25070662
  -Hartree energ DENC   =   -344594.36779780
  -exchange      EXHF   =         0.00000000
  -V(xc)+E(xc)   XCENC  =      3650.41501139
  PAW double counting   =    139271.34390513  -144265.76183708
  entropy T*S    EENTRO =        -1.00322735
  eigenvalues    EBANDS =    -15497.19747962
  atomic energy  EATOM  =    136002.60505376
  Solvation  Ediel_sol  =         0.00000000
  ---------------------------------------------------
  free energy    TOTEN  =      -351.62242837 eV

  energy without entropy =     -350.61920102  energy(sigma->0) =     -351.12081470


--------------------------------------------------------------------------------------------------------




--------------------------------------- Iteration      1(  24)  ---------------------------------------


    POTLOK:  cpu time    0.2495: real time    0.2496
    SETDIJ:  cpu time    0.0171: real time    0.0171
     EDDAV:  cpu time    7.5605: real time    7.5619
       DOS:  cpu time    0.0011: real time    0.0011
    CHARGE:  cpu time    0.2324: real time    0.2324
    MIXING:  cpu time    0.0176: real time    0.0176
    --------------------------------------------
      LOOP:  cpu time    8.0783: real time    8.0798

 eigenvalue-minimisations  :  1280
 total energy-change (2. order) : 0.9062142E-01  (-0.1228747E-01)
 number of electron     791.9999736 magnetization 
 augmentation part      312.1496457 magnetization 

 Broyden mixing:
  rms(total) = 0.32585E+00    rms(broyden)= 0.32572E+00
  rms(prec ) = 0.36298E+00
  weight for this iteration     100.00

 eigenvalues of (default mixing * dielectric matrix)
  average eigenvalue GAMMA=   0.6837
  2.1222  2.1222  2.1489  1.2736  1.2736  0.5986  0.5986  0.4640  0.4640  0.4861
  0.2392  0.1124  0.1849  0.1288  0.1482  0.1482  0.1728  0.1600  0.1440

 Free energy of the ion-electron system (eV)
  ---------------------------------------------------
  alpha Z        PSCENC =      1893.09323658
  Ewald energy   TEWEN  =    223189.25070662
  -Hartree energ DENC   =   -344603.96840799
  -exchange      EXHF   =         0.00000000
  -V(xc)+E(xc)   XCENC  =      3650.43344488
  PAW double counting   =    139016.29408422  -144007.22840724
  entropy T*S    EENTRO =        -1.01953023
  eigenvalues    EBANDS =    -15490.99198754
  atomic energy  EATOM  =    136002.60505376
  Solvation  Ediel_sol  =         0.00000000
  ---------------------------------------------------
  free energy    TOTEN  =      -351.53180695 eV

  energy without entropy =     -350.51227672  energy(sigma->0) =     -351.02204183


--------------------------------------------------------------------------------------------------------




--------------------------------------- Iteration      1(  25)  ---------------------------------------


    POTLOK:  cpu time    0.2504: real time    0.2504
    SETDIJ:  cpu time    0.0171: real time    0.0171
     EDDAV:  cpu time    7.2872: real time    7.2887
       DOS:  cpu time    0.0012: real time    0.0012
    CHARGE:  cpu time    0.2568: real time    0.2569
    MIXING:  cpu time    0.0180: real time    0.0180
    --------------------------------------------
      LOOP:  cpu time    7.8308: real time    7.8324

 eigenvalue-minimisations  :  1272
 total energy-change (2. order) : 0.1772719E-01  (-0.1383684E-01)
 number of electron     791.9999734 magnetization 
 augmentation part      312.2396552 magnetization 

 Broyden mixing:
  rms(total) = 0.29183E+00    rms(broyden)= 0.29159E+00
  rms(prec ) = 0.32331E+00
  weight for this iteration     100.00

 eigenvalues of (default mixing * dielectric matrix)
  average eigenvalue GAMMA=   0.6729
  1.9097  1.9097  2.0340  2.0340  0.9000  0.9000  0.6870  0.5277  0.4635  0.4635
  0.2477  0.1883  0.1883  0.1124  0.1695  0.1482  0.1482  0.1288  0.1545  0.1422

 Free energy of the ion-electron system (eV)
  ---------------------------------------------------
  alpha Z        PSCENC =      1893.09323658
  Ewald energy   TEWEN  =    223189.25070662
  -Hartree energ DENC   =   -344612.87030327
  -exchange      EXHF   =         0.00000000
  -V(xc)+E(xc)   XCENC  =      3650.36722370
  PAW double counting   =    138800.19384893  -143787.80782548
  entropy T*S    EENTRO =        -1.01687725
  eigenvalues    EBANDS =    -15485.32914335
  atomic energy  EATOM  =    136002.60505376
  Solvation  Ediel_sol  =         0.00000000
  ---------------------------------------------------
  free energy    TOTEN  =      -351.51407975 eV

[...]
    FORCOR:  cpu time    0.3366: real time    0.3367
    FORHAR:  cpu time    0.1484: real time    0.1484
    MIXING:  cpu time    0.0243: real time    0.0243
    OFIELD:  cpu time    0.0001: real time    0.0001

  FORCE on cell =-STRESS in cart. coord.  units (eV):
  Direction    XX          YY          ZZ          XY          YZ          ZX
  --------------------------------------------------------------------------------------
  Alpha Z  1893.09324  1893.09324  1893.09324
  Ewald  272654.33793276126.31165************ -1049.10137 -1165.37861  1139.29838
  Hartree308853.95806311278.94305************  -759.89497  -921.05698   903.50435
  E(xc)   -5051.48980 -5049.34634 -5056.30168    -0.63149    -0.78969     0.54002
  Local  ************************588012.25753  1792.83005  2072.14226 -2026.87308
  n-local  -620.43147  -611.57036  -625.32139     1.55203     2.81914    -2.56521
  augment  5797.03564  5777.97972  5807.16094     3.53490     0.24929    -1.47918
  Kinetic 11090.78490 11045.60843 11148.02572    10.54573    12.34884   -12.48489
  Fock        0.00000     0.00000     0.00000     0.00000     0.00000     0.00000
  -------------------------------------------------------------------------------------
  Total      80.41910    78.91356   105.56380    -1.16510     0.33425    -0.05962
  in kB      65.57081    64.34325    86.07289    -0.94998     0.27253    -0.04861
  external pressure =       72.00 kB  Pullay stress =        0.00 kB


 VOLUME and BASIS-vectors are now :
 -----------------------------------------------------------------------------
  energy-cutoff  :      450.00
  volume of cell :     1964.98
      direct lattice vectors                 reciprocal lattice vectors
    10.079732985  0.000000000  0.000000000     0.099208977 -0.037612667  0.000000000
     3.573298043  9.425102554  0.000000000     0.000000000  0.106099641  0.000000000
     0.000000000  0.000000000 20.683503555     0.000000000  0.000000000  0.048347708

  length of vectors
    10.079732985 10.079732985 20.683503555     0.106099641  0.106099641  0.048347708


 FORCES acting on ions
    electron-ion (+dipol)            ewald-force                    non-local-force                 convergence-correction
 -----------------------------------------------------------------------------------------------
   0.246E+03 0.227E+02 0.524E+04   -.247E+03 -.232E+02 -.524E+04   0.143E+01 0.523E+00 0.363E+01   0.956E-01 -.221E+00 0.171E+00
   -.299E+03 -.248E+03 0.307E+04   0.302E+03 0.249E+03 -.307E+04   -.273E+01 -.117E+01 -.163E+01   0.113E+00 -.276E+00 0.168E+00
   -.643E+02 -.428E+03 -.186E+03   0.637E+02 0.430E+03 0.186E+03   0.621E+00 -.142E+01 0.215E+00   -.529E-01 -.283E-01 -.188E+00
   -.619E+02 -.377E+03 -.359E+04   0.624E+02 0.381E+03 0.359E+04   0.406E-01 -.316E+01 -.218E+01   0.624E-01 -.117E-01 -.140E+00
   0.243E+02 -.217E+03 0.165E+04   -.248E+02 0.216E+03 -.164E+04   0.423E+00 0.239E+00 -.292E+01   0.132E+00 0.906E-01 0.311E+00
   0.254E+02 -.428E+03 -.134E+04   -.263E+02 0.428E+03 0.134E+04   0.854E+00 -.105E+01 -.926E-01   0.131E-01 0.290E-01 -.491E-01
   0.526E+02 -.768E+03 -.456E+04   -.539E+02 0.771E+03 0.456E+04   0.805E+00 -.167E+01 -.239E+01   -.118E-01 0.193E+00 -.888E-01
   0.328E+03 -.322E+03 0.446E+04   -.332E+03 0.320E+03 -.446E+04   0.323E+01 0.112E+01 0.455E+01   -.177E-01 0.292E+00 0.256E+00
   0.122E+03 -.793E+02 -.504E+04   -.122E+03 0.828E+02 0.504E+04   -.807E-01 -.327E+01 -.355E+01   -.135E+00 0.216E-02 -.845E-01
   -.327E+03 -.248E+02 0.321E+04   0.328E+03 0.272E+02 -.321E+04   -.150E+01 -.236E+01 0.402E+01   0.435E-01 0.917E-01 0.899E-01
   -.267E+03 -.463E+03 0.904E+03   0.270E+03 0.466E+03 -.902E+03   -.282E+01 -.319E+01 -.911E+00   -.234E-01 -.396E-01 0.559E-01
   -.103E+02 -.441E+03 -.206E+04   0.101E+02 0.442E+03 0.206E+04   0.325E+00 -.145E+01 0.140E+01   0.165E-01 -.569E-01 -.105E+00
   0.323E+03 0.164E+03 0.425E+04   -.324E+03 -.165E+03 -.425E+04   0.877E+00 0.164E+01 0.110E+01   0.187E+00 -.140E-01 0.125E+00
   0.214E+03 0.406E+02 0.630E+03   -.213E+03 -.384E+02 -.627E+03   -.160E+00 -.143E+01 -.207E+01   -.258E-01 -.605E-02 -.123E+00
   0.459E+03 0.151E+03 -.233E+04   -.462E+03 -.151E+03 0.232E+04   0.331E+01 -.143E+00 0.274E+00   -.722E-01 -.620E-01 -.187E+00
   0.232E+03 -.177E+03 -.521E+04   -.234E+03 0.175E+03 0.521E+04   0.150E+01 0.291E+01 -.264E+01   0.560E-01 -.592E-01 0.788E-02
   0.844E+03 0.269E+03 0.301E+04   -.848E+03 -.270E+03 -.301E+04   0.272E+01 -.412E-01 -.957E+00   -.667E-01 -.790E-01 0.338E+00
   0.435E+03 0.306E+03 -.166E+03   -.436E+03 -.306E+03 0.166E+03   0.155E+01 0.965E-01 -.176E+00   -.504E-01 -.457E-01 -.158E-01
   0.391E+03 0.567E+02 -.299E+04   -.394E+03 -.572E+02 0.299E+04   0.219E+01 0.783E+00 0.751E+00   -.126E+00 0.142E+00 -.283E+00
   -.185E+03 0.514E+03 -.532E+04   0.181E+03 -.515E+03 0.533E+04   0.557E+01 0.104E+01 -.123E+01   -.814E-01 -.108E-01 -.276E-01
   0.436E+03 -.253E+03 0.586E+04   -.439E+03 0.255E+03 -.586E+04   0.180E+01 -.131E+01 0.499E+01   0.649E-01 0.645E-01 0.176E+00
   0.377E+03 0.400E+03 -.449E+04   -.380E+03 -.401E+03 0.449E+04   0.270E+01 0.144E+01 -.185E+00   0.367E-01 0.495E-01 -.637E-01
   0.611E+03 0.279E+03 0.208E+04   -.613E+03 -.284E+03 -.207E+04   0.182E+01 0.334E+01 -.405E+00   0.111E-01 0.341E-01 0.799E-01
   0.459E+03 0.344E+03 -.119E+04   -.461E+03 -.344E+03 0.119E+04   0.143E+01 0.149E+00 0.227E+00   0.926E-01 0.539E-01 -.649E-01
   -.481E+03 -.242E+03 -.442E+04   0.487E+03 0.242E+03 0.443E+04   -.509E+01 -.270E+00 -.616E-01   0.500E-01 -.308E-01 -.506E-01
   -.637E+03 0.286E+03 0.521E+04   0.635E+03 -.283E+03 -.521E+04   0.287E+01 -.341E+01 0.311E+00   -.104E+00 -.247E-01 0.125E+00
   -.500E+03 0.271E+03 0.213E+04   0.501E+03 -.271E+03 -.213E+04   -.412E+00 0.224E+00 -.820E+00   -.165E+00 0.448E-01 -.142E-01
   -.375E+03 0.111E+03 -.112E+04   0.377E+03 -.111E+03 0.112E+04   -.205E+01 0.540E-01 0.295E+01   0.626E-01 -.419E-01 -.141E+00
   -.567E+03 0.229E+03 0.437E+04   0.570E+03 -.230E+03 -.437E+04   -.211E+01 0.962E+00 0.364E+01   0.334E+00 -.395E-01 0.246E+00
   -.202E+03 0.363E+03 0.767E+03   0.199E+03 -.364E+03 -.763E+03   0.170E+01 0.589E+00 -.219E+01   0.586E-01 0.110E-01 -.385E-01
   -.289E+03 0.130E+03 -.204E+04   0.291E+03 -.130E+03 0.203E+04   -.180E+01 0.114E+01 0.241E+01   0.837E-01 0.790E-01 -.235E+00
   -.186E+03 0.404E+03 -.510E+04   0.187E+03 -.406E+03 0.510E+04   -.457E+00 0.979E+00 0.211E+01   0.191E+00 -.903E-02 -.734E-01
   -.475E+03 -.548E+02 0.330E+04   0.481E+03 0.566E+02 -.330E+04   -.490E+01 -.144E+01 0.232E+01   -.522E-01 -.402E-01 0.181E+00
   -.463E+03 0.168E+03 -.147E+03   0.465E+03 -.167E+03 0.146E+03   -.144E+01 -.451E+00 0.220E+00   -.500E-01 0.265E-01 -.336E-01
   -.390E+03 0.473E+03 -.351E+04   0.394E+03 -.476E+03 0.351E+04   -.447E+01 0.290E+01 -.166E+01   -.184E+00 -.378E-01 -.151E+00
   -.284E+02 -.174E+03 0.515E+04   0.276E+02 0.178E+03 -.516E+04   -.516E+00 -.368E+01 0.727E+01   -.486E-01 0.192E-01 0.122E+00
   -.138E+03 -.159E+02 -.208E+04   0.139E+03 0.151E+02 0.209E+04   -.740E-01 0.591E+00 -.174E+01   0.268E-02 -.419E-01 -.292E-02
   -.180E+03 0.228E+03 0.174E+04   0.182E+03 -.230E+03 -.174E+04   -.189E+01 0.199E+01 0.374E+01   -.273E-01 0.438E-01 0.335E-01
   -.770E+02 0.103E+03 0.232E+03   0.773E+02 -.104E+03 -.233E+03   -.137E+00 0.149E+01 0.998E+00   -.335E-01 -.942E-02 -.554E-01
   0.805E+01 0.844E+02 -.878E+03   -.915E+01 -.868E+02 0.872E+03   0.408E+00 0.144E+01 0.167E+01   0.218E-01 -.622E-01 -.586E-01
   0.134E+03 0.110E+03 0.229E+04   -.135E+03 -.111E+03 -.229E+04   0.181E+00 0.917E+00 0.174E+01   0.389E-01 -.632E-01 -.147E-01
   -.427E+02 0.137E+03 0.935E+03   0.441E+02 -.138E+03 -.933E+03   -.134E+01 0.823E+00 -.917E+00   0.469E-01 -.302E-01 0.999E-01
   0.187E+02 0.139E+03 -.135E+03   -.188E+02 -.142E+03 0.134E+03   0.518E-01 0.222E+01 0.843E+00   -.146E-01 0.132E-01 -.774E-01
   -.801E+02 0.258E+03 -.140E+04   0.814E+02 -.260E+03 0.140E+04   -.118E+01 0.314E+00 -.137E+01   0.620E-01 -.137E-01 -.814E-01
   -.246E+02 0.792E+02 0.475E+03   0.257E+02 -.803E+02 -.473E+03   -.694E+00 0.108E+01 -.107E+01   0.144E-01 0.337E-01 0.474E-01
   -.308E+02 0.147E+03 -.541E+03   0.310E+02 -.148E+03 0.536E+03   0.562E+00 0.140E+01 0.180E+01   -.110E-01 0.315E-01 -.163E-01
   -.457E+02 0.158E+03 -.180E+04   0.457E+02 -.159E+03 0.181E+04   0.405E+00 -.317E-01 -.411E+00   -.279E-01 0.429E-02 -.205E-01
   0.117E+03 0.525E+01 0.217E+04   -.118E+03 -.651E+01 -.217E+04   0.328E+00 0.454E+00 0.296E+01   -.728E-02 0.163E-01 0.365E-01
   -.181E+03 -.419E+02 0.229E+04   0.184E+03 0.419E+02 -.229E+04   -.128E+01 0.363E+00 0.150E+01   0.533E-01 -.105E+00 0.278E-01
   -.164E+03 -.173E+03 0.101E+04   0.166E+03 0.174E+03 -.101E+04   -.146E+01 -.955E+00 0.100E+01   -.378E-01 -.138E-01 -.216E-01
   -.102E+03 -.100E+03 -.244E+03   0.104E+03 0.102E+03 0.244E+03   -.227E+01 -.168E+01 -.192E+00   0.353E-01 0.188E-01 -.571E-01
   -.946E+02 -.125E+03 -.156E+04   0.955E+02 0.125E+03 0.157E+04   -.177E+00 -.172E+00 -.740E+00   0.643E-01 0.885E-02 -.126E-01
   -.264E+03 -.206E+03 0.187E+04   0.266E+03 0.207E+03 -.187E+04   -.129E+01 -.968E+00 0.711E+00   0.169E+00 0.644E-01 0.105E+00
   0.260E+02 -.169E+03 0.440E+03   -.266E+02 0.172E+03 -.440E+03   -.304E+00 -.278E+01 0.940E+00   0.571E-01 0.217E-01 0.161E-02
   -.103E+03 -.149E+03 -.684E+03   0.104E+03 0.151E+03 0.683E+03   -.131E+01 -.229E+01 -.153E+00   -.697E-02 0.117E-01 -.463E-01
   -.437E+02 -.218E+03 -.184E+04   0.451E+02 0.218E+03 0.185E+04   -.593E+00 -.428E-01 -.549E+00   0.430E-02 0.407E-01 -.193E-01
   -.125E+03 -.128E+03 0.176E+03   0.127E+03 0.131E+03 -.177E+03   -.157E+01 -.227E+01 0.106E+01   -.228E-01 -.211E-01 0.150E-01
   -.150E+03 -.578E+02 -.918E+03   0.153E+03 0.600E+02 0.916E+03   -.155E+01 -.211E+01 -.137E+00   -.102E+00 0.555E-02 -.564E-01
   0.375E+02 0.246E+03 -.219E+04   -.371E+02 -.247E+03 0.220E+04   -.227E+00 0.722E+00 -.203E+01   -.140E+00 -.205E-01 0.673E-02
   -.762E+02 -.222E+03 0.161E+04   0.779E+02 0.223E+03 -.161E+04   -.130E+00 -.989E+00 0.309E+01   -.716E-01 -.253E-01 0.649E-01
   0.223E+03 0.729E+02 0.179E+04   -.228E+03 -.737E+02 -.179E+04   0.299E+01 0.400E+00 0.287E+01   0.195E-02 -.988E-01 0.801E-01
   0.121E+03 -.136E+03 0.398E+03   -.123E+03 0.138E+03 -.397E+03   0.213E+01 -.175E+01 0.161E+01   0.431E-02 -.252E-01 -.340E-01
   0.139E+03 -.491E+02 -.762E+03   -.141E+03 0.503E+02 0.764E+03   0.231E+01 -.856E+00 -.140E+01   -.498E-01 -.108E-01 -.898E-01
   0.112E+03 -.178E+03 -.203E+04   -.115E+03 0.180E+03 0.203E+04   0.109E+01 -.120E+01 -.131E+01   -.195E-02 -.198E-01 0.167E-01
   0.180E+03 -.619E+02 0.715E+02   -.182E+03 0.630E+02 -.713E+02   0.248E+01 -.109E+01 -.482E+00   0.529E-02 -.106E-01 0.229E-01
   0.110E+03 -.100E+03 -.116E+04   -.112E+03 0.102E+03 0.116E+04   0.295E+01 -.138E+01 -.892E+00   -.129E-01 0.237E-01 -.454E-01
   0.304E+02 -.203E+03 -.224E+04   -.314E+02 0.204E+03 0.225E+04   0.140E+00 -.419E+00 -.164E+01   -.802E-04 0.111E+00 0.248E-01
   0.440E+03 0.961E+01 0.144E+04   -.444E+03 -.941E+01 -.144E+04   0.262E+01 0.326E+00 0.215E+01   -.125E+00 0.545E-01 0.138E+00
   -.545E+02 0.113E+03 0.217E+04   0.536E+02 -.113E+03 -.217E+04   0.765E+00 -.442E+00 0.316E+01   0.366E-01 0.170E-01 0.360E-01
   0.184E+03 0.125E+03 0.756E+03   -.186E+03 -.126E+03 -.753E+03   0.141E+01 0.152E+01 -.196E+01   0.172E-01 0.135E-01 0.187E-01
   0.145E+03 -.487E+02 -.300E+03   -.148E+03 0.492E+02 0.301E+03   0.283E+01 -.855E+00 -.907E+00   0.548E-01 -.851E-02 -.437E-01
   0.167E+03 0.101E+03 -.157E+04   -.169E+03 -.999E+02 0.157E+04   0.146E+01 -.106E+01 -.257E+01   0.856E-01 -.139E-01 -.469E-01
 -----------------------------------------------------------------------------------------------
   -.152E+02 0.181E+02 -.280E+02   0.111E-11 -.213E-11 -.523E-11   0.149E+02 -.180E+02 0.277E+02   0.520E+00 0.281E-01 0.268E+00
 
 
 POSITION                                       TOTAL-FORCE (eV/Angst)
 -----------------------------------------------------------------------------------
      5.86714      9.06609      1.33010         0.411652     -0.226131     -0.816402
      6.84285      7.49250      2.62550         0.469779     -0.355200      3.976521
      7.82056      6.07621      5.25100         0.038599     -0.190566      0.121202
      8.79827      4.65991      7.87651         0.584536      0.843166     -0.813988
      2.61774      3.87870      3.50067         0.059418     -0.757764      2.021857
      3.59545      2.46241      6.12617        -0.050971     -0.492801     -0.110470
      4.57317      1.04611      8.75167        -0.567529      1.213151     -0.770885
     11.90570      5.70919      2.20884         0.130939     -0.248007     -0.899787
      3.79141      7.39039      9.33427        -0.540692      0.179128      0.615761
      6.32733      2.09991      3.11380         0.245614      0.153357      0.389990
      8.47237      0.26490      4.37584         0.869049     -0.032625      0.992840
     13.02338      8.27371      7.00134         0.145499     -0.367217     -0.353346
      5.66378      5.23232      2.32305        -0.183743      0.056883     -1.530229
      6.61816      3.96023      4.55733         0.140271      0.733059      0.812666
      7.59587      2.54394      7.18283        -0.080119     -0.364169     -1.552156
      8.44847      1.07497      9.49662        -0.585604      0.434642      1.383487
      1.41534      1.76273      2.80700        -0.585234     -0.425665      0.978525
      2.39305      0.34643      5.43250         0.028932     -0.056033     -0.054670
      6.94406      8.35524      8.05800        -0.796315      0.402516     -2.829011
      6.99648      6.83551      9.82348         0.995687     -0.350255      0.892129
      2.05413      3.58575      1.00453        -0.472178      0.655068     -1.456063
      2.60924      4.77290      8.61998        -0.963051     -0.322749      1.261425
     10.84326      7.57403      3.68216        -0.295871     -1.150985      0.800646
     11.82097      6.15773      6.30767        -0.050954      0.146362     -0.039502
      0.83295      1.66927      8.72161         0.828325      0.071945      0.983598
      8.00810      5.64603      1.66382         0.422822     -0.172150     -1.227532
      9.02296      4.33443      3.86366         0.065335      0.162905      0.041862
     10.00068      2.91813      6.48916        -0.040259     -0.129446     -1.296195
      3.82015      2.13692      2.11332         1.159425     -0.380101      0.838617
      4.79786      0.72063      4.73883        -0.840861     -0.034915      1.267646
      9.34887      8.72943      7.36433        -0.344700      0.338818     -1.503775
     10.32010      7.72044      9.33852         0.435939     -0.786605      1.118192
      3.16834      7.94822      2.98849         0.642571      0.292096      1.227356
      4.14605      6.53193      5.61399         0.279801      0.200534     -0.103377
      5.12376      5.11563      8.23950        -0.009005      0.135713     -1.824413
      7.55083      0.26029      1.97093        -1.308651      0.691500     -0.872161
      0.13374      0.01810      9.86717         0.845681     -0.320777      2.056836
      7.35546      3.82659      2.42507         0.067467     -0.441211     -0.851173
      8.33317      2.41029      5.05057         0.123634      0.037136     -0.236915
      9.31088      0.99399      7.67607        -0.676462     -1.021809     -3.697439
      2.23329      1.58596      0.84066        -0.682855     -0.265324     -3.490497
      3.13035      0.21279      3.30024         0.105726     -0.123775      0.730404
      7.68136      8.22159      5.92574        -0.087704     -0.219768     -0.072336
      8.65907      6.80530      8.55124         0.228772     -1.643035     -0.197947
      2.47854      6.02409      4.17540         0.401970     -0.004180      1.556488
      3.45626      4.60779      6.80091         0.725853      0.263136     -2.961972
      4.17531      3.32357      8.89684         0.445041     -0.812719      2.095843
     11.60163      7.68706      1.71321        -0.695901     -0.788725     -3.435059
      7.26542      7.36361      0.68531         1.233079      0.332864     -3.565411
      8.88655      6.52099      3.30837         0.223041      0.654616      1.105284
      9.86427      5.10469      5.93387        -0.127408      0.270577     -0.345206
     10.80529      3.73704      8.25481         0.757147      0.695903      2.183899
      3.75458      4.39968      1.80634         1.371706      0.854605     -1.541605
      4.66145      2.90719      4.18354        -0.802284      0.504907      1.204532
      5.63916      1.49089      6.80904        -0.146321      0.240776     -0.741893
      6.51000      0.31020      9.13091         0.758460      0.036814      1.865756
      4.00964      8.71849      5.05870         0.168601      0.037111      0.328636
      4.98735      7.30220      7.68420         0.929292      0.018711     -2.029425
      5.16200      6.02225     10.08570         0.031693     -0.693355      3.446412
      9.53836      0.70969      2.43320         1.451054      0.571383      0.016574
      4.86512      7.30868      1.89204        -1.900882     -0.522739     -1.419456
      5.82436      6.04450      4.19167         0.202715      0.596263      2.758463
      6.80207      4.62821      6.81717        -0.080300      0.350137     -0.316008
      8.14025      3.10095      9.07804        -1.443496      1.212503      3.193526
      1.59925      2.43070      5.06683         0.114034      0.040630     -0.223502
      2.57697      1.01441      7.69234         0.252358     -0.019970     -0.618169
      7.42757      8.88124      9.95154        -0.933276      0.918182      3.559376
     10.70128      3.84700      2.44133        -1.811513      0.585647      0.396225
      5.67269      1.28475      1.37897        -0.055104     -0.652539     -3.282703
      6.47683      0.08088      3.73773        -0.775656      0.145024      0.552347
     11.02718      8.24201      5.94200         0.362879     -0.385959      0.450621
     12.00489      6.82571      8.56750        -0.819497     -0.318497     -0.144861
 -----------------------------------------------------------------------------------
    total drift:                                0.202140      0.075413     -0.016478


--------------------------------------------------------------------------------------------------------



  FREE ENERGIE OF THE ION-ELECTRON SYSTEM (eV)
  ---------------------------------------------------
  free  energy   TOTEN  =      -351.47535302 eV

  energy  without entropy=     -350.44880322  energy(sigma->0) =     -350.96207812
 


--------------------------------------------------------------------------------------------------------


    POTLOK:  cpu time    0.3579: real time    0.3585


--------------------------------------------------------------------------------------------------------


     LOOP+:  cpu time  265.2613: real time  265.3154
    4ORBIT:  cpu time    0.0000: real time    0.0000

 total amount of memory used by VASP MPI-rank0    68403. kBytes
=======================================================================

   base      :      30000. kBytes
   nonlr-proj:       2288. kBytes
   fftplans  :       8265. kBytes
   grid      :      13942. kBytes
   one-center:         93. kBytes
   wavefun   :      13815. kBytes
 
  
  
 General timing and accounting informations for this job:
 ========================================================
  
                  Total CPU time used (sec):      267.994
                            User time (sec):      267.550
                          System time (sec):        0.444
                         Elapsed time (sec):      268.295
  
                   Maximum memory used (kb):      186828.
                   Average memory used (kb):           0.
  
                          Minor page faults:       130495
                          Major page faults:            0
                 Voluntary context switches:          215
