LAMMPS data file via write_data, version 5 Jun 2019, timestep = 54

74 atoms
2 atom types

0.0000000000000000e+00 1.6884694054200001e+01 xlo xhi
0.0000000000000000e+00 9.5784099999999999e+00 ylo yhi
0.0000000000000000e+00 1.6197619147600001e+01 zlo zhi
0.0000000000000000e+00 0.0000000000000000e+00 0.0000000000000000e+00 xy xz yz

Masses

1 58.71
2 32.06

Atoms # atomic

1 1 1.1855267275695116e+00 8.7317627942376994e+00 4.6129336563958026e+00 0 0 0
2 1 1.6807120366999999e+00 8.8448295298000001e+00 1.9497492390000000e+00 0 0 0
3 1 9.8312243663000007e+00 4.0556245298000002e+00 3.4920210149000002e+00 0 0 0
4 1 1.0598126906345479e+01 3.2763388003925775e+00 1.4495048856820096e+00 0 0 0
5 1 3.9930617975600700e+00 4.1456829284311061e+00 4.2641201988986381e+00 0 0 0
6 1 4.5463500242296098e+00 3.9861880946733113e+00 1.7957037889280714e+00 0 0 0
7 1 1.1598762900131073e+01 5.1286020542207689e-01 5.1282903086075891e+00 0 1 0
8 1 1.2742618274500002e+01 8.8448295298000001e+00 2.9779304176000001e+00 0 0 0
9 1 6.9198304750000004e+00 8.8448295298000001e+00 4.0061116122999998e+00 0 0 0
10 1 7.4862436785021167e+00 8.7531157368682528e+00 1.3281636396616476e+00 0 0 0
11 1 1.5562827339456469e+01 3.1297145936336848e+00 4.6612455633899055e+00 0 0 0
12 1 1.5654012182700001e+01 4.0556245298000002e+00 2.4638398364000000e+00 0 0 0
13 1 6.3398938482986056e+00 5.3424357243490146e+00 5.0179559596583632e+00 0 0 0
14 1 7.6778101065000000e+00 5.3209612259999997e+00 3.0845435678999999e+00 0 0 0
15 1 9.5161357030401330e+00 5.3239973090166854e+00 8.8630131945498936e-01 0 0 0
16 1 1.5828322453000000e+01 5.3175622600000005e-01 4.6268153437999997e+00 0 0 0
17 1 1.6411991831000002e+01 5.3175622600000005e-01 1.5422717759000000e+00 0 0 0
18 1 1.8550223070000005e+00 5.3209612259999997e+00 4.1127247463999996e+00 0 0 0
19 1 2.1615716068244533e+00 5.3223095172059720e+00 1.4737796963800582e+00 0 0 0
20 1 9.1954593646002820e+00 4.3419991729959084e-01 4.5250271930876309e+00 0 0 0
21 1 1.0589204014700000e+01 5.3175622600000005e-01 2.5704529705999999e+00 0 0 0
22 1 4.5413444986949969e+00 4.0476370291283664e-01 3.0784178604455912e+00 0 0 0
23 1 5.3394436065901223e+00 5.3979069648594191e-01 7.9906630087290731e-01 0 0 0
24 1 1.2130577241515358e+01 5.0783766940013457e+00 4.0093339860864257e+00 0 0 0
25 1 1.3500597922900003e+01 5.3209612259999997e+00 2.0563623731999998e+00 0 0 0
26 1 1.1940451841564848e+00 1.9123505672167909e+00 4.6030533474378492e+00 0 0 0
27 1 1.6807120366999999e+00 1.7970929222000001e+00 1.9497492390000000e+00 0 0 0
28 1 9.8312243663000007e+00 6.5862979222000009e+00 3.4920210149000002e+00 0 0 0
29 1 1.0579419278107698e+01 7.3879860896729967e+00 1.4533798859753089e+00 0 0 0
30 1 4.0084365668000004e+00 6.5862979222000009e+00 4.5202022095999999e+00 0 0 0
31 1 4.5425422435743767e+00 6.6686598914748743e+00 1.8480030861567001e+00 0 0 0
32 1 1.2940048010508175e+01 2.5509384920495615e+00 5.1563896040312880e+00 0 0 0
33 1 1.2742618274500002e+01 1.7970929222000001e+00 2.9779304176000001e+00 0 0 0
34 1 7.0541569265468844e+00 1.8677599629133876e+00 3.6883366874411134e+00 0 0 0
35 1 7.4863914607407871e+00 1.8767521793991029e+00 1.2542119688953766e+00 0 0 0
36 1 1.5752560006965597e+01 7.3404836406875837e+00 4.6586409217977263e+00 0 0 0
37 1 1.5654012182700001e+01 6.5862979222000009e+00 2.4638398364000000e+00 0 0 0
38 2 4.6037027483026877e-01 1.8782938802790488e+00 3.6495293541234031e-01 0 0 0
39 2 7.7632269596423393e+00 6.8908344071647099e+00 4.4515515456154899e+00 0 0 0
40 2 8.5054091306000004e+00 6.9321934642000000e+00 1.5660279006000000e+00 0 0 0
41 2 1.6537455154735451e+01 1.9345315953818882e+00 5.9762266382567288e+00 0 0 0
42 2 1.6655921460300000e+01 2.1429884642000001e+00 3.1082996927000002e+00 0 0 0
43 2 2.1209084992217901e+00 6.9934920977331112e+00 5.3102135688944179e+00 0 0 0
44 2 2.6826213141999999e+00 6.9321934642000000e+00 2.5942090953000001e+00 0 0 0
45 2 1.0833133660800000e+01 2.1429884642000001e+00 4.1364808711999999e+00 0 0 0
46 2 1.1770824598314833e+01 1.7157131777257986e+00 1.1626399030011332e+00 0 0 0
47 2 5.5940152224000004e+00 2.1429884642000001e+00 2.0801184980000000e+00 0 0 0
48 2 1.3744527569000001e+01 6.9321934642000000e+00 3.6223902737999998e+00 0 0 0
49 2 1.4382876665809697e+01 6.7352871468176660e+00 9.0417886508350631e-01 0 0 0
50 2 2.5133042869000000e+00 5.3175622600000005e-01 3.6271661742000001e+00 0 0 0
51 2 3.2714218747753496e+00 5.1923631873005649e-01 1.1788193273322900e+00 0 0 0
52 2 1.0385055297529568e+01 5.3274723750709825e+00 5.0266890294175317e+00 0 0 0
53 2 1.1247485994600000e+01 5.3209612259999997e+00 2.0848943983999999e+00 0 0 0
54 2 4.5532203861096887e+00 5.2116658506417393e+00 5.9500137610050903e+00 0 0 0
55 2 5.4246981781999999e+00 5.3209612259999997e+00 3.1130755930999974e+00 0 0 0
56 2 1.3575210524799999e+01 5.3175622600000005e-01 4.6553473689000002e+00 0 0 0
57 2 1.4289954670118684e+01 5.0954790171874398e-01 2.1013370610297248e+00 0 0 0
58 2 9.9143811693727879e-02 5.3221559216026515e+00 1.4353845755883616e+00 0 0 0
59 2 7.3648592994842419e+00 7.2884618057001771e-01 5.3655200325862928e+00 0 0 0
60 2 8.3360920864000008e+00 5.3175622600000005e-01 2.5989849956999973e+00 0 0 0
61 2 1.6486604432899998e+01 5.3209612259999997e+00 4.1412567715999948e+00 0 0 0
62 2 4.5591251300330016e-01 8.7588943384305260e+00 3.6671952070127334e-01 0 0 0
63 2 7.7475858933109789e+00 3.7700413468134988e+00 4.4479461505727631e+00 0 0 0
64 2 8.5054091306000004e+00 3.7097289879000002e+00 1.5660279006000000e+00 0 0 0
65 2 1.6504749119290896e+01 8.6830934019208126e+00 5.9624725628095288e+00 0 0 0
66 2 1.6655921460300000e+01 8.4989339878999992e+00 3.1082996927000002e+00 0 0 0
67 2 2.2121116176526172e+00 3.6214641680255535e+00 5.2513246107049030e+00 0 0 0
68 2 2.6826213141999999e+00 3.7097289879000002e+00 2.5942090953000001e+00 0 0 0
69 2 1.0833133660800000e+01 8.4989339878999992e+00 4.1364808711999999e+00 0 0 0
70 2 1.1787781322050169e+01 8.9197268507825047e+00 1.1763100086304392e+00 0 0 0
71 2 4.9333999692839496e+00 8.5089415860423543e+00 4.6123692775385221e+00 0 0 0
72 2 5.5940152224000004e+00 8.4989339878999992e+00 2.0801184980000000e+00 0 0 0
73 2 1.3744527569000001e+01 3.7097289879000002e+00 3.6223902737999998e+00 0 0 0
74 2 1.4415462758093105e+01 3.9530829444386075e+00 8.7245664125423450e-01 0 0 0

Velocities

1 0.0000000000000000e+00 0.0000000000000000e+00 0.0000000000000000e+00
2 0.0000000000000000e+00 0.0000000000000000e+00 0.0000000000000000e+00
3 0.0000000000000000e+00 0.0000000000000000e+00 0.0000000000000000e+00
4 0.0000000000000000e+00 0.0000000000000000e+00 0.0000000000000000e+00
5 0.0000000000000000e+00 0.0000000000000000e+00 0.0000000000000000e+00
6 0.0000000000000000e+00 0.0000000000000000e+00 0.0000000000000000e+00
7 0.0000000000000000e+00 0.0000000000000000e+00 0.0000000000000000e+00
8 0.0000000000000000e+00 0.0000000000000000e+00 0.0000000000000000e+00
9 0.0000000000000000e+00 0.0000000000000000e+00 0.0000000000000000e+00
10 0.0000000000000000e+00 0.0000000000000000e+00 0.0000000000000000e+00
11 0.0000000000000000e+00 0.0000000000000000e+00 0.0000000000000000e+00
12 0.0000000000000000e+00 0.0000000000000000e+00 0.0000000000000000e+00
13 0.0000000000000000e+00 0.0000000000000000e+00 0.0000000000000000e+00
14 0.0000000000000000e+00 0.0000000000000000e+00 0.0000000000000000e+00
15 0.0000000000000000e+00 0.0000000000000000e+00 0.0000000000000000e+00
16 0.0000000000000000e+00 0.0000000000000000e+00 0.0000000000000000e+00
17 0.0000000000000000e+00 0.0000000000000000e+00 0.0000000000000000e+00
18 0.0000000000000000e+00 0.0000000000000000e+00 0.0000000000000000e+00
19 0.0000000000000000e+00 0.0000000000000000e+00 0.0000000000000000e+00
20 0.0000000000000000e+00 0.0000000000000000e+00 0.0000000000000000e+00
21 0.0000000000000000e+00 0.0000000000000000e+00 0.0000000000000000e+00
22 0.0000000000000000e+00 0.0000000000000000e+00 0.0000000000000000e+00
23 0.0000000000000000e+00 0.0000000000000000e+00 0.0000000000000000e+00
24 0.0000000000000000e+00 0.0000000000000000e+00 0.0000000000000000e+00
25 0.0000000000000000e+00 0.0000000000000000e+00 0.0000000000000000e+00
26 0.0000000000000000e+00 0.0000000000000000e+00 0.0000000000000000e+00
27 0.0000000000000000e+00 0.0000000000000000e+00 0.0000000000000000e+00
28 0.0000000000000000e+00 0.0000000000000000e+00 0.0000000000000000e+00
29 0.0000000000000000e+00 0.0000000000000000e+00 0.0000000000000000e+00
30 0.0000000000000000e+00 0.0000000000000000e+00 0.0000000000000000e+00
31 0.0000000000000000e+00 0.0000000000000000e+00 0.0000000000000000e+00
32 0.0000000000000000e+00 0.0000000000000000e+00 0.0000000000000000e+00
33 0.0000000000000000e+00 0.0000000000000000e+00 0.0000000000000000e+00
34 0.0000000000000000e+00 0.0000000000000000e+00 0.0000000000000000e+00
35 0.0000000000000000e+00 0.0000000000000000e+00 0.0000000000000000e+00
36 0.0000000000000000e+00 0.0000000000000000e+00 0.0000000000000000e+00
37 0.0000000000000000e+00 0.0000000000000000e+00 0.0000000000000000e+00
38 0.0000000000000000e+00 0.0000000000000000e+00 0.0000000000000000e+00
39 0.0000000000000000e+00 0.0000000000000000e+00 0.0000000000000000e+00
40 0.0000000000000000e+00 0.0000000000000000e+00 0.0000000000000000e+00
41 0.0000000000000000e+00 0.0000000000000000e+00 0.0000000000000000e+00
42 0.0000000000000000e+00 0.0000000000000000e+00 0.0000000000000000e+00
43 0.0000000000000000e+00 0.0000000000000000e+00 0.0000000000000000e+00
44 0.0000000000000000e+00 0.0000000000000000e+00 0.0000000000000000e+00
45 0.0000000000000000e+00 0.0000000000000000e+00 0.0000000000000000e+00
46 0.0000000000000000e+00 0.0000000000000000e+00 0.0000000000000000e+00
47 0.0000000000000000e+00 0.0000000000000000e+00 0.0000000000000000e+00
48 0.0000000000000000e+00 0.0000000000000000e+00 0.0000000000000000e+00
49 0.0000000000000000e+00 0.0000000000000000e+00 0.0000000000000000e+00
50 0.0000000000000000e+00 0.0000000000000000e+00 0.0000000000000000e+00
51 0.0000000000000000e+00 0.0000000000000000e+00 0.0000000000000000e+00
52 0.0000000000000000e+00 0.0000000000000000e+00 0.0000000000000000e+00
53 0.0000000000000000e+00 0.0000000000000000e+00 0.0000000000000000e+00
54 0.0000000000000000e+00 0.0000000000000000e+00 0.0000000000000000e+00
55 0.0000000000000000e+00 0.0000000000000000e+00 0.0000000000000000e+00
56 0.0000000000000000e+00 0.0000000000000000e+00 0.0000000000000000e+00
57 0.0000000000000000e+00 0.0000000000000000e+00 0.0000000000000000e+00
58 0.0000000000000000e+00 0.0000000000000000e+00 0.0000000000000000e+00
59 0.0000000000000000e+00 0.0000000000000000e+00 0.0000000000000000e+00
60 0.0000000000000000e+00 0.0000000000000000e+00 0.0000000000000000e+00
61 0.0000000000000000e+00 0.0000000000000000e+00 0.0000000000000000e+00
62 0.0000000000000000e+00 0.0000000000000000e+00 0.0000000000000000e+00
63 0.0000000000000000e+00 0.0000000000000000e+00 0.0000000000000000e+00
64 0.0000000000000000e+00 0.0000000000000000e+00 0.0000000000000000e+00
65 0.0000000000000000e+00 0.0000000000000000e+00 0.0000000000000000e+00
66 0.0000000000000000e+00 0.0000000000000000e+00 0.0000000000000000e+00
67 0.0000000000000000e+00 0.0000000000000000e+00 0.0000000000000000e+00
68 0.0000000000000000e+00 0.0000000000000000e+00 0.0000000000000000e+00
69 0.0000000000000000e+00 0.0000000000000000e+00 0.0000000000000000e+00
70 0.0000000000000000e+00 0.0000000000000000e+00 0.0000000000000000e+00
71 0.0000000000000000e+00 0.0000000000000000e+00 0.0000000000000000e+00
72 0.0000000000000000e+00 0.0000000000000000e+00 0.0000000000000000e+00
73 0.0000000000000000e+00 0.0000000000000000e+00 0.0000000000000000e+00
74 0.0000000000000000e+00 0.0000000000000000e+00 0.0000000000000000e+00
