"Millerite NiS"                         
           1
    11.256463    0.000000    0.000000
     5.044562   10.062820    0.000000
     0.000000    0.000000   22.883649
   Ty   Ty
  52  52
Direct configuration=     1
   0.26092070  0.47878036  0.29050611
   0.35488056  0.38482049  0.41880986
   0.45564919  0.29876928  0.52344552
   0.03438545  0.20267690  0.08949860
   0.16696083  0.07274024  0.16220237
   0.04370816  0.05309328  0.49704535
   0.20586139  0.53490848  0.05840394
   0.27423906  0.33335899  0.12830375
   0.36819893  0.23939913  0.25660749
   0.46215880  0.14543926  0.38491124
   0.00030194  0.37150212  0.25660749
   0.09426181  0.27754226  0.38491124
   0.18371065  0.19397631  0.49761771
   0.40634206  0.46546199  0.12830375
   0.22699889  0.00679626  0.05298242
   0.76092070  0.47878036  0.29050611
   0.85488056  0.38482049  0.41880986
   0.94146719  0.29853549  0.53352572
   0.54206961  0.20516291  0.08547262
   0.66696083  0.07274024  0.16220237
   0.54595884  0.04924605  0.49533393
   0.71349863  0.31353485  0.03352815
   0.77423906  0.33335899  0.12830375
   0.86819893  0.23939913  0.25660749
   0.96215880  0.14543926  0.38491124
   0.50030194  0.37150212  0.25660749
   0.59426181  0.27754226  0.38491124
   0.67206167  0.22885904  0.48597087
   0.90634206  0.46546199  0.12830375
   0.80875024  0.04136504  0.02299551
   0.26092070  0.97878036  0.29050611
   0.35488056  0.88482049  0.41880986
   0.16696083  0.57274024  0.16220237
   0.08949556  0.52777274  0.47406422
   0.27423907  0.83335899  0.12830375
   0.36819893  0.73939913  0.25660749
   0.46215880  0.64543926  0.38491124
   0.00030194  0.87150212  0.25660749
   0.09426181  0.77754226  0.38491124
   0.40634206  0.96546199  0.12830375
   0.76092070  0.97878036  0.29050611
   0.85488056  0.88482049  0.41880986
   0.81487221  0.00839133  0.50744839
   0.66696083  0.57274024  0.16220237
   0.70369910  0.89742733  0.02703607
   0.77423907  0.83335899  0.12830375
   0.86819893  0.73939913  0.25660749
   0.96215880  0.64543926  0.38491124
   0.50030194  0.87150212  0.25660749
   0.59426181  0.77754226  0.38491124
   0.90634206  0.96546199  0.12830375
   0.71522437  0.52993017  0.05665155
   0.07287763  0.16682343  0.30639927
   0.16683750  0.07286357  0.43470302
   0.37524959  0.36228127  0.05596853
   0.47891775  0.26078330  0.17809552
   0.27536478  0.46115446  0.50900956
   0.03023343  0.37768264  0.47786825
   0.43627354  0.47164251  0.34956450
   0.24835381  0.15956225  0.09295701
   0.34231368  0.06560239  0.22126075
   0.08180390  0.48205229  0.10578444
   0.17409868  0.39738738  0.22126075
   0.26805855  0.30342751  0.34956450
   0.36201842  0.20946765  0.47786825
   0.57287763  0.16682343  0.30639927
   0.66683750  0.07286357  0.43470302
   0.88495789  0.35474317  0.04979178
   0.97891775  0.26078330  0.17809552
   0.78012686  0.45887247  0.50206111
   0.51423277  0.40169212  0.46038821
   0.93627354  0.47164251  0.34956450
   0.74835381  0.15956225  0.09295701
   0.84231368  0.06560239  0.22126075
   0.58699034  0.46732933  0.09523846
   0.67409868  0.39738738  0.22126075
   0.76805855  0.30342751  0.34956450
   0.86201842  0.20946765  0.47786825
   0.07287764  0.66682343  0.30639927
   0.17673831  0.57570104  0.40539795
   0.39891666  0.84149084  0.06404742
   0.47891775  0.76078330  0.17809552
   0.10204115  0.13457899  0.56468493
   0.00410275  0.89861979  0.46759427
   0.43627354  0.97164251  0.34956450
   0.25803241  0.65788049  0.10615548
   0.34231368  0.56560239  0.22126075
   0.07851357  0.99215950  0.10219273
   0.17409868  0.89738738  0.22126075
   0.26805855  0.80342751  0.34956450
   0.39408583  0.71945855  0.46406699
   0.57287764  0.66682343  0.30639927
   0.66729065  0.57480310  0.40570692
   0.88597051  0.85525540  0.05841399
   0.97891775  0.76078330  0.17809552
   0.63570070  0.12630826  0.55358283
   0.51961028  0.88960313  0.46027250
   0.93627354  0.97164251  0.34956450
   0.75705992  0.65893244  0.10658252
   0.84231368  0.56560239  0.22126075
   0.58013882  0.99134724  0.09295701
   0.67409868  0.89738738  0.22126075
   0.76805855  0.80342751  0.34956450
   0.91722293  0.70780552  0.46879199
