<?xml version="1.0" encoding="ISO-8859-1"?>
<modeling>
 <generator>
  <i name="program" type="string">vasp </i>
  <i name="version" type="string">5.4.4.18Apr17-6-g9f103f2a35  </i>
  <i name="subversion" type="string">(build Aug 13 2019 17:33:20) gamma-only         parallel </i>
  <i name="platform" type="string">LinuxIFC </i>
  <i name="date" type="string">2020 05 11 </i>
  <i name="time" type="string">11:22:56 </i>
 </generator>
 <incar>
  <i type="string" name="SYSTEM">"Millerite NiS"</i>
  <i type="string" name="PREC">normal</i>
  <i type="int" name="NSIM">     4</i>
  <i type="int" name="NELM">   100</i>
  <i name="ENCUT">    450.00000000</i>
  <i type="string" name="LREAL">A</i>
  <i type="int" name="ISMEAR">     0</i>
  <i type="int" name="NWRITE">     2</i>
  <i type="logical" name="LWAVE"> F  </i>
  <i type="logical" name="LCHARG"> F  </i>
  <v type="int" name="KPOINT_BSE">    -1     0     0     0</v>
  <i type="int" name="NELM">   100</i>
 </incar>
 <structure name="primitive_cell" >
  <crystal>
   <varray name="basis" >
    <v>      11.25646304       0.00000000       0.00000000 </v>
    <v>       5.04456212      10.06282034       0.00000000 </v>
    <v>       0.00000000       0.00000000      22.51995597 </v>
   </varray>
   <i name="volume">   2550.87516496 </i>
   <varray name="rec_basis" >
    <v>       0.08883785      -0.04453504       0.00000000 </v>
    <v>       0.00000000       0.09937572       0.00000000 </v>
    <v>       0.00000000       0.00000000       0.04440506 </v>
   </varray>
  </crystal>
  <varray name="positions" >
   <v>       0.26092069       0.47878037       0.29519774 </v>
   <v>       0.07287763      -0.33317655       0.31134757 </v>
   <v>       0.17409868       0.39738739       0.22483408 </v>
   <v>       0.34231367      -0.43439760       0.22483408 </v>
   <v>       0.26805854       0.30342752       0.35520991 </v>
   <v>       0.43627354       0.47164252       0.35520991 </v>
   <v>       0.36819893       0.23939914       0.26075166 </v>
   <v>      -0.49969806       0.37150214       0.26075166 </v>
   <v>       0.35488056       0.38482050       0.42557357 </v>
   <v>       0.16696083      -0.42725975       0.16482191 </v>
   <v>       0.16683750      -0.42713642       0.44172340 </v>
   <v>       0.47891775       0.26078331       0.18097174 </v>
   <v>      -0.42712237       0.16682345       0.31134757 </v>
   <v>       0.00030194       0.37150214       0.26075166 </v>
   <v>       0.09426180      -0.22245773       0.39112749 </v>
   <v>      -0.03784121      -0.35456073       0.39112749 </v>
   <v>       0.36819893      -0.26060086       0.26075166 </v>
   <v>      -0.06372646       0.47164252       0.35520991 </v>
   <v>       0.26805854      -0.19657248       0.35520991 </v>
   <v>       0.40634206       0.46546200       0.13037583 </v>
   <v>       0.27423906       0.33335901       0.13037583 </v>
   <v>       0.46215879       0.14543927       0.39112749 </v>
   <v>      -0.40573820       0.27754227       0.39112749 </v>
   <v>       0.09426180       0.27754227       0.39112749 </v>
   <v>       0.46215879      -0.35456073       0.39112749 </v>
   <v>       0.00030194      -0.12849786       0.26075166 </v>
   <v>      -0.13180107      -0.26060086       0.26075166 </v>
   <v>      -0.02108225      -0.23921669       0.18097174 </v>
   <v>       0.34231367       0.06560240       0.22483408 </v>
   <v>      -0.32590132       0.39738739       0.22483408 </v>
   <v>      -0.48353495       0.38627893       0.46483242 </v>
   <v>      -0.15768633      -0.43439760       0.22483408 </v>
   <v>       0.17409868      -0.10261261       0.22483408 </v>
   <v>       0.08052109       0.48392883       0.10906742 </v>
   <v>       0.25577224      -0.34082004       0.10906741 </v>
   <v>       0.23049545      -0.26630243       0.47288101 </v>
   <v>       0.07287763       0.16682345       0.31134757 </v>
   <v>      -0.42712237      -0.33317655       0.31134757 </v>
   <v>       0.00086571      -0.49185531       0.47230887 </v>
   <v>       0.41526696       0.21013682       0.47592229 </v>
   <v>      -0.06372646      -0.02835748       0.35520991 </v>
   <v>      -0.23194146      -0.19657248       0.35520991 </v>
   <v>      -0.23194146       0.30342752       0.35520991 </v>
   <v>       0.43627354      -0.02835748       0.35520991 </v>
   <v>       0.04228767      -0.30317896      -0.49612633 </v>
   <v>      -0.02108225       0.26078331       0.18097174 </v>
   <v>       0.47891775      -0.23921669       0.18097174 </v>
   <v>       0.27423906      -0.16664099       0.13037583 </v>
   <v>      -0.09365794       0.46546200       0.13037583 </v>
   <v>       0.37847876       0.36122231       0.05816369 </v>
   <v>       0.41639286      -0.28904284       0.47703005 </v>
   <v>       0.02858018       0.32019092       0.47728675 </v>
   <v>      -0.41696773       0.48253810       0.10696906 </v>
   <v>       0.25716301       0.15666876       0.10696906 </v>
   <v>      -0.32251528       0.07378434       0.41989917 </v>
   <v>      -0.33303918       0.07274025       0.16482191 </v>
   <v>      -0.14511944      -0.11517949       0.42557357 </v>
   <v>       0.26092069      -0.02121963       0.29519774 </v>
   <v>      -0.23907931       0.47878037       0.29519774 </v>
   <v>      -0.33126537      -0.43246316       0.41991732 </v>
   <v>       0.16996757       0.07026068       0.42120907 </v>
   <v>       0.03023342      -0.12231735       0.48558574 </v>
   <v>      -0.13798159      -0.29053234       0.48558574 </v>
   <v>       0.16696082       0.07274025       0.16482191 </v>
   <v>      -0.14511944       0.38482050       0.42557357 </v>
   <v>       0.35488056      -0.11517949       0.42557357 </v>
   <v>      -0.23907931      -0.02121963       0.29519774 </v>
   <v>      -0.33303917      -0.42725975       0.16482191 </v>
   <v>       0.18678210       0.42827093       0.03386524 </v>
   <v>       0.31143036      -0.44708105       0.03386523 </v>
   <v>      -0.49969806      -0.12849786       0.26075166 </v>
   <v>      -0.13180107       0.23939914       0.26075166 </v>
   <v>      -0.42764837       0.02330108       0.47891881 </v>
   <v>      -0.15768633       0.06560240       0.22483408 </v>
   <v>      -0.32590132      -0.10261261       0.22483408 </v>
   <v>      -0.09365794      -0.03453800       0.13037583 </v>
   <v>      -0.22576094      -0.16664099       0.13037583 </v>
   <v>      -0.22576094       0.33335901       0.13037583 </v>
   <v>       0.40634206      -0.03453800       0.13037583 </v>
   <v>      -0.03784121       0.14543927       0.39112749 </v>
   <v>      -0.40573820      -0.22245773       0.39112749 </v>
   <v>      -0.24427341       0.15920799       0.10909438 </v>
   <v>      -0.41950686      -0.01602540       0.10909415 </v>
   <v>       0.08243139      -0.01718914       0.10681984 </v>
   <v>      -0.24310983      -0.34273033       0.10681977 </v>
   <v>      -0.12129330      -0.13900571       0.05824782 </v>
   <v>      -0.30422969      -0.31985110       0.48412072 </v>
   <v>       0.05223297       0.04964462       0.48504002 </v>
   <v>      -0.11441442       0.35397853       0.06192648 </v>
   <v>       0.38572251      -0.14588447       0.06192648 </v>
   <v>      -0.12903357       0.21012996       0.47112657 </v>
   <v>      -0.46825010      -0.13468670       0.47443141 </v>
   <v>       0.21572803       0.02346865       0.05878061 </v>
   <v>      -0.28376758      -0.47602706       0.05878057 </v>
   <v>      -0.18861643       0.05312259       0.03380040 </v>
   <v>      -0.31342136      -0.07168388       0.03380022 </v>
  </varray>
 </structure>
 <varray name="primitive_index" >
  <v type="int" >        1 </v>
  <v type="int" >       73 </v>
  <v type="int" >       58 </v>
  <v type="int" >       80 </v>
  <v type="int" >       59 </v>
  <v type="int" >       54 </v>
  <v type="int" >        7 </v>
  <v type="int" >       19 </v>
  <v type="int" >        2 </v>
  <v type="int" >       25 </v>
  <v type="int" >       74 </v>
  <v type="int" >       52 </v>
  <v type="int" >       61 </v>
  <v type="int" >        9 </v>
  <v type="int" >       32 </v>
  <v type="int" >       43 </v>
  <v type="int" >       29 </v>
  <v type="int" >       66 </v>
  <v type="int" >       83 </v>
  <v type="int" >       11 </v>
  <v type="int" >        6 </v>
  <v type="int" >        8 </v>
  <v type="int" >       20 </v>
  <v type="int" >       10 </v>
  <v type="int" >       30 </v>
  <v type="int" >       31 </v>
  <v type="int" >       42 </v>
  <v type="int" >       88 </v>
  <v type="int" >       56 </v>
  <v type="int" >       70 </v>
  <v type="int" >       65 </v>
  <v type="int" >       92 </v>
  <v type="int" >       82 </v>
  <v type="int" >       57 </v>
  <v type="int" >       79 </v>
  <v type="int" >       33 </v>
  <v type="int" >       49 </v>
  <v type="int" >       85 </v>
  <v type="int" >       26 </v>
  <v type="int" >       60 </v>
  <v type="int" >       90 </v>
  <v type="int" >       95 </v>
  <v type="int" >       71 </v>
  <v type="int" >       78 </v>
  <v type="int" >       38 </v>
  <v type="int" >       64 </v>
  <v type="int" >       76 </v>
  <v type="int" >       28 </v>
  <v type="int" >       21 </v>
  <v type="int" >       51 </v>
  <v type="int" >       84 </v>
  <v type="int" >       53 </v>
  <v type="int" >       69 </v>
  <v type="int" >       55 </v>
  <v type="int" >       62 </v>
  <v type="int" >       14 </v>
  <v type="int" >       37 </v>
  <v type="int" >       23 </v>
  <v type="int" >       12 </v>
  <v type="int" >       86 </v>
  <v type="int" >       50 </v>
  <v type="int" >       77 </v>
  <v type="int" >       96 </v>
  <v type="int" >        3 </v>
  <v type="int" >       13 </v>
  <v type="int" >       24 </v>
  <v type="int" >       36 </v>
  <v type="int" >       39 </v>
  <v type="int" >        5 </v>
  <v type="int" >       35 </v>
  <v type="int" >       44 </v>
  <v type="int" >       17 </v>
  <v type="int" >       15 </v>
  <v type="int" >       68 </v>
  <v type="int" >       94 </v>
  <v type="int" >       47 </v>
  <v type="int" >       41 </v>
  <v type="int" >       16 </v>
  <v type="int" >       34 </v>
  <v type="int" >       18 </v>
  <v type="int" >       45 </v>
  <v type="int" >       67 </v>
  <v type="int" >       93 </v>
  <v type="int" >       81 </v>
  <v type="int" >       91 </v>
  <v type="int" >       87 </v>
  <v type="int" >       46 </v>
  <v type="int" >        4 </v>
  <v type="int" >       63 </v>
  <v type="int" >       75 </v>
  <v type="int" >       72 </v>
  <v type="int" >       89 </v>
  <v type="int" >       27 </v>
  <v type="int" >       48 </v>
  <v type="int" >       22 </v>
  <v type="int" >       40 </v>
 </varray>
 <kpoints>
  <generation param="Gamma">
   <v type="int" name="divisions">       1        1        1 </v>
   <v name="usershift">      0.00000000       0.00000000       0.00000000 </v>
   <v name="genvec1">      1.00000000       0.00000000       0.00000000 </v>
   <v name="genvec2">      0.00000000       1.00000000       0.00000000 </v>
   <v name="genvec3">      0.00000000       0.00000000       1.00000000 </v>
   <v name="shift">      0.00000000       0.00000000       0.00000000 </v>
  </generation>
  <varray name="kpointlist" >
   <v>       0.00000000       0.00000000       0.00000000 </v>
  </varray>
  <varray name="weights" >
   <v>       1.00000000 </v>
  </varray>
 </kpoints>
 <parameters>
  <separator name="general" >
   <i type="string" name="SYSTEM">"Millerite NiS"</i>
   <i type="logical" name="LCOMPAT"> F  </i>
  </separator>
  <separator name="electronic" >
   <i type="string" name="PREC">normal</i>
   <i name="ENMAX">    450.00000000</i>
   <i name="ENAUG">    703.44300000</i>
   <i name="EDIFF">      0.00010000</i>
   <i type="int" name="IALGO">    38</i>
   <i type="int" name="IWAVPR">    10</i>
   <i type="int" name="NBANDS">   634</i>
   <i name="NELECT">   1056.00000000</i>
   <i type="int" name="TURBO">     0</i>
   <i type="int" name="IRESTART">     0</i>
   <i type="int" name="NREBOOT">     0</i>
   <i type="int" name="NMIN">     0</i>
   <i name="EREF">      0.00000000</i>
   <separator name="electronic smearing" >
    <i type="int" name="ISMEAR">     0</i>
    <i name="SIGMA">      0.20000000</i>
    <i name="KSPACING">      0.50000000</i>
    <i type="logical" name="KGAMMA"> T  </i>
   </separator>
   <separator name="electronic projectors" >
    <i type="logical" name="LREAL"> T  </i>
    <v name="ROPT">     -0.00050000     -0.00050000</v>
    <i type="int" name="LMAXPAW">  -100</i>
    <i type="int" name="LMAXMIX">     2</i>
    <i type="logical" name="NLSPLINE"> F  </i>
   </separator>
   <separator name="electronic startup" >
    <i type="int" name="ISTART">     0</i>
    <i type="int" name="ICHARG">     2</i>
    <i type="int" name="INIWAV">     1</i>
   </separator>
   <separator name="electronic spin" >
    <i type="int" name="ISPIN">     1</i>
    <i type="logical" name="LNONCOLLINEAR"> F  </i>
    <v name="MAGMOM">      1.00000000      1.00000000      1.00000000      1.00000000      1.00000000      1.00000000      1.00000000      1.00000000      1.00000000      1.00000000      1.00000000      1.00000000      1.00000000      1.00000000      1.00000000      1.00000000      1.00000000      1.00000000      1.00000000      1.00000000
      1.00000000      1.00000000      1.00000000      1.00000000      1.00000000      1.00000000      1.00000000      1.00000000      1.00000000      1.00000000      1.00000000      1.00000000      1.00000000      1.00000000      1.00000000      1.00000000      1.00000000      1.00000000      1.00000000      1.00000000
      1.00000000      1.00000000      1.00000000      1.00000000      1.00000000      1.00000000      1.00000000      1.00000000      1.00000000      1.00000000      1.00000000      1.00000000      1.00000000      1.00000000      1.00000000      1.00000000      1.00000000      1.00000000      1.00000000      1.00000000
      1.00000000      1.00000000      1.00000000      1.00000000      1.00000000      1.00000000      1.00000000      1.00000000      1.00000000      1.00000000      1.00000000      1.00000000      1.00000000      1.00000000      1.00000000      1.00000000      1.00000000      1.00000000      1.00000000      1.00000000
      1.00000000      1.00000000      1.00000000      1.00000000      1.00000000      1.00000000      1.00000000      1.00000000      1.00000000      1.00000000      1.00000000      1.00000000      1.00000000      1.00000000      1.00000000      1.00000000</v>
    <i name="NUPDOWN">     -1.00000000</i>
    <i type="logical" name="LSORBIT"> F  </i>
    <v name="SAXIS">      0.00000000      0.00000000      1.00000000</v>
    <i type="logical" name="LSPIRAL"> F  </i>
    <v name="QSPIRAL">      0.00000000      0.00000000      0.00000000</v>
    <i type="logical" name="LZEROZ"> F  </i>
   </separator>
   <separator name="electronic exchange-correlation" >
    <i type="logical" name="LASPH"> F  </i>
    <i type="logical" name="LMETAGGA"> F  </i>
   </separator>
   <separator name="electronic convergence" >
    <i type="int" name="NELM">   100</i>
    <i type="int" name="NELMDL">    -5</i>
    <i type="int" name="NELMIN">     2</i>
    <i name="ENINI">    450.00000000</i>
    <separator name="electronic convergence detail" >
     <i type="logical" name="LDIAG"> T  </i>
     <i type="logical" name="LSUBROT"> F  </i>
     <i name="WEIMIN">      0.00000000</i>
     <i name="EBREAK">      0.00000004</i>
     <i name="DEPER">      0.30000000</i>
     <i type="int" name="NRMM">     4</i>
     <i name="TIME">      0.40000000</i>
    </separator>
   </separator>
   <separator name="electronic mixer" >
    <i name="AMIX">      0.40000000</i>
    <i name="BMIX">      1.00000000</i>
    <i name="AMIN">      0.10000000</i>
    <i name="AMIX_MAG">      1.60000000</i>
    <i name="BMIX_MAG">      1.00000000</i>
    <separator name="electronic mixer details" >
     <i type="int" name="IMIX">     4</i>
     <i type="logical" name="MIXFIRST"> F  </i>
     <i type="int" name="MAXMIX">   -45</i>
     <i name="WC">    100.00000000</i>
     <i type="int" name="INIMIX">     1</i>
     <i type="int" name="MIXPRE">     1</i>
     <i type="int" name="MREMOVE">     5</i>
    </separator>
   </separator>
   <separator name="electronic dipolcorrection" >
    <i type="logical" name="LDIPOL"> F  </i>
    <i type="logical" name="LMONO"> F  </i>
    <i type="int" name="IDIPOL">     0</i>
    <i name="EPSILON">      1.00000000</i>
    <v name="DIPOL">   -100.00000000   -100.00000000   -100.00000000</v>
    <i name="EFIELD">      0.00000000</i>
   </separator>
  </separator>
  <separator name="grids" >
   <i type="int" name="NGX">    60</i>
   <i type="int" name="NGY">    60</i>
   <i type="int" name="NGZ">   120</i>
   <i type="int" name="NGXF">   120</i>
   <i type="int" name="NGYF">   120</i>
   <i type="int" name="NGZF">   240</i>
   <i type="logical" name="ADDGRID"> F  </i>
  </separator>
  <separator name="ionic" >
   <i type="int" name="NSW">     0</i>
   <i type="int" name="IBRION">    -1</i>
   <i type="int" name="MDALGO">     0</i>
   <i type="int" name="ISIF">     2</i>
   <i name="PSTRESS">      0.00000000</i>
   <i name="EDIFFG">      0.00100000</i>
   <i type="int" name="NFREE">     0</i>
   <i name="POTIM">      0.50000000</i>
   <i name="SMASS">     -3.00000000</i>
   <i name="SCALEE">      1.00000000</i>
  </separator>
  <separator name="ionic md" >
   <i name="TEBEG">      0.00010000</i>
   <i name="TEEND">      0.00010000</i>
   <i type="int" name="NBLOCK">     1</i>
   <i type="int" name="KBLOCK">     1</i>
   <i type="int" name="NPACO">   256</i>
   <i name="APACO">     16.00000000</i>
  </separator>
  <separator name="symmetry" >
   <i type="int" name="ISYM">     2</i>
   <i name="SYMPREC">      0.00001000</i>
  </separator>
  <separator name="dos" >
   <i type="int" name="LORBIT">     0</i>
   <v name="RWIGS">     -1.00000000     -1.00000000</v>
   <i type="int" name="NEDOS">   301</i>
   <i name="EMIN">     10.00000000</i>
   <i name="EMAX">    -10.00000000</i>
   <i name="EFERMI">      0.00000000</i>
  </separator>
  <separator name="writing" >
   <i type="int" name="NWRITE">     2</i>
   <i type="logical" name="LWAVE"> F  </i>
   <i type="logical" name="LDOWNSAMPLE"> F  </i>
   <i type="logical" name="LCHARG"> F  </i>
   <i type="logical" name="LPARD"> F  </i>
   <i type="logical" name="LVTOT"> F  </i>
   <i type="logical" name="LVHAR"> F  </i>
   <i type="logical" name="LELF"> F  </i>
   <i type="logical" name="LOPTICS"> F  </i>
   <v name="STM">      0.00000000      0.00000000      0.00000000      0.00000000      0.00000000      0.00000000      0.00000000</v>
  </separator>
  <separator name="performance" >
   <i type="int" name="NPAR">     2</i>
   <i type="int" name="NSIM">     4</i>
   <i type="int" name="NBLK">    -1</i>
   <i type="logical" name="LPLANE"> T  </i>
   <i type="logical" name="LSCALAPACK"> T  </i>
   <i type="logical" name="LSCAAWARE"> F  </i>
   <i type="logical" name="LSCALU"> F  </i>
   <i type="logical" name="LASYNC"> F  </i>
   <i type="logical" name="LORBITALREAL"> F  </i>
  </separator>
  <separator name="miscellaneous" >
   <i type="int" name="IDIOT">     3</i>
   <i type="int" name="ISPECIAL">     0</i>
   <i type="logical" name="LMUSIC"> F  </i>
   <v name="POMASS">     58.69000000     32.06600000</v>
   <v name="DARWINR">      0.00000000      0.00000000</v>
   <v name="DARWINV">      1.00000000      1.00000000</v>
   <i type="logical" name="LCORR"> T  </i>
  </separator>
  <i type="logical" name="GGA_COMPAT"> T  </i>
  <i type="logical" name="LBERRY"> F  </i>
  <i type="int" name="ICORELEVEL">     0</i>
  <i type="logical" name="LDAU"> F  </i>
  <i type="int" name="I_CONSTRAINED_M">     0</i>
  <separator name="electronic exchange-correlation" >
   <i type="string" name="GGA">--</i>
   <i type="int" name="VOSKOWN">     0</i>
   <i type="logical" name="LHFCALC"> F  </i>
   <i type="string" name="PRECFOCK"></i>
   <i type="logical" name="LSYMGRAD"> F  </i>
   <i type="logical" name="LHFONE"> F  </i>
   <i type="logical" name="LRHFCALC"> F  </i>
   <i type="logical" name="LTHOMAS"> F  </i>
   <i type="logical" name="LMODELHF"> F  </i>
   <i name="ENCUT4O">     -1.00000000</i>
   <i type="int" name="EXXOEP">     0</i>
   <i type="int" name="FOURORBIT">     0</i>
   <i name="AEXX">      0.00000000</i>
   <i name="HFALPHA">      0.00000000</i>
   <i name="MCALPHA">      0.00000000</i>
   <i name="ALDAX">      1.00000000</i>
   <i name="AGGAX">      1.00000000</i>
   <i name="ALDAC">      1.00000000</i>
   <i name="AGGAC">      1.00000000</i>
   <i type="int" name="NKREDX">     1</i>
   <i type="int" name="NKREDY">     1</i>
   <i type="int" name="NKREDZ">     1</i>
   <i type="logical" name="SHIFTRED"> F  </i>
   <i type="logical" name="ODDONLY"> F  </i>
   <i type="logical" name="EVENONLY"> F  </i>
   <i type="int" name="LMAXFOCK">     0</i>
   <i type="int" name="NMAXFOCKAE">     0</i>
   <i type="logical" name="LFOCKAEDFT"> F  </i>
   <i name="HFSCREEN">      0.00000000</i>
   <i name="HFSCREENC">      0.00000000</i>
   <i type="int" name="NBANDSGWLOW">     0</i>
  </separator>
  <separator name="vdW DFT" >
   <i type="logical" name="LUSE_VDW"> F  </i>
   <i name="Zab_VDW">     -0.84910000</i>
   <i name="PARAM1">      0.12340000</i>
   <i name="PARAM2">      1.00000000</i>
   <i name="PARAM3">      0.00000000</i>
  </separator>
  <separator name="model GW" >
   <i type="int" name="MODEL_GW">     0</i>
   <i name="MODEL_EPS0">     15.94296978</i>
   <i name="MODEL_ALPHA">      1.00000000</i>
  </separator>
  <separator name="linear response parameters" >
   <i type="logical" name="LEPSILON"> F  </i>
   <i type="logical" name="LRPA"> F  </i>
   <i type="logical" name="LNABLA"> F  </i>
   <i type="logical" name="LVEL"> F  </i>
   <i type="int" name="KINTER">     0</i>
   <i name="CSHIFT">      0.10000000</i>
   <i name="OMEGAMAX">     -1.00000000</i>
   <i name="DEG_THRESHOLD">      0.00200000</i>
   <i name="RTIME">     -0.10000000</i>
   <i name="WPLASMAI">      0.00000000</i>
   <v name="DFIELD">      0.00000000      0.00000000      0.00000000</v>
   <v name="WPLASMA">      0.00000000      0.00000000      0.00000000      0.00000000      0.00000000      0.00000000      0.00000000      0.00000000      0.00000000</v>
  </separator>
  <separator name="orbital magnetization" >
   <i type="logical" name="NUCIND"> F  </i>
   <v name="MAGPOS">      0.00000000      0.00000000      0.00000000</v>
   <i type="logical" name="LNICSALL"> T  </i>
   <i type="logical" name="ORBITALMAG"> F  </i>
   <i type="logical" name="LMAGBLOCH"> F  </i>
   <i type="logical" name="LCHIMAG"> F  </i>
   <i type="logical" name="LGAUGE"> T  </i>
   <i type="int" name="MAGATOM">     0</i>
   <v name="MAGDIPOL">      0.00000000      0.00000000      0.00000000</v>
   <v name="AVECCONST">      0.00000000      0.00000000      0.00000000</v>
  </separator>
  <separator name="response functions" >
   <i type="logical" name="LADDER"> F  </i>
   <i type="logical" name="LRPAFORCE"> F  </i>
   <i type="logical" name="LFXC"> F  </i>
   <i type="logical" name="LHARTREE"> T  </i>
   <i type="int" name="IBSE">     0</i>
   <v type="int" name="KPOINT">    -1     0     0     0</v>
   <i type="logical" name="LTCTE"> F  </i>
   <i type="logical" name="LTETE"> F  </i>
   <i type="logical" name="LTRIPLET"> F  </i>
   <i type="logical" name="LFXCEPS"> F  </i>
   <i type="logical" name="LFXHEG"> F  </i>
   <i type="int" name="NATURALO">     2</i>
   <i type="logical" name="L2ORDER"> F  </i>
   <i type="logical" name="LMP2LT"> F  </i>
   <i type="logical" name="LUSEW"> F  </i>
   <i name="ENCUTGW">     -2.00000000</i>
   <i name="ENCUTGWSOFT">     -2.00000000</i>
   <i name="ENCUTLF">     -1.00000000</i>
   <i type="int" name="LMAXMP2">    -1</i>
   <i name="SCISSOR">      0.00000000</i>
   <i type="int" name="NOMEGA">     0</i>
   <i type="int" name="NOMEGAR">     0</i>
   <i type="int" name="NBANDSGW">    -1</i>
   <i type="int" name="NBANDSO">    -1</i>
   <i type="int" name="NBANDSV">    -1</i>
   <i type="int" name="NELM">   100</i>
   <i type="int" name="NELMHF">     1</i>
   <i type="int" name="DIM">     3</i>
   <i type="int" name="ANTIRES">     0</i>
   <i name="OMEGAMAX">    -30.00000000</i>
   <i name="OMEGAMIN">    -30.00000000</i>
   <i name="OMEGATL">   -200.00000000</i>
   <i type="int" name="OMEGAGRID">   140</i>
   <i name="CSHIFT">     -0.10000000</i>
   <i type="logical" name="SELFENERGY"> F  </i>
   <i type="logical" name="LSPECTRAL"> F  </i>
   <i type="logical" name="LSPECTRALGW"> F  </i>
   <i type="logical" name="LSINGLES"> F  </i>
   <i type="logical" name="LFERMIGW"> F  </i>
   <i type="logical" name="ODDONLYGW"> F  </i>
   <i type="logical" name="EVENONLYGW"> F  </i>
   <i type="int" name="NKREDLFX">     1</i>
   <i type="int" name="NKREDLFY">     1</i>
   <i type="int" name="NKREDLFZ">     1</i>
   <i type="int" name="MAXMEM">  2800</i>
   <i type="int" name="TELESCOPE">     0</i>
   <i type="int" name="TAUPAR">     1</i>
   <i type="int" name="OMEGAPAR">    -1</i>
   <i name="LAMBDA">      1.00000000</i>
  </separator>
  <separator name="External order field" >
   <i name="OFIELD_KAPPA">      0.00000000</i>
   <v name="OFIELD_K">      0.00000000      0.00000000      0.00000000</v>
   <i name="OFIELD_Q6_NEAR">      0.00000000</i>
   <i name="OFIELD_Q6_FAR">      0.00000000</i>
   <i name="OFIELD_A">      0.00000000</i>
  </separator>
 </parameters>
 <atominfo>
  <atoms>      96 </atoms>
  <types>       2 </types>
  <array name="atoms" >
   <dimension dim="1">ion</dimension>
   <field type="string">element</field>
   <field type="int">atomtype</field>
   <set>
    <rc><c>Ni</c><c>   1</c></rc>
    <rc><c>Ni</c><c>   1</c></rc>
    <rc><c>Ni</c><c>   1</c></rc>
    <rc><c>Ni</c><c>   1</c></rc>
    <rc><c>Ni</c><c>   1</c></rc>
    <rc><c>Ni</c><c>   1</c></rc>
    <rc><c>Ni</c><c>   1</c></rc>
    <rc><c>Ni</c><c>   1</c></rc>
    <rc><c>Ni</c><c>   1</c></rc>
    <rc><c>Ni</c><c>   1</c></rc>
    <rc><c>Ni</c><c>   1</c></rc>
    <rc><c>Ni</c><c>   1</c></rc>
    <rc><c>Ni</c><c>   1</c></rc>
    <rc><c>Ni</c><c>   1</c></rc>
    <rc><c>Ni</c><c>   1</c></rc>
    <rc><c>Ni</c><c>   1</c></rc>
    <rc><c>Ni</c><c>   1</c></rc>
    <rc><c>Ni</c><c>   1</c></rc>
    <rc><c>Ni</c><c>   1</c></rc>
    <rc><c>Ni</c><c>   1</c></rc>
    <rc><c>Ni</c><c>   1</c></rc>
    <rc><c>Ni</c><c>   1</c></rc>
    <rc><c>Ni</c><c>   1</c></rc>
    <rc><c>Ni</c><c>   1</c></rc>
    <rc><c>Ni</c><c>   1</c></rc>
    <rc><c>Ni</c><c>   1</c></rc>
    <rc><c>Ni</c><c>   1</c></rc>
    <rc><c>Ni</c><c>   1</c></rc>
    <rc><c>Ni</c><c>   1</c></rc>
    <rc><c>Ni</c><c>   1</c></rc>
    <rc><c>Ni</c><c>   1</c></rc>
    <rc><c>Ni</c><c>   1</c></rc>
    <rc><c>Ni</c><c>   1</c></rc>
    <rc><c>Ni</c><c>   1</c></rc>
    <rc><c>Ni</c><c>   1</c></rc>
    <rc><c>Ni</c><c>   1</c></rc>
    <rc><c>Ni</c><c>   1</c></rc>
    <rc><c>Ni</c><c>   1</c></rc>
    <rc><c>Ni</c><c>   1</c></rc>
    <rc><c>Ni</c><c>   1</c></rc>
    <rc><c>Ni</c><c>   1</c></rc>
    <rc><c>Ni</c><c>   1</c></rc>
    <rc><c>Ni</c><c>   1</c></rc>
    <rc><c>Ni</c><c>   1</c></rc>
    <rc><c>Ni</c><c>   1</c></rc>
    <rc><c>Ni</c><c>   1</c></rc>
    <rc><c>Ni</c><c>   1</c></rc>
    <rc><c>Ni</c><c>   1</c></rc>
    <rc><c>S </c><c>   2</c></rc>
    <rc><c>S </c><c>   2</c></rc>
    <rc><c>S </c><c>   2</c></rc>
    <rc><c>S </c><c>   2</c></rc>
    <rc><c>S </c><c>   2</c></rc>
    <rc><c>S </c><c>   2</c></rc>
    <rc><c>S </c><c>   2</c></rc>
    <rc><c>S </c><c>   2</c></rc>
    <rc><c>S </c><c>   2</c></rc>
    <rc><c>S </c><c>   2</c></rc>
    <rc><c>S </c><c>   2</c></rc>
    <rc><c>S </c><c>   2</c></rc>
    <rc><c>S </c><c>   2</c></rc>
    <rc><c>S </c><c>   2</c></rc>
    <rc><c>S </c><c>   2</c></rc>
    <rc><c>S </c><c>   2</c></rc>
    <rc><c>S </c><c>   2</c></rc>
    <rc><c>S </c><c>   2</c></rc>
    <rc><c>S </c><c>   2</c></rc>
    <rc><c>S </c><c>   2</c></rc>
    <rc><c>S </c><c>   2</c></rc>
    <rc><c>S </c><c>   2</c></rc>
    <rc><c>S </c><c>   2</c></rc>
    <rc><c>S </c><c>   2</c></rc>
    <rc><c>S </c><c>   2</c></rc>
    <rc><c>S </c><c>   2</c></rc>
    <rc><c>S </c><c>   2</c></rc>
    <rc><c>S </c><c>   2</c></rc>
    <rc><c>S </c><c>   2</c></rc>
    <rc><c>S </c><c>   2</c></rc>
    <rc><c>S </c><c>   2</c></rc>
    <rc><c>S </c><c>   2</c></rc>
    <rc><c>S </c><c>   2</c></rc>
    <rc><c>S </c><c>   2</c></rc>
    <rc><c>S </c><c>   2</c></rc>
    <rc><c>S </c><c>   2</c></rc>
    <rc><c>S </c><c>   2</c></rc>
    <rc><c>S </c><c>   2</c></rc>
    <rc><c>S </c><c>   2</c></rc>
    <rc><c>S </c><c>   2</c></rc>
    <rc><c>S </c><c>   2</c></rc>
    <rc><c>S </c><c>   2</c></rc>
    <rc><c>S </c><c>   2</c></rc>
    <rc><c>S </c><c>   2</c></rc>
    <rc><c>S </c><c>   2</c></rc>
    <rc><c>S </c><c>   2</c></rc>
    <rc><c>S </c><c>   2</c></rc>
    <rc><c>S </c><c>   2</c></rc>
   </set>
  </array>
  <array name="atomtypes" >
   <dimension dim="1">type</dimension>
   <field type="int">atomspertype</field>
   <field type="string">element</field>
   <field>mass</field>
   <field>valence</field>
   <field type="string">pseudopotential</field>
   <set>
    <rc><c>  48</c><c>Ni</c><c>     58.69000000</c><c>     16.00000000</c><c>  PAW_PBE Ni_pv 06Sep2000               </c></rc>
    <rc><c>  48</c><c>S </c><c>     32.06600000</c><c>      6.00000000</c><c>  PAW_PBE S 06Sep2000                   </c></rc>
   </set>
  </array>
 </atominfo>
 <structure name="initialpos" >
  <crystal>
   <varray name="basis" >
    <v>      11.25646304       0.00000000       0.00000000 </v>
    <v>       5.04456212      10.06282034       0.00000000 </v>
    <v>       0.00000000       0.00000000      22.51995597 </v>
   </varray>
   <i name="volume">   2550.87516496 </i>
   <varray name="rec_basis" >
    <v>       0.08883785      -0.04453504       0.00000000 </v>
    <v>       0.00000000       0.09937572       0.00000000 </v>
    <v>       0.00000000       0.00000000       0.04440506 </v>
   </varray>
  </crystal>
  <varray name="positions" >
   <v>       0.26092069       0.47878037       0.29519774 </v>
   <v>       0.35488056       0.38482050       0.42557357 </v>
   <v>       0.16696082       0.07274025       0.16482191 </v>
   <v>       0.05223297       0.04964462       0.48504002 </v>
   <v>       0.18678210       0.42827093       0.03386524 </v>
   <v>       0.27423906       0.33335901       0.13037583 </v>
   <v>       0.36819893       0.23939914       0.26075166 </v>
   <v>       0.46215879       0.14543927       0.39112749 </v>
   <v>       0.00030194       0.37150214       0.26075166 </v>
   <v>       0.09426180       0.27754227       0.39112749 </v>
   <v>       0.40634206       0.46546200       0.13037583 </v>
   <v>       0.76092069       0.47878037       0.29519774 </v>
   <v>       0.85488056       0.38482050       0.42557357 </v>
   <v>       0.66696082       0.07274025       0.16482191 </v>
   <v>       0.57235163       0.02330108       0.47891881 </v>
   <v>       0.77423906       0.33335901       0.13037583 </v>
   <v>       0.86819893       0.23939914       0.26075166 </v>
   <v>       0.96215879       0.14543927       0.39112749 </v>
   <v>       0.50030194       0.37150214       0.26075166 </v>
   <v>       0.59426180       0.27754227       0.39112749 </v>
   <v>       0.90634206       0.46546200       0.13037583 </v>
   <v>       0.81138357       0.05312259       0.03380040 </v>
   <v>       0.26092069       0.97878037       0.29519774 </v>
   <v>       0.35488056       0.88482051       0.42557357 </v>
   <v>       0.16696083       0.57274025       0.16482191 </v>
   <v>       0.00086571       0.50814469       0.47230887 </v>
   <v>       0.21572803       0.02346865       0.05878061 </v>
   <v>       0.27423906       0.83335901       0.13037583 </v>
   <v>       0.36819893       0.73939914       0.26075166 </v>
   <v>       0.46215879       0.64543927       0.39112749 </v>
   <v>       0.00030194       0.87150214       0.26075166 </v>
   <v>       0.09426180       0.77754227       0.39112749 </v>
   <v>       0.23049545       0.73369757       0.47288101 </v>
   <v>       0.40634206       0.96546200       0.13037583 </v>
   <v>       0.31143036       0.55291895       0.03386523 </v>
   <v>       0.76092069       0.97878037       0.29519774 </v>
   <v>       0.85488056       0.88482051       0.42557357 </v>
   <v>       0.04228767       0.69682104       0.50387367 </v>
   <v>       0.66696083       0.57274025       0.16482191 </v>
   <v>       0.68657864       0.92831612       0.03380022 </v>
   <v>       0.77423906       0.83335901       0.13037583 </v>
   <v>       0.86819893       0.73939914       0.26075166 </v>
   <v>       0.96215879       0.64543927       0.39112749 </v>
   <v>       0.50030194       0.87150214       0.26075166 </v>
   <v>       0.59426180       0.77754227       0.39112749 </v>
   <v>       0.69577031       0.68014890       0.48412072 </v>
   <v>       0.90634206       0.96546200       0.13037583 </v>
   <v>       0.71623242       0.52397294       0.05878057 </v>
   <v>       0.07287763       0.16682345       0.31134757 </v>
   <v>       0.16996757       0.07026068       0.42120907 </v>
   <v>       0.37847876       0.36122231       0.05816369 </v>
   <v>       0.47891775       0.26078331       0.18097174 </v>
   <v>       0.02858018       0.32019092       0.47728675 </v>
   <v>       0.43627354       0.47164252       0.35520991 </v>
   <v>       0.25716301       0.15666876       0.10696906 </v>
   <v>       0.34231367       0.06560240       0.22483408 </v>
   <v>       0.08052109       0.48392883       0.10906742 </v>
   <v>       0.17409868       0.39738739       0.22483408 </v>
   <v>       0.26805854       0.30342752       0.35520991 </v>
   <v>       0.41526696       0.21013682       0.47592229 </v>
   <v>       0.57287763       0.16682345       0.31134757 </v>
   <v>       0.67748472       0.07378434       0.41989917 </v>
   <v>       0.88558558       0.35397853       0.06192648 </v>
   <v>       0.97891775       0.26078331       0.18097174 </v>
   <v>       0.51646505       0.38627893       0.46483242 </v>
   <v>       0.93627354       0.47164252       0.35520991 </v>
   <v>       0.75572659       0.15920799       0.10909438 </v>
   <v>       0.84231367       0.06560240       0.22483408 </v>
   <v>       0.58303227       0.48253810       0.10696906 </v>
   <v>       0.67409868       0.39738739       0.22483408 </v>
   <v>       0.76805854       0.30342752       0.35520991 </v>
   <v>       0.87096643       0.21012996       0.47112657 </v>
   <v>       0.07287763       0.66682345       0.31134757 </v>
   <v>       0.16683750       0.57286358       0.44172340 </v>
   <v>       0.38572251       0.85411553       0.06192648 </v>
   <v>       0.47891775       0.76078331       0.18097174 </v>
   <v>       0.03023342       0.87768265       0.48558574 </v>
   <v>       0.43627354       0.97164252       0.35520991 </v>
   <v>       0.25577224       0.65917996       0.10906741 </v>
   <v>       0.34231367       0.56560240       0.22483408 </v>
   <v>       0.08243139       0.98281086       0.10681984 </v>
   <v>       0.17409868       0.89738739       0.22483408 </v>
   <v>       0.26805854       0.80342752       0.35520991 </v>
   <v>       0.41639286       0.71095716       0.47703005 </v>
   <v>       0.57287763       0.66682345       0.31134757 </v>
   <v>       0.66873463       0.56753684       0.41991732 </v>
   <v>       0.87870670       0.86099429       0.05824782 </v>
   <v>       0.97891775       0.76078331       0.18097174 </v>
   <v>       0.53174990       0.86531330       0.47443141 </v>
   <v>       0.93627354       0.97164252       0.35520991 </v>
   <v>       0.75689017       0.65726967       0.10681977 </v>
   <v>       0.84231367       0.56560240       0.22483408 </v>
   <v>       0.58049314       0.98397460       0.10909415 </v>
   <v>       0.67409868       0.89738739       0.22483408 </v>
   <v>       0.76805854       0.80342752       0.35520991 </v>
   <v>       0.86201841       0.70946766       0.48558574 </v>
  </varray>
 </structure>
 <calculation>
  <scstep>
   <time name="dav">   13.49   13.49</time>
   <time name="total">   13.89   13.89</time>
   <energy>
    <i name="alphaZ">   2592.50432107 </i>
    <i name="ewald"> 323693.32429983 </i>
    <i name="hartreedc">-486933.51916170 </i>
    <i name="XCdc">   4903.54018220 </i>
    <i name="pawpsdc"> 150306.04444553 </i>
    <i name="pawaedc">-156855.34918313 </i>
    <i name="eentropy">     -0.54522134 </i>
    <i name="bandstr">  -5628.51677400 </i>
    <i name="atom"> 181336.80673834 </i>
    <i name="e_fr_energy">  13414.28964682 </i>
    <i name="e_wo_entrp">  13414.83486816 </i>
    <i name="e_0_energy">  13414.56225749 </i>
   </energy>
  </scstep>
  <scstep>
   <time name="dav">   12.30   12.31</time>
   <time name="total">   12.30   12.31</time>
   <energy>
    <i name="e_fr_energy">    835.00378326 </i>
    <i name="e_wo_entrp">    836.00933661 </i>
    <i name="e_0_energy">    835.50655993 </i>
   </energy>
  </scstep>
  <scstep>
   <time name="dav">   12.93   12.93</time>
   <time name="total">   12.93   12.93</time>
   <energy>
    <i name="e_fr_energy">   -450.48305123 </i>
    <i name="e_wo_entrp">   -449.07983548 </i>
    <i name="e_0_energy">   -449.78144336 </i>
   </energy>
  </scstep>
  <scstep>
   <time name="dav">   12.82   12.82</time>
   <time name="total">   12.82   12.82</time>
   <energy>
    <i name="e_fr_energy">   -529.79283317 </i>
    <i name="e_wo_entrp">   -528.39743296 </i>
    <i name="e_0_energy">   -529.09513306 </i>
   </energy>
  </scstep>
  <scstep>
   <time name="dav">   14.55   14.55</time>
   <time name="total">   14.97   14.97</time>
   <energy>
    <i name="e_fr_energy">   -533.00389141 </i>
    <i name="e_wo_entrp">   -531.58166740 </i>
    <i name="e_0_energy">   -532.29277940 </i>
   </energy>
  </scstep>
  <scstep>
   <time name="dav">   14.30   14.30</time>
   <time name="total">   15.33   15.34</time>
   <energy>
    <i name="e_fr_energy">   -665.38146311 </i>
    <i name="e_wo_entrp">   -664.27150948 </i>
    <i name="e_0_energy">   -664.82648630 </i>
   </energy>
  </scstep>
  <scstep>
   <time name="dav">   13.29   13.29</time>
   <time name="total">   14.07   14.08</time>
   <energy>
    <i name="e_fr_energy">   -562.12059304 </i>
    <i name="e_wo_entrp">   -561.02150679 </i>
    <i name="e_0_energy">   -561.57104992 </i>
   </energy>
  </scstep>
  <scstep>
   <time name="dav">   13.73   13.73</time>
   <time name="total">   14.51   14.52</time>
   <energy>
    <i name="e_fr_energy">   -617.19710481 </i>
    <i name="e_wo_entrp">   -616.62297888 </i>
    <i name="e_0_energy">   -616.91004184 </i>
   </energy>
  </scstep>
  <scstep>
   <time name="dav">   15.28   15.29</time>
   <time name="total">   16.08   16.09</time>
   <energy>
    <i name="e_fr_energy">   -517.95071436 </i>
    <i name="e_wo_entrp">   -516.77532574 </i>
    <i name="e_0_energy">   -517.36302005 </i>
   </energy>
  </scstep>
  <scstep>
   <time name="dav">   15.19   15.19</time>
   <time name="total">   15.99   15.99</time>
   <energy>
    <i name="e_fr_energy">   -555.45484416 </i>
    <i name="e_wo_entrp">   -553.82712737 </i>
    <i name="e_0_energy">   -554.64098576 </i>
   </energy>
  </scstep>
  <scstep>
   <time name="dav">   15.42   15.43</time>
   <time name="total">   16.21   16.22</time>
   <energy>
    <i name="e_fr_energy">   -544.01291702 </i>
    <i name="e_wo_entrp">   -542.75763619 </i>
    <i name="e_0_energy">   -543.38527661 </i>
   </energy>
  </scstep>
  <scstep>
   <time name="dav">   14.78   14.78</time>
   <time name="total">   15.81   15.81</time>
   <energy>
    <i name="e_fr_energy">   -499.53800663 </i>
    <i name="e_wo_entrp">   -498.44122781 </i>
    <i name="e_0_energy">   -498.98961722 </i>
   </energy>
  </scstep>
  <scstep>
   <time name="dav">   14.89   14.90</time>
   <time name="total">   15.96   15.97</time>
   <energy>
    <i name="e_fr_energy">   -486.94999741 </i>
    <i name="e_wo_entrp">   -485.84123672 </i>
    <i name="e_0_energy">   -486.39561706 </i>
   </energy>
  </scstep>
  <scstep>
   <time name="dav">   15.11   15.11</time>
   <time name="total">   15.99   15.99</time>
   <energy>
    <i name="e_fr_energy">   -475.78668121 </i>
    <i name="e_wo_entrp">   -474.62212879 </i>
    <i name="e_0_energy">   -475.20440500 </i>
   </energy>
  </scstep>
  <scstep>
   <time name="dav">   14.85   14.85</time>
   <time name="total">   15.72   15.72</time>
   <energy>
    <i name="e_fr_energy">   -472.48686463 </i>
    <i name="e_wo_entrp">   -471.30262626 </i>
    <i name="e_0_energy">   -471.89474544 </i>
   </energy>
  </scstep>
  <scstep>
   <time name="dav">   14.67   14.67</time>
   <time name="total">   15.47   15.47</time>
   <energy>
    <i name="e_fr_energy">   -471.08026892 </i>
    <i name="e_wo_entrp">   -469.91687902 </i>
    <i name="e_0_energy">   -470.49857397 </i>
   </energy>
  </scstep>
  <scstep>
   <time name="dav">   14.53   14.53</time>
   <time name="total">   15.33   15.33</time>
   <energy>
    <i name="e_fr_energy">   -469.85459104 </i>
    <i name="e_wo_entrp">   -468.59711970 </i>
    <i name="e_0_energy">   -469.22585537 </i>
   </energy>
  </scstep>
  <scstep>
   <time name="dav">   14.93   14.94</time>
   <time name="total">   15.74   15.74</time>
   <energy>
    <i name="e_fr_energy">   -469.05413495 </i>
    <i name="e_wo_entrp">   -467.73188252 </i>
    <i name="e_0_energy">   -468.39300874 </i>
   </energy>
  </scstep>
  <scstep>
   <time name="dav">   15.19   15.21</time>
   <time name="total">   15.99   16.01</time>
   <energy>
    <i name="e_fr_energy">   -468.03166800 </i>
    <i name="e_wo_entrp">   -466.58988921 </i>
    <i name="e_0_energy">   -467.31077861 </i>
   </energy>
  </scstep>
  <scstep>
   <time name="dav">   15.32   15.33</time>
   <time name="total">   16.12   16.13</time>
   <energy>
    <i name="e_fr_energy">   -468.03577977 </i>
    <i name="e_wo_entrp">   -466.58992861 </i>
    <i name="e_0_energy">   -467.31285419 </i>
   </energy>
  </scstep>
  <scstep>
   <time name="dav">   13.43   13.44</time>
   <time name="total">   14.24   14.25</time>
   <energy>
    <i name="e_fr_energy">   -467.59922834 </i>
    <i name="e_wo_entrp">   -466.18897558 </i>
    <i name="e_0_energy">   -466.89410196 </i>
   </energy>
  </scstep>
  <scstep>
   <time name="dav">   13.71   13.72</time>
   <time name="total">   14.55   14.55</time>
   <energy>
    <i name="e_fr_energy">   -467.59291549 </i>
    <i name="e_wo_entrp">   -466.20496589 </i>
    <i name="e_0_energy">   -466.89894069 </i>
   </energy>
  </scstep>
  <scstep>
   <time name="dav">   15.02   15.03</time>
   <time name="total">   15.84   15.85</time>
   <energy>
    <i name="e_fr_energy">   -467.43106609 </i>
    <i name="e_wo_entrp">   -466.03830369 </i>
    <i name="e_0_energy">   -466.73468489 </i>
   </energy>
  </scstep>
  <scstep>
   <time name="dav">   13.82   13.83</time>
   <time name="total">   14.65   14.66</time>
   <energy>
    <i name="e_fr_energy">   -467.51084223 </i>
    <i name="e_wo_entrp">   -466.06877271 </i>
    <i name="e_0_energy">   -466.78980747 </i>
   </energy>
  </scstep>
  <scstep>
   <time name="dav">   14.53   14.54</time>
   <time name="total">   15.44   15.45</time>
   <energy>
    <i name="e_fr_energy">   -467.50108352 </i>
    <i name="e_wo_entrp">   -466.05647013 </i>
    <i name="e_0_energy">   -466.77877683 </i>
   </energy>
  </scstep>
  <scstep>
   <time name="dav">   14.85   14.86</time>
   <time name="total">   15.72   15.73</time>
   <energy>
    <i name="e_fr_energy">   -467.40514250 </i>
    <i name="e_wo_entrp">   -465.98524434 </i>
    <i name="e_0_energy">   -466.69519342 </i>
   </energy>
  </scstep>
  <scstep>
   <time name="dav">   15.10   15.10</time>
   <time name="total">   15.91   15.92</time>
   <energy>
    <i name="e_fr_energy">   -467.36092360 </i>
    <i name="e_wo_entrp">   -465.94558791 </i>
    <i name="e_0_energy">   -466.65325575 </i>
   </energy>
  </scstep>
  <scstep>
   <time name="dav">   14.98   14.98</time>
   <time name="total">   15.81   15.81</time>
   <energy>
    <i name="e_fr_energy">   -467.35426169 </i>
    <i name="e_wo_entrp">   -465.93046579 </i>
    <i name="e_0_energy">   -466.64236374 </i>
   </energy>
  </scstep>
  <scstep>
   <time name="dav">   14.80   14.81</time>
   <time name="total">   15.62   15.63</time>
   <energy>
    <i name="e_fr_energy">   -467.34600261 </i>
    <i name="e_wo_entrp">   -465.92041996 </i>
    <i name="e_0_energy">   -466.63321129 </i>
   </energy>
  </scstep>
  <scstep>
   <time name="dav">   14.76   14.77</time>
   <time name="total">   15.59   15.60</time>
   <energy>
    <i name="e_fr_energy">   -467.34131394 </i>
    <i name="e_wo_entrp">   -465.91828991 </i>
    <i name="e_0_energy">   -466.62980192 </i>
   </energy>
  </scstep>
  <scstep>
   <time name="dav">   14.67   14.68</time>
   <time name="total">   15.51   15.52</time>
   <energy>
    <i name="e_fr_energy">   -467.33789287 </i>
    <i name="e_wo_entrp">   -465.92117470 </i>
    <i name="e_0_energy">   -466.62953379 </i>
   </energy>
  </scstep>
  <scstep>
   <time name="dav">   14.29   14.30</time>
   <time name="total">   15.39   15.39</time>
   <energy>
    <i name="e_fr_energy">   -467.33712442 </i>
    <i name="e_wo_entrp">   -465.91950127 </i>
    <i name="e_0_energy">   -466.62831284 </i>
   </energy>
  </scstep>
  <scstep>
   <time name="dav">   13.47   13.48</time>
   <time name="total">   14.31   14.32</time>
   <energy>
    <i name="e_fr_energy">   -467.33727925 </i>
    <i name="e_wo_entrp">   -465.91287566 </i>
    <i name="e_0_energy">   -466.62507746 </i>
   </energy>
  </scstep>
  <scstep>
   <time name="dav">   13.44   13.45</time>
   <time name="total">   14.28   14.28</time>
   <energy>
    <i name="e_fr_energy">   -467.33731302 </i>
    <i name="e_wo_entrp">   -465.91602413 </i>
    <i name="e_0_energy">   -466.62666858 </i>
   </energy>
  </scstep>
  <scstep>
   <time name="dav">   15.10   15.10</time>
   <time name="total">   15.97   15.98</time>
   <energy>
    <i name="e_fr_energy">   -467.33716924 </i>
    <i name="e_wo_entrp">   -465.92320685 </i>
    <i name="e_0_energy">   -466.63018804 </i>
   </energy>
  </scstep>
  <scstep>
   <time name="dav">   13.13   13.14</time>
   <time name="total">   13.98   13.99</time>
   <energy>
    <i name="e_fr_energy">   -467.33674021 </i>
    <i name="e_wo_entrp">   -465.92150942 </i>
    <i name="e_0_energy">   -466.62912481 </i>
   </energy>
  </scstep>
  <scstep>
   <time name="dav">    9.23    9.24</time>
   <time name="total">    9.62    9.63</time>
   <energy>
    <i name="alphaZ">   2592.50432107 </i>
    <i name="ewald"> 323693.32429983 </i>
    <i name="hartreedc">-486076.37877204 </i>
    <i name="XCdc">   4863.29612391 </i>
    <i name="pawpsdc"> 184417.08557553 </i>
    <i name="pawaedc">-191065.49934555 </i>
    <i name="eentropy">     -1.41723924 </i>
    <i name="bandstr"> -20227.05848279 </i>
    <i name="atom"> 181336.80673834 </i>
    <i name="e_fr_energy">   -467.33678093 </i>
    <i name="e_wo_entrp">   -465.91954169 </i>
    <i name="e_0_energy">   -466.62816131 </i>
   </energy>
  </scstep>
  <structure>
   <crystal>
    <varray name="basis" >
     <v>      11.25646304       0.00000000       0.00000000 </v>
     <v>       5.04456212      10.06282034       0.00000000 </v>
     <v>       0.00000000       0.00000000      22.51995597 </v>
    </varray>
    <i name="volume">   2550.87516496 </i>
    <varray name="rec_basis" >
     <v>       0.08883785      -0.04453504       0.00000000 </v>
     <v>       0.00000000       0.09937572       0.00000000 </v>
     <v>       0.00000000       0.00000000       0.04440506 </v>
    </varray>
   </crystal>
   <varray name="positions" >
    <v>       0.26092069       0.47878037       0.29519774 </v>
    <v>       0.35488056       0.38482050       0.42557357 </v>
    <v>       0.16696082       0.07274025       0.16482191 </v>
    <v>       0.05223297       0.04964462       0.48504002 </v>
    <v>       0.18678210       0.42827093       0.03386524 </v>
    <v>       0.27423906       0.33335901       0.13037583 </v>
    <v>       0.36819893       0.23939914       0.26075166 </v>
    <v>       0.46215879       0.14543927       0.39112749 </v>
    <v>       0.00030194       0.37150214       0.26075166 </v>
    <v>       0.09426180       0.27754227       0.39112749 </v>
    <v>       0.40634206       0.46546200       0.13037583 </v>
    <v>       0.76092069       0.47878037       0.29519774 </v>
    <v>       0.85488056       0.38482050       0.42557357 </v>
    <v>       0.66696082       0.07274025       0.16482191 </v>
    <v>       0.57235163       0.02330108       0.47891881 </v>
    <v>       0.77423906       0.33335901       0.13037583 </v>
    <v>       0.86819893       0.23939914       0.26075166 </v>
    <v>       0.96215879       0.14543927       0.39112749 </v>
    <v>       0.50030194       0.37150214       0.26075166 </v>
    <v>       0.59426180       0.27754227       0.39112749 </v>
    <v>       0.90634206       0.46546200       0.13037583 </v>
    <v>       0.81138357       0.05312259       0.03380040 </v>
    <v>       0.26092069       0.97878037       0.29519774 </v>
    <v>       0.35488056       0.88482051       0.42557357 </v>
    <v>       0.16696083       0.57274025       0.16482191 </v>
    <v>       0.00086571       0.50814469       0.47230887 </v>
    <v>       0.21572803       0.02346865       0.05878061 </v>
    <v>       0.27423906       0.83335901       0.13037583 </v>
    <v>       0.36819893       0.73939914       0.26075166 </v>
    <v>       0.46215879       0.64543927       0.39112749 </v>
    <v>       0.00030194       0.87150214       0.26075166 </v>
    <v>       0.09426180       0.77754227       0.39112749 </v>
    <v>       0.23049545       0.73369757       0.47288101 </v>
    <v>       0.40634206       0.96546200       0.13037583 </v>
    <v>       0.31143036       0.55291895       0.03386523 </v>
    <v>       0.76092069       0.97878037       0.29519774 </v>
    <v>       0.85488056       0.88482051       0.42557357 </v>
    <v>       0.04228767       0.69682104       0.50387367 </v>
    <v>       0.66696083       0.57274025       0.16482191 </v>
    <v>       0.68657864       0.92831612       0.03380022 </v>
    <v>       0.77423906       0.83335901       0.13037583 </v>
    <v>       0.86819893       0.73939914       0.26075166 </v>
    <v>       0.96215879       0.64543927       0.39112749 </v>
    <v>       0.50030194       0.87150214       0.26075166 </v>
    <v>       0.59426180       0.77754227       0.39112749 </v>
    <v>       0.69577031       0.68014890       0.48412072 </v>
    <v>       0.90634206       0.96546200       0.13037583 </v>
    <v>       0.71623242       0.52397294       0.05878057 </v>
    <v>       0.07287763       0.16682345       0.31134757 </v>
    <v>       0.16996757       0.07026068       0.42120907 </v>
    <v>       0.37847876       0.36122231       0.05816369 </v>
    <v>       0.47891775       0.26078331       0.18097174 </v>
    <v>       0.02858018       0.32019092       0.47728675 </v>
    <v>       0.43627354       0.47164252       0.35520991 </v>
    <v>       0.25716301       0.15666876       0.10696906 </v>
    <v>       0.34231367       0.06560240       0.22483408 </v>
    <v>       0.08052109       0.48392883       0.10906742 </v>
    <v>       0.17409868       0.39738739       0.22483408 </v>
    <v>       0.26805854       0.30342752       0.35520991 </v>
    <v>       0.41526696       0.21013682       0.47592229 </v>
    <v>       0.57287763       0.16682345       0.31134757 </v>
    <v>       0.67748472       0.07378434       0.41989917 </v>
    <v>       0.88558558       0.35397853       0.06192648 </v>
    <v>       0.97891775       0.26078331       0.18097174 </v>
    <v>       0.51646505       0.38627893       0.46483242 </v>
    <v>       0.93627354       0.47164252       0.35520991 </v>
    <v>       0.75572659       0.15920799       0.10909438 </v>
    <v>       0.84231367       0.06560240       0.22483408 </v>
    <v>       0.58303227       0.48253810       0.10696906 </v>
    <v>       0.67409868       0.39738739       0.22483408 </v>
    <v>       0.76805854       0.30342752       0.35520991 </v>
    <v>       0.87096643       0.21012996       0.47112657 </v>
    <v>       0.07287763       0.66682345       0.31134757 </v>
    <v>       0.16683750       0.57286358       0.44172340 </v>
    <v>       0.38572251       0.85411553       0.06192648 </v>
    <v>       0.47891775       0.76078331       0.18097174 </v>
    <v>       0.03023342       0.87768265       0.48558574 </v>
    <v>       0.43627354       0.97164252       0.35520991 </v>
    <v>       0.25577224       0.65917996       0.10906741 </v>
    <v>       0.34231367       0.56560240       0.22483408 </v>
    <v>       0.08243139       0.98281086       0.10681984 </v>
    <v>       0.17409868       0.89738739       0.22483408 </v>
    <v>       0.26805854       0.80342752       0.35520991 </v>
    <v>       0.41639286       0.71095716       0.47703005 </v>
    <v>       0.57287763       0.66682345       0.31134757 </v>
    <v>       0.66873463       0.56753684       0.41991732 </v>
    <v>       0.87870670       0.86099429       0.05824782 </v>
    <v>       0.97891775       0.76078331       0.18097174 </v>
    <v>       0.53174990       0.86531330       0.47443141 </v>
    <v>       0.93627354       0.97164252       0.35520991 </v>
    <v>       0.75689017       0.65726967       0.10681977 </v>
    <v>       0.84231367       0.56560240       0.22483408 </v>
    <v>       0.58049314       0.98397460       0.10909415 </v>
    <v>       0.67409868       0.89738739       0.22483408 </v>
    <v>       0.76805854       0.80342752       0.35520991 </v>
    <v>       0.86201841       0.70946766       0.48558574 </v>
   </varray>
  </structure>
  <varray name="forces" >
   <v>      -0.00113741      -0.07242421      -0.12694454 </v>
   <v>      -1.44512877       0.63915398      -1.70558808 </v>
   <v>      -0.50465389       0.73276291       2.21421949 </v>
   <v>       0.30594941      -0.75377943       1.75836451 </v>
   <v>      -0.70288458       0.22548986      -1.76053839 </v>
   <v>      -0.02003684      -0.89492145       2.33381779 </v>
   <v>       0.03695585       0.11614568       0.00786388 </v>
   <v>      -0.16585270      -0.11644818      -2.69733414 </v>
   <v>      -0.16028713       0.03446750      -0.00244964 </v>
   <v>       0.51634714      -0.30648124      -1.58534427 </v>
   <v>       0.81700895      -0.40153211       2.35253663 </v>
   <v>       0.23068343      -0.36677214      -0.26139308 </v>
   <v>      -0.08723632       0.49620046      -0.58436359 </v>
   <v>      -0.19555079       0.26808997       2.00794564 </v>
   <v>       0.36916326       0.13630893       1.17586605 </v>
   <v>      -0.26229363      -1.24007163       2.30204395 </v>
   <v>       0.06288793       0.15031717       0.04463600 </v>
   <v>      -0.20060953      -0.12260529      -3.26427149 </v>
   <v>      -0.13288813       0.00400890       0.05058349 </v>
   <v>       0.57165969      -0.20525230      -2.43119187 </v>
   <v>       1.24488947      -0.28404301       2.28098115 </v>
   <v>       0.07644867       0.62587935      -1.75184905 </v>
   <v>       0.24906915      -0.43170711      -0.29302660 </v>
   <v>      -0.19924241       0.43251624      -0.70422901 </v>
   <v>      -0.18841548       0.26500837       2.01275539 </v>
   <v>       0.17575875       0.44456071       0.21793823 </v>
   <v>      -0.75421222       1.26262398      -1.83002129 </v>
   <v>      -0.29650556      -1.22993266       2.28231577 </v>
   <v>       0.04345618       0.15916650       0.00608053 </v>
   <v>      -0.02528665      -0.49287059      -1.73786208 </v>
   <v>      -0.01511154       0.00588942       0.07091974 </v>
   <v>      -0.68449866       0.20323012      -1.41311345 </v>
   <v>      -0.48067731       0.05826265       0.38612227 </v>
   <v>       1.23339929      -0.29580112       2.31410366 </v>
   <v>       0.08160909       0.71267373      -1.75932408 </v>
   <v>       0.17324359      -0.28326569      -0.06573529 </v>
   <v>       0.11976046      -0.28258975      -0.07470666 </v>
   <v>       0.23072580      -0.50960642       1.88602843 </v>
   <v>      -0.41699929       0.78140619       2.21955092 </v>
   <v>      -0.60729000       0.20224474      -1.74618148 </v>
   <v>      -0.01452795      -0.84693857       2.33322325 </v>
   <v>      -0.01162852       0.05866892       0.08247473 </v>
   <v>       0.23356459       0.66569739      -1.35744808 </v>
   <v>      -0.18742195      -0.00143474       0.05166748 </v>
   <v>       0.08834355       0.27440943      -2.70487488 </v>
   <v>       0.27965560      -0.72051980       1.49329425 </v>
   <v>       0.77515780      -0.37018766       2.32656259 </v>
   <v>      -0.80777000       1.26120255      -1.82847340 </v>
   <v>      -0.08242519       0.16569408      -0.95230560 </v>
   <v>       1.31129832      -0.08457120       0.95043611 </v>
   <v>       1.45834944      -2.33224578      -2.59970592 </v>
   <v>      -0.01636574      -0.02706368       0.07169452 </v>
   <v>       1.08188714      -0.71694032       3.24223880 </v>
   <v>      -0.10445287       0.09414341      -0.68230919 </v>
   <v>       0.46804579       1.64062741      -1.44519818 </v>
   <v>       0.15179233      -0.07695924       0.49794432 </v>
   <v>      -1.59521561       0.92970949      -1.26406823 </v>
   <v>      -0.06963793      -0.18907159       0.49218221 </v>
   <v>      -0.11842418       0.04980856      -0.02225913 </v>
   <v>      -1.15243750       0.37022934       3.38130976 </v>
   <v>      -0.06456300       0.15916186      -0.91270288 </v>
   <v>       0.85153703      -0.33167879       1.25017902 </v>
   <v>       1.33837509      -2.11992157      -3.41432919 </v>
   <v>       0.08211443      -0.01485068       0.40061440 </v>
   <v>       1.41379114       0.92692628       3.38153785 </v>
   <v>       0.43791303       0.29549750      -0.44133280 </v>
   <v>      -0.09005814       1.84304125      -1.27545699 </v>
   <v>       0.17956119      -0.06596099       0.63487872 </v>
   <v>      -1.68617632       0.31510604      -1.46879990 </v>
   <v>      -0.00046212      -0.21427544       0.55161728 </v>
   <v>      -0.16695037      -0.14289927      -0.78953926 </v>
   <v>      -2.26829423       0.39065178       2.66450296 </v>
   <v>      -0.00995842       0.00275396       0.00947227 </v>
   <v>       0.81916774      -1.38338825      -0.44679974 </v>
   <v>       1.32488326      -2.12231825      -3.41395884 </v>
   <v>       0.01873357      -0.08282530       0.44068990 </v>
   <v>      -0.19448995       1.54786499       0.51841400 </v>
   <v>       0.14190681       0.12489830      -0.73385407 </v>
   <v>      -0.10968558       1.83236136      -1.29337628 </v>
   <v>       0.22163502      -0.00146306       0.63905373 </v>
   <v>      -1.64747884       0.29545837      -1.39797067 </v>
   <v>       0.02410366      -0.15307323       0.52718026 </v>
   <v>      -0.37910063      -0.18390037      -0.41355513 </v>
   <v>       0.09520645      -1.34980370       3.14772975 </v>
   <v>      -0.11128905       0.27381481      -0.99804410 </v>
   <v>      -0.53401361      -0.90041207       1.01178602 </v>
   <v>       1.38239331      -2.25308303      -2.66369917 </v>
   <v>       0.00706809       0.01087977       0.06067158 </v>
   <v>       0.08056783       0.74672044       2.19534198 </v>
   <v>       0.13103324      -0.32597778      -0.56447243 </v>
   <v>       0.47203142       1.58557992      -1.40832321 </v>
   <v>       0.10123788      -0.10047322       0.47583025 </v>
   <v>      -1.60931972       0.92572421      -1.27665954 </v>
   <v>       0.01147879      -0.17527241       0.63537418 </v>
   <v>       0.15449052      -0.16926056      -0.37991914 </v>
   <v>      -1.09739391       1.00383611       0.55232832 </v>
  </varray>
  <varray name="stress" >
   <v>      61.92718206      -0.13671569      -0.85053493 </v>
   <v>      -0.13671578      63.70039140       0.52543369 </v>
   <v>      -0.85053506       0.52543374      76.01607322 </v>
  </varray>
  <energy>
   <i name="e_fr_energy">   -467.33678093 </i>
   <i name="e_wo_entrp">   -466.62816131 </i>
   <i name="e_0_energy">     -1.41723924 </i>
  </energy>
  <time name="totalsc">  565.30  565.52</time>
  <eigenvalues>
   <array>
    <dimension dim="1">band</dimension>
    <dimension dim="2">kpoint</dimension>
    <dimension dim="3">spin</dimension>
    <field>eigene</field>
    <field>occ</field>
    <set>
     <set comment="spin 1">
      <set comment="kpoint 1">
       <r>  -62.9724    1.0000 </r>
       <r>  -62.9559    1.0000 </r>
       <r>  -62.9427    1.0000 </r>
       <r>  -62.9327    1.0000 </r>
       <r>  -62.9313    1.0000 </r>
       <r>  -62.9039    1.0000 </r>
       <r>  -62.9019    1.0000 </r>
       <r>  -62.9000    1.0000 </r>
       <r>  -62.8862    1.0000 </r>
       <r>  -62.8772    1.0000 </r>
       <r>  -62.8675    1.0000 </r>
       <r>  -62.8629    1.0000 </r>
       <r>  -62.8214    1.0000 </r>
       <r>  -62.8172    1.0000 </r>
       <r>  -62.8172    1.0000 </r>
       <r>  -62.8052    1.0000 </r>
       <r>  -62.7930    1.0000 </r>
       <r>  -62.7930    1.0000 </r>
       <r>  -62.7925    1.0000 </r>
       <r>  -62.7834    1.0000 </r>
       <r>  -62.7683    1.0000 </r>
       <r>  -62.7677    1.0000 </r>
       <r>  -62.7672    1.0000 </r>
       <r>  -62.7669    1.0000 </r>
       <r>  -62.7624    1.0000 </r>
       <r>  -62.7541    1.0000 </r>
       <r>  -62.7397    1.0000 </r>
       <r>  -62.7326    1.0000 </r>
       <r>  -62.7266    1.0000 </r>
       <r>  -62.7166    1.0000 </r>
       <r>  -62.7165    1.0000 </r>
       <r>  -62.7084    1.0000 </r>
       <r>  -62.7082    1.0000 </r>
       <r>  -62.6917    1.0000 </r>
       <r>  -62.6900    1.0000 </r>
       <r>  -62.6841    1.0000 </r>
       <r>  -62.6778    1.0000 </r>
       <r>  -62.6769    1.0000 </r>
       <r>  -62.6665    1.0000 </r>
       <r>  -62.6582    1.0000 </r>
       <r>  -62.6148    1.0000 </r>
       <r>  -62.6132    1.0000 </r>
       <r>  -62.6131    1.0000 </r>
       <r>  -62.5887    1.0000 </r>
       <r>  -62.5852    1.0000 </r>
       <r>  -62.5829    1.0000 </r>
       <r>  -62.5823    1.0000 </r>
       <r>  -62.5768    1.0000 </r>
       <r>  -62.5450    1.0000 </r>
       <r>  -62.5446    1.0000 </r>
       <r>  -62.5417    1.0000 </r>
       <r>  -62.5375    1.0000 </r>
       <r>  -62.5370    1.0000 </r>
       <r>  -62.5362    1.0000 </r>
       <r>  -62.5324    1.0000 </r>
       <r>  -62.5004    1.0000 </r>
       <r>  -62.4922    1.0000 </r>
       <r>  -62.4919    1.0000 </r>
       <r>  -62.4904    1.0000 </r>
       <r>  -62.4879    1.0000 </r>
       <r>  -62.4739    1.0000 </r>
       <r>  -62.4632    1.0000 </r>
       <r>  -62.4545    1.0000 </r>
       <r>  -62.4492    1.0000 </r>
       <r>  -62.4357    1.0000 </r>
       <r>  -62.4336    1.0000 </r>
       <r>  -62.4157    1.0000 </r>
       <r>  -62.4155    1.0000 </r>
       <r>  -62.4079    1.0000 </r>
       <r>  -62.4069    1.0000 </r>
       <r>  -62.4052    1.0000 </r>
       <r>  -62.4039    1.0000 </r>
       <r>  -62.4022    1.0000 </r>
       <r>  -62.3971    1.0000 </r>
       <r>  -62.3967    1.0000 </r>
       <r>  -62.3934    1.0000 </r>
       <r>  -62.3902    1.0000 </r>
       <r>  -62.3844    1.0000 </r>
       <r>  -62.3818    1.0000 </r>
       <r>  -62.3780    1.0000 </r>
       <r>  -62.3729    1.0000 </r>
       <r>  -62.3701    1.0000 </r>
       <r>  -62.3686    1.0000 </r>
       <r>  -62.3633    1.0000 </r>
       <r>  -62.3617    1.0000 </r>
       <r>  -62.3598    1.0000 </r>
       <r>  -62.3594    1.0000 </r>
       <r>  -62.3548    1.0000 </r>
       <r>  -62.3528    1.0000 </r>
       <r>  -62.3490    1.0000 </r>
       <r>  -62.3461    1.0000 </r>
       <r>  -62.3427    1.0000 </r>
       <r>  -62.3395    1.0000 </r>
       <r>  -62.3377    1.0000 </r>
       <r>  -62.3371    1.0000 </r>
       <r>  -62.3366    1.0000 </r>
       <r>  -62.3264    1.0000 </r>
       <r>  -62.3258    1.0000 </r>
       <r>  -62.3247    1.0000 </r>
       <r>  -62.3236    1.0000 </r>
       <r>  -62.3222    1.0000 </r>
       <r>  -62.3209    1.0000 </r>
       <r>  -62.3160    1.0000 </r>
       <r>  -62.2834    1.0000 </r>
       <r>  -62.2740    1.0000 </r>
       <r>  -62.2723    1.0000 </r>
       <r>  -62.2702    1.0000 </r>
       <r>  -62.2654    1.0000 </r>
       <r>  -62.2404    1.0000 </r>
       <r>  -62.2314    1.0000 </r>
       <r>  -62.2206    1.0000 </r>
       <r>  -62.2191    1.0000 </r>
       <r>  -62.2150    1.0000 </r>
       <r>  -62.1920    1.0000 </r>
       <r>  -62.1870    1.0000 </r>
       <r>  -62.1785    1.0000 </r>
       <r>  -62.1744    1.0000 </r>
       <r>  -62.1685    1.0000 </r>
       <r>  -62.1670    1.0000 </r>
       <r>  -62.1612    1.0000 </r>
       <r>  -62.1410    1.0000 </r>
       <r>  -62.1310    1.0000 </r>
       <r>  -62.0097    1.0000 </r>
       <r>  -61.9681    1.0000 </r>
       <r>  -61.9635    1.0000 </r>
       <r>  -61.9632    1.0000 </r>
       <r>  -61.9561    1.0000 </r>
       <r>  -61.9312    1.0000 </r>
       <r>  -61.9276    1.0000 </r>
       <r>  -61.8092    1.0000 </r>
       <r>  -61.7666    1.0000 </r>
       <r>  -61.7666    1.0000 </r>
       <r>  -61.7587    1.0000 </r>
       <r>  -61.7289    1.0000 </r>
       <r>  -61.6501    1.0000 </r>
       <r>  -61.6467    1.0000 </r>
       <r>  -61.6163    1.0000 </r>
       <r>  -61.6160    1.0000 </r>
       <r>  -61.6048    1.0000 </r>
       <r>  -61.6042    1.0000 </r>
       <r>  -61.3384    1.0000 </r>
       <r>  -61.3349    1.0000 </r>
       <r>  -61.2705    1.0000 </r>
       <r>  -61.2682    1.0000 </r>
       <r>  -14.3699    1.0000 </r>
       <r>  -14.0915    1.0000 </r>
       <r>  -13.7798    1.0000 </r>
       <r>  -13.6761    1.0000 </r>
       <r>  -13.5911    1.0000 </r>
       <r>  -13.5357    1.0000 </r>
       <r>  -13.5171    1.0000 </r>
       <r>  -13.3196    1.0000 </r>
       <r>  -13.2342    1.0000 </r>
       <r>  -13.2138    1.0000 </r>
       <r>  -13.1500    1.0000 </r>
       <r>  -13.1345    1.0000 </r>
       <r>  -13.1019    1.0000 </r>
       <r>  -13.0511    1.0000 </r>
       <r>  -12.9067    1.0000 </r>
       <r>  -12.7356    1.0000 </r>
       <r>  -12.6802    1.0000 </r>
       <r>  -12.6693    1.0000 </r>
       <r>  -12.5934    1.0000 </r>
       <r>  -12.5599    1.0000 </r>
       <r>  -12.5190    1.0000 </r>
       <r>  -12.4586    1.0000 </r>
       <r>  -12.4466    1.0000 </r>
       <r>  -12.4273    1.0000 </r>
       <r>  -12.3724    1.0000 </r>
       <r>  -12.3568    1.0000 </r>
       <r>  -12.3347    1.0000 </r>
       <r>  -12.2978    1.0000 </r>
       <r>  -12.2427    1.0000 </r>
       <r>  -12.2115    1.0000 </r>
       <r>  -12.1387    1.0000 </r>
       <r>  -12.0742    1.0000 </r>
       <r>  -12.0482    1.0000 </r>
       <r>  -11.9809    1.0000 </r>
       <r>  -11.9204    1.0000 </r>
       <r>  -11.8588    1.0000 </r>
       <r>  -11.8222    1.0000 </r>
       <r>  -11.8037    1.0000 </r>
       <r>  -11.7388    1.0000 </r>
       <r>  -11.7215    1.0000 </r>
       <r>  -11.6640    1.0000 </r>
       <r>  -11.6574    1.0000 </r>
       <r>  -11.6150    1.0000 </r>
       <r>  -11.5261    1.0000 </r>
       <r>  -11.4676    1.0000 </r>
       <r>  -11.3960    1.0000 </r>
       <r>  -11.3760    1.0000 </r>
       <r>  -11.0359    1.0000 </r>
       <r>   -6.1546    1.0000 </r>
       <r>   -6.0907    1.0000 </r>
       <r>   -6.0296    1.0000 </r>
       <r>   -6.0141    1.0000 </r>
       <r>   -5.9307    1.0000 </r>
       <r>   -5.9239    1.0000 </r>
       <r>   -5.8400    1.0000 </r>
       <r>   -5.7999    1.0000 </r>
       <r>   -5.6710    1.0000 </r>
       <r>   -5.5668    1.0000 </r>
       <r>   -5.4822    1.0000 </r>
       <r>   -5.3466    1.0000 </r>
       <r>   -5.3344    1.0000 </r>
       <r>   -5.3141    1.0000 </r>
       <r>   -5.2946    1.0000 </r>
       <r>   -5.2770    1.0000 </r>
       <r>   -5.2207    1.0000 </r>
       <r>   -5.1888    1.0000 </r>
       <r>   -5.1606    1.0000 </r>
       <r>   -5.1490    1.0000 </r>
       <r>   -5.1276    1.0000 </r>
       <r>   -5.1009    1.0000 </r>
       <r>   -5.0800    1.0000 </r>
       <r>   -5.0526    1.0000 </r>
       <r>   -5.0218    1.0000 </r>
       <r>   -4.9600    1.0000 </r>
       <r>   -4.9270    1.0000 </r>
       <r>   -4.8897    1.0000 </r>
       <r>   -4.8667    1.0000 </r>
       <r>   -4.8532    1.0000 </r>
       <r>   -4.8225    1.0000 </r>
       <r>   -4.7753    1.0000 </r>
       <r>   -4.7739    1.0000 </r>
       <r>   -4.7468    1.0000 </r>
       <r>   -4.7160    1.0000 </r>
       <r>   -4.5948    1.0000 </r>
       <r>   -4.5861    1.0000 </r>
       <r>   -4.5334    1.0000 </r>
       <r>   -4.4912    1.0000 </r>
       <r>   -4.4757    1.0000 </r>
       <r>   -4.4450    1.0000 </r>
       <r>   -4.4328    1.0000 </r>
       <r>   -4.3753    1.0000 </r>
       <r>   -4.3576    1.0000 </r>
       <r>   -4.2848    1.0000 </r>
       <r>   -4.2554    1.0000 </r>
       <r>   -4.2358    1.0000 </r>
       <r>   -4.2240    1.0000 </r>
       <r>   -4.1932    1.0000 </r>
       <r>   -4.1717    1.0000 </r>
       <r>   -4.1350    1.0000 </r>
       <r>   -4.1049    1.0000 </r>
       <r>   -4.0452    1.0000 </r>
       <r>   -4.0354    1.0000 </r>
       <r>   -4.0167    1.0000 </r>
       <r>   -4.0033    1.0000 </r>
       <r>   -3.9832    1.0000 </r>
       <r>   -3.9767    1.0000 </r>
       <r>   -3.9118    1.0000 </r>
       <r>   -3.9001    1.0000 </r>
       <r>   -3.8335    1.0000 </r>
       <r>   -3.8225    1.0000 </r>
       <r>   -3.7777    1.0000 </r>
       <r>   -3.7648    1.0000 </r>
       <r>   -3.7409    1.0000 </r>
       <r>   -3.6906    1.0000 </r>
       <r>   -3.6523    1.0000 </r>
       <r>   -3.6110    1.0000 </r>
       <r>   -3.5910    1.0000 </r>
       <r>   -3.5632    1.0000 </r>
       <r>   -3.5584    1.0000 </r>
       <r>   -3.5207    1.0000 </r>
       <r>   -3.4840    1.0000 </r>
       <r>   -3.4407    1.0000 </r>
       <r>   -3.4106    1.0000 </r>
       <r>   -3.3759    1.0000 </r>
       <r>   -3.3614    1.0000 </r>
       <r>   -3.3583    1.0000 </r>
       <r>   -3.3355    1.0000 </r>
       <r>   -3.3154    1.0000 </r>
       <r>   -3.3088    1.0000 </r>
       <r>   -3.2761    1.0000 </r>
       <r>   -3.2620    1.0000 </r>
       <r>   -3.2218    1.0000 </r>
       <r>   -3.2127    1.0000 </r>
       <r>   -3.1765    1.0000 </r>
       <r>   -3.1573    1.0000 </r>
       <r>   -3.1330    1.0000 </r>
       <r>   -3.1146    1.0000 </r>
       <r>   -3.1027    1.0000 </r>
       <r>   -3.0558    1.0000 </r>
       <r>   -3.0319    1.0000 </r>
       <r>   -3.0221    1.0000 </r>
       <r>   -2.9957    1.0000 </r>
       <r>   -2.9499    1.0000 </r>
       <r>   -2.9444    1.0000 </r>
       <r>   -2.9329    1.0000 </r>
       <r>   -2.9203    1.0000 </r>
       <r>   -2.8902    1.0000 </r>
       <r>   -2.8640    1.0000 </r>
       <r>   -2.7937    1.0000 </r>
       <r>   -2.7679    1.0000 </r>
       <r>   -2.7438    1.0000 </r>
       <r>   -2.7381    1.0000 </r>
       <r>   -2.6869    1.0000 </r>
       <r>   -2.6609    1.0000 </r>
       <r>   -2.6204    1.0000 </r>
       <r>   -2.6053    1.0000 </r>
       <r>   -2.5839    1.0000 </r>
       <r>   -2.5627    1.0000 </r>
       <r>   -2.5482    1.0000 </r>
       <r>   -2.5256    1.0000 </r>
       <r>   -2.5198    1.0000 </r>
       <r>   -2.4971    1.0000 </r>
       <r>   -2.4681    1.0000 </r>
       <r>   -2.4325    1.0000 </r>
       <r>   -2.4086    1.0000 </r>
       <r>   -2.3991    1.0000 </r>
       <r>   -2.3819    1.0000 </r>
       <r>   -2.3720    1.0000 </r>
       <r>   -2.3382    1.0000 </r>
       <r>   -2.3248    1.0000 </r>
       <r>   -2.3189    1.0000 </r>
       <r>   -2.3076    1.0000 </r>
       <r>   -2.2892    1.0000 </r>
       <r>   -2.2389    1.0000 </r>
       <r>   -2.2031    1.0000 </r>
       <r>   -2.1627    1.0000 </r>
       <r>   -2.1601    1.0000 </r>
       <r>   -2.1402    1.0000 </r>
       <r>   -2.1254    1.0000 </r>
       <r>   -2.1107    1.0000 </r>
       <r>   -2.0141    1.0000 </r>
       <r>   -1.9642    1.0000 </r>
       <r>   -1.9140    1.0000 </r>
       <r>   -1.8611    1.0000 </r>
       <r>   -1.8134    1.0000 </r>
       <r>   -1.7894    1.0000 </r>
       <r>   -1.7541    1.0000 </r>
       <r>   -1.6784    1.0000 </r>
       <r>   -1.6559    1.0000 </r>
       <r>   -1.6406    1.0000 </r>
       <r>   -1.5903    1.0000 </r>
       <r>   -1.5645    1.0000 </r>
       <r>   -1.5156    1.0000 </r>
       <r>   -1.5109    1.0000 </r>
       <r>   -1.4909    1.0000 </r>
       <r>   -1.4517    1.0000 </r>
       <r>   -1.4278    1.0000 </r>
       <r>   -1.4027    1.0000 </r>
       <r>   -1.3829    1.0000 </r>
       <r>   -1.3740    1.0000 </r>
       <r>   -1.3545    1.0000 </r>
       <r>   -1.3353    1.0000 </r>
       <r>   -1.3184    1.0000 </r>
       <r>   -1.3024    1.0000 </r>
       <r>   -1.2710    1.0000 </r>
       <r>   -1.2622    1.0000 </r>
       <r>   -1.2342    1.0000 </r>
       <r>   -1.2223    1.0000 </r>
       <r>   -1.1920    1.0000 </r>
       <r>   -1.1711    1.0000 </r>
       <r>   -1.1435    1.0000 </r>
       <r>   -1.1227    1.0000 </r>
       <r>   -1.1162    1.0000 </r>
       <r>   -1.0909    1.0000 </r>
       <r>   -1.0775    1.0000 </r>
       <r>   -1.0735    1.0000 </r>
       <r>   -1.0220    1.0000 </r>
       <r>   -1.0025    1.0000 </r>
       <r>   -0.9833    1.0000 </r>
       <r>   -0.9784    1.0000 </r>
       <r>   -0.9659    1.0000 </r>
       <r>   -0.9464    1.0000 </r>
       <r>   -0.9399    1.0000 </r>
       <r>   -0.9358    1.0000 </r>
       <r>   -0.9025    1.0000 </r>
       <r>   -0.8843    1.0000 </r>
       <r>   -0.8734    1.0000 </r>
       <r>   -0.8687    1.0000 </r>
       <r>   -0.8382    1.0000 </r>
       <r>   -0.8309    1.0000 </r>
       <r>   -0.8062    1.0000 </r>
       <r>   -0.7997    1.0000 </r>
       <r>   -0.7794    1.0000 </r>
       <r>   -0.7581    1.0000 </r>
       <r>   -0.7395    1.0000 </r>
       <r>   -0.7291    1.0000 </r>
       <r>   -0.7013    1.0000 </r>
       <r>   -0.6943    1.0000 </r>
       <r>   -0.6809    1.0000 </r>
       <r>   -0.6592    1.0000 </r>
       <r>   -0.6514    1.0000 </r>
       <r>   -0.6386    1.0000 </r>
       <r>   -0.6342    1.0000 </r>
       <r>   -0.6215    1.0000 </r>
       <r>   -0.6066    1.0000 </r>
       <r>   -0.5908    1.0000 </r>
       <r>   -0.5745    1.0000 </r>
       <r>   -0.5655    1.0000 </r>
       <r>   -0.5551    1.0000 </r>
       <r>   -0.5395    1.0000 </r>
       <r>   -0.5249    1.0000 </r>
       <r>   -0.5231    1.0000 </r>
       <r>   -0.4855    1.0000 </r>
       <r>   -0.4727    1.0000 </r>
       <r>   -0.4586    1.0000 </r>
       <r>   -0.4414    1.0000 </r>
       <r>   -0.4358    1.0000 </r>
       <r>   -0.4264    1.0000 </r>
       <r>   -0.4230    1.0000 </r>
       <r>   -0.4110    1.0000 </r>
       <r>   -0.3972    1.0000 </r>
       <r>   -0.3880    1.0000 </r>
       <r>   -0.3705    1.0000 </r>
       <r>   -0.3594    1.0000 </r>
       <r>   -0.3493    1.0000 </r>
       <r>   -0.3452    1.0000 </r>
       <r>   -0.3272    1.0000 </r>
       <r>   -0.3216    1.0000 </r>
       <r>   -0.3141    1.0000 </r>
       <r>   -0.2963    1.0000 </r>
       <r>   -0.2768    1.0000 </r>
       <r>   -0.2554    1.0000 </r>
       <r>   -0.2256    1.0000 </r>
       <r>   -0.2199    1.0000 </r>
       <r>   -0.2070    1.0000 </r>
       <r>   -0.1966    1.0000 </r>
       <r>   -0.1893    1.0000 </r>
       <r>   -0.1742    1.0000 </r>
       <r>   -0.1716    1.0000 </r>
       <r>   -0.1447    1.0000 </r>
       <r>   -0.1410    1.0000 </r>
       <r>   -0.1211    1.0000 </r>
       <r>   -0.1104    1.0000 </r>
       <r>   -0.1028    1.0000 </r>
       <r>   -0.0969    1.0000 </r>
       <r>   -0.0899    1.0000 </r>
       <r>   -0.0777    1.0000 </r>
       <r>   -0.0676    1.0000 </r>
       <r>   -0.0542    1.0000 </r>
       <r>   -0.0504    1.0000 </r>
       <r>   -0.0487    1.0000 </r>
       <r>   -0.0421    1.0000 </r>
       <r>   -0.0294    1.0000 </r>
       <r>   -0.0192    1.0000 </r>
       <r>   -0.0026    1.0000 </r>
       <r>    0.0027    1.0000 </r>
       <r>    0.0106    1.0000 </r>
       <r>    0.0199    1.0000 </r>
       <r>    0.0251    1.0000 </r>
       <r>    0.0364    1.0000 </r>
       <r>    0.0524    1.0000 </r>
       <r>    0.0641    1.0000 </r>
       <r>    0.0651    1.0000 </r>
       <r>    0.0797    1.0000 </r>
       <r>    0.0829    1.0000 </r>
       <r>    0.1054    1.0000 </r>
       <r>    0.1140    1.0000 </r>
       <r>    0.1338    1.0000 </r>
       <r>    0.1432    1.0000 </r>
       <r>    0.1526    1.0000 </r>
       <r>    0.1735    1.0000 </r>
       <r>    0.1795    1.0000 </r>
       <r>    0.1988    1.0000 </r>
       <r>    0.2214    1.0000 </r>
       <r>    0.2272    1.0000 </r>
       <r>    0.2317    1.0000 </r>
       <r>    0.2389    1.0000 </r>
       <r>    0.2695    1.0000 </r>
       <r>    0.2774    1.0000 </r>
       <r>    0.2876    1.0000 </r>
       <r>    0.2947    1.0000 </r>
       <r>    0.3221    1.0000 </r>
       <r>    0.3295    1.0000 </r>
       <r>    0.3760    1.0000 </r>
       <r>    0.3911    1.0000 </r>
       <r>    0.4099    1.0000 </r>
       <r>    0.4161    1.0000 </r>
       <r>    0.4318    1.0000 </r>
       <r>    0.4389    1.0000 </r>
       <r>    0.4460    1.0000 </r>
       <r>    0.4621    1.0000 </r>
       <r>    0.4867    1.0000 </r>
       <r>    0.5000    1.0000 </r>
       <r>    0.5114    1.0000 </r>
       <r>    0.5287    1.0000 </r>
       <r>    0.5421    1.0000 </r>
       <r>    0.5459    1.0000 </r>
       <r>    0.5739    1.0000 </r>
       <r>    0.5972    1.0000 </r>
       <r>    0.6232    1.0000 </r>
       <r>    0.6504    1.0000 </r>
       <r>    0.6665    1.0000 </r>
       <r>    0.6813    1.0000 </r>
       <r>    0.7004    1.0000 </r>
       <r>    0.7205    1.0000 </r>
       <r>    0.7264    1.0000 </r>
       <r>    0.7355    1.0000 </r>
       <r>    0.7740    1.0000 </r>
       <r>    0.7808    1.0000 </r>
       <r>    0.7914    1.0000 </r>
       <r>    0.8286    1.0000 </r>
       <r>    0.8632    1.0000 </r>
       <r>    0.8830    1.0000 </r>
       <r>    0.9255    1.0000 </r>
       <r>    0.9506    1.0000 </r>
       <r>    0.9674    1.0000 </r>
       <r>    0.9781    1.0000 </r>
       <r>    1.0102    1.0000 </r>
       <r>    1.0322    1.0000 </r>
       <r>    1.0621    1.0000 </r>
       <r>    1.0994    0.9999 </r>
       <r>    1.1201    0.9999 </r>
       <r>    1.1414    0.9998 </r>
       <r>    1.1680    0.9996 </r>
       <r>    1.1849    0.9993 </r>
       <r>    1.2090    0.9988 </r>
       <r>    1.2121    0.9987 </r>
       <r>    1.2325    0.9980 </r>
       <r>    1.2415    0.9975 </r>
       <r>    1.2662    0.9958 </r>
       <r>    1.3011    0.9916 </r>
       <r>    1.3195    0.9881 </r>
       <r>    1.3455    0.9811 </r>
       <r>    1.3807    0.9663 </r>
       <r>    1.4079    0.9491 </r>
       <r>    1.4247    0.9355 </r>
       <r>    1.4417    0.9189 </r>
       <r>    1.4815    0.8678 </r>
       <r>    1.5054    0.8282 </r>
       <r>    1.5128    0.8145 </r>
       <r>    1.5461    0.7452 </r>
       <r>    1.5733    0.6799 </r>
       <r>    1.5976    0.6160 </r>
[...]
       <r>   -58.4622     0.0000   288.0000 </r>
       <r>   -58.2025     0.0000   288.0000 </r>
       <r>   -57.9427     0.0000   288.0000 </r>
       <r>   -57.6830     0.0000   288.0000 </r>
       <r>   -57.4232     0.0000   288.0000 </r>
       <r>   -57.1635     0.0000   288.0000 </r>
       <r>   -56.9037     0.0000   288.0000 </r>
       <r>   -56.6440     0.0000   288.0000 </r>
       <r>   -56.3843     0.0000   288.0000 </r>
       <r>   -56.1245     0.0000   288.0000 </r>
       <r>   -55.8648     0.0000   288.0000 </r>
       <r>   -55.6050     0.0000   288.0000 </r>
       <r>   -55.3453     0.0000   288.0000 </r>
       <r>   -55.0855     0.0000   288.0000 </r>
       <r>   -54.8258     0.0000   288.0000 </r>
       <r>   -54.5660     0.0000   288.0000 </r>
       <r>   -54.3063     0.0000   288.0000 </r>
       <r>   -54.0465     0.0000   288.0000 </r>
       <r>   -53.7868     0.0000   288.0000 </r>
       <r>   -53.5271     0.0000   288.0000 </r>
       <r>   -53.2673     0.0000   288.0000 </r>
       <r>   -53.0076     0.0000   288.0000 </r>
       <r>   -52.7478     0.0000   288.0000 </r>
       <r>   -52.4881     0.0000   288.0000 </r>
       <r>   -52.2283     0.0000   288.0000 </r>
       <r>   -51.9686     0.0000   288.0000 </r>
       <r>   -51.7088     0.0000   288.0000 </r>
       <r>   -51.4491     0.0000   288.0000 </r>
       <r>   -51.1893     0.0000   288.0000 </r>
       <r>   -50.9296     0.0000   288.0000 </r>
       <r>   -50.6698     0.0000   288.0000 </r>
       <r>   -50.4101     0.0000   288.0000 </r>
       <r>   -50.1504     0.0000   288.0000 </r>
       <r>   -49.8906     0.0000   288.0000 </r>
       <r>   -49.6309     0.0000   288.0000 </r>
       <r>   -49.3711     0.0000   288.0000 </r>
       <r>   -49.1114     0.0000   288.0000 </r>
       <r>   -48.8516     0.0000   288.0000 </r>
       <r>   -48.5919     0.0000   288.0000 </r>
       <r>   -48.3321     0.0000   288.0000 </r>
       <r>   -48.0724     0.0000   288.0000 </r>
       <r>   -47.8126     0.0000   288.0000 </r>
       <r>   -47.5529     0.0000   288.0000 </r>
       <r>   -47.2931     0.0000   288.0000 </r>
       <r>   -47.0334     0.0000   288.0000 </r>
       <r>   -46.7737     0.0000   288.0000 </r>
       <r>   -46.5139     0.0000   288.0000 </r>
       <r>   -46.2542     0.0000   288.0000 </r>
       <r>   -45.9944     0.0000   288.0000 </r>
       <r>   -45.7347     0.0000   288.0000 </r>
       <r>   -45.4749     0.0000   288.0000 </r>
       <r>   -45.2152     0.0000   288.0000 </r>
       <r>   -44.9554     0.0000   288.0000 </r>
       <r>   -44.6957     0.0000   288.0000 </r>
       <r>   -44.4359     0.0000   288.0000 </r>
       <r>   -44.1762     0.0000   288.0000 </r>
       <r>   -43.9165     0.0000   288.0000 </r>
       <r>   -43.6567     0.0000   288.0000 </r>
       <r>   -43.3970     0.0000   288.0000 </r>
       <r>   -43.1372     0.0000   288.0000 </r>
       <r>   -42.8775     0.0000   288.0000 </r>
       <r>   -42.6177     0.0000   288.0000 </r>
       <r>   -42.3580     0.0000   288.0000 </r>
       <r>   -42.0982     0.0000   288.0000 </r>
       <r>   -41.8385     0.0000   288.0000 </r>
       <r>   -41.5787     0.0000   288.0000 </r>
       <r>   -41.3190     0.0000   288.0000 </r>
       <r>   -41.0592     0.0000   288.0000 </r>
       <r>   -40.7995     0.0000   288.0000 </r>
       <r>   -40.5398     0.0000   288.0000 </r>
       <r>   -40.2800     0.0000   288.0000 </r>
       <r>   -40.0203     0.0000   288.0000 </r>
       <r>   -39.7605     0.0000   288.0000 </r>
       <r>   -39.5008     0.0000   288.0000 </r>
       <r>   -39.2410     0.0000   288.0000 </r>
       <r>   -38.9813     0.0000   288.0000 </r>
       <r>   -38.7215     0.0000   288.0000 </r>
       <r>   -38.4618     0.0000   288.0000 </r>
       <r>   -38.2020     0.0000   288.0000 </r>
       <r>   -37.9423     0.0000   288.0000 </r>
       <r>   -37.6825     0.0000   288.0000 </r>
       <r>   -37.4228     0.0000   288.0000 </r>
       <r>   -37.1631     0.0000   288.0000 </r>
       <r>   -36.9033     0.0000   288.0000 </r>
       <r>   -36.6436     0.0000   288.0000 </r>
       <r>   -36.3838     0.0000   288.0000 </r>
       <r>   -36.1241     0.0000   288.0000 </r>
       <r>   -35.8643     0.0000   288.0000 </r>
       <r>   -35.6046     0.0000   288.0000 </r>
       <r>   -35.3448     0.0000   288.0000 </r>
       <r>   -35.0851     0.0000   288.0000 </r>
       <r>   -34.8253     0.0000   288.0000 </r>
       <r>   -34.5656     0.0000   288.0000 </r>
       <r>   -34.3058     0.0000   288.0000 </r>
       <r>   -34.0461     0.0000   288.0000 </r>
       <r>   -33.7864     0.0000   288.0000 </r>
       <r>   -33.5266     0.0000   288.0000 </r>
       <r>   -33.2669     0.0000   288.0000 </r>
       <r>   -33.0071     0.0000   288.0000 </r>
       <r>   -32.7474     0.0000   288.0000 </r>
       <r>   -32.4876     0.0000   288.0000 </r>
       <r>   -32.2279     0.0000   288.0000 </r>
       <r>   -31.9681     0.0000   288.0000 </r>
       <r>   -31.7084     0.0000   288.0000 </r>
       <r>   -31.4486     0.0000   288.0000 </r>
       <r>   -31.1889     0.0000   288.0000 </r>
       <r>   -30.9292     0.0000   288.0000 </r>
       <r>   -30.6694     0.0000   288.0000 </r>
       <r>   -30.4097     0.0000   288.0000 </r>
       <r>   -30.1499     0.0000   288.0000 </r>
       <r>   -29.8902     0.0000   288.0000 </r>
       <r>   -29.6304     0.0000   288.0000 </r>
       <r>   -29.3707     0.0000   288.0000 </r>
       <r>   -29.1109     0.0000   288.0000 </r>
       <r>   -28.8512     0.0000   288.0000 </r>
       <r>   -28.5914     0.0000   288.0000 </r>
       <r>   -28.3317     0.0000   288.0000 </r>
       <r>   -28.0719     0.0000   288.0000 </r>
       <r>   -27.8122     0.0000   288.0000 </r>
       <r>   -27.5525     0.0000   288.0000 </r>
       <r>   -27.2927     0.0000   288.0000 </r>
       <r>   -27.0330     0.0000   288.0000 </r>
       <r>   -26.7732     0.0000   288.0000 </r>
       <r>   -26.5135     0.0000   288.0000 </r>
       <r>   -26.2537     0.0000   288.0000 </r>
       <r>   -25.9940     0.0000   288.0000 </r>
       <r>   -25.7342     0.0000   288.0000 </r>
       <r>   -25.4745     0.0000   288.0000 </r>
       <r>   -25.2147     0.0000   288.0000 </r>
       <r>   -24.9550     0.0000   288.0000 </r>
       <r>   -24.6952     0.0000   288.0000 </r>
       <r>   -24.4355     0.0000   288.0000 </r>
       <r>   -24.1758     0.0000   288.0000 </r>
       <r>   -23.9160     0.0000   288.0000 </r>
       <r>   -23.6563     0.0000   288.0000 </r>
       <r>   -23.3965     0.0000   288.0000 </r>
       <r>   -23.1368     0.0000   288.0000 </r>
       <r>   -22.8770     0.0000   288.0000 </r>
       <r>   -22.6173     0.0000   288.0000 </r>
       <r>   -22.3575     0.0000   288.0000 </r>
       <r>   -22.0978     0.0000   288.0000 </r>
       <r>   -21.8380     0.0000   288.0000 </r>
       <r>   -21.5783     0.0000   288.0000 </r>
       <r>   -21.3186     0.0000   288.0000 </r>
       <r>   -21.0588     0.0000   288.0000 </r>
       <r>   -20.7991     0.0000   288.0000 </r>
       <r>   -20.5393     0.0000   288.0000 </r>
       <r>   -20.2796     0.0000   288.0000 </r>
       <r>   -20.0198     0.0000   288.0000 </r>
       <r>   -19.7601     0.0000   288.0000 </r>
       <r>   -19.5003     0.0000   288.0000 </r>
       <r>   -19.2406     0.0000   288.0000 </r>
       <r>   -18.9808     0.0000   288.0000 </r>
       <r>   -18.7211     0.0000   288.0000 </r>
       <r>   -18.4613     0.0000   288.0000 </r>
       <r>   -18.2016     0.0000   288.0000 </r>
       <r>   -17.9419     0.0000   288.0000 </r>
       <r>   -17.6821     0.0000   288.0000 </r>
       <r>   -17.4224     0.0000   288.0000 </r>
       <r>   -17.1626     0.0000   288.0000 </r>
       <r>   -16.9029     0.0000   288.0000 </r>
       <r>   -16.6431     0.0000   288.0000 </r>
       <r>   -16.3834     0.0000   288.0000 </r>
       <r>   -16.1236     0.0000   288.0000 </r>
       <r>   -15.8639     0.0000   288.0000 </r>
       <r>   -15.6041     0.0000   288.0000 </r>
       <r>   -15.3444     0.0000   288.0000 </r>
       <r>   -15.0846     0.0000   288.0000 </r>
       <r>   -14.8249     0.0050   288.0013 </r>
       <r>   -14.5652     0.6422   288.1681 </r>
       <r>   -14.3054     5.0581   289.4819 </r>
       <r>   -14.0457     7.0109   291.3030 </r>
       <r>   -13.7859     9.1368   293.6762 </r>
       <r>   -13.5262    21.3516   299.2222 </r>
       <r>   -13.2664    25.3578   305.8088 </r>
       <r>   -13.0067    32.9578   314.3694 </r>
       <r>   -12.7469    23.7227   320.5313 </r>
       <r>   -12.4872    41.6184   331.3416 </r>
       <r>   -12.2274    52.4056   344.9537 </r>
       <r>   -11.9677    41.1430   355.6404 </r>
       <r>   -11.7080    44.3176   367.1517 </r>
       <r>   -11.4482    38.8020   377.2304 </r>
       <r>   -11.1885    17.9152   381.8838 </r>
       <r>   -10.9287     6.4099   383.5487 </r>
       <r>   -10.6690     1.7008   383.9905 </r>
       <r>   -10.4092     0.0364   384.0000 </r>
       <r>   -10.1495     0.0000   384.0000 </r>
       <r>    -9.8897     0.0000   384.0000 </r>
       <r>    -9.6300     0.0000   384.0000 </r>
       <r>    -9.3702     0.0000   384.0000 </r>
       <r>    -9.1105     0.0000   384.0000 </r>
       <r>    -8.8507     0.0000   384.0000 </r>
       <r>    -8.5910     0.0000   384.0000 </r>
       <r>    -8.3313     0.0000   384.0000 </r>
       <r>    -8.0715     0.0000   384.0000 </r>
       <r>    -7.8118     0.0000   384.0000 </r>
       <r>    -7.5520     0.0000   384.0000 </r>
       <r>    -7.2923     0.0000   384.0000 </r>
       <r>    -7.0325     0.0000   384.0000 </r>
       <r>    -6.7728     0.0001   384.0000 </r>
       <r>    -6.5130     0.0585   384.0152 </r>
       <r>    -6.2533     3.7434   384.9876 </r>
       <r>    -5.9935    24.3942   391.3239 </r>
       <r>    -5.7338    31.3007   399.4541 </r>
       <r>    -5.4740    24.6296   405.8515 </r>
       <r>    -5.2143    49.1498   418.6180 </r>
       <r>    -4.9546    66.8902   435.9925 </r>
       <r>    -4.6948    60.3468   451.6673 </r>
       <r>    -4.4351    53.9927   465.6917 </r>
       <r>    -4.1753    63.4091   482.1620 </r>
       <r>    -3.9156    70.5644   500.4908 </r>
       <r>    -3.6558    65.4041   517.4792 </r>
       <r>    -3.3961    72.4614   536.3008 </r>
       <r>    -3.1363    86.4041   558.7439 </r>
       <r>    -2.8766    81.7214   579.9707 </r>
       <r>    -2.6168    76.1255   599.7440 </r>
       <r>    -2.3571    91.3265   623.4656 </r>
       <r>    -2.0974    78.5284   643.8631 </r>
       <r>    -1.8376    49.6235   656.7526 </r>
       <r>    -1.5779    55.6635   671.2109 </r>
       <r>    -1.3181    83.5379   692.9096 </r>
       <r>    -1.0584   102.2097   719.4581 </r>
       <r>    -0.7986   120.3997   750.7314 </r>
       <r>    -0.5389   139.9624   787.0861 </r>
       <r>    -0.2791   157.0805   827.8871 </r>
       <r>    -0.0194   176.8294   873.8178 </r>
       <r>     0.2404   169.7275   917.9039 </r>
       <r>     0.5001   132.2480   952.2548 </r>
       <r>     0.7599   110.0986   980.8524 </r>
       <r>     1.0196    87.8421  1003.6691 </r>
       <r>     1.2793    87.5881  1026.4197 </r>
       <r>     1.5391    84.6061  1048.3958 </r>
       <r>     1.7988    67.1917  1065.8486 </r>
       <r>     2.0586    52.9369  1079.5987 </r>
       <r>     2.3183    59.7544  1095.1197 </r>
       <r>     2.5781    71.1187  1113.5925 </r>
       <r>     2.8378    63.8958  1130.1891 </r>
       <r>     3.0976    45.5479  1142.0200 </r>
       <r>     3.3573    28.3860  1149.3932 </r>
       <r>     3.6171     9.3409  1151.8194 </r>
       <r>     3.8768     1.3802  1152.1779 </r>
       <r>     4.1366     6.4839  1153.8621 </r>
       <r>     4.3963     7.4775  1155.8044 </r>
       <r>     4.6560     7.5538  1157.7664 </r>
       <r>     4.9158    21.8957  1163.4538 </r>
       <r>     5.1755    23.3296  1169.5135 </r>
       <r>     5.4353    22.3137  1175.3094 </r>
       <r>     5.6950    26.0142  1182.0665 </r>
       <r>     5.9548    21.5072  1187.6529 </r>
       <r>     6.2145    31.5239  1195.8411 </r>
       <r>     6.4743    29.0563  1203.3884 </r>
       <r>     6.7340    33.1472  1211.9982 </r>
       <r>     6.9938    43.3807  1223.2662 </r>
       <r>     7.2535    47.1549  1235.5145 </r>
       <r>     7.5133    55.1586  1249.8417 </r>
       <r>     7.7730    46.8957  1262.0227 </r>
       <r>     8.0327    21.1748  1267.5227 </r>
       <r>     8.2925     1.8239  1267.9965 </r>
       <r>     8.5522     0.0136  1268.0000 </r>
       <r>     8.8120     0.0000  1268.0000 </r>
       <r>     9.0717     0.0000  1268.0000 </r>
       <r>     9.3315     0.0000  1268.0000 </r>
       <r>     9.5912     0.0000  1268.0000 </r>
       <r>     9.8510     0.0000  1268.0000 </r>
       <r>    10.1107     0.0000  1268.0000 </r>
       <r>    10.3705     0.0000  1268.0000 </r>
       <r>    10.6302     0.0000  1268.0000 </r>
       <r>    10.8899     0.0000  1268.0000 </r>
       <r>    11.1497     0.0000  1268.0000 </r>
       <r>    11.4094     0.0000  1268.0000 </r>
      </set>
     </set>
    </array>
   </total>
  </dos>
 </calculation>
 <structure name="finalpos" >
  <crystal>
   <varray name="basis" >
    <v>      11.25646304       0.00000000       0.00000000 </v>
    <v>       5.04456212      10.06282034       0.00000000 </v>
    <v>       0.00000000       0.00000000      22.51995597 </v>
   </varray>
   <i name="volume">   2550.87516496 </i>
   <varray name="rec_basis" >
    <v>       0.08883785      -0.04453504       0.00000000 </v>
    <v>       0.00000000       0.09937572       0.00000000 </v>
    <v>       0.00000000       0.00000000       0.04440506 </v>
   </varray>
  </crystal>
  <varray name="positions" >
   <v>       0.26092069       0.47878037       0.29519774 </v>
   <v>       0.35488056       0.38482050       0.42557357 </v>
   <v>       0.16696082       0.07274025       0.16482191 </v>
   <v>       0.05223297       0.04964462       0.48504002 </v>
   <v>       0.18678210       0.42827093       0.03386524 </v>
   <v>       0.27423906       0.33335901       0.13037583 </v>
   <v>       0.36819893       0.23939914       0.26075166 </v>
   <v>       0.46215879       0.14543927       0.39112749 </v>
   <v>       0.00030194       0.37150214       0.26075166 </v>
   <v>       0.09426180       0.27754227       0.39112749 </v>
   <v>       0.40634206       0.46546200       0.13037583 </v>
   <v>       0.76092069       0.47878037       0.29519774 </v>
   <v>       0.85488056       0.38482050       0.42557357 </v>
   <v>       0.66696082       0.07274025       0.16482191 </v>
   <v>       0.57235163       0.02330108       0.47891881 </v>
   <v>       0.77423906       0.33335901       0.13037583 </v>
   <v>       0.86819893       0.23939914       0.26075166 </v>
   <v>       0.96215879       0.14543927       0.39112749 </v>
   <v>       0.50030194       0.37150214       0.26075166 </v>
   <v>       0.59426180       0.27754227       0.39112749 </v>
   <v>       0.90634206       0.46546200       0.13037583 </v>
   <v>       0.81138357       0.05312259       0.03380040 </v>
   <v>       0.26092069       0.97878037       0.29519774 </v>
   <v>       0.35488056       0.88482051       0.42557357 </v>
   <v>       0.16696083       0.57274025       0.16482191 </v>
   <v>       0.00086571       0.50814469       0.47230887 </v>
   <v>       0.21572803       0.02346865       0.05878061 </v>
   <v>       0.27423906       0.83335901       0.13037583 </v>
   <v>       0.36819893       0.73939914       0.26075166 </v>
   <v>       0.46215879       0.64543927       0.39112749 </v>
   <v>       0.00030194       0.87150214       0.26075166 </v>
   <v>       0.09426180       0.77754227       0.39112749 </v>
   <v>       0.23049545       0.73369757       0.47288101 </v>
   <v>       0.40634206       0.96546200       0.13037583 </v>
   <v>       0.31143036       0.55291895       0.03386523 </v>
   <v>       0.76092069       0.97878037       0.29519774 </v>
   <v>       0.85488056       0.88482051       0.42557357 </v>
   <v>       0.04228767       0.69682104       0.50387367 </v>
   <v>       0.66696083       0.57274025       0.16482191 </v>
   <v>       0.68657864       0.92831612       0.03380022 </v>
   <v>       0.77423906       0.83335901       0.13037583 </v>
   <v>       0.86819893       0.73939914       0.26075166 </v>
   <v>       0.96215879       0.64543927       0.39112749 </v>
   <v>       0.50030194       0.87150214       0.26075166 </v>
   <v>       0.59426180       0.77754227       0.39112749 </v>
   <v>       0.69577031       0.68014890       0.48412072 </v>
   <v>       0.90634206       0.96546200       0.13037583 </v>
   <v>       0.71623242       0.52397294       0.05878057 </v>
   <v>       0.07287763       0.16682345       0.31134757 </v>
   <v>       0.16996757       0.07026068       0.42120907 </v>
   <v>       0.37847876       0.36122231       0.05816369 </v>
   <v>       0.47891775       0.26078331       0.18097174 </v>
   <v>       0.02858018       0.32019092       0.47728675 </v>
   <v>       0.43627354       0.47164252       0.35520991 </v>
   <v>       0.25716301       0.15666876       0.10696906 </v>
   <v>       0.34231367       0.06560240       0.22483408 </v>
   <v>       0.08052109       0.48392883       0.10906742 </v>
   <v>       0.17409868       0.39738739       0.22483408 </v>
   <v>       0.26805854       0.30342752       0.35520991 </v>
   <v>       0.41526696       0.21013682       0.47592229 </v>
   <v>       0.57287763       0.16682345       0.31134757 </v>
   <v>       0.67748472       0.07378434       0.41989917 </v>
   <v>       0.88558558       0.35397853       0.06192648 </v>
   <v>       0.97891775       0.26078331       0.18097174 </v>
   <v>       0.51646505       0.38627893       0.46483242 </v>
   <v>       0.93627354       0.47164252       0.35520991 </v>
   <v>       0.75572659       0.15920799       0.10909438 </v>
   <v>       0.84231367       0.06560240       0.22483408 </v>
   <v>       0.58303227       0.48253810       0.10696906 </v>
   <v>       0.67409868       0.39738739       0.22483408 </v>
   <v>       0.76805854       0.30342752       0.35520991 </v>
   <v>       0.87096643       0.21012996       0.47112657 </v>
   <v>       0.07287763       0.66682345       0.31134757 </v>
   <v>       0.16683750       0.57286358       0.44172340 </v>
   <v>       0.38572251       0.85411553       0.06192648 </v>
   <v>       0.47891775       0.76078331       0.18097174 </v>
   <v>       0.03023342       0.87768265       0.48558574 </v>
   <v>       0.43627354       0.97164252       0.35520991 </v>
   <v>       0.25577224       0.65917996       0.10906741 </v>
   <v>       0.34231367       0.56560240       0.22483408 </v>
   <v>       0.08243139       0.98281086       0.10681984 </v>
   <v>       0.17409868       0.89738739       0.22483408 </v>
   <v>       0.26805854       0.80342752       0.35520991 </v>
   <v>       0.41639286       0.71095716       0.47703005 </v>
   <v>       0.57287763       0.66682345       0.31134757 </v>
   <v>       0.66873463       0.56753684       0.41991732 </v>
   <v>       0.87870670       0.86099429       0.05824782 </v>
   <v>       0.97891775       0.76078331       0.18097174 </v>
   <v>       0.53174990       0.86531330       0.47443141 </v>
   <v>       0.93627354       0.97164252       0.35520991 </v>
   <v>       0.75689017       0.65726967       0.10681977 </v>
   <v>       0.84231367       0.56560240       0.22483408 </v>
   <v>       0.58049314       0.98397460       0.10909415 </v>
   <v>       0.67409868       0.89738739       0.22483408 </v>
   <v>       0.76805854       0.80342752       0.35520991 </v>
   <v>       0.86201841       0.70946766       0.48558574 </v>
  </varray>
 </structure>
</modeling>
