LAMMPS data file via write_data, version 5 Jun 2019, timestep = 45

72 atoms
2 atom types

0.0000000000000000e+00 1.0079732984900000e+01 xlo xhi
0.0000000000000000e+00 9.4251025535000004e+00 ylo yhi
0.0000000000000000e+00 2.0502009575999999e+01 zlo zhi
3.5732980426999998e+00 0.0000000000000000e+00 0.0000000000000000e+00 xy xz yz

Masses

1 58.71
2 32.06

Atoms # atomic

1 1 6.4580091940999962e+00 7.0816657522000002e+00 1.9426372258999995e+00 0 0 0
2 1 7.4357214876999995e+00 5.6653696065999997e+00 4.5681396205999993e+00 0 0 0
3 1 8.4134337948999995e+00 4.2490734703999999e+00 7.1936420153999991e+00 0 0 0
4 1 8.8950176470026854e+00 3.2001732731127164e+00 9.5089014774509355e+00 0 0 0
5 1 6.2052936667591565e+00 1.6045968865450220e+00 1.4835516215597584e+00 0 0 0
6 1 7.7616255985000002e+00 3.2616533460000002e-01 2.8178046839999999e+00 0 0 0
7 1 2.8470828673839725e+00 7.2079954097331118e+00 7.7455495134401318e+00 0 0 0
8 1 1.2312635938400000e+01 8.3349717519999995e+00 5.4433070786999993e+00 0 0 0
9 1 2.5588070506000000e+00 2.9957674706000001e+00 3.6929721625999994e+00 0 0 0
10 1 3.5365193478000001e+00 1.5794713344000000e+00 6.3184745573000001e+00 0 0 0
11 1 4.4054533307716417e+00 2.6320434308049451e-01 8.6743467389748510e+00 0 0 0
12 1 1.1645727493773560e+01 4.4382194348672384e+00 1.6175700340792840e+00 0 0 0
13 1 5.1381734699999959e-01 1.0909965632000000e+00 8.4317974299999996e+00 0 0 0
14 1 7.7893965133128376e+00 5.2593015544653055e+00 9.9270016667795358e-01 0 0 0
15 1 8.6381257309000006e+00 3.9235888449999998e+00 3.1807926405000000e+00 0 0 0
16 1 9.6158380345999994e+00 2.5072926994000002e+00 5.8062950352999998e+00 0 0 0
17 1 3.4353071931999981e+00 6.5931909810000002e+00 4.0559601190999999e+00 0 0 0
18 1 4.4130194867999988e+00 5.1768948353999997e+00 6.6814625138999997e+00 0 0 0
19 1 5.3942423080989856e+00 3.8079534275340379e+00 8.9443790279202933e+00 0 0 0
20 1 2.7999664123986014e+00 6.7695707610164098e+00 1.8203205607169588e+00 1 0 0
21 1 3.7612112902999990e+00 1.2539866996000000e+00 2.3056251823999996e+00 0 0 0
22 1 8.3122216301999998e+00 9.2627931168999993e+00 4.9311275771999998e+00 0 0 0
23 1 9.2899339374999990e+00 7.8464969807999978e+00 7.5566299719999996e+00 0 0 0
24 1 1.0255800748488591e+01 6.6514338453299935e+00 9.4238899093767170e+00 0 0 0
25 1 1.7138412480677923e+00 3.2129086719125364e+00 8.8966791813441031e+00 0 0 0
26 1 9.0091707642404302e+00 7.4246176095214640e+00 1.6470302643069326e+00 0 0 0
27 1 9.8405299722000006e+00 6.0395635483999994e+00 3.8744661407999996e+00 0 0 0
28 1 1.0818242269399994e+01 4.6232674121999997e+00 6.4999685355999990e+00 0 0 0
29 1 1.1193945224312172e+00 8.3860771674945600e-01 3.0090201728814026e+00 1 0 0
30 1 4.6377114243999964e+00 8.7091656844000003e+00 4.7496335989000000e+00 0 0 0
31 1 5.5496077996632645e+00 7.4659683922896853e+00 7.0562028971258366e+00 0 0 0
32 1 8.0564884350632884e+00 5.5843682921885867e+00 9.1814175131146332e+00 0 0 0
33 1 4.7639101908531680e+00 5.0444117760156493e+00 1.1432623832159527e+00 0 0 0
34 1 4.9636155250999998e+00 3.3699614123999999e+00 2.9992986622000002e+00 0 0 0
35 1 5.9413278288000004e+00 1.9536652668000001e+00 5.6248010570000000e+00 0 0 0
36 1 6.8878890123798362e+00 6.9937649315241091e-01 7.9543141941865922e+00 0 0 0
37 2 1.5798114468999984e+00 2.4701758255000001e+00 6.9932094083000003e+00 0 0 0
38 2 2.5633169326635783e+00 1.2078262244286262e+00 9.0100268075373666e+00 0 0 0
39 2 9.7041198409999989e+00 5.3027681073000004e+00 1.7422046187999998e+00 0 0 0
40 2 1.0681832138200001e+01 3.8864719711000002e+00 4.3677070134999996e+00 0 0 0
41 2 4.5013012931999992e+00 7.9723702433000003e+00 2.6173720973999992e+00 0 0 0
42 2 5.4790136004000001e+00 6.5560741070999988e+00 5.2428744921000003e+00 0 0 0
43 2 6.4567258976000002e+00 5.1397779710000000e+00 7.8683768663999993e+00 0 0 0
44 2 7.1001462985148391e+00 4.0018662556796354e+00 1.0139143730398132e+01 0 0 0
45 2 4.6245704813989130e+00 2.8428503861340264e+00 1.0291389680030296e+00 0 0 0
46 2 5.8049177010999999e+00 1.2168698352000000e+00 3.4925395553999996e+00 0 0 0
47 2 1.0355928037500000e+01 9.2256762431000006e+00 6.1180419501999985e+00 0 0 0
48 2 1.1225385833615489e+01 8.2042977579841807e+00 8.5074412232145349e+00 0 0 0
49 2 7.4274471756856952e+00 8.8191903071722546e+00 1.3031010033725494e+00 0 0 0
50 2 8.1730234298000006e+00 7.5206863411000002e+00 3.5088001707999994e+00 0 0 0
51 2 9.1507357270000007e+00 6.1043902048999996e+00 6.1343025655999988e+00 0 0 0
52 2 1.0128448030699992e+01 4.6880940593000000e+00 8.7598049603000003e+00 0 0 0
53 2 8.1142635156690854e+00 2.2303225650214458e+00 2.0773831697166281e+00 0 0 0
54 2 9.4766398240999976e+00 7.6518592350000003e-01 4.3839676288999998e+00 0 0 0
55 2 3.9479171891999982e+00 8.7739923408999996e+00 7.0094700236999996e+00 0 0 0
56 2 3.2961089826999981e+00 4.8510842051000003e+00 2.6336326922000000e+00 0 0 0
57 2 4.2738212863999996e+00 3.4347880595000002e+00 5.2591350869999998e+00 0 0 0
58 2 5.2515335834999997e+00 2.0184919233000000e+00 7.8846374817999996e+00 0 0 0
59 2 2.8486270213052083e+00 5.4402383817785092e+00 2.7131720782494195e-01 1 0 0
60 2 6.1666267701817743e+00 6.1596713228857638e+00 1.3699785915859081e-01 0 0 0
61 2 6.6419270177999996e+00 4.8262836029000002e+00 2.6255023947999989e+00 0 0 0
62 2 7.6196393214999985e+00 3.4099874572999997e+00 5.2510047895999978e+00 0 0 0
63 2 8.5973516186999994e+00 1.9936913211000000e+00 7.8765071842999976e+00 0 0 0
64 2 1.0523157978485086e+01 2.1657573913713941e+00 1.0171510803887239e+01 0 0 0
65 2 2.4168207736999983e+00 6.0795895931999997e+00 6.1261722475999978e+00 0 0 0
66 2 3.4773973905106059e+00 4.4062993377861002e+00 8.3855076748565089e+00 0 0 0
67 2 1.0281211306429576e+01 9.0285757470300041e+00 1.2211793076549506e+00 0 0 0
68 2 1.1518841464899999e+01 7.4958857388000002e+00 3.5006698528999993e+00 0 0 0
69 2 1.9222280927949085e+00 2.3256717218986949e+00 1.8371283197718145e+00 0 0 0
70 2 2.7427248743999999e+00 7.4038532130000001e-01 4.3758373314999996e+00 0 0 0
71 2 7.2937352243999962e+00 8.7491917387000004e+00 7.0013397261999994e+00 0 0 0
72 2 8.4425080318551160e+00 7.6649056021359190e+00 9.4448994274384557e+00 0 0 0

Velocities

1 0.0000000000000000e+00 0.0000000000000000e+00 0.0000000000000000e+00
2 0.0000000000000000e+00 0.0000000000000000e+00 0.0000000000000000e+00
3 0.0000000000000000e+00 0.0000000000000000e+00 0.0000000000000000e+00
4 0.0000000000000000e+00 0.0000000000000000e+00 0.0000000000000000e+00
5 0.0000000000000000e+00 0.0000000000000000e+00 0.0000000000000000e+00
6 0.0000000000000000e+00 0.0000000000000000e+00 0.0000000000000000e+00
7 0.0000000000000000e+00 0.0000000000000000e+00 0.0000000000000000e+00
8 0.0000000000000000e+00 0.0000000000000000e+00 0.0000000000000000e+00
9 0.0000000000000000e+00 0.0000000000000000e+00 0.0000000000000000e+00
10 0.0000000000000000e+00 0.0000000000000000e+00 0.0000000000000000e+00
11 0.0000000000000000e+00 0.0000000000000000e+00 0.0000000000000000e+00
12 0.0000000000000000e+00 0.0000000000000000e+00 0.0000000000000000e+00
13 0.0000000000000000e+00 0.0000000000000000e+00 0.0000000000000000e+00
14 0.0000000000000000e+00 0.0000000000000000e+00 0.0000000000000000e+00
15 0.0000000000000000e+00 0.0000000000000000e+00 0.0000000000000000e+00
16 0.0000000000000000e+00 0.0000000000000000e+00 0.0000000000000000e+00
17 0.0000000000000000e+00 0.0000000000000000e+00 0.0000000000000000e+00
18 0.0000000000000000e+00 0.0000000000000000e+00 0.0000000000000000e+00
19 0.0000000000000000e+00 0.0000000000000000e+00 0.0000000000000000e+00
20 0.0000000000000000e+00 0.0000000000000000e+00 0.0000000000000000e+00
21 0.0000000000000000e+00 0.0000000000000000e+00 0.0000000000000000e+00
22 0.0000000000000000e+00 0.0000000000000000e+00 0.0000000000000000e+00
23 0.0000000000000000e+00 0.0000000000000000e+00 0.0000000000000000e+00
24 0.0000000000000000e+00 0.0000000000000000e+00 0.0000000000000000e+00
25 0.0000000000000000e+00 0.0000000000000000e+00 0.0000000000000000e+00
26 0.0000000000000000e+00 0.0000000000000000e+00 0.0000000000000000e+00
27 0.0000000000000000e+00 0.0000000000000000e+00 0.0000000000000000e+00
28 0.0000000000000000e+00 0.0000000000000000e+00 0.0000000000000000e+00
29 0.0000000000000000e+00 0.0000000000000000e+00 0.0000000000000000e+00
30 0.0000000000000000e+00 0.0000000000000000e+00 0.0000000000000000e+00
31 0.0000000000000000e+00 0.0000000000000000e+00 0.0000000000000000e+00
32 0.0000000000000000e+00 0.0000000000000000e+00 0.0000000000000000e+00
33 0.0000000000000000e+00 0.0000000000000000e+00 0.0000000000000000e+00
34 0.0000000000000000e+00 0.0000000000000000e+00 0.0000000000000000e+00
35 0.0000000000000000e+00 0.0000000000000000e+00 0.0000000000000000e+00
36 0.0000000000000000e+00 0.0000000000000000e+00 0.0000000000000000e+00
37 0.0000000000000000e+00 0.0000000000000000e+00 0.0000000000000000e+00
38 0.0000000000000000e+00 0.0000000000000000e+00 0.0000000000000000e+00
39 0.0000000000000000e+00 0.0000000000000000e+00 0.0000000000000000e+00
40 0.0000000000000000e+00 0.0000000000000000e+00 0.0000000000000000e+00
41 0.0000000000000000e+00 0.0000000000000000e+00 0.0000000000000000e+00
42 0.0000000000000000e+00 0.0000000000000000e+00 0.0000000000000000e+00
43 0.0000000000000000e+00 0.0000000000000000e+00 0.0000000000000000e+00
44 0.0000000000000000e+00 0.0000000000000000e+00 0.0000000000000000e+00
45 0.0000000000000000e+00 0.0000000000000000e+00 0.0000000000000000e+00
46 0.0000000000000000e+00 0.0000000000000000e+00 0.0000000000000000e+00
47 0.0000000000000000e+00 0.0000000000000000e+00 0.0000000000000000e+00
48 0.0000000000000000e+00 0.0000000000000000e+00 0.0000000000000000e+00
49 0.0000000000000000e+00 0.0000000000000000e+00 0.0000000000000000e+00
50 0.0000000000000000e+00 0.0000000000000000e+00 0.0000000000000000e+00
51 0.0000000000000000e+00 0.0000000000000000e+00 0.0000000000000000e+00
52 0.0000000000000000e+00 0.0000000000000000e+00 0.0000000000000000e+00
53 0.0000000000000000e+00 0.0000000000000000e+00 0.0000000000000000e+00
54 0.0000000000000000e+00 0.0000000000000000e+00 0.0000000000000000e+00
55 0.0000000000000000e+00 0.0000000000000000e+00 0.0000000000000000e+00
56 0.0000000000000000e+00 0.0000000000000000e+00 0.0000000000000000e+00
57 0.0000000000000000e+00 0.0000000000000000e+00 0.0000000000000000e+00
58 0.0000000000000000e+00 0.0000000000000000e+00 0.0000000000000000e+00
59 0.0000000000000000e+00 0.0000000000000000e+00 0.0000000000000000e+00
60 0.0000000000000000e+00 0.0000000000000000e+00 0.0000000000000000e+00
61 0.0000000000000000e+00 0.0000000000000000e+00 0.0000000000000000e+00
62 0.0000000000000000e+00 0.0000000000000000e+00 0.0000000000000000e+00
63 0.0000000000000000e+00 0.0000000000000000e+00 0.0000000000000000e+00
64 0.0000000000000000e+00 0.0000000000000000e+00 0.0000000000000000e+00
65 0.0000000000000000e+00 0.0000000000000000e+00 0.0000000000000000e+00
66 0.0000000000000000e+00 0.0000000000000000e+00 0.0000000000000000e+00
67 0.0000000000000000e+00 0.0000000000000000e+00 0.0000000000000000e+00
68 0.0000000000000000e+00 0.0000000000000000e+00 0.0000000000000000e+00
69 0.0000000000000000e+00 0.0000000000000000e+00 0.0000000000000000e+00
70 0.0000000000000000e+00 0.0000000000000000e+00 0.0000000000000000e+00
71 0.0000000000000000e+00 0.0000000000000000e+00 0.0000000000000000e+00
72 0.0000000000000000e+00 0.0000000000000000e+00 0.0000000000000000e+00
