"Millerite NiS"                         
           1
     8.295146   -4.789205    0.000000
     0.000000    9.578410    0.000000
     0.000000    0.000000   19.417840
   Ni   S 
    27    27
Direct configuration=     1
   0.45843243  0.54156757  0.07690712
   0.45843243  0.54156757  0.23857701
   0.45843243  0.54156757  0.40024689
   0.12509910  0.87490090  0.13079708
   0.12509910  0.87490090  0.29246697
   0.12509910  0.87490090  0.45413686
   0.79176577  0.20823423  0.02301716
   0.79176577  0.20823423  0.18468704
   0.79176577  0.20823423  0.34635693
   0.45843243  0.27736157  0.07690712
   0.45843243  0.27736157  0.23857701
   0.45843243  0.27736157  0.40024689
   0.12509910  0.61069490  0.13079708
   0.12509910  0.61069490  0.29246697
   0.12509910  0.61069490  0.45413686
   0.79176577  0.94402823  0.02301716
   0.79176577  0.94402823  0.18468704
   0.79176577  0.94402823  0.34635693
   0.72263843  0.54156757  0.07690712
   0.72263843  0.54156757  0.23857701
   0.72263843  0.54156757  0.40024689
   0.38930510  0.87490090  0.13079708
   0.38930510  0.87490090  0.29246697
   0.38930510  0.87490090  0.45413686
   0.05597177  0.20823423  0.02301716
   0.05597177  0.20823423  0.18468704
   0.05597177  0.20823423  0.34635693
   0.65864443  0.34135557  0.00000000
   0.65864443  0.34135557  0.16166989
   0.65864443  0.34135557  0.32333977
   0.65864443  0.34135557  0.48500966
   0.32531110  0.67468890  0.05388996
   0.32531110  0.67468890  0.21555985
   0.32531110  0.67468890  0.37722974
   0.99197777  0.00802223  0.10777993
   0.99197777  0.00802223  0.26944981
   0.99197777  0.00802223  0.43111970
   0.65864443  0.67778557  0.00000000
   0.65864443  0.67778557  0.16166989
   0.65864443  0.67778557  0.32333977
   0.32531110  0.01111890  0.05388996
   0.32531110  0.01111890  0.21555985
   0.32531110  0.01111890  0.37722974
   0.99197777  0.34445223  0.10777993
   0.99197777  0.34445223  0.26944981
   0.99197777  0.34445223  0.43111970
   0.32221443  0.34135557  0.00000000
   0.32221443  0.34135557  0.16166989
   0.32221443  0.34135557  0.32333977
   0.98888110  0.67468890  0.21555985
   0.98888110  0.67468890  0.37722974
   0.65554777  0.00802223  0.10777993
   0.65554777  0.00802223  0.26944981
   0.65554777  0.00802223  0.43111970
