<?xml version="1.0" encoding="ISO-8859-1"?>
<modeling>
 <generator>
  <i name="program" type="string">vasp </i>
  <i name="version" type="string">5.4.4.18Apr17-6-g9f103f2a35  </i>
  <i name="subversion" type="string">(build Aug 13 2019 17:33:20) gamma-only         parallel </i>
  <i name="platform" type="string">LinuxIFC </i>
  <i name="date" type="string">2020 05 12 </i>
  <i name="time" type="string">04:15:53 </i>
 </generator>
 <incar>
  <i type="string" name="SYSTEM">"Millerite NiS"</i>
  <i type="string" name="PREC">normal</i>
  <i type="int" name="NSIM">     4</i>
  <i type="int" name="NELM">   100</i>
  <i name="ENCUT">    450.00000000</i>
  <i type="string" name="LREAL">A</i>
  <i type="int" name="ISMEAR">     0</i>
  <i type="int" name="NWRITE">     2</i>
  <i type="logical" name="LWAVE"> F  </i>
  <i type="logical" name="LCHARG"> F  </i>
  <v type="int" name="KPOINT_BSE">    -1     0     0     0</v>
  <i type="int" name="NELM">   100</i>
 </incar>
 <structure name="primitive_cell" >
  <crystal>
   <varray name="basis" >
    <v>      16.88469405       0.00000000       0.00000000 </v>
    <v>       0.00000000       9.57841000       0.00000000 </v>
    <v>       0.00000000       0.00000000      16.65464569 </v>
   </varray>
   <i name="volume">   2693.53123734 </i>
   <varray name="rec_basis" >
    <v>       0.05922524       0.00000000       0.00000000 </v>
    <v>       0.00000000       0.10440146       0.00000000 </v>
    <v>       0.00000000       0.00000000       0.06004331 </v>
   </varray>
  </crystal>
  <varray name="positions" >
   <v>      -0.21995370       0.14529696       0.12347080 </v>
   <v>      -0.18262017       0.29276028       0.04027617 </v>
   <v>      -0.18258459      -0.00204320       0.04020754 </v>
   <v>      -0.35339478       0.14529696       0.12175764 </v>
   <v>      -0.17093895       0.31351196       0.21464750 </v>
   <v>      -0.17093895      -0.02291804       0.21464750 </v>
   <v>      -0.08962287       0.00476051       0.12032667 </v>
   <v>      -0.08960224       0.28590051       0.12033011 </v>
   <v>      -0.20505319       0.14530013       0.28170657 </v>
   <v>      -0.22492029      -0.14112329       0.12083548 </v>
   <v>      -0.22469780       0.43205931       0.12088976 </v>
   <v>      -0.32666405       0.14526004       0.28699453 </v>
   <v>      -0.00853880       0.14529696       0.18349304 </v>
   <v>      -0.40270525       0.01319396       0.22247530 </v>
   <v>      -0.40270525       0.27739996       0.22247530 </v>
   <v>      -0.33315898      -0.17338891       0.18980527 </v>
   <v>      -0.33304149       0.46430364       0.19013463 </v>
   <v>      -0.05642869       0.01261797       0.26993094 </v>
   <v>      -0.05642227       0.27799544       0.26992748 </v>
   <v>      -0.43295581       0.01463278       0.07042565 </v>
   <v>      -0.43775021       0.26332859       0.06834928 </v>
   <v>      -0.23027726      -0.48680604       0.25334300 </v>
   <v>      -0.23027726      -0.22260004       0.25334300 </v>
   <v>      -0.03254655      -0.17893351       0.08345760 </v>
   <v>      -0.03243419       0.46954099       0.08347790 </v>
   <v>      -0.18096679      -0.35470304       0.15262534 </v>
   <v>       0.48420507       0.31351196       0.15291210 </v>
   <v>       0.48420507      -0.02291804       0.15291210 </v>
   <v>      -0.00298651       0.14530438       0.35140028 </v>
   <v>      -0.30383165      -0.21445693       0.34935619 </v>
   <v>      -0.30381712      -0.49486521       0.34941667 </v>
   <v>       0.00148905       0.47708196       0.24551520 </v>
   <v>       0.00148905      -0.18648804       0.24551520 </v>
   <v>      -0.04752570      -0.35470304       0.15433850 </v>
   <v>       0.46975828       0.14529696       0.24694159 </v>
   <v>      -0.47704151       0.29331321       0.32122085 </v>
   <v>      -0.47814197      -0.00559696       0.32038539 </v>
   <v>      -0.14898347      -0.35467488       0.31331561 </v>
   <v>      -0.35781373      -0.35470304       0.27780929 </v>
   <v>       0.12490229       0.14529696       0.18520619 </v>
   <v>       0.41632139       0.14537216       0.11301518 </v>
   <v>       0.08001077      -0.48680604       0.12987220 </v>
   <v>       0.08001077      -0.22260004       0.12987220 </v>
   <v>       0.13984442       0.31866084       0.10660446 </v>
   <v>       0.14093862      -0.02971085       0.10663881 </v>
   <v>       0.11532826       0.14527286       0.32928881 </v>
   <v>      -0.02482666      -0.35470525       0.31787469 </v>
   <v>       0.18339023       0.14491757       0.04973624 </v>
   <v>       0.47731931      -0.35517451       0.10854368 </v>
   <v>       0.42486675      -0.48680604       0.19160760 </v>
   <v>       0.42486675      -0.22260004       0.19160760 </v>
   <v>      -0.49125482      -0.35470304       0.27609614 </v>
   <v>       0.46327618       0.47425142       0.33247712 </v>
   <v>       0.46144051      -0.18571146       0.33307848 </v>
   <v>       0.11173475      -0.21644992       0.29557400 </v>
   <v>       0.11168263      -0.49292188       0.29566792 </v>
   <v>       0.17391704       0.31351196       0.27638290 </v>
   <v>       0.17391704      -0.02291804       0.27638290 </v>
   <v>       0.11194089      -0.35482290       0.03819621 </v>
   <v>       0.33631719       0.14529696       0.24522844 </v>
   <v>       0.25243876       0.01319396       0.16073990 </v>
   <v>       0.25243876       0.27739996       0.16073990 </v>
   <v>       0.30188710       0.14530587       0.07078611 </v>
   <v>       0.07784530      -0.35461201       0.38284517 </v>
   <v>       0.16388920      -0.35470304       0.21436074 </v>
   <v>       0.34871614       0.49144111       0.29396244 </v>
   <v>       0.34724668      -0.19799321       0.29276665 </v>
   <v>       0.36305547      -0.36135549       0.07417657 </v>
   <v>       0.31177707      -0.18648804       0.12204440 </v>
   <v>       0.21663022      -0.34271079       0.09843466 </v>
   <v>       0.29832249       0.48265364       0.12839305 </v>
   <v>       0.29004178       0.30510314       0.31017888 </v>
   <v>       0.28929262      -0.01164121       0.31166747 </v>
   <v>       0.29733028      -0.35470304       0.21607389 </v>
  </varray>
 </structure>
 <varray name="primitive_index" >
  <v type="int" >        1 </v>
  <v type="int" >       51 </v>
  <v type="int" >       65 </v>
  <v type="int" >       42 </v>
  <v type="int" >       52 </v>
  <v type="int" >       66 </v>
  <v type="int" >       13 </v>
  <v type="int" >       25 </v>
  <v type="int" >        2 </v>
  <v type="int" >       36 </v>
  <v type="int" >       23 </v>
  <v type="int" >       43 </v>
  <v type="int" >       39 </v>
  <v type="int" >       18 </v>
  <v type="int" >       31 </v>
  <v type="int" >       61 </v>
  <v type="int" >       71 </v>
  <v type="int" >       14 </v>
  <v type="int" >       26 </v>
  <v type="int" >       17 </v>
  <v type="int" >       30 </v>
  <v type="int" >       24 </v>
  <v type="int" >       37 </v>
  <v type="int" >       58 </v>
  <v type="int" >       68 </v>
  <v type="int" >       49 </v>
  <v type="int" >       55 </v>
  <v type="int" >       69 </v>
  <v type="int" >       38 </v>
  <v type="int" >       62 </v>
  <v type="int" >       72 </v>
  <v type="int" >       67 </v>
  <v type="int" >       57 </v>
  <v type="int" >        7 </v>
  <v type="int" >        6 </v>
  <v type="int" >       56 </v>
  <v type="int" >       70 </v>
  <v type="int" >       50 </v>
  <v type="int" >       12 </v>
  <v type="int" >       10 </v>
  <v type="int" >        5 </v>
  <v type="int" >       19 </v>
  <v type="int" >       32 </v>
  <v type="int" >       59 </v>
  <v type="int" >       73 </v>
  <v type="int" >       11 </v>
  <v type="int" >        8 </v>
  <v type="int" >        9 </v>
  <v type="int" >       40 </v>
  <v type="int" >       15 </v>
  <v type="int" >       28 </v>
  <v type="int" >       41 </v>
  <v type="int" >       16 </v>
  <v type="int" >       29 </v>
  <v type="int" >       33 </v>
  <v type="int" >       20 </v>
  <v type="int" >       60 </v>
  <v type="int" >       74 </v>
  <v type="int" >       44 </v>
  <v type="int" >       48 </v>
  <v type="int" >       21 </v>
  <v type="int" >       34 </v>
  <v type="int" >       47 </v>
  <v type="int" >       46 </v>
  <v type="int" >       45 </v>
  <v type="int" >       64 </v>
  <v type="int" >       54 </v>
  <v type="int" >       27 </v>
  <v type="int" >       53 </v>
  <v type="int" >        3 </v>
  <v type="int" >       63 </v>
  <v type="int" >       35 </v>
  <v type="int" >       22 </v>
  <v type="int" >        4 </v>
 </varray>
 <kpoints>
  <generation param="Gamma">
   <v type="int" name="divisions">       1        1        1 </v>
   <v name="usershift">      0.00000000       0.00000000       0.00000000 </v>
   <v name="genvec1">      1.00000000       0.00000000       0.00000000 </v>
   <v name="genvec2">      0.00000000       1.00000000       0.00000000 </v>
   <v name="genvec3">      0.00000000       0.00000000       1.00000000 </v>
   <v name="shift">      0.00000000       0.00000000       0.00000000 </v>
  </generation>
  <varray name="kpointlist" >
   <v>       0.00000000       0.00000000       0.00000000 </v>
  </varray>
  <varray name="weights" >
   <v>       1.00000000 </v>
  </varray>
 </kpoints>
 <parameters>
  <separator name="general" >
   <i type="string" name="SYSTEM">"Millerite NiS"</i>
   <i type="logical" name="LCOMPAT"> F  </i>
  </separator>
  <separator name="electronic" >
   <i type="string" name="PREC">normal</i>
   <i name="ENMAX">    450.00000000</i>
   <i name="ENAUG">    703.44300000</i>
   <i name="EDIFF">      0.00010000</i>
   <i type="int" name="IALGO">    38</i>
   <i type="int" name="IWAVPR">    10</i>
   <i type="int" name="NBANDS">   488</i>
   <i name="NELECT">    814.00000000</i>
   <i type="int" name="TURBO">     0</i>
   <i type="int" name="IRESTART">     0</i>
   <i type="int" name="NREBOOT">     0</i>
   <i type="int" name="NMIN">     0</i>
   <i name="EREF">      0.00000000</i>
   <separator name="electronic smearing" >
    <i type="int" name="ISMEAR">     0</i>
    <i name="SIGMA">      0.20000000</i>
    <i name="KSPACING">      0.50000000</i>
    <i type="logical" name="KGAMMA"> T  </i>
   </separator>
   <separator name="electronic projectors" >
    <i type="logical" name="LREAL"> T  </i>
    <v name="ROPT">     -0.00050000     -0.00050000</v>
    <i type="int" name="LMAXPAW">  -100</i>
    <i type="int" name="LMAXMIX">     2</i>
    <i type="logical" name="NLSPLINE"> F  </i>
   </separator>
   <separator name="electronic startup" >
    <i type="int" name="ISTART">     0</i>
    <i type="int" name="ICHARG">     2</i>
    <i type="int" name="INIWAV">     1</i>
   </separator>
   <separator name="electronic spin" >
    <i type="int" name="ISPIN">     1</i>
    <i type="logical" name="LNONCOLLINEAR"> F  </i>
    <v name="MAGMOM">      1.00000000      1.00000000      1.00000000      1.00000000      1.00000000      1.00000000      1.00000000      1.00000000      1.00000000      1.00000000      1.00000000      1.00000000      1.00000000      1.00000000      1.00000000      1.00000000      1.00000000      1.00000000      1.00000000      1.00000000
      1.00000000      1.00000000      1.00000000      1.00000000      1.00000000      1.00000000      1.00000000      1.00000000      1.00000000      1.00000000      1.00000000      1.00000000      1.00000000      1.00000000      1.00000000      1.00000000      1.00000000      1.00000000      1.00000000      1.00000000
      1.00000000      1.00000000      1.00000000      1.00000000      1.00000000      1.00000000      1.00000000      1.00000000      1.00000000      1.00000000      1.00000000      1.00000000      1.00000000      1.00000000      1.00000000      1.00000000      1.00000000      1.00000000      1.00000000      1.00000000
      1.00000000      1.00000000      1.00000000      1.00000000      1.00000000      1.00000000      1.00000000      1.00000000      1.00000000      1.00000000      1.00000000      1.00000000      1.00000000      1.00000000</v>
    <i name="NUPDOWN">     -1.00000000</i>
    <i type="logical" name="LSORBIT"> F  </i>
    <v name="SAXIS">      0.00000000      0.00000000      1.00000000</v>
    <i type="logical" name="LSPIRAL"> F  </i>
    <v name="QSPIRAL">      0.00000000      0.00000000      0.00000000</v>
    <i type="logical" name="LZEROZ"> F  </i>
   </separator>
   <separator name="electronic exchange-correlation" >
    <i type="logical" name="LASPH"> F  </i>
    <i type="logical" name="LMETAGGA"> F  </i>
   </separator>
   <separator name="electronic convergence" >
    <i type="int" name="NELM">   100</i>
    <i type="int" name="NELMDL">    -5</i>
    <i type="int" name="NELMIN">     2</i>
    <i name="ENINI">    450.00000000</i>
    <separator name="electronic convergence detail" >
     <i type="logical" name="LDIAG"> T  </i>
     <i type="logical" name="LSUBROT"> F  </i>
     <i name="WEIMIN">      0.00000000</i>
     <i name="EBREAK">      0.00000005</i>
     <i name="DEPER">      0.30000000</i>
     <i type="int" name="NRMM">     4</i>
     <i name="TIME">      0.40000000</i>
    </separator>
   </separator>
   <separator name="electronic mixer" >
    <i name="AMIX">      0.40000000</i>
    <i name="BMIX">      1.00000000</i>
    <i name="AMIN">      0.10000000</i>
    <i name="AMIX_MAG">      1.60000000</i>
    <i name="BMIX_MAG">      1.00000000</i>
    <separator name="electronic mixer details" >
     <i type="int" name="IMIX">     4</i>
     <i type="logical" name="MIXFIRST"> F  </i>
     <i type="int" name="MAXMIX">   -45</i>
     <i name="WC">    100.00000000</i>
     <i type="int" name="INIMIX">     1</i>
     <i type="int" name="MIXPRE">     1</i>
     <i type="int" name="MREMOVE">     5</i>
    </separator>
   </separator>
   <separator name="electronic dipolcorrection" >
    <i type="logical" name="LDIPOL"> F  </i>
    <i type="logical" name="LMONO"> F  </i>
    <i type="int" name="IDIPOL">     0</i>
    <i name="EPSILON">      1.00000000</i>
    <v name="DIPOL">   -100.00000000   -100.00000000   -100.00000000</v>
    <i name="EFIELD">      0.00000000</i>
   </separator>
  </separator>
  <separator name="grids" >
   <i type="int" name="NGX">    90</i>
   <i type="int" name="NGY">    50</i>
   <i type="int" name="NGZ">    90</i>
   <i type="int" name="NGXF">   180</i>
   <i type="int" name="NGYF">   100</i>
   <i type="int" name="NGZF">   180</i>
   <i type="logical" name="ADDGRID"> F  </i>
  </separator>
  <separator name="ionic" >
   <i type="int" name="NSW">     0</i>
   <i type="int" name="IBRION">    -1</i>
   <i type="int" name="MDALGO">     0</i>
   <i type="int" name="ISIF">     2</i>
   <i name="PSTRESS">      0.00000000</i>
   <i name="EDIFFG">      0.00100000</i>
   <i type="int" name="NFREE">     0</i>
   <i name="POTIM">      0.50000000</i>
   <i name="SMASS">     -3.00000000</i>
   <i name="SCALEE">      1.00000000</i>
  </separator>
  <separator name="ionic md" >
   <i name="TEBEG">      0.00010000</i>
   <i name="TEEND">      0.00010000</i>
   <i type="int" name="NBLOCK">     1</i>
   <i type="int" name="KBLOCK">     1</i>
   <i type="int" name="NPACO">   256</i>
   <i name="APACO">     16.00000000</i>
  </separator>
  <separator name="symmetry" >
   <i type="int" name="ISYM">     2</i>
   <i name="SYMPREC">      0.00001000</i>
  </separator>
  <separator name="dos" >
   <i type="int" name="LORBIT">     0</i>
   <v name="RWIGS">     -1.00000000     -1.00000000</v>
   <i type="int" name="NEDOS">   301</i>
   <i name="EMIN">     10.00000000</i>
   <i name="EMAX">    -10.00000000</i>
   <i name="EFERMI">      0.00000000</i>
  </separator>
  <separator name="writing" >
   <i type="int" name="NWRITE">     2</i>
   <i type="logical" name="LWAVE"> F  </i>
   <i type="logical" name="LDOWNSAMPLE"> F  </i>
   <i type="logical" name="LCHARG"> F  </i>
   <i type="logical" name="LPARD"> F  </i>
   <i type="logical" name="LVTOT"> F  </i>
   <i type="logical" name="LVHAR"> F  </i>
   <i type="logical" name="LELF"> F  </i>
   <i type="logical" name="LOPTICS"> F  </i>
   <v name="STM">      0.00000000      0.00000000      0.00000000      0.00000000      0.00000000      0.00000000      0.00000000</v>
  </separator>
  <separator name="performance" >
   <i type="int" name="NPAR">     2</i>
   <i type="int" name="NSIM">     4</i>
   <i type="int" name="NBLK">    -1</i>
   <i type="logical" name="LPLANE"> T  </i>
   <i type="logical" name="LSCALAPACK"> T  </i>
   <i type="logical" name="LSCAAWARE"> F  </i>
   <i type="logical" name="LSCALU"> F  </i>
   <i type="logical" name="LASYNC"> F  </i>
   <i type="logical" name="LORBITALREAL"> F  </i>
  </separator>
  <separator name="miscellaneous" >
   <i type="int" name="IDIOT">     3</i>
   <i type="int" name="ISPECIAL">     0</i>
   <i type="logical" name="LMUSIC"> F  </i>
   <v name="POMASS">     58.69000000     32.06600000</v>
   <v name="DARWINR">      0.00000000      0.00000000</v>
   <v name="DARWINV">      1.00000000      1.00000000</v>
   <i type="logical" name="LCORR"> T  </i>
  </separator>
  <i type="logical" name="GGA_COMPAT"> T  </i>
  <i type="logical" name="LBERRY"> F  </i>
  <i type="int" name="ICORELEVEL">     0</i>
  <i type="logical" name="LDAU"> F  </i>
  <i type="int" name="I_CONSTRAINED_M">     0</i>
  <separator name="electronic exchange-correlation" >
   <i type="string" name="GGA">--</i>
   <i type="int" name="VOSKOWN">     0</i>
   <i type="logical" name="LHFCALC"> F  </i>
   <i type="string" name="PRECFOCK"></i>
   <i type="logical" name="LSYMGRAD"> F  </i>
   <i type="logical" name="LHFONE"> F  </i>
   <i type="logical" name="LRHFCALC"> F  </i>
   <i type="logical" name="LTHOMAS"> F  </i>
   <i type="logical" name="LMODELHF"> F  </i>
   <i name="ENCUT4O">     -1.00000000</i>
   <i type="int" name="EXXOEP">     0</i>
   <i type="int" name="FOURORBIT">     0</i>
   <i name="AEXX">      0.00000000</i>
   <i name="HFALPHA">      0.00000000</i>
   <i name="MCALPHA">      0.00000000</i>
   <i name="ALDAX">      1.00000000</i>
   <i name="AGGAX">      1.00000000</i>
   <i name="ALDAC">      1.00000000</i>
   <i name="AGGAC">      1.00000000</i>
   <i type="int" name="NKREDX">     1</i>
   <i type="int" name="NKREDY">     1</i>
   <i type="int" name="NKREDZ">     1</i>
   <i type="logical" name="SHIFTRED"> F  </i>
   <i type="logical" name="ODDONLY"> F  </i>
   <i type="logical" name="EVENONLY"> F  </i>
   <i type="int" name="LMAXFOCK">     0</i>
   <i type="int" name="NMAXFOCKAE">     0</i>
   <i type="logical" name="LFOCKAEDFT"> F  </i>
   <i name="HFSCREEN">      0.00000000</i>
   <i name="HFSCREENC">      0.00000000</i>
   <i type="int" name="NBANDSGWLOW">     0</i>
  </separator>
  <separator name="vdW DFT" >
   <i type="logical" name="LUSE_VDW"> F  </i>
   <i name="Zab_VDW">     -0.84910000</i>
   <i name="PARAM1">      0.12340000</i>
   <i name="PARAM2">      1.00000000</i>
   <i name="PARAM3">      0.00000000</i>
  </separator>
  <separator name="model GW" >
   <i type="int" name="MODEL_GW">     0</i>
   <i name="MODEL_EPS0">     21.83944246</i>
   <i name="MODEL_ALPHA">      1.00000000</i>
  </separator>
  <separator name="linear response parameters" >
   <i type="logical" name="LEPSILON"> F  </i>
   <i type="logical" name="LRPA"> F  </i>
   <i type="logical" name="LNABLA"> F  </i>
   <i type="logical" name="LVEL"> F  </i>
   <i type="int" name="KINTER">     0</i>
   <i name="CSHIFT">      0.10000000</i>
   <i name="OMEGAMAX">     -1.00000000</i>
   <i name="DEG_THRESHOLD">      0.00200000</i>
   <i name="RTIME">     -0.10000000</i>
   <i name="WPLASMAI">      0.00000000</i>
   <v name="DFIELD">      0.00000000      0.00000000      0.00000000</v>
   <v name="WPLASMA">      0.00000000      0.00000000      0.00000000      0.00000000      0.00000000      0.00000000      0.00000000      0.00000000      0.00000000</v>
  </separator>
  <separator name="orbital magnetization" >
   <i type="logical" name="NUCIND"> F  </i>
   <v name="MAGPOS">      0.00000000      0.00000000      0.00000000</v>
   <i type="logical" name="LNICSALL"> T  </i>
   <i type="logical" name="ORBITALMAG"> F  </i>
   <i type="logical" name="LMAGBLOCH"> F  </i>
   <i type="logical" name="LCHIMAG"> F  </i>
   <i type="logical" name="LGAUGE"> T  </i>
   <i type="int" name="MAGATOM">     0</i>
   <v name="MAGDIPOL">      0.00000000      0.00000000      0.00000000</v>
   <v name="AVECCONST">      0.00000000      0.00000000      0.00000000</v>
  </separator>
  <separator name="response functions" >
   <i type="logical" name="LADDER"> F  </i>
   <i type="logical" name="LRPAFORCE"> F  </i>
   <i type="logical" name="LFXC"> F  </i>
   <i type="logical" name="LHARTREE"> T  </i>
   <i type="int" name="IBSE">     0</i>
   <v type="int" name="KPOINT">    -1     0     0     0</v>
   <i type="logical" name="LTCTE"> F  </i>
   <i type="logical" name="LTETE"> F  </i>
   <i type="logical" name="LTRIPLET"> F  </i>
   <i type="logical" name="LFXCEPS"> F  </i>
   <i type="logical" name="LFXHEG"> F  </i>
   <i type="int" name="NATURALO">     2</i>
   <i type="logical" name="L2ORDER"> F  </i>
   <i type="logical" name="LMP2LT"> F  </i>
   <i type="logical" name="LUSEW"> F  </i>
   <i name="ENCUTGW">     -2.00000000</i>
   <i name="ENCUTGWSOFT">     -2.00000000</i>
   <i name="ENCUTLF">     -1.00000000</i>
   <i type="int" name="LMAXMP2">    -1</i>
   <i name="SCISSOR">      0.00000000</i>
   <i type="int" name="NOMEGA">     0</i>
   <i type="int" name="NOMEGAR">     0</i>
   <i type="int" name="NBANDSGW">    -1</i>
   <i type="int" name="NBANDSO">    -1</i>
   <i type="int" name="NBANDSV">    -1</i>
   <i type="int" name="NELM">   100</i>
   <i type="int" name="NELMHF">     1</i>
   <i type="int" name="DIM">     3</i>
   <i type="int" name="ANTIRES">     0</i>
   <i name="OMEGAMAX">    -30.00000000</i>
   <i name="OMEGAMIN">    -30.00000000</i>
   <i name="OMEGATL">   -200.00000000</i>
   <i type="int" name="OMEGAGRID">   140</i>
   <i name="CSHIFT">     -0.10000000</i>
   <i type="logical" name="SELFENERGY"> F  </i>
   <i type="logical" name="LSPECTRAL"> F  </i>
   <i type="logical" name="LSPECTRALGW"> F  </i>
   <i type="logical" name="LSINGLES"> F  </i>
   <i type="logical" name="LFERMIGW"> F  </i>
   <i type="logical" name="ODDONLYGW"> F  </i>
   <i type="logical" name="EVENONLYGW"> F  </i>
   <i type="int" name="NKREDLFX">     1</i>
   <i type="int" name="NKREDLFY">     1</i>
   <i type="int" name="NKREDLFZ">     1</i>
   <i type="int" name="MAXMEM">  2800</i>
   <i type="int" name="TELESCOPE">     0</i>
   <i type="int" name="TAUPAR">     1</i>
   <i type="int" name="OMEGAPAR">    -1</i>
   <i name="LAMBDA">      1.00000000</i>
  </separator>
  <separator name="External order field" >
   <i name="OFIELD_KAPPA">      0.00000000</i>
   <v name="OFIELD_K">      0.00000000      0.00000000      0.00000000</v>
   <i name="OFIELD_Q6_NEAR">      0.00000000</i>
   <i name="OFIELD_Q6_FAR">      0.00000000</i>
   <i name="OFIELD_A">      0.00000000</i>
  </separator>
 </parameters>
 <atominfo>
  <atoms>      74 </atoms>
  <types>       2 </types>
  <array name="atoms" >
   <dimension dim="1">ion</dimension>
   <field type="string">element</field>
   <field type="int">atomtype</field>
   <set>
    <rc><c>Ni</c><c>   1</c></rc>
    <rc><c>Ni</c><c>   1</c></rc>
    <rc><c>Ni</c><c>   1</c></rc>
    <rc><c>Ni</c><c>   1</c></rc>
    <rc><c>Ni</c><c>   1</c></rc>
    <rc><c>Ni</c><c>   1</c></rc>
    <rc><c>Ni</c><c>   1</c></rc>
    <rc><c>Ni</c><c>   1</c></rc>
    <rc><c>Ni</c><c>   1</c></rc>
    <rc><c>Ni</c><c>   1</c></rc>
    <rc><c>Ni</c><c>   1</c></rc>
    <rc><c>Ni</c><c>   1</c></rc>
    <rc><c>Ni</c><c>   1</c></rc>
    <rc><c>Ni</c><c>   1</c></rc>
    <rc><c>Ni</c><c>   1</c></rc>
    <rc><c>Ni</c><c>   1</c></rc>
    <rc><c>Ni</c><c>   1</c></rc>
    <rc><c>Ni</c><c>   1</c></rc>
    <rc><c>Ni</c><c>   1</c></rc>
    <rc><c>Ni</c><c>   1</c></rc>
    <rc><c>Ni</c><c>   1</c></rc>
    <rc><c>Ni</c><c>   1</c></rc>
    <rc><c>Ni</c><c>   1</c></rc>
    <rc><c>Ni</c><c>   1</c></rc>
    <rc><c>Ni</c><c>   1</c></rc>
    <rc><c>Ni</c><c>   1</c></rc>
    <rc><c>Ni</c><c>   1</c></rc>
    <rc><c>Ni</c><c>   1</c></rc>
    <rc><c>Ni</c><c>   1</c></rc>
    <rc><c>Ni</c><c>   1</c></rc>
    <rc><c>Ni</c><c>   1</c></rc>
    <rc><c>Ni</c><c>   1</c></rc>
    <rc><c>Ni</c><c>   1</c></rc>
    <rc><c>Ni</c><c>   1</c></rc>
    <rc><c>Ni</c><c>   1</c></rc>
    <rc><c>Ni</c><c>   1</c></rc>
    <rc><c>Ni</c><c>   1</c></rc>
    <rc><c>S </c><c>   2</c></rc>
    <rc><c>S </c><c>   2</c></rc>
    <rc><c>S </c><c>   2</c></rc>
    <rc><c>S </c><c>   2</c></rc>
    <rc><c>S </c><c>   2</c></rc>
    <rc><c>S </c><c>   2</c></rc>
    <rc><c>S </c><c>   2</c></rc>
    <rc><c>S </c><c>   2</c></rc>
    <rc><c>S </c><c>   2</c></rc>
    <rc><c>S </c><c>   2</c></rc>
    <rc><c>S </c><c>   2</c></rc>
    <rc><c>S </c><c>   2</c></rc>
    <rc><c>S </c><c>   2</c></rc>
    <rc><c>S </c><c>   2</c></rc>
    <rc><c>S </c><c>   2</c></rc>
    <rc><c>S </c><c>   2</c></rc>
    <rc><c>S </c><c>   2</c></rc>
    <rc><c>S </c><c>   2</c></rc>
    <rc><c>S </c><c>   2</c></rc>
    <rc><c>S </c><c>   2</c></rc>
    <rc><c>S </c><c>   2</c></rc>
    <rc><c>S </c><c>   2</c></rc>
    <rc><c>S </c><c>   2</c></rc>
    <rc><c>S </c><c>   2</c></rc>
    <rc><c>S </c><c>   2</c></rc>
    <rc><c>S </c><c>   2</c></rc>
    <rc><c>S </c><c>   2</c></rc>
    <rc><c>S </c><c>   2</c></rc>
    <rc><c>S </c><c>   2</c></rc>
    <rc><c>S </c><c>   2</c></rc>
    <rc><c>S </c><c>   2</c></rc>
    <rc><c>S </c><c>   2</c></rc>
    <rc><c>S </c><c>   2</c></rc>
    <rc><c>S </c><c>   2</c></rc>
    <rc><c>S </c><c>   2</c></rc>
    <rc><c>S </c><c>   2</c></rc>
    <rc><c>S </c><c>   2</c></rc>
   </set>
  </array>
  <array name="atomtypes" >
   <dimension dim="1">type</dimension>
   <field type="int">atomspertype</field>
   <field type="string">element</field>
   <field>mass</field>
   <field>valence</field>
   <field type="string">pseudopotential</field>
   <set>
    <rc><c>  37</c><c>Ni</c><c>     58.69000000</c><c>     16.00000000</c><c>  PAW_PBE Ni_pv 06Sep2000               </c></rc>
    <rc><c>  37</c><c>S </c><c>     32.06600000</c><c>      6.00000000</c><c>  PAW_PBE S 06Sep2000                   </c></rc>
   </set>
  </array>
 </atominfo>
 <structure name="initialpos" >
  <crystal>
   <varray name="basis" >
    <v>      16.88469405       0.00000000       0.00000000 </v>
    <v>       0.00000000       9.57841000       0.00000000 </v>
    <v>       0.00000000       0.00000000      16.65464569 </v>
   </varray>
   <i name="volume">   2693.53123734 </i>
   <varray name="rec_basis" >
    <v>       0.05922524       0.00000000       0.00000000 </v>
    <v>       0.00000000       0.10440146       0.00000000 </v>
    <v>       0.00000000       0.00000000       0.06004331 </v>
   </varray>
  </crystal>
  <varray name="positions" >
   <v>       0.78004630       0.14529696       0.12347080 </v>
   <v>       0.79494681       0.14530013       0.28170657 </v>
   <v>       0.21663022       0.65728921       0.09843466 </v>
   <v>       0.29733028       0.64529696       0.21607389 </v>
   <v>       0.41632139       0.14537216       0.11301518 </v>
   <v>       0.46975828       0.14529696       0.24694159 </v>
   <v>       0.95247430       0.64529696       0.15433850 </v>
   <v>       0.97517334       0.64529475       0.31787469 </v>
   <v>       0.18339023       0.14491757       0.04973624 </v>
   <v>       0.12490229       0.14529696       0.18520619 </v>
   <v>       0.11532826       0.14527286       0.32928881 </v>
   <v>       0.64218627       0.64529696       0.27780929 </v>
   <v>       0.91037713       0.00476051       0.12032667 </v>
   <v>       0.94357131       0.01261797       0.26993094 </v>
   <v>       0.42486675       0.51319396       0.19160760 </v>
   <v>       0.46327618       0.47425142       0.33247712 </v>
   <v>       0.56704419       0.01463278       0.07042565 </v>
   <v>       0.59729475       0.01319396       0.22247530 </v>
   <v>       0.08001077       0.51319396       0.12987220 </v>
   <v>       0.11168263       0.50707812       0.29566792 </v>
   <v>       0.25243876       0.01319396       0.16073990 </v>
   <v>       0.28929262       0.98835879       0.31166747 </v>
   <v>       0.77530220       0.43205931       0.12088976 </v>
   <v>       0.76972274       0.51319396       0.25334300 </v>
   <v>       0.91039776       0.28590051       0.12033011 </v>
   <v>       0.94357773       0.27799544       0.26992748 </v>
   <v>       0.36305547       0.63864451       0.07417657 </v>
   <v>       0.42486675       0.77739996       0.19160760 </v>
   <v>       0.46144051       0.81428854       0.33307848 </v>
   <v>       0.56224979       0.26332859       0.06834928 </v>
   <v>       0.59729475       0.27739996       0.22247530 </v>
   <v>       0.08001077       0.77739996       0.12987220 </v>
   <v>       0.11173475       0.78355008       0.29557400 </v>
   <v>       0.25243876       0.27739996       0.16073990 </v>
   <v>       0.29004178       0.30510314       0.31017888 </v>
   <v>       0.77507971       0.85887671       0.12083548 </v>
   <v>       0.76972274       0.77739996       0.25334300 </v>
   <v>       0.99701349       0.14530438       0.35140028 </v>
   <v>       0.99146120       0.14529696       0.18349304 </v>
   <v>       0.47731931       0.64482549       0.10854368 </v>
   <v>       0.50874518       0.64529696       0.27609614 </v>
   <v>       0.64660522       0.14529696       0.12175764 </v>
   <v>       0.67333595       0.14526004       0.28699453 </v>
   <v>       0.11194089       0.64517710       0.03819621 </v>
   <v>       0.16388920       0.64529696       0.21436074 </v>
   <v>       0.07784530       0.64538799       0.38284517 </v>
   <v>       0.30188710       0.14530587       0.07078611 </v>
   <v>       0.33631719       0.14529696       0.24522844 </v>
   <v>       0.81903321       0.64529696       0.15262534 </v>
   <v>       0.85101653       0.64532512       0.31331561 </v>
   <v>       0.81737983       0.29276028       0.04027617 </v>
   <v>       0.82906105       0.31351196       0.21464750 </v>
   <v>       0.31177707       0.81351196       0.12204440 </v>
   <v>       0.34724668       0.80200679       0.29276665 </v>
   <v>       0.48420507       0.31351196       0.15291210 </v>
   <v>       0.52295849       0.29331321       0.32122085 </v>
   <v>       0.00148905       0.81351196       0.24551520 </v>
   <v>       0.96745345       0.82106649       0.08345760 </v>
   <v>       0.13984442       0.31866084       0.10660446 </v>
   <v>       0.17391704       0.31351196       0.27638290 </v>
   <v>       0.66684102       0.82661109       0.18980527 </v>
   <v>       0.69616835       0.78554307       0.34935619 </v>
   <v>       0.29832249       0.48265364       0.12839305 </v>
   <v>       0.34871614       0.49144111       0.29396244 </v>
   <v>       0.81741541       0.99795680       0.04020754 </v>
   <v>       0.82906105       0.97708196       0.21464750 </v>
   <v>       0.00148905       0.47708196       0.24551520 </v>
   <v>       0.96756581       0.46954099       0.08347790 </v>
   <v>       0.48420507       0.97708196       0.15291210 </v>
   <v>       0.52185803       0.99440304       0.32038539 </v>
   <v>       0.66695851       0.46430364       0.19013463 </v>
   <v>       0.69618288       0.50513479       0.34941667 </v>
   <v>       0.14093862       0.97028915       0.10663881 </v>
   <v>       0.17391704       0.97708196       0.27638290 </v>
  </varray>
 </structure>
 <calculation>
  <scstep>
   <time name="dav">    9.46    9.46</time>
   <time name="total">    9.84    9.84</time>
   <energy>
    <i name="alphaZ">   1458.83996183 </i>
    <i name="ewald"> 163677.03131548 </i>
    <i name="hartreedc">-287313.11099804 </i>
    <i name="XCdc">   3783.43686145 </i>
    <i name="pawpsdc"> 115860.90926010 </i>
    <i name="pawaedc">-120909.33166199 </i>
    <i name="eentropy">     -0.41257947 </i>
    <i name="bandstr">  -7215.79690673 </i>
    <i name="atom"> 139780.45519414 </i>
    <i name="e_fr_energy">   9122.02044676 </i>
    <i name="e_wo_entrp">   9122.43302624 </i>
    <i name="e_0_energy">   9122.22673650 </i>
   </energy>
  </scstep>
  <scstep>
   <time name="dav">    8.68    8.69</time>
   <time name="total">    8.68    8.69</time>
   <energy>
    <i name="e_fr_energy">    486.76251272 </i>
    <i name="e_wo_entrp">    487.50485298 </i>
    <i name="e_0_energy">    487.13368285 </i>
   </energy>
  </scstep>
  <scstep>
   <time name="dav">    8.87    8.87</time>
   <time name="total">    8.87    8.88</time>
   <energy>
    <i name="e_fr_energy">   -361.37104428 </i>
    <i name="e_wo_entrp">   -360.19300880 </i>
    <i name="e_0_energy">   -360.78202654 </i>
   </energy>
  </scstep>
  <scstep>
   <time name="dav">    9.10    9.10</time>
   <time name="total">    9.10    9.10</time>
   <energy>
    <i name="e_fr_energy">   -404.51661359 </i>
    <i name="e_wo_entrp">   -403.29729311 </i>
    <i name="e_0_energy">   -403.90695335 </i>
   </energy>
  </scstep>
  <scstep>
   <time name="dav">    9.53    9.53</time>
   <time name="total">    9.85    9.85</time>
   <energy>
    <i name="e_fr_energy">   -406.11356446 </i>
    <i name="e_wo_entrp">   -404.90554383 </i>
    <i name="e_0_energy">   -405.50955414 </i>
   </energy>
  </scstep>
  <scstep>
   <time name="dav">    9.74    9.74</time>
   <time name="total">   10.41   10.42</time>
   <energy>
    <i name="e_fr_energy">   -482.53791262 </i>
    <i name="e_wo_entrp">   -481.68184831 </i>
    <i name="e_0_energy">   -482.10988047 </i>
   </energy>
  </scstep>
  <scstep>
   <time name="dav">    8.59    8.60</time>
   <time name="total">    9.26    9.27</time>
   <energy>
    <i name="e_fr_energy">   -386.30497855 </i>
    <i name="e_wo_entrp">   -385.36937044 </i>
    <i name="e_0_energy">   -385.83717450 </i>
   </energy>
  </scstep>
  <scstep>
   <time name="dav">   10.02   10.02</time>
   <time name="total">   10.69   10.69</time>
   <energy>
    <i name="e_fr_energy">   -463.23255522 </i>
    <i name="e_wo_entrp">   -462.42032917 </i>
    <i name="e_0_energy">   -462.82644220 </i>
   </energy>
  </scstep>
  <scstep>
   <time name="dav">   10.05   10.05</time>
   <time name="total">   10.73   10.74</time>
   <energy>
    <i name="e_fr_energy">   -387.16721187 </i>
    <i name="e_wo_entrp">   -385.93518662 </i>
    <i name="e_0_energy">   -386.55119924 </i>
   </energy>
  </scstep>
  <scstep>
   <time name="dav">   11.23   11.23</time>
   <time name="total">   11.90   11.90</time>
   <energy>
    <i name="e_fr_energy">   -380.18608024 </i>
    <i name="e_wo_entrp">   -379.15446187 </i>
    <i name="e_0_energy">   -379.67027105 </i>
   </energy>
  </scstep>
  <scstep>
   <time name="dav">   10.22   10.23</time>
   <time name="total">   11.16   11.16</time>
   <energy>
    <i name="e_fr_energy">   -398.58859003 </i>
    <i name="e_wo_entrp">   -397.39827510 </i>
    <i name="e_0_energy">   -397.99343257 </i>
   </energy>
  </scstep>
  <scstep>
   <time name="dav">   10.01   10.01</time>
   <time name="total">   10.82   10.82</time>
   <energy>
    <i name="e_fr_energy">   -379.63395582 </i>
    <i name="e_wo_entrp">   -378.71779445 </i>
    <i name="e_0_energy">   -379.17587513 </i>
   </energy>
  </scstep>
  <scstep>
   <time name="dav">   10.17   10.17</time>
   <time name="total">   11.17   11.17</time>
   <energy>
    <i name="e_fr_energy">   -374.43960633 </i>
    <i name="e_wo_entrp">   -373.44766787 </i>
    <i name="e_0_energy">   -373.94363710 </i>
   </energy>
  </scstep>
  <scstep>
   <time name="dav">   10.06   10.06</time>
   <time name="total">   10.99   11.00</time>
   <energy>
    <i name="e_fr_energy">   -367.44761140 </i>
    <i name="e_wo_entrp">   -366.48760162 </i>
    <i name="e_0_energy">   -366.96760651 </i>
   </energy>
  </scstep>
  <scstep>
   <time name="dav">   10.41   10.41</time>
   <time name="total">   11.08   11.08</time>
   <energy>
    <i name="e_fr_energy">   -361.94436620 </i>
    <i name="e_wo_entrp">   -360.91952890 </i>
    <i name="e_0_energy">   -361.43194755 </i>
   </energy>
  </scstep>
  <scstep>
   <time name="dav">   10.14   10.15</time>
   <time name="total">   10.90   10.90</time>
   <energy>
    <i name="e_fr_energy">   -360.75960223 </i>
    <i name="e_wo_entrp">   -359.73753300 </i>
    <i name="e_0_energy">   -360.24856762 </i>
   </energy>
  </scstep>
  <scstep>
   <time name="dav">    9.83    9.83</time>
   <time name="total">   10.68   10.68</time>
   <energy>
    <i name="e_fr_energy">   -359.53720663 </i>
    <i name="e_wo_entrp">   -358.49698064 </i>
    <i name="e_0_energy">   -359.01709363 </i>
   </energy>
  </scstep>
  <scstep>
   <time name="dav">    9.93    9.93</time>
   <time name="total">   10.85   10.86</time>
   <energy>
    <i name="e_fr_energy">   -359.13547651 </i>
    <i name="e_wo_entrp">   -358.08952455 </i>
    <i name="e_0_energy">   -358.61250053 </i>
   </energy>
  </scstep>
  <scstep>
   <time name="dav">   11.21   11.21</time>
   <time name="total">   11.90   11.90</time>
   <energy>
    <i name="e_fr_energy">   -358.35547361 </i>
    <i name="e_wo_entrp">   -357.31222769 </i>
    <i name="e_0_energy">   -357.83385065 </i>
   </energy>
  </scstep>
  <scstep>
   <time name="dav">   10.36   10.36</time>
   <time name="total">   11.04   11.04</time>
   <energy>
    <i name="e_fr_energy">   -358.03014824 </i>
    <i name="e_wo_entrp">   -356.98858617 </i>
    <i name="e_0_energy">   -357.50936721 </i>
   </energy>
  </scstep>
  <scstep>
   <time name="dav">   11.17   11.17</time>
   <time name="total">   11.86   11.86</time>
   <energy>
    <i name="e_fr_energy">   -356.42693791 </i>
    <i name="e_wo_entrp">   -355.37987794 </i>
    <i name="e_0_energy">   -355.90340793 </i>
   </energy>
  </scstep>
  <scstep>
   <time name="dav">   10.56   10.56</time>
   <time name="total">   11.25   11.25</time>
   <energy>
    <i name="e_fr_energy">   -354.07490719 </i>
    <i name="e_wo_entrp">   -353.02466521 </i>
    <i name="e_0_energy">   -353.54978620 </i>
   </energy>
  </scstep>
  <scstep>
   <time name="dav">    9.86    9.86</time>
   <time name="total">   10.55   10.55</time>
   <energy>
    <i name="e_fr_energy">   -353.85130329 </i>
    <i name="e_wo_entrp">   -352.79946399 </i>
    <i name="e_0_energy">   -353.32538364 </i>
   </energy>
  </scstep>
  <scstep>
   <time name="dav">   10.17   10.17</time>
   <time name="total">   10.86   10.86</time>
   <energy>
    <i name="e_fr_energy">   -353.76684630 </i>
    <i name="e_wo_entrp">   -352.72135429 </i>
    <i name="e_0_energy">   -353.24410029 </i>
   </energy>
  </scstep>
  <scstep>
   <time name="dav">   10.21   10.21</time>
   <time name="total">   11.00   11.00</time>
   <energy>
    <i name="e_fr_energy">   -353.44106424 </i>
    <i name="e_wo_entrp">   -352.37763498 </i>
    <i name="e_0_energy">   -352.90934961 </i>
   </energy>
  </scstep>
  <scstep>
   <time name="dav">   10.07   10.07</time>
   <time name="total">   10.76   10.76</time>
   <energy>
    <i name="e_fr_energy">   -353.30361157 </i>
    <i name="e_wo_entrp">   -352.25826261 </i>
    <i name="e_0_energy">   -352.78093709 </i>
   </energy>
  </scstep>
  <scstep>
   <time name="dav">   11.43   11.44</time>
   <time name="total">   12.13   12.13</time>
   <energy>
    <i name="e_fr_energy">   -352.88993344 </i>
    <i name="e_wo_entrp">   -351.76093326 </i>
    <i name="e_0_energy">   -352.32543335 </i>
   </energy>
  </scstep>
  <scstep>
   <time name="dav">    9.95    9.96</time>
   <time name="total">   10.68   10.68</time>
   <energy>
    <i name="e_fr_energy">   -352.71964808 </i>
    <i name="e_wo_entrp">   -351.61183991 </i>
    <i name="e_0_energy">   -352.16574399 </i>
   </energy>
  </scstep>
  <scstep>
   <time name="dav">   10.24   10.25</time>
   <time name="total">   10.94   10.94</time>
   <energy>
    <i name="e_fr_energy">   -352.71406144 </i>
    <i name="e_wo_entrp">   -351.59076322 </i>
    <i name="e_0_energy">   -352.15241233 </i>
   </energy>
  </scstep>
  <scstep>
   <time name="dav">    9.29    9.29</time>
   <time name="total">    9.98    9.98</time>
   <energy>
    <i name="e_fr_energy">   -352.70708970 </i>
    <i name="e_wo_entrp">   -351.59461578 </i>
    <i name="e_0_energy">   -352.15085274 </i>
   </energy>
  </scstep>
  <scstep>
   <time name="dav">    9.24    9.24</time>
   <time name="total">    9.94    9.94</time>
   <energy>
    <i name="e_fr_energy">   -352.70856783 </i>
    <i name="e_wo_entrp">   -351.58874321 </i>
    <i name="e_0_energy">   -352.14865552 </i>
   </energy>
  </scstep>
  <scstep>
   <time name="dav">   10.16   10.16</time>
   <time name="total">   10.87   10.87</time>
   <energy>
    <i name="e_fr_energy">   -352.72034793 </i>
    <i name="e_wo_entrp">   -351.60567122 </i>
    <i name="e_0_energy">   -352.16300957 </i>
   </energy>
  </scstep>
  <scstep>
   <time name="dav">   10.49   10.49</time>
   <time name="total">   11.20   11.20</time>
   <energy>
    <i name="e_fr_energy">   -352.69227797 </i>
    <i name="e_wo_entrp">   -351.58846702 </i>
    <i name="e_0_energy">   -352.14037249 </i>
   </energy>
  </scstep>
  <scstep>
   <time name="dav">   10.15   10.15</time>
   <time name="total">   10.88   10.88</time>
   <energy>
    <i name="e_fr_energy">   -352.69307726 </i>
    <i name="e_wo_entrp">   -351.59055015 </i>
    <i name="e_0_energy">   -352.14181370 </i>
   </energy>
  </scstep>
  <scstep>
   <time name="dav">   10.09   10.09</time>
   <time name="total">   10.82   10.82</time>
   <energy>
    <i name="e_fr_energy">   -352.69605894 </i>
    <i name="e_wo_entrp">   -351.59032362 </i>
    <i name="e_0_energy">   -352.14319128 </i>
   </energy>
  </scstep>
  <scstep>
   <time name="dav">    9.56    9.56</time>
   <time name="total">   10.28   10.28</time>
   <energy>
    <i name="e_fr_energy">   -352.69317738 </i>
    <i name="e_wo_entrp">   -351.58805725 </i>
    <i name="e_0_energy">   -352.14061732 </i>
   </energy>
  </scstep>
  <scstep>
   <time name="dav">    8.44    8.44</time>
   <time name="total">    9.16    9.16</time>
   <energy>
    <i name="e_fr_energy">   -352.69290347 </i>
    <i name="e_wo_entrp">   -351.58860000 </i>
    <i name="e_0_energy">   -352.14075174 </i>
   </energy>
  </scstep>
  <scstep>
   <time name="dav">    8.23    8.23</time>
   <time name="total">    8.96    8.96</time>
   <energy>
    <i name="e_fr_energy">   -352.69260488 </i>
    <i name="e_wo_entrp">   -351.58929426 </i>
    <i name="e_0_energy">   -352.14094957 </i>
   </energy>
  </scstep>
  <scstep>
   <time name="dav">    7.77    7.77</time>
   <time name="total">    8.74    8.74</time>
   <energy>
    <i name="e_fr_energy">   -352.69326897 </i>
    <i name="e_wo_entrp">   -351.58896733 </i>
    <i name="e_0_energy">   -352.14111815 </i>
   </energy>
  </scstep>
  <scstep>
   <time name="dav">    7.14    7.14</time>
   <time name="total">    7.88    7.88</time>
   <energy>
    <i name="e_fr_energy">   -352.69304135 </i>
    <i name="e_wo_entrp">   -351.59000207 </i>
    <i name="e_0_energy">   -352.14152171 </i>
   </energy>
  </scstep>
  <scstep>
   <time name="dav">    7.32    7.32</time>
   <time name="total">    8.31    8.31</time>
   <energy>
    <i name="e_fr_energy">   -352.69321546 </i>
    <i name="e_wo_entrp">   -351.59080424 </i>
    <i name="e_0_energy">   -352.14200985 </i>
   </energy>
  </scstep>
  <scstep>
   <time name="dav">    5.93    5.93</time>
   <time name="total">    6.69    6.69</time>
   <energy>
    <i name="e_fr_energy">   -352.69360680 </i>
    <i name="e_wo_entrp">   -351.59103614 </i>
    <i name="e_0_energy">   -352.14232147 </i>
   </energy>
  </scstep>
  <scstep>
   <time name="dav">    5.72    5.72</time>
   <time name="total">    6.47    6.47</time>
   <energy>
    <i name="e_fr_energy">   -352.69387789 </i>
    <i name="e_wo_entrp">   -351.59144415 </i>
    <i name="e_0_energy">   -352.14266102 </i>
   </energy>
  </scstep>
  <scstep>
   <time name="dav">    5.94    5.94</time>
   <time name="total">    6.70    6.70</time>
   <energy>
    <i name="e_fr_energy">   -352.69441804 </i>
    <i name="e_wo_entrp">   -351.59226831 </i>
    <i name="e_0_energy">   -352.14334318 </i>
   </energy>
  </scstep>
  <scstep>
   <time name="dav">    5.83    5.83</time>
   <time name="total">    6.60    6.60</time>
   <energy>
    <i name="e_fr_energy">   -352.69477184 </i>
    <i name="e_wo_entrp">   -351.59266002 </i>
    <i name="e_0_energy">   -352.14371593 </i>
   </energy>
  </scstep>
  <scstep>
   <time name="dav">    6.10    6.10</time>
   <time name="total">    7.00    7.00</time>
   <energy>
    <i name="e_fr_energy">   -352.69537140 </i>
    <i name="e_wo_entrp">   -351.59404144 </i>
    <i name="e_0_energy">   -352.14470642 </i>
   </energy>
  </scstep>
  <scstep>
   <time name="dav">    5.71    5.71</time>
   <time name="total">    6.08    6.08</time>
   <energy>
    <i name="alphaZ">   1458.83996183 </i>
    <i name="ewald"> 163677.03131548 </i>
    <i name="hartreedc">-286690.85662372 </i>
    <i name="XCdc">   3753.88823062 </i>
    <i name="pawpsdc"> 144628.57452082 </i>
    <i name="pawaedc">-149761.91611823 </i>
    <i name="eentropy">     -1.10139601 </i>
    <i name="bandstr"> -17197.61047551 </i>
    <i name="atom"> 139780.45519414 </i>
    <i name="e_fr_energy">   -352.69539058 </i>
    <i name="e_wo_entrp">   -351.59399458 </i>
    <i name="e_0_energy">   -352.14469258 </i>
   </energy>
  </scstep>
  <structure>
   <crystal>
    <varray name="basis" >
     <v>      16.88469405       0.00000000       0.00000000 </v>
     <v>       0.00000000       9.57841000       0.00000000 </v>
     <v>       0.00000000       0.00000000      16.65464569 </v>
    </varray>
    <i name="volume">   2693.53123734 </i>
    <varray name="rec_basis" >
     <v>       0.05922524       0.00000000       0.00000000 </v>
     <v>       0.00000000       0.10440146       0.00000000 </v>
     <v>       0.00000000       0.00000000       0.06004331 </v>
    </varray>
   </crystal>
   <varray name="positions" >
    <v>       0.78004630       0.14529696       0.12347080 </v>
    <v>       0.79494681       0.14530013       0.28170657 </v>
    <v>       0.21663022       0.65728921       0.09843466 </v>
    <v>       0.29733028       0.64529696       0.21607389 </v>
    <v>       0.41632139       0.14537216       0.11301518 </v>
    <v>       0.46975828       0.14529696       0.24694159 </v>
    <v>       0.95247430       0.64529696       0.15433850 </v>
    <v>       0.97517334       0.64529475       0.31787469 </v>
    <v>       0.18339023       0.14491757       0.04973624 </v>
    <v>       0.12490229       0.14529696       0.18520619 </v>
    <v>       0.11532826       0.14527286       0.32928881 </v>
    <v>       0.64218627       0.64529696       0.27780929 </v>
    <v>       0.91037713       0.00476051       0.12032667 </v>
    <v>       0.94357131       0.01261797       0.26993094 </v>
    <v>       0.42486675       0.51319396       0.19160760 </v>
    <v>       0.46327618       0.47425142       0.33247712 </v>
    <v>       0.56704419       0.01463278       0.07042565 </v>
    <v>       0.59729475       0.01319396       0.22247530 </v>
    <v>       0.08001077       0.51319396       0.12987220 </v>
    <v>       0.11168263       0.50707812       0.29566792 </v>
    <v>       0.25243876       0.01319396       0.16073990 </v>
    <v>       0.28929262       0.98835879       0.31166747 </v>
    <v>       0.77530220       0.43205931       0.12088976 </v>
    <v>       0.76972274       0.51319396       0.25334300 </v>
    <v>       0.91039776       0.28590051       0.12033011 </v>
    <v>       0.94357773       0.27799544       0.26992748 </v>
    <v>       0.36305547       0.63864451       0.07417657 </v>
    <v>       0.42486675       0.77739996       0.19160760 </v>
    <v>       0.46144051       0.81428854       0.33307848 </v>
    <v>       0.56224979       0.26332859       0.06834928 </v>
    <v>       0.59729475       0.27739996       0.22247530 </v>
    <v>       0.08001077       0.77739996       0.12987220 </v>
    <v>       0.11173475       0.78355008       0.29557400 </v>
    <v>       0.25243876       0.27739996       0.16073990 </v>
    <v>       0.29004178       0.30510314       0.31017888 </v>
    <v>       0.77507971       0.85887671       0.12083548 </v>
    <v>       0.76972274       0.77739996       0.25334300 </v>
    <v>       0.99701349       0.14530438       0.35140028 </v>
    <v>       0.99146120       0.14529696       0.18349304 </v>
    <v>       0.47731931       0.64482549       0.10854368 </v>
    <v>       0.50874518       0.64529696       0.27609614 </v>
    <v>       0.64660522       0.14529696       0.12175764 </v>
    <v>       0.67333595       0.14526004       0.28699453 </v>
    <v>       0.11194089       0.64517710       0.03819621 </v>
    <v>       0.16388920       0.64529696       0.21436074 </v>
    <v>       0.07784530       0.64538799       0.38284517 </v>
    <v>       0.30188710       0.14530587       0.07078611 </v>
    <v>       0.33631719       0.14529696       0.24522844 </v>
    <v>       0.81903321       0.64529696       0.15262534 </v>
    <v>       0.85101653       0.64532512       0.31331561 </v>
    <v>       0.81737983       0.29276028       0.04027617 </v>
    <v>       0.82906105       0.31351196       0.21464750 </v>
    <v>       0.31177707       0.81351196       0.12204440 </v>
    <v>       0.34724668       0.80200679       0.29276665 </v>
    <v>       0.48420507       0.31351196       0.15291210 </v>
    <v>       0.52295849       0.29331321       0.32122085 </v>
    <v>       0.00148905       0.81351196       0.24551520 </v>
    <v>       0.96745345       0.82106649       0.08345760 </v>
    <v>       0.13984442       0.31866084       0.10660446 </v>
    <v>       0.17391704       0.31351196       0.27638290 </v>
    <v>       0.66684102       0.82661109       0.18980527 </v>
    <v>       0.69616835       0.78554307       0.34935619 </v>
    <v>       0.29832249       0.48265364       0.12839305 </v>
    <v>       0.34871614       0.49144111       0.29396244 </v>
    <v>       0.81741541       0.99795680       0.04020754 </v>
    <v>       0.82906105       0.97708196       0.21464750 </v>
    <v>       0.00148905       0.47708196       0.24551520 </v>
    <v>       0.96756581       0.46954099       0.08347790 </v>
    <v>       0.48420507       0.97708196       0.15291210 </v>
    <v>       0.52185803       0.99440304       0.32038539 </v>
    <v>       0.66695851       0.46430364       0.19013463 </v>
    <v>       0.69618288       0.50513479       0.34941667 </v>
    <v>       0.14093862       0.97028915       0.10663881 </v>
    <v>       0.17391704       0.97708196       0.27638290 </v>
   </varray>
  </structure>
  <varray name="forces" >
   <v>      -0.08617738       0.01228531       0.91946152 </v>
   <v>       0.07180663       0.00487748       0.77949320 </v>
   <v>       0.86545955       0.05379799      -0.38838184 </v>
   <v>      -0.62865577       0.34284440       0.98712583 </v>
   <v>       0.15209501       0.03636258      -1.06867566 </v>
   <v>      -0.57218454      -0.03501293      -1.11868187 </v>
   <v>      -0.45158963      -0.01309864       2.29656206 </v>
   <v>      -1.56602528       0.02002612       0.31723153 </v>
   <v>      -0.61803650       0.02158024      -2.03139541 </v>
   <v>      -1.05135840      -0.04900229       0.65412596 </v>
   <v>       0.72778319      -0.01767169       1.05257640 </v>
   <v>      -1.70432705       0.01821145      -2.97486255 </v>
   <v>       0.95440551       0.54962659       0.08220787 </v>
   <v>      -0.88427359      -0.88456824       0.12871681 </v>
   <v>      -0.04319461      -1.13317476      -0.27465894 </v>
   <v>      -0.00863066       0.29338129       1.22438566 </v>
   <v>       0.15830367      -0.44131550      -1.17064145 </v>
   <v>       0.56690235      -0.43703828      -1.42931209 </v>
   <v>       0.20764081      -0.64062577       1.45430920 </v>
   <v>       1.27611933      -1.37173475       0.30339004 </v>
   <v>       0.77392050      -0.75268822       1.26836633 </v>
   <v>       0.19959047      -0.27406544       0.92268186 </v>
   <v>      -0.43941093       0.80728919       0.22861659 </v>
   <v>       1.39523404      -0.17881596      -0.53216820 </v>
   <v>       0.92695049      -0.54494315       0.08223304 </v>
   <v>      -0.89368691       0.86629176       0.12853694 </v>
   <v>      -0.68114661      -0.32583499      -1.97170051 </v>
   <v>       0.16812007       1.09465186       0.01396744 </v>
   <v>      -0.00901489      -0.23447668       1.19472034 </v>
   <v>       0.13201232       0.31908267      -1.31289584 </v>
   <v>       0.58002906       0.43275389      -1.56481812 </v>
   <v>       0.21322942       0.59019788       1.29210371 </v>
   <v>       1.23884817       1.34520628       0.34915941 </v>
   <v>       0.57108440       0.78211848       1.17256497 </v>
   <v>       0.17489360       0.18722655       1.03670689 </v>
   <v>      -0.42771462      -0.80529144       0.21449576 </v>
   <v>       1.37404854       0.18117457      -0.53748524 </v>
   <v>      -0.10782125       0.00572685       2.90545000 </v>
   <v>       1.89033115      -0.00404448      -2.48735618 </v>
   <v>       3.35288991       0.05037328      -2.42781280 </v>
   <v>       1.74868598       0.03977273       0.33281219 </v>
   <v>       1.98388000       0.03165502      -1.06804792 </v>
   <v>       1.00900209       0.00542467       2.76708901 </v>
   <v>       0.10061733      -0.04063464      -3.75767048 </v>
   <v>       1.20928415       0.11475319      -0.25033430 </v>
   <v>       0.68200913      -0.01113236       4.29510631 </v>
   <v>       1.57151676       0.00315378      -2.70763810 </v>
   <v>       1.25369562       0.01268286      -0.11658736 </v>
   <v>       0.55531660       0.01225816      -2.02525971 </v>
   <v>       1.00027876       0.00628684       2.53561984 </v>
   <v>      -0.36926891       0.88167968      -3.86678790 </v>
   <v>      -0.46428769       0.94850747       1.85755368 </v>
   <v>      -0.77068244       1.63367158      -0.77101126 </v>
   <v>      -1.10193306       0.40555624       1.60228426 </v>
   <v>      -1.44673208       2.11254001       0.43065635 </v>
   <v>       0.12880138       0.09811216       2.91343437 </v>
   <v>      -1.16209591       1.66286005      -0.61555763 </v>
   <v>      -0.38512453       0.67849871      -2.89540239 </v>
   <v>      -1.07098191       0.81197545      -1.44299354 </v>
   <v>      -0.68269895       0.53486789       0.62104575 </v>
   <v>      -2.06104422      -0.05272275      -1.08100405 </v>
   <v>      -0.47461751       1.06785268       3.75791954 </v>
   <v>      -0.12307622      -1.62362884      -1.20522459 </v>
   <v>      -1.12552892      -0.52454261       1.60049267 </v>
   <v>      -0.36209777      -0.87381416      -3.84674405 </v>
   <v>      -0.45974704      -0.97549233       1.85431231 </v>
   <v>      -1.16776050      -1.68877392      -0.59451608 </v>
   <v>      -0.41845867      -0.67666220      -2.89972559 </v>
   <v>      -1.35368000      -2.03000802       0.20243579 </v>
   <v>       0.20731941      -0.04705700       2.88219141 </v>
   <v>      -2.05410143      -0.00112251      -1.09042871 </v>
   <v>      -0.45704756      -1.03567032       3.74420408 </v>
   <v>      -1.04290911      -0.77606751      -1.41604636 </v>
   <v>      -0.69498234      -0.57646351       0.53547978 </v>
  </varray>
  <varray name="stress" >
   <v>      73.79886826       0.50002103      -1.08594281 </v>
   <v>       0.50002107      71.26752862       0.17558524 </v>
   <v>      -1.08594299       0.17558509      84.22547776 </v>
  </varray>
  <energy>
   <i name="e_fr_energy">   -352.69539058 </i>
   <i name="e_wo_entrp">   -352.14469258 </i>
   <i name="e_0_energy">     -1.10139601 </i>
  </energy>
  <time name="totalsc">  474.79  474.89</time>
  <eigenvalues>
   <array>
    <dimension dim="1">band</dimension>
    <dimension dim="2">kpoint</dimension>
    <dimension dim="3">spin</dimension>
    <field>eigene</field>
    <field>occ</field>
    <set>
     <set comment="spin 1">
      <set comment="kpoint 1">
       <r>  -65.1148    1.0000 </r>
       <r>  -65.1046    1.0000 </r>
       <r>  -64.9770    1.0000 </r>
       <r>  -64.9645    1.0000 </r>
       <r>  -64.9176    1.0000 </r>
       <r>  -64.8796    1.0000 </r>
       <r>  -64.8722    1.0000 </r>
       <r>  -64.8502    1.0000 </r>
       <r>  -64.8406    1.0000 </r>
       <r>  -64.8368    1.0000 </r>
       <r>  -64.8312    1.0000 </r>
       <r>  -64.8091    1.0000 </r>
       <r>  -64.8016    1.0000 </r>
       <r>  -64.7871    1.0000 </r>
       <r>  -64.7797    1.0000 </r>
       <r>  -64.7780    1.0000 </r>
       <r>  -64.7553    1.0000 </r>
       <r>  -64.7537    1.0000 </r>
       <r>  -64.7458    1.0000 </r>
       <r>  -64.7360    1.0000 </r>
       <r>  -64.7335    1.0000 </r>
       <r>  -64.7321    1.0000 </r>
       <r>  -64.7169    1.0000 </r>
       <r>  -64.7073    1.0000 </r>
       <r>  -64.6969    1.0000 </r>
       <r>  -64.6954    1.0000 </r>
       <r>  -64.6905    1.0000 </r>
       <r>  -64.6721    1.0000 </r>
       <r>  -64.6658    1.0000 </r>
       <r>  -64.6581    1.0000 </r>
       <r>  -64.6395    1.0000 </r>
       <r>  -64.6221    1.0000 </r>
       <r>  -64.6098    1.0000 </r>
       <r>  -64.6087    1.0000 </r>
       <r>  -64.6063    1.0000 </r>
       <r>  -64.5955    1.0000 </r>
       <r>  -64.5898    1.0000 </r>
       <r>  -64.5795    1.0000 </r>
       <r>  -64.5726    1.0000 </r>
       <r>  -64.5330    1.0000 </r>
       <r>  -64.5156    1.0000 </r>
       <r>  -64.5130    1.0000 </r>
       <r>  -64.5115    1.0000 </r>
       <r>  -64.5054    1.0000 </r>
       <r>  -64.5022    1.0000 </r>
       <r>  -64.4932    1.0000 </r>
       <r>  -64.4784    1.0000 </r>
       <r>  -64.4705    1.0000 </r>
       <r>  -64.4609    1.0000 </r>
       <r>  -64.4579    1.0000 </r>
       <r>  -64.4571    1.0000 </r>
       <r>  -64.4407    1.0000 </r>
       <r>  -64.4354    1.0000 </r>
       <r>  -64.4248    1.0000 </r>
       <r>  -64.4149    1.0000 </r>
       <r>  -64.4076    1.0000 </r>
       <r>  -64.4003    1.0000 </r>
       <r>  -64.3972    1.0000 </r>
       <r>  -64.3947    1.0000 </r>
       <r>  -64.3869    1.0000 </r>
       <r>  -64.3798    1.0000 </r>
       <r>  -64.3765    1.0000 </r>
       <r>  -64.3444    1.0000 </r>
       <r>  -64.3416    1.0000 </r>
       <r>  -64.3283    1.0000 </r>
       <r>  -64.3232    1.0000 </r>
       <r>  -64.3220    1.0000 </r>
       <r>  -64.3196    1.0000 </r>
       <r>  -64.3177    1.0000 </r>
       <r>  -64.3106    1.0000 </r>
       <r>  -64.3074    1.0000 </r>
       <r>  -64.3055    1.0000 </r>
       <r>  -64.2953    1.0000 </r>
       <r>  -64.2880    1.0000 </r>
       <r>  -64.2759    1.0000 </r>
       <r>  -64.2594    1.0000 </r>
       <r>  -64.2507    1.0000 </r>
       <r>  -64.2414    1.0000 </r>
       <r>  -64.2328    1.0000 </r>
       <r>  -64.2324    1.0000 </r>
       <r>  -64.2202    1.0000 </r>
       <r>  -64.2149    1.0000 </r>
       <r>  -64.1984    1.0000 </r>
       <r>  -64.1412    1.0000 </r>
       <r>  -64.1240    1.0000 </r>
       <r>  -64.1192    1.0000 </r>
       <r>  -64.1149    1.0000 </r>
       <r>  -64.1102    1.0000 </r>
       <r>  -64.1030    1.0000 </r>
       <r>  -64.1021    1.0000 </r>
       <r>  -64.0837    1.0000 </r>
       <r>  -64.0745    1.0000 </r>
       <r>  -64.0725    1.0000 </r>
       <r>  -64.0608    1.0000 </r>
       <r>  -64.0590    1.0000 </r>
       <r>  -64.0540    1.0000 </r>
       <r>  -63.8977    1.0000 </r>
       <r>  -63.8635    1.0000 </r>
       <r>  -63.8311    1.0000 </r>
       <r>  -63.7782    1.0000 </r>
       <r>  -63.7334    1.0000 </r>
       <r>  -63.7281    1.0000 </r>
       <r>  -63.6997    1.0000 </r>
       <r>  -63.6708    1.0000 </r>
       <r>  -63.6237    1.0000 </r>
       <r>  -63.5667    1.0000 </r>
       <r>  -63.4380    1.0000 </r>
       <r>  -63.4328    1.0000 </r>
       <r>  -63.4273    1.0000 </r>
       <r>  -63.2926    1.0000 </r>
       <r>  -63.2162    1.0000 </r>
       <r>  -16.5151    1.0000 </r>
       <r>  -16.2196    1.0000 </r>
       <r>  -15.9985    1.0000 </r>
       <r>  -15.6582    1.0000 </r>
       <r>  -15.6136    1.0000 </r>
       <r>  -15.5488    1.0000 </r>
       <r>  -15.3638    1.0000 </r>
       <r>  -15.2527    1.0000 </r>
       <r>  -15.1052    1.0000 </r>
       <r>  -15.0416    1.0000 </r>
       <r>  -14.9492    1.0000 </r>
       <r>  -14.8985    1.0000 </r>
       <r>  -14.8274    1.0000 </r>
       <r>  -14.7091    1.0000 </r>
       <r>  -14.6886    1.0000 </r>
       <r>  -14.5719    1.0000 </r>
       <r>  -14.5546    1.0000 </r>
       <r>  -14.4499    1.0000 </r>
       <r>  -14.4100    1.0000 </r>
       <r>  -14.3391    1.0000 </r>
       <r>  -14.2918    1.0000 </r>
       <r>  -14.2531    1.0000 </r>
       <r>  -14.1975    1.0000 </r>
       <r>  -14.1102    1.0000 </r>
       <r>  -13.9540    1.0000 </r>
       <r>  -13.8659    1.0000 </r>
       <r>  -13.8528    1.0000 </r>
       <r>  -13.7940    1.0000 </r>
       <r>  -13.7055    1.0000 </r>
       <r>  -13.6575    1.0000 </r>
       <r>  -13.6170    1.0000 </r>
       <r>  -13.4864    1.0000 </r>
       <r>  -13.4152    1.0000 </r>
       <r>  -13.3849    1.0000 </r>
       <r>  -13.3143    1.0000 </r>
       <r>  -13.1140    1.0000 </r>
       <r>  -12.7711    1.0000 </r>
       <r>   -8.2815    1.0000 </r>
       <r>   -8.1470    1.0000 </r>
       <r>   -7.8800    1.0000 </r>
       <r>   -7.7801    1.0000 </r>
       <r>   -7.7706    1.0000 </r>
       <r>   -7.7443    1.0000 </r>
       <r>   -7.7160    1.0000 </r>
       <r>   -7.6590    1.0000 </r>
       <r>   -7.6172    1.0000 </r>
       <r>   -7.4296    1.0000 </r>
       <r>   -7.4210    1.0000 </r>
       <r>   -7.3214    1.0000 </r>
       <r>   -7.2910    1.0000 </r>
       <r>   -7.2801    1.0000 </r>
       <r>   -7.2332    1.0000 </r>
       <r>   -7.2107    1.0000 </r>
       <r>   -7.1373    1.0000 </r>
       <r>   -7.1042    1.0000 </r>
       <r>   -7.0706    1.0000 </r>
       <r>   -7.0226    1.0000 </r>
       <r>   -6.9338    1.0000 </r>
       <r>   -6.8743    1.0000 </r>
       <r>   -6.8463    1.0000 </r>
       <r>   -6.8111    1.0000 </r>
       <r>   -6.7443    1.0000 </r>
       <r>   -6.7056    1.0000 </r>
       <r>   -6.6852    1.0000 </r>
       <r>   -6.6459    1.0000 </r>
       <r>   -6.6236    1.0000 </r>
       <r>   -6.4923    1.0000 </r>
       <r>   -6.4683    1.0000 </r>
       <r>   -6.4049    1.0000 </r>
       <r>   -6.3821    1.0000 </r>
       <r>   -6.3519    1.0000 </r>
       <r>   -6.3045    1.0000 </r>
       <r>   -6.2881    1.0000 </r>
       <r>   -6.2325    1.0000 </r>
       <r>   -6.1792    1.0000 </r>
       <r>   -6.1298    1.0000 </r>
       <r>   -6.1029    1.0000 </r>
       <r>   -6.0951    1.0000 </r>
       <r>   -6.0406    1.0000 </r>
       <r>   -5.9995    1.0000 </r>
       <r>   -5.9431    1.0000 </r>
       <r>   -5.9206    1.0000 </r>
       <r>   -5.9124    1.0000 </r>
       <r>   -5.8479    1.0000 </r>
       <r>   -5.7991    1.0000 </r>
       <r>   -5.7929    1.0000 </r>
       <r>   -5.7612    1.0000 </r>
       <r>   -5.6720    1.0000 </r>
       <r>   -5.6610    1.0000 </r>
       <r>   -5.6500    1.0000 </r>
       <r>   -5.6276    1.0000 </r>
       <r>   -5.5897    1.0000 </r>
       <r>   -5.5275    1.0000 </r>
       <r>   -5.5121    1.0000 </r>
       <r>   -5.4852    1.0000 </r>
       <r>   -5.4510    1.0000 </r>
       <r>   -5.4166    1.0000 </r>
       <r>   -5.3541    1.0000 </r>
       <r>   -5.3398    1.0000 </r>
       <r>   -5.3349    1.0000 </r>
       <r>   -5.3249    1.0000 </r>
       <r>   -5.3012    1.0000 </r>
       <r>   -5.2502    1.0000 </r>
       <r>   -5.1772    1.0000 </r>
       <r>   -5.1652    1.0000 </r>
       <r>   -5.1571    1.0000 </r>
       <r>   -5.1209    1.0000 </r>
       <r>   -5.0854    1.0000 </r>
       <r>   -5.0692    1.0000 </r>
       <r>   -5.0197    1.0000 </r>
       <r>   -4.9898    1.0000 </r>
       <r>   -4.9662    1.0000 </r>
       <r>   -4.9326    1.0000 </r>
       <r>   -4.9085    1.0000 </r>
       <r>   -4.8805    1.0000 </r>
       <r>   -4.8730    1.0000 </r>
       <r>   -4.8267    1.0000 </r>
       <r>   -4.8096    1.0000 </r>
       <r>   -4.7512    1.0000 </r>
       <r>   -4.7252    1.0000 </r>
       <r>   -4.6617    1.0000 </r>
       <r>   -4.6498    1.0000 </r>
       <r>   -4.5834    1.0000 </r>
       <r>   -4.5634    1.0000 </r>
       <r>   -4.5380    1.0000 </r>
       <r>   -4.5234    1.0000 </r>
       <r>   -4.4987    1.0000 </r>
       <r>   -4.4599    1.0000 </r>
       <r>   -4.3854    1.0000 </r>
       <r>   -4.3604    1.0000 </r>
       <r>   -4.3346    1.0000 </r>
       <r>   -4.2800    1.0000 </r>
       <r>   -4.2629    1.0000 </r>
       <r>   -4.2534    1.0000 </r>
       <r>   -4.1412    1.0000 </r>
       <r>   -4.0986    1.0000 </r>
       <r>   -4.0661    1.0000 </r>
       <r>   -3.9977    1.0000 </r>
       <r>   -3.9850    1.0000 </r>
       <r>   -3.9279    1.0000 </r>
       <r>   -3.8837    1.0000 </r>
       <r>   -3.8511    1.0000 </r>
       <r>   -3.7868    1.0000 </r>
       <r>   -3.7557    1.0000 </r>
       <r>   -3.7349    1.0000 </r>
       <r>   -3.6803    1.0000 </r>
       <r>   -3.6277    1.0000 </r>
       <r>   -3.5850    1.0000 </r>
       <r>   -3.4891    1.0000 </r>
       <r>   -3.4603    1.0000 </r>
       <r>   -3.4396    1.0000 </r>
       <r>   -3.3962    1.0000 </r>
       <r>   -3.3721    1.0000 </r>
       <r>   -3.3659    1.0000 </r>
       <r>   -3.3568    1.0000 </r>
       <r>   -3.2737    1.0000 </r>
       <r>   -3.2585    1.0000 </r>
       <r>   -3.2188    1.0000 </r>
       <r>   -3.1967    1.0000 </r>
       <r>   -3.1660    1.0000 </r>
       <r>   -3.1613    1.0000 </r>
       <r>   -3.1363    1.0000 </r>
       <r>   -3.0711    1.0000 </r>
       <r>   -3.0625    1.0000 </r>
       <r>   -3.0512    1.0000 </r>
       <r>   -3.0366    1.0000 </r>
       <r>   -3.0176    1.0000 </r>
       <r>   -3.0130    1.0000 </r>
       <r>   -2.9429    1.0000 </r>
       <r>   -2.9218    1.0000 </r>
       <r>   -2.9140    1.0000 </r>
       <r>   -2.8891    1.0000 </r>
       <r>   -2.8544    1.0000 </r>
       <r>   -2.8282    1.0000 </r>
       <r>   -2.8205    1.0000 </r>
       <r>   -2.8143    1.0000 </r>
       <r>   -2.7773    1.0000 </r>
       <r>   -2.7620    1.0000 </r>
       <r>   -2.7096    1.0000 </r>
       <r>   -2.6927    1.0000 </r>
       <r>   -2.6828    1.0000 </r>
       <r>   -2.6683    1.0000 </r>
       <r>   -2.6499    1.0000 </r>
       <r>   -2.6254    1.0000 </r>
       <r>   -2.6187    1.0000 </r>
       <r>   -2.6095    1.0000 </r>
       <r>   -2.5968    1.0000 </r>
       <r>   -2.5883    1.0000 </r>
       <r>   -2.5745    1.0000 </r>
       <r>   -2.5269    1.0000 </r>
       <r>   -2.5075    1.0000 </r>
       <r>   -2.5010    1.0000 </r>
       <r>   -2.4672    1.0000 </r>
       <r>   -2.4644    1.0000 </r>
       <r>   -2.4445    1.0000 </r>
       <r>   -2.4379    1.0000 </r>
       <r>   -2.4294    1.0000 </r>
       <r>   -2.3938    1.0000 </r>
       <r>   -2.3811    1.0000 </r>
       <r>   -2.3674    1.0000 </r>
       <r>   -2.3645    1.0000 </r>
       <r>   -2.3600    1.0000 </r>
       <r>   -2.3452    1.0000 </r>
       <r>   -2.3379    1.0000 </r>
       <r>   -2.3104    1.0000 </r>
       <r>   -2.2837    1.0000 </r>
       <r>   -2.2796    1.0000 </r>
       <r>   -2.2776    1.0000 </r>
       <r>   -2.2731    1.0000 </r>
       <r>   -2.2469    1.0000 </r>
       <r>   -2.2420    1.0000 </r>
       <r>   -2.2344    1.0000 </r>
       <r>   -2.2254    1.0000 </r>
       <r>   -2.1932    1.0000 </r>
       <r>   -2.1798    1.0000 </r>
       <r>   -2.1661    1.0000 </r>
       <r>   -2.1583    1.0000 </r>
       <r>   -2.1480    1.0000 </r>
       <r>   -2.1200    1.0000 </r>
       <r>   -2.1103    1.0000 </r>
       <r>   -2.1018    1.0000 </r>
       <r>   -2.0901    1.0000 </r>
       <r>   -2.0761    1.0000 </r>
       <r>   -2.0488    1.0000 </r>
       <r>   -2.0404    1.0000 </r>
       <r>   -2.0337    1.0000 </r>
       <r>   -2.0077    1.0000 </r>
       <r>   -1.9938    1.0000 </r>
       <r>   -1.9888    1.0000 </r>
       <r>   -1.9512    1.0000 </r>
       <r>   -1.9371    1.0000 </r>
       <r>   -1.9054    1.0000 </r>
       <r>   -1.8897    1.0000 </r>
       <r>   -1.8705    1.0000 </r>
       <r>   -1.8529    1.0000 </r>
       <r>   -1.8357    1.0000 </r>
       <r>   -1.8103    1.0000 </r>
       <r>   -1.8081    1.0000 </r>
       <r>   -1.7583    1.0000 </r>
       <r>   -1.7199    1.0000 </r>
       <r>   -1.7089    1.0000 </r>
       <r>   -1.7049    1.0000 </r>
       <r>   -1.6904    1.0000 </r>
       <r>   -1.6748    1.0000 </r>
       <r>   -1.6585    1.0000 </r>
       <r>   -1.6212    1.0000 </r>
       <r>   -1.6187    1.0000 </r>
       <r>   -1.5602    1.0000 </r>
       <r>   -1.5278    1.0000 </r>
       <r>   -1.5151    1.0000 </r>
       <r>   -1.4817    1.0000 </r>
       <r>   -1.4596    1.0000 </r>
       <r>   -1.4390    1.0000 </r>
       <r>   -1.4327    1.0000 </r>
       <r>   -1.4174    1.0000 </r>
       <r>   -1.3998    1.0000 </r>
       <r>   -1.3907    1.0000 </r>
       <r>   -1.3332    1.0000 </r>
       <r>   -1.3162    1.0000 </r>
       <r>   -1.2949    1.0000 </r>
       <r>   -1.2746    1.0000 </r>
       <r>   -1.2538    1.0000 </r>
       <r>   -1.2469    1.0000 </r>
       <r>   -1.2253    1.0000 </r>
       <r>   -1.2126    1.0000 </r>
       <r>   -1.1749    1.0000 </r>
       <r>   -1.1476    1.0000 </r>
       <r>   -1.1298    1.0000 </r>
       <r>   -1.0922    1.0000 </r>
       <r>   -1.0643    1.0000 </r>
       <r>   -1.0039    1.0000 </r>
       <r>   -0.9726    1.0000 </r>
       <r>   -0.9350    1.0000 </r>
       <r>   -0.9081    1.0000 </r>
       <r>   -0.8699    1.0000 </r>
       <r>   -0.8557    1.0000 </r>
       <r>   -0.8144    1.0000 </r>
       <r>   -0.7576    1.0000 </r>
       <r>   -0.7344    1.0000 </r>
       <r>   -0.7131    0.9999 </r>
       <r>   -0.6743    0.9998 </r>
       <r>   -0.6365    0.9994 </r>
       <r>   -0.6240    0.9992 </r>
       <r>   -0.5897    0.9981 </r>
       <r>   -0.5632    0.9966 </r>
       <r>   -0.5300    0.9933 </r>
       <r>   -0.5253    0.9927 </r>
       <r>   -0.4877    0.9852 </r>
       <r>   -0.4691    0.9795 </r>
       <r>   -0.4176    0.9535 </r>
       <r>   -0.3790    0.9202 </r>
       <r>   -0.3422    0.8743 </r>
       <r>   -0.3334    0.8610 </r>
       <r>   -0.2852    0.7714 </r>
       <r>   -0.2225    0.6181 </r>
       <r>   -0.1786    0.4959 </r>
       <r>   -0.1548    0.4292 </r>
       <r>   -0.1272    0.3543 </r>
       <r>   -0.0833    0.2470 </r>
       <r>   -0.0508    0.1803 </r>
       <r>   -0.0314    0.1466 </r>
       <r>   -0.0070    0.1106 </r>
       <r>    0.0687    0.0393 </r>
       <r>    0.1025    0.0229 </r>
       <r>    0.1421    0.0114 </r>
       <r>    0.1520    0.0095 </r>
       <r>    0.1930    0.0042 </r>
       <r>    0.1994    0.0036 </r>
       <r>    0.2405    0.0015 </r>
       <r>    0.2565    0.0010 </r>
       <r>    0.2913    0.0004 </r>
       <r>    0.3984    0.0000 </r>
       <r>    0.4052    0.0000 </r>
       <r>    0.5663    0.0000 </r>
       <r>    0.6072    0.0000 </r>
       <r>    0.6576    0.0000 </r>
       <r>    0.7732    0.0000 </r>
       <r>    0.8424    0.0000 </r>
       <r>    0.8829    0.0000 </r>
       <r>    0.9149    0.0000 </r>
       <r>    0.9583    0.0000 </r>
       <r>    1.0049    0.0000 </r>
       <r>    1.0664    0.0000 </r>
       <r>    1.0697    0.0000 </r>
       <r>    1.1037    0.0000 </r>
       <r>    1.1154    0.0000 </r>
       <r>    1.1477    0.0000 </r>
       <r>    1.2391    0.0000 </r>
       <r>    1.2471    0.0000 </r>
       <r>    1.3858    0.0000 </r>
       <r>    1.4151    0.0000 </r>
       <r>    1.5751    0.0000 </r>
       <r>    1.6561    0.0000 </r>
       <r>    2.1676    0.0000 </r>
       <r>    2.5899    0.0000 </r>
       <r>    2.8446    0.0000 </r>
       <r>    2.9766    0.0000 </r>
       <r>    3.0762    0.0000 </r>
       <r>    3.1080    0.0000 </r>
       <r>    3.4138    0.0000 </r>
       <r>    3.5836    0.0000 </r>
       <r>    3.7044    0.0000 </r>
       <r>    3.7768    0.0000 </r>
       <r>    3.9152    0.0000 </r>
       <r>    4.0450    0.0000 </r>
       <r>    4.0974    0.0000 </r>
       <r>    4.2376    0.0000 </r>
       <r>    4.2775    0.0000 </r>
       <r>    4.3596    0.0000 </r>
       <r>    4.4438    0.0000 </r>
       <r>    4.5304    0.0000 </r>
       <r>    4.5561    0.0000 </r>
       <r>    4.6282    0.0000 </r>
       <r>    4.6350    0.0000 </r>
       <r>    4.7211    0.0000 </r>
       <r>    4.8043    0.0000 </r>
       <r>    4.8736    0.0000 </r>
       <r>    4.9305    0.0000 </r>
       <r>    4.9602    0.0000 </r>
       <r>    5.0738    0.0000 </r>
       <r>    5.0852    0.0000 </r>
       <r>    5.1036    0.0000 </r>
       <r>    5.1327    0.0000 </r>
       <r>    5.2189    0.0000 </r>
       <r>    5.2450    0.0000 </r>
       <r>    5.3333    0.0000 </r>
       <r>    5.3690    0.0000 </r>
       <r>    5.4169    0.0000 </r>
       <r>    5.4487    0.0000 </r>
       <r>    5.4998    0.0000 </r>
       <r>    5.5360    0.0000 </r>
       <r>    5.5428    0.0000 </r>
       <r>    5.5956    0.0000 </r>
       <r>    5.6165    0.0000 </r>
       <r>    5.6258    0.0000 </r>
       <r>    5.6921    0.0000 </r>
       <r>    5.7363    0.0000 </r>
      </set>
     </set>
    </set>
   </array>
  </eigenvalues>
  <separator name="orbital magnetization" >
   <v name="MAGDIPOLOUT">      0.00000000      0.00000000      0.00000000</v>
  </separator>
  <dos>
   <i name="efermi">     -0.18002501 </i>
   <total>
    <array>
     <dimension dim="1">gridpoints</dimension>
     <dimension dim="2">spin</dimension>
     <field>energy</field>
     <field>total</field>
     <field>integrated</field>
     <set>
      <set comment="spin 1">
       <r>   -68.6574     0.0000     0.0000 </r>
       <r>   -68.3976     0.0000     0.0000 </r>
       <r>   -68.1378     0.0000     0.0000 </r>
       <r>   -67.8780     0.0000     0.0000 </r>
       <r>   -67.6182     0.0000     0.0000 </r>
       <r>   -67.3584     0.0000     0.0000 </r>
       <r>   -67.0987     0.0000     0.0000 </r>
       <r>   -66.8389     0.0000     0.0000 </r>
       <r>   -66.5791     0.0000     0.0000 </r>
       <r>   -66.3193     0.0000     0.0000 </r>
       <r>   -66.0595     0.0000     0.0000 </r>
       <r>   -65.7997     0.0000     0.0000 </r>
       <r>   -65.5399     0.0187     0.0049 </r>
       <r>   -65.2801     2.0790     0.5450 </r>
       <r>   -65.0204    26.0458     7.3113 </r>
       <r>   -64.7606   117.1576    37.7474 </r>
       <r>   -64.5008   206.1997    91.3155 </r>
       <r>   -64.2410   225.1693   149.8116 </r>
       <r>   -63.9812   143.3970   187.0644 </r>
       <r>   -63.7214    60.6113   202.8104 </r>
       <r>   -63.4616    42.0417   213.7323 </r>
       <r>   -63.2018    25.0376   220.2368 </r>
       <r>   -62.9421     6.5279   221.9327 </r>
       <r>   -62.6823     0.2586   221.9998 </r>
       <r>   -62.4225     0.0007   222.0000 </r>
       <r>   -62.1627     0.0000   222.0000 </r>
       <r>   -61.9029     0.0000   222.0000 </r>
       <r>   -61.6431     0.0000   222.0000 </r>
       <r>   -61.3833     0.0000   222.0000 </r>
       <r>   -61.1235     0.0000   222.0000 </r>
       <r>   -60.8638     0.0000   222.0000 </r>
       <r>   -60.6040     0.0000   222.0000 </r>
       <r>   -60.3442     0.0000   222.0000 </r>
       <r>   -60.0844     0.0000   222.0000 </r>
       <r>   -59.8246     0.0000   222.0000 </r>
       <r>   -59.5648     0.0000   222.0000 </r>
       <r>   -59.3050     0.0000   222.0000 </r>
       <r>   -59.0452     0.0000   222.0000 </r>
       <r>   -58.7855     0.0000   222.0000 </r>
       <r>   -58.5257     0.0000   222.0000 </r>
       <r>   -58.2659     0.0000   222.0000 </r>
       <r>   -58.0061     0.0000   222.0000 </r>
       <r>   -57.7463     0.0000   222.0000 </r>
       <r>   -57.4865     0.0000   222.0000 </r>
       <r>   -57.2267     0.0000   222.0000 </r>
       <r>   -56.9669     0.0000   222.0000 </r>
       <r>   -56.7072     0.0000   222.0000 </r>
       <r>   -56.4474     0.0000   222.0000 </r>
       <r>   -56.1876     0.0000   222.0000 </r>
       <r>   -55.9278     0.0000   222.0000 </r>
       <r>   -55.6680     0.0000   222.0000 </r>
       <r>   -55.4082     0.0000   222.0000 </r>
       <r>   -55.1484     0.0000   222.0000 </r>
       <r>   -54.8886     0.0000   222.0000 </r>
       <r>   -54.6289     0.0000   222.0000 </r>
       <r>   -54.3691     0.0000   222.0000 </r>
       <r>   -54.1093     0.0000   222.0000 </r>
       <r>   -53.8495     0.0000   222.0000 </r>
       <r>   -53.5897     0.0000   222.0000 </r>
       <r>   -53.3299     0.0000   222.0000 </r>
       <r>   -53.0701     0.0000   222.0000 </r>
       <r>   -52.8103     0.0000   222.0000 </r>
       <r>   -52.5506     0.0000   222.0000 </r>
       <r>   -52.2908     0.0000   222.0000 </r>
       <r>   -52.0310     0.0000   222.0000 </r>
       <r>   -51.7712     0.0000   222.0000 </r>
       <r>   -51.5114     0.0000   222.0000 </r>
       <r>   -51.2516     0.0000   222.0000 </r>
       <r>   -50.9918     0.0000   222.0000 </r>
       <r>   -50.7321     0.0000   222.0000 </r>
       <r>   -50.4723     0.0000   222.0000 </r>
       <r>   -50.2125     0.0000   222.0000 </r>
       <r>   -49.9527     0.0000   222.0000 </r>
       <r>   -49.6929     0.0000   222.0000 </r>
       <r>   -49.4331     0.0000   222.0000 </r>
       <r>   -49.1733     0.0000   222.0000 </r>
       <r>   -48.9135     0.0000   222.0000 </r>
       <r>   -48.6538     0.0000   222.0000 </r>
       <r>   -48.3940     0.0000   222.0000 </r>
       <r>   -48.1342     0.0000   222.0000 </r>
       <r>   -47.8744     0.0000   222.0000 </r>
       <r>   -47.6146     0.0000   222.0000 </r>
       <r>   -47.3548     0.0000   222.0000 </r>
       <r>   -47.0950     0.0000   222.0000 </r>
       <r>   -46.8352     0.0000   222.0000 </r>
       <r>   -46.5755     0.0000   222.0000 </r>
       <r>   -46.3157     0.0000   222.0000 </r>
       <r>   -46.0559     0.0000   222.0000 </r>
       <r>   -45.7961     0.0000   222.0000 </r>
       <r>   -45.5363     0.0000   222.0000 </r>
       <r>   -45.2765     0.0000   222.0000 </r>
       <r>   -45.0167     0.0000   222.0000 </r>
       <r>   -44.7569     0.0000   222.0000 </r>
       <r>   -44.4972     0.0000   222.0000 </r>
       <r>   -44.2374     0.0000   222.0000 </r>
       <r>   -43.9776     0.0000   222.0000 </r>
       <r>   -43.7178     0.0000   222.0000 </r>
       <r>   -43.4580     0.0000   222.0000 </r>
       <r>   -43.1982     0.0000   222.0000 </r>
       <r>   -42.9384     0.0000   222.0000 </r>
       <r>   -42.6786     0.0000   222.0000 </r>
       <r>   -42.4189     0.0000   222.0000 </r>
       <r>   -42.1591     0.0000   222.0000 </r>
       <r>   -41.8993     0.0000   222.0000 </r>
       <r>   -41.6395     0.0000   222.0000 </r>
       <r>   -41.3797     0.0000   222.0000 </r>
       <r>   -41.1199     0.0000   222.0000 </r>
       <r>   -40.8601     0.0000   222.0000 </r>
       <r>   -40.6003     0.0000   222.0000 </r>
       <r>   -40.3406     0.0000   222.0000 </r>
       <r>   -40.0808     0.0000   222.0000 </r>
       <r>   -39.8210     0.0000   222.0000 </r>
       <r>   -39.5612     0.0000   222.0000 </r>
       <r>   -39.3014     0.0000   222.0000 </r>
       <r>   -39.0416     0.0000   222.0000 </r>
       <r>   -38.7818     0.0000   222.0000 </r>
       <r>   -38.5220     0.0000   222.0000 </r>
       <r>   -38.2623     0.0000   222.0000 </r>
       <r>   -38.0025     0.0000   222.0000 </r>
       <r>   -37.7427     0.0000   222.0000 </r>
       <r>   -37.4829     0.0000   222.0000 </r>
       <r>   -37.2231     0.0000   222.0000 </r>
       <r>   -36.9633     0.0000   222.0000 </r>
       <r>   -36.7035     0.0000   222.0000 </r>
       <r>   -36.4437     0.0000   222.0000 </r>
       <r>   -36.1840     0.0000   222.0000 </r>
       <r>   -35.9242     0.0000   222.0000 </r>
       <r>   -35.6644     0.0000   222.0000 </r>
       <r>   -35.4046     0.0000   222.0000 </r>
       <r>   -35.1448     0.0000   222.0000 </r>
       <r>   -34.8850     0.0000   222.0000 </r>
       <r>   -34.6252     0.0000   222.0000 </r>
       <r>   -34.3654     0.0000   222.0000 </r>
       <r>   -34.1057     0.0000   222.0000 </r>
       <r>   -33.8459     0.0000   222.0000 </r>
       <r>   -33.5861     0.0000   222.0000 </r>
       <r>   -33.3263     0.0000   222.0000 </r>
       <r>   -33.0665     0.0000   222.0000 </r>
       <r>   -32.8067     0.0000   222.0000 </r>
       <r>   -32.5469     0.0000   222.0000 </r>
       <r>   -32.2871     0.0000   222.0000 </r>
       <r>   -32.0274     0.0000   222.0000 </r>
       <r>   -31.7676     0.0000   222.0000 </r>
       <r>   -31.5078     0.0000   222.0000 </r>
       <r>   -31.2480     0.0000   222.0000 </r>
       <r>   -30.9882     0.0000   222.0000 </r>
       <r>   -30.7284     0.0000   222.0000 </r>
       <r>   -30.4686     0.0000   222.0000 </r>
       <r>   -30.2088     0.0000   222.0000 </r>
       <r>   -29.9491     0.0000   222.0000 </r>
       <r>   -29.6893     0.0000   222.0000 </r>
       <r>   -29.4295     0.0000   222.0000 </r>
       <r>   -29.1697     0.0000   222.0000 </r>
       <r>   -28.9099     0.0000   222.0000 </r>
       <r>   -28.6501     0.0000   222.0000 </r>
       <r>   -28.3903     0.0000   222.0000 </r>
       <r>   -28.1305     0.0000   222.0000 </r>
       <r>   -27.8708     0.0000   222.0000 </r>
       <r>   -27.6110     0.0000   222.0000 </r>
       <r>   -27.3512     0.0000   222.0000 </r>
       <r>   -27.0914     0.0000   222.0000 </r>
       <r>   -26.8316     0.0000   222.0000 </r>
       <r>   -26.5718     0.0000   222.0000 </r>
       <r>   -26.3120     0.0000   222.0000 </r>
       <r>   -26.0522     0.0000   222.0000 </r>
       <r>   -25.7925     0.0000   222.0000 </r>
       <r>   -25.5327     0.0000   222.0000 </r>
       <r>   -25.2729     0.0000   222.0000 </r>
       <r>   -25.0131     0.0000   222.0000 </r>
       <r>   -24.7533     0.0000   222.0000 </r>
       <r>   -24.4935     0.0000   222.0000 </r>
       <r>   -24.2337     0.0000   222.0000 </r>
       <r>   -23.9739     0.0000   222.0000 </r>
       <r>   -23.7142     0.0000   222.0000 </r>
       <r>   -23.4544     0.0000   222.0000 </r>
       <r>   -23.1946     0.0000   222.0000 </r>
       <r>   -22.9348     0.0000   222.0000 </r>
       <r>   -22.6750     0.0000   222.0000 </r>
       <r>   -22.4152     0.0000   222.0000 </r>
       <r>   -22.1554     0.0000   222.0000 </r>
       <r>   -21.8956     0.0000   222.0000 </r>
       <r>   -21.6359     0.0000   222.0000 </r>
       <r>   -21.3761     0.0000   222.0000 </r>
       <r>   -21.1163     0.0000   222.0000 </r>
       <r>   -20.8565     0.0000   222.0000 </r>
       <r>   -20.5967     0.0000   222.0000 </r>
       <r>   -20.3369     0.0000   222.0000 </r>
       <r>   -20.0771     0.0000   222.0000 </r>
       <r>   -19.8174     0.0000   222.0000 </r>
       <r>   -19.5576     0.0000   222.0000 </r>
       <r>   -19.2978     0.0000   222.0000 </r>
       <r>   -19.0380     0.0000   222.0000 </r>
       <r>   -18.7782     0.0000   222.0000 </r>
       <r>   -18.5184     0.0000   222.0000 </r>
       <r>   -18.2586     0.0000   222.0000 </r>
       <r>   -17.9988     0.0000   222.0000 </r>
       <r>   -17.7391     0.0000   222.0000 </r>
       <r>   -17.4793     0.0000   222.0000 </r>
       <r>   -17.2195     0.0000   222.0000 </r>
       <r>   -16.9597     0.0064   222.0017 </r>
       <r>   -16.6999     0.7328   222.1921 </r>
       <r>   -16.4401     5.1309   223.5250 </r>
       <r>   -16.1803     7.2171   225.3999 </r>
       <r>   -15.9205     8.0312   227.4863 </r>
       <r>   -15.6608    10.3535   230.1760 </r>
       <r>   -15.4010    17.1792   234.6390 </r>
       <r>   -15.1412    16.8673   239.0209 </r>
       <r>   -14.8814    23.9256   245.2365 </r>
       <r>   -14.6216    27.5980   252.4061 </r>
       <r>   -14.3618    31.7232   260.6474 </r>
       <r>   -14.1020    30.0235   268.4471 </r>
       <r>   -13.8422    25.5022   275.0723 </r>
       <r>   -13.5825    30.2229   282.9238 </r>
       <r>   -13.3227    25.7351   289.6094 </r>
       <r>   -13.0629    13.8497   293.2074 </r>
       <r>   -12.8031     6.1015   294.7925 </r>
       <r>   -12.5433     4.2347   295.8926 </r>
       <r>   -12.2835     0.4111   295.9994 </r>
       <r>   -12.0237     0.0022   296.0000 </r>
       <r>   -11.7639     0.0000   296.0000 </r>
       <r>   -11.5042     0.0000   296.0000 </r>
       <r>   -11.2444     0.0000   296.0000 </r>
       <r>   -10.9846     0.0000   296.0000 </r>
       <r>   -10.7248     0.0000   296.0000 </r>
       <r>   -10.4650     0.0000   296.0000 </r>
       <r>   -10.2052     0.0000   296.0000 </r>
       <r>    -9.9454     0.0000   296.0000 </r>
       <r>    -9.6856     0.0000   296.0000 </r>
       <r>    -9.4259     0.0000   296.0000 </r>
       <r>    -9.1661     0.0000   296.0000 </r>
       <r>    -8.9063     0.0000   296.0000 </r>
       <r>    -8.6465     0.0395   296.0103 </r>
       <r>    -8.3867     2.0677   296.5474 </r>
       <r>    -8.1269     9.2757   298.9572 </r>
       <r>    -7.8671    15.3557   302.9464 </r>
       <r>    -7.6073    33.0833   311.5410 </r>
       <r>    -7.3476    32.4013   319.9584 </r>
       <r>    -7.0878    43.8275   331.3443 </r>
       <r>    -6.8280    41.3885   342.0965 </r>
       <r>    -6.5682    43.3735   353.3644 </r>
       <r>    -6.3084    44.9627   365.0451 </r>
       <r>    -6.0486    51.4944   378.4227 </r>
       <r>    -5.7888    54.7327   392.6416 </r>
       <r>    -5.5290    59.5068   408.1007 </r>
       <r>    -5.2693    65.0098   424.9894 </r>
       <r>    -5.0095    66.4356   442.2486 </r>
       <r>    -4.7497    64.1296   458.9086 </r>
       <r>    -4.4899    57.9974   473.9756 </r>
       <r>    -4.2301    52.4607   487.6042 </r>
       <r>    -3.9703    44.6407   499.2013 </r>
       <r>    -3.7105    45.8190   511.1045 </r>
       <r>    -3.4507    47.6126   523.4737 </r>
       <r>    -3.1910    65.4074   540.4657 </r>
       <r>    -2.9312    80.9614   561.4985 </r>
       <r>    -2.6714    95.1262   586.2111 </r>
       <r>    -2.4116   121.2236   617.7034 </r>
       <r>    -2.1518   142.1950   654.6439 </r>
       <r>    -1.8920   121.6847   686.2560 </r>
       <r>    -1.6322    96.0150   711.1995 </r>
       <r>    -1.3724    89.5309   734.4585 </r>
       <r>    -1.1127    83.3133   756.1022 </r>
       <r>    -0.8529    62.7911   772.4146 </r>
       <r>    -0.5931    64.1306   789.0749 </r>
       <r>    -0.3333    63.2398   805.5038 </r>
       <r>    -0.0735    55.5418   819.9329 </r>
       <r>     0.1863    57.6407   834.9072 </r>
       <r>     0.4461    44.4528   846.4555 </r>
       <r>     0.7059    28.4506   853.8466 </r>
       <r>     0.9656    38.3148   863.8003 </r>
       <r>     1.2254    47.2828   876.0838 </r>
       <r>     1.4852    28.3001   883.4358 </r>
       <r>     1.7450    14.5361   887.2121 </r>
       <r>     2.0048     3.9320   888.2336 </r>
       <r>     2.2646     4.9848   889.5286 </r>
       <r>     2.5244     4.3418   890.6565 </r>
       <r>     2.7842     7.9965   892.7339 </r>
       <r>     3.0439    15.2086   896.6849 </r>
       <r>     3.3037    13.5068   900.1938 </r>
       <r>     3.5635    11.0316   903.0597 </r>
       <r>     3.8233    16.9128   907.4534 </r>
       <r>     4.0831    18.9110   912.3662 </r>
       <r>     4.3429    23.8726   918.5680 </r>
       <r>     4.6027    30.8831   926.5911 </r>
       <r>     4.8625    33.1941   935.2145 </r>
       <r>     5.1222    38.2616   945.1543 </r>
       <r>     5.3820    42.8949   956.2979 </r>
       <r>     5.6418    49.2234   969.0855 </r>
       <r>     5.9016    24.5605   975.4660 </r>
       <r>     6.1614     2.0404   975.9961 </r>
       <r>     6.4212     0.0150   976.0000 </r>
       <r>     6.6810     0.0000   976.0000 </r>
       <r>     6.9408     0.0000   976.0000 </r>
       <r>     7.2005     0.0000   976.0000 </r>
       <r>     7.4603     0.0000   976.0000 </r>
       <r>     7.7201     0.0000   976.0000 </r>
       <r>     7.9799     0.0000   976.0000 </r>
       <r>     8.2397     0.0000   976.0000 </r>
       <r>     8.4995     0.0000   976.0000 </r>
       <r>     8.7593     0.0000   976.0000 </r>
       <r>     9.0190     0.0000   976.0000 </r>
       <r>     9.2788     0.0000   976.0000 </r>
      </set>
     </set>
    </array>
   </total>
  </dos>
 </calculation>
 <structure name="finalpos" >
  <crystal>
   <varray name="basis" >
    <v>      16.88469405       0.00000000       0.00000000 </v>
    <v>       0.00000000       9.57841000       0.00000000 </v>
    <v>       0.00000000       0.00000000      16.65464569 </v>
   </varray>
   <i name="volume">   2693.53123734 </i>
   <varray name="rec_basis" >
    <v>       0.05922524       0.00000000       0.00000000 </v>
    <v>       0.00000000       0.10440146       0.00000000 </v>
    <v>       0.00000000       0.00000000       0.06004331 </v>
   </varray>
  </crystal>
  <varray name="positions" >
   <v>       0.78004630       0.14529696       0.12347080 </v>
   <v>       0.79494681       0.14530013       0.28170657 </v>
   <v>       0.21663022       0.65728921       0.09843466 </v>
   <v>       0.29733028       0.64529696       0.21607389 </v>
   <v>       0.41632139       0.14537216       0.11301518 </v>
   <v>       0.46975828       0.14529696       0.24694159 </v>
   <v>       0.95247430       0.64529696       0.15433850 </v>
   <v>       0.97517334       0.64529475       0.31787469 </v>
   <v>       0.18339023       0.14491757       0.04973624 </v>
   <v>       0.12490229       0.14529696       0.18520619 </v>
   <v>       0.11532826       0.14527286       0.32928881 </v>
   <v>       0.64218627       0.64529696       0.27780929 </v>
   <v>       0.91037713       0.00476051       0.12032667 </v>
   <v>       0.94357131       0.01261797       0.26993094 </v>
   <v>       0.42486675       0.51319396       0.19160760 </v>
   <v>       0.46327618       0.47425142       0.33247712 </v>
   <v>       0.56704419       0.01463278       0.07042565 </v>
   <v>       0.59729475       0.01319396       0.22247530 </v>
   <v>       0.08001077       0.51319396       0.12987220 </v>
   <v>       0.11168263       0.50707812       0.29566792 </v>
   <v>       0.25243876       0.01319396       0.16073990 </v>
   <v>       0.28929262       0.98835879       0.31166747 </v>
   <v>       0.77530220       0.43205931       0.12088976 </v>
   <v>       0.76972274       0.51319396       0.25334300 </v>
   <v>       0.91039776       0.28590051       0.12033011 </v>
   <v>       0.94357773       0.27799544       0.26992748 </v>
   <v>       0.36305547       0.63864451       0.07417657 </v>
   <v>       0.42486675       0.77739996       0.19160760 </v>
   <v>       0.46144051       0.81428854       0.33307848 </v>
   <v>       0.56224979       0.26332859       0.06834928 </v>
   <v>       0.59729475       0.27739996       0.22247530 </v>
   <v>       0.08001077       0.77739996       0.12987220 </v>
   <v>       0.11173475       0.78355008       0.29557400 </v>
   <v>       0.25243876       0.27739996       0.16073990 </v>
   <v>       0.29004178       0.30510314       0.31017888 </v>
   <v>       0.77507971       0.85887671       0.12083548 </v>
   <v>       0.76972274       0.77739996       0.25334300 </v>
   <v>       0.99701349       0.14530438       0.35140028 </v>
   <v>       0.99146120       0.14529696       0.18349304 </v>
   <v>       0.47731931       0.64482549       0.10854368 </v>
   <v>       0.50874518       0.64529696       0.27609614 </v>
   <v>       0.64660522       0.14529696       0.12175764 </v>
   <v>       0.67333595       0.14526004       0.28699453 </v>
   <v>       0.11194089       0.64517710       0.03819621 </v>
   <v>       0.16388920       0.64529696       0.21436074 </v>
   <v>       0.07784530       0.64538799       0.38284517 </v>
   <v>       0.30188710       0.14530587       0.07078611 </v>
   <v>       0.33631719       0.14529696       0.24522844 </v>
   <v>       0.81903321       0.64529696       0.15262534 </v>
   <v>       0.85101653       0.64532512       0.31331561 </v>
   <v>       0.81737983       0.29276028       0.04027617 </v>
   <v>       0.82906105       0.31351196       0.21464750 </v>
   <v>       0.31177707       0.81351196       0.12204440 </v>
   <v>       0.34724668       0.80200679       0.29276665 </v>
   <v>       0.48420507       0.31351196       0.15291210 </v>
   <v>       0.52295849       0.29331321       0.32122085 </v>
   <v>       0.00148905       0.81351196       0.24551520 </v>
   <v>       0.96745345       0.82106649       0.08345760 </v>
   <v>       0.13984442       0.31866084       0.10660446 </v>
   <v>       0.17391704       0.31351196       0.27638290 </v>
   <v>       0.66684102       0.82661109       0.18980527 </v>
   <v>       0.69616835       0.78554307       0.34935619 </v>
   <v>       0.29832249       0.48265364       0.12839305 </v>
   <v>       0.34871614       0.49144111       0.29396244 </v>
   <v>       0.81741541       0.99795680       0.04020754 </v>
   <v>       0.82906105       0.97708196       0.21464750 </v>
   <v>       0.00148905       0.47708196       0.24551520 </v>
   <v>       0.96756581       0.46954099       0.08347790 </v>
   <v>       0.48420507       0.97708196       0.15291210 </v>
   <v>       0.52185803       0.99440304       0.32038539 </v>
   <v>       0.66695851       0.46430364       0.19013463 </v>
   <v>       0.69618288       0.50513479       0.34941667 </v>
   <v>       0.14093862       0.97028915       0.10663881 </v>
   <v>       0.17391704       0.97708196       0.27638290 </v>
  </varray>
 </structure>
</modeling>
