"Millerite NiS"                         
           1
    16.884694    0.000000    0.000000
     0.000000    9.578410    0.000000
     0.000000    0.000000   16.654646
   Ty   Ty
  37  37
Direct configuration=     1
   0.78004630  0.14529696  0.12347080
   0.79494681  0.14530013  0.28170657
   0.21663022  0.65728921  0.09843466
   0.29733028  0.64529696  0.21607389
   0.41632139  0.14537216  0.11301518
   0.46975828  0.14529696  0.24694159
   0.95247430  0.64529696  0.15433850
   0.97517334  0.64529475  0.31787469
   0.18339023  0.14491757  0.04973624
   0.12490229  0.14529696  0.18520619
   0.11532826  0.14527286  0.32928881
   0.64218627  0.64529696  0.27780929
   0.91037713  0.00476051  0.12032667
   0.94357131  0.01261797  0.26993094
   0.42486675  0.51319396  0.19160760
   0.46327618  0.47425142  0.33247712
   0.56704419  0.01463278  0.07042565
   0.59729475  0.01319396  0.22247530
   0.08001077  0.51319396  0.12987220
   0.11168263  0.50707812  0.29566792
   0.25243876  0.01319396  0.16073990
   0.28929262  0.98835879  0.31166747
   0.77530220  0.43205931  0.12088976
   0.76972274  0.51319396  0.25334300
   0.91039776  0.28590051  0.12033011
   0.94357773  0.27799544  0.26992748
   0.36305547  0.63864451  0.07417657
   0.42486675  0.77739996  0.19160760
   0.46144051  0.81428854  0.33307848
   0.56224979  0.26332859  0.06834928
   0.59729475  0.27739996  0.22247530
   0.08001077  0.77739996  0.12987220
   0.11173475  0.78355008  0.29557400
   0.25243876  0.27739996  0.16073990
   0.29004178  0.30510314  0.31017888
   0.77507971  0.85887671  0.12083548
   0.76972274  0.77739996  0.25334300
   0.99701349  0.14530438  0.35140028
   0.99146120  0.14529696  0.18349304
   0.47731931  0.64482549  0.10854368
   0.50874518  0.64529696  0.27609614
   0.64660522  0.14529696  0.12175764
   0.67333595  0.14526004  0.28699453
   0.11194089  0.64517710  0.03819621
   0.16388920  0.64529696  0.21436074
   0.07784530  0.64538799  0.38284517
   0.30188710  0.14530587  0.07078611
   0.33631719  0.14529696  0.24522844
   0.81903321  0.64529696  0.15262534
   0.85101653  0.64532512  0.31331561
   0.81737983  0.29276028  0.04027617
   0.82906105  0.31351196  0.21464750
   0.31177707  0.81351196  0.12204440
   0.34724668  0.80200679  0.29276665
   0.48420507  0.31351196  0.15291210
   0.52295849  0.29331321  0.32122085
   0.00148905  0.81351196  0.24551520
   0.96745345  0.82106649  0.08345760
   0.13984442  0.31866084  0.10660446
   0.17391704  0.31351196  0.27638290
   0.66684102  0.82661109  0.18980527
   0.69616835  0.78554307  0.34935619
   0.29832249  0.48265364  0.12839305
   0.34871614  0.49144111  0.29396244
   0.81741541  0.99795680  0.04020754
   0.82906105  0.97708196  0.21464750
   0.00148905  0.47708196  0.24551520
   0.96756581  0.46954099  0.08347790
   0.48420507  0.97708196  0.15291210
   0.52185803  0.99440304  0.32038539
   0.66695851  0.46430364  0.19013463
   0.69618288  0.50513479  0.34941667
   0.14093862  0.97028915  0.10663881
   0.17391704  0.97708196  0.27638290
