"Millerite NiS"                         
           1
     8.700731   -4.005399    0.000000
     0.000000   11.452784    0.000000
     0.000000    0.000000   19.524154
   Ni   S 
    36    36
Direct configuration=     1
   0.63793592  0.42904558  0.01772508
   0.72899293  0.61115959  0.14593113
   0.82004993  0.79327361  0.27413718
   0.91110694  0.97538762  0.40234323
   0.45636426  0.06590227  0.23140183
   0.54742127  0.24801628  0.35960788
   0.63847828  0.43013030  0.48781392
   0.36530726  0.88378825  0.10319578
   0.00162159  0.15641691  0.06046043
   0.09267859  0.33853093  0.18866648
   0.18373560  0.52064495  0.31687253
   0.27479261  0.70275896  0.44507857
   0.68605153  0.26107081  0.08547070
   0.77710854  0.44318482  0.21367675
   0.86816555  0.62529884  0.34188279
   0.95922256  0.80741285  0.47008884
   0.59553689  0.08004151  0.42735349
   0.32236586  0.53369947  0.04273535
   0.41342287  0.71581348  0.17094140
   0.50447988  0.89792750  0.29914744
   0.14079421  0.17055616  0.25641209
   0.23185122  0.35267018  0.38461814
   0.04973720  0.98844215  0.12820605
   0.95868019  0.80632813  0.00000000
   0.08425593  0.79327361  0.27413718
   0.17531294  0.97538762  0.40234323
   0.90214192  0.42904558  0.01772508
   0.99319893  0.61115959  0.14593113
   0.72057026  0.06590227  0.23140183
   0.81162727  0.24801628  0.35960788
   0.90268428  0.43013030  0.48781392
   0.62951326  0.88378825  0.10319578
   0.26582759  0.15641691  0.06046043
   0.35688459  0.33853093  0.18866648
   0.44794160  0.52064495  0.31687253
   0.53899861  0.70275896  0.44507857
   0.01340710  0.57935194  0.26448574
   0.10446411  0.76146596  0.39269179
   0.83129308  0.21512391  0.00807365
   0.92235009  0.39723793  0.13627969
   0.74077844  0.03409462  0.34995644
   0.83183545  0.21620863  0.47816249
   0.55866442  0.66986659  0.09354435
   0.64972143  0.85198060  0.22175039
   0.28603576  0.12460926  0.17901504
   0.37709277  0.30672328  0.30722109
   0.46814978  0.48883730  0.43542714
   0.19497875  0.94249525  0.05080900
   0.13425250  0.15747274  0.43463311
   0.04319549  0.97535872  0.30642707
   0.86108147  0.61113069  0.05001497
   0.95213848  0.79324471  0.17822102
   0.58845281  0.06587337  0.13548567
   0.67950982  0.24798738  0.26369172
   0.77056683  0.43010140  0.39189777
   0.49739580  0.88375935  0.00727963
   0.22476714  0.33850203  0.09275032
   0.31582415  0.52061604  0.22095637
   0.40688116  0.70273006  0.34916242
   0.49793817  0.88484407  0.47736846
   0.49486308  0.21512391  0.00807365
   0.58592009  0.39723793  0.13627969
   0.67697710  0.57935194  0.26448574
   0.76803411  0.76146596  0.39269179
   0.40434844  0.03409462  0.34995644
   0.49540545  0.21620863  0.47816249
   0.22223442  0.66986659  0.09354435
   0.31329143  0.85198060  0.22175039
   0.04066277  0.30672328  0.30722109
   0.13171978  0.48883730  0.43542714
   0.94960576  0.12460926  0.17901504
   0.85854875  0.94249525  0.05080900
