LAMMPS (5 Jun 2019)
OMP_NUM_THREADS environment is not set. Defaulting to 1 thread. (../comm.cpp:88)
  using 1 OpenMP thread(s) per MPI task
Reading data file ...
  triclinic box = (0 0 0) to (9.57841 11.2565 17.7114) with tilt (0 0 0)
  1 by 1 by 1 MPI processor grid
  reading atoms ...
  60 atoms
  read_data CPU = 0.000734616 secs
33 atoms in group bulk
WARNING: Using 'neigh_modify every 1 delay 0 check yes' setting during minimization (../min.cpp:168)
Neighbor list info ...
  update every 1 steps, delay 0 steps, check yes
  max neighbors/atom: 2000, page size: 100000
  master list distance cutoff = 8.5
  ghost atom cutoff = 8.5
  binsize = 4.25, bins = 3 3 5
  1 neighbor lists, perpetual/occasional/extra = 1 0 0
  (1) pair eam/alloy, perpetual
      attributes: half, newton on
      pair build: half/bin/newton/tri
      stencil: half/bin/3d/newton/tri
      bin: standard
Setting up cg style minimization ...
  Unit style    : metal
  Current step  : 0
Per MPI rank memory allocation (min/avg/max) = 4.109 | 4.109 | 4.109 Mbytes
Step Temp E_pair E_mol TotEng Press 
       0            0   -252.31247            0   -252.31247   -113305.18 
      28            0   -271.75835            0   -271.75835   -24521.539 
Loop time of 0.0129413 on 1 procs for 28 steps with 60 atoms

96.7% CPU use with 1 MPI tasks x 1 OpenMP threads

Minimization stats:
  Stopping criterion = energy tolerance
  Energy initial, next-to-last, final = 
        -252.312468236     -271.755862837     -271.758349961
  Force two-norm initial, final = 11.8415 0.186888
  Force max component initial, final = 3.70643 0.0691849
  Final line search alpha, max atom move = 0.720914 0.0498763
  Iterations, force evaluations = 28 36

MPI task timing breakdown:
Section |  min time  |  avg time  |  max time  |%varavg| %total
---------------------------------------------------------------
Pair    | 0.011534   | 0.011534   | 0.011534   |   0.0 | 89.13
Neigh   | 0.00074786 | 0.00074786 | 0.00074786 |   0.0 |  5.78
Comm    | 0.00032966 | 0.00032966 | 0.00032966 |   0.0 |  2.55
Output  | 0          | 0          | 0          |   0.0 |  0.00
Modify  | 2.5172e-05 | 2.5172e-05 | 2.5172e-05 |   0.0 |  0.19
Other   |            | 0.0003044  |            |       |  2.35

Nlocal:    60 ave 60 max 60 min
Histogram: 1 0 0 0 0 0 0 0 0 0
Nghost:    804 ave 804 max 804 min
Histogram: 1 0 0 0 0 0 0 0 0 0
Neighs:    3326 ave 3326 max 3326 min
Histogram: 1 0 0 0 0 0 0 0 0 0

Total # of neighbors = 3326
Ave neighs/atom = 55.4333
Neighbor list builds = 2
Dangerous builds = 0
System init for write_data ...
Total wall time: 0:00:00
