  96  96   0   0
  0.2109074E+02  0.6278560E-09  0.1125646E-08  0.2915682E-08  0.5000000E-15
  1.000000000000000E-004
  CAR 
 "Millerite NiS"                         
     13.01879070    -64.70940977  301      3.28459854      1.00000000
    -64.709  0.0000E+00  0.0000E+00
    -64.450  0.0000E+00  0.0000E+00
    -64.191  0.0000E+00  0.0000E+00
    -63.932  0.0000E+00  0.0000E+00
    -63.673  0.0000E+00  0.0000E+00
    -63.414  0.0000E+00  0.0000E+00
    -63.155  0.0000E+00  0.0000E+00
    -62.896  0.0000E+00  0.0000E+00
    -62.637  0.0000E+00  0.0000E+00
    -62.378  0.0000E+00  0.0000E+00
    -62.118  0.1613E-08  0.4179E-09
    -61.859  0.1027E-03  0.2661E-04
    -61.600  0.2695E+00  0.6985E-01
    -61.341  0.3385E+02  0.8840E+01
    -61.082  0.2896E+03  0.8387E+02
    -60.823  0.3386E+03  0.1716E+03
    -60.564  0.2280E+03  0.2307E+03
    -60.305  0.9408E+02  0.2551E+03
    -60.046  0.3410E+02  0.2639E+03
    -59.787  0.5030E+02  0.2769E+03
    -59.528  0.3496E+02  0.2860E+03
    -59.268  0.7253E+01  0.2879E+03
    -59.009  0.4815E+00  0.2880E+03
    -58.750  0.2720E-02  0.2880E+03
    -58.491  0.6879E-06  0.2880E+03
    -58.232  0.6765E-11  0.2880E+03
    -57.973  0.0000E+00  0.2880E+03
    -57.714  0.0000E+00  0.2880E+03
    -57.455  0.0000E+00  0.2880E+03
    -57.196  0.0000E+00  0.2880E+03
    -56.937  0.0000E+00  0.2880E+03
    -56.677  0.0000E+00  0.2880E+03
    -56.418  0.0000E+00  0.2880E+03
    -56.159  0.0000E+00  0.2880E+03
    -55.900  0.0000E+00  0.2880E+03
    -55.641  0.0000E+00  0.2880E+03
    -55.382  0.0000E+00  0.2880E+03
    -55.123  0.0000E+00  0.2880E+03
    -54.864  0.0000E+00  0.2880E+03
    -54.605  0.0000E+00  0.2880E+03
    -54.346  0.0000E+00  0.2880E+03
    -54.087  0.0000E+00  0.2880E+03
    -53.827  0.0000E+00  0.2880E+03
    -53.568  0.0000E+00  0.2880E+03
    -53.309  0.0000E+00  0.2880E+03
    -53.050  0.0000E+00  0.2880E+03
    -52.791  0.0000E+00  0.2880E+03
    -52.532  0.0000E+00  0.2880E+03
    -52.273  0.0000E+00  0.2880E+03
    -52.014  0.0000E+00  0.2880E+03
    -51.755  0.0000E+00  0.2880E+03
    -51.496  0.0000E+00  0.2880E+03
    -51.237  0.0000E+00  0.2880E+03
    -50.977  0.0000E+00  0.2880E+03
    -50.718  0.0000E+00  0.2880E+03
    -50.459  0.0000E+00  0.2880E+03
    -50.200  0.0000E+00  0.2880E+03
    -49.941  0.0000E+00  0.2880E+03
    -49.682  0.0000E+00  0.2880E+03
    -49.423  0.0000E+00  0.2880E+03
    -49.164  0.0000E+00  0.2880E+03
    -48.905  0.0000E+00  0.2880E+03
    -48.646  0.0000E+00  0.2880E+03
    -48.386  0.0000E+00  0.2880E+03
    -48.127  0.0000E+00  0.2880E+03
    -47.868  0.0000E+00  0.2880E+03
    -47.609  0.0000E+00  0.2880E+03
    -47.350  0.0000E+00  0.2880E+03
    -47.091  0.0000E+00  0.2880E+03
    -46.832  0.0000E+00  0.2880E+03
    -46.573  0.0000E+00  0.2880E+03
    -46.314  0.0000E+00  0.2880E+03
    -46.055  0.0000E+00  0.2880E+03
    -45.796  0.0000E+00  0.2880E+03
    -45.536  0.0000E+00  0.2880E+03
    -45.277  0.0000E+00  0.2880E+03
    -45.018  0.0000E+00  0.2880E+03
    -44.759  0.0000E+00  0.2880E+03
    -44.500  0.0000E+00  0.2880E+03
    -44.241  0.0000E+00  0.2880E+03
    -43.982  0.0000E+00  0.2880E+03
    -43.723  0.0000E+00  0.2880E+03
    -43.464  0.0000E+00  0.2880E+03
    -43.205  0.0000E+00  0.2880E+03
    -42.946  0.0000E+00  0.2880E+03
    -42.686  0.0000E+00  0.2880E+03
    -42.427  0.0000E+00  0.2880E+03
    -42.168  0.0000E+00  0.2880E+03
    -41.909  0.0000E+00  0.2880E+03
    -41.650  0.0000E+00  0.2880E+03
    -41.391  0.0000E+00  0.2880E+03
    -41.132  0.0000E+00  0.2880E+03
    -40.873  0.0000E+00  0.2880E+03
    -40.614  0.0000E+00  0.2880E+03
    -40.355  0.0000E+00  0.2880E+03
    -40.095  0.0000E+00  0.2880E+03
    -39.836  0.0000E+00  0.2880E+03
    -39.577  0.0000E+00  0.2880E+03
    -39.318  0.0000E+00  0.2880E+03
    -39.059  0.0000E+00  0.2880E+03
    -38.800  0.0000E+00  0.2880E+03
    -38.541  0.0000E+00  0.2880E+03
    -38.282  0.0000E+00  0.2880E+03
    -38.023  0.0000E+00  0.2880E+03
    -37.764  0.0000E+00  0.2880E+03
    -37.505  0.0000E+00  0.2880E+03
    -37.245  0.0000E+00  0.2880E+03
    -36.986  0.0000E+00  0.2880E+03
    -36.727  0.0000E+00  0.2880E+03
    -36.468  0.0000E+00  0.2880E+03
    -36.209  0.0000E+00  0.2880E+03
    -35.950  0.0000E+00  0.2880E+03
    -35.691  0.0000E+00  0.2880E+03
    -35.432  0.0000E+00  0.2880E+03
    -35.173  0.0000E+00  0.2880E+03
    -34.914  0.0000E+00  0.2880E+03
    -34.655  0.0000E+00  0.2880E+03
    -34.395  0.0000E+00  0.2880E+03
    -34.136  0.0000E+00  0.2880E+03
    -33.877  0.0000E+00  0.2880E+03
    -33.618  0.0000E+00  0.2880E+03
    -33.359  0.0000E+00  0.2880E+03
    -33.100  0.0000E+00  0.2880E+03
    -32.841  0.0000E+00  0.2880E+03
    -32.582  0.0000E+00  0.2880E+03
    -32.323  0.0000E+00  0.2880E+03
    -32.064  0.0000E+00  0.2880E+03
    -31.804  0.0000E+00  0.2880E+03
    -31.545  0.0000E+00  0.2880E+03
    -31.286  0.0000E+00  0.2880E+03
    -31.027  0.0000E+00  0.2880E+03
    -30.768  0.0000E+00  0.2880E+03
    -30.509  0.0000E+00  0.2880E+03
    -30.250  0.0000E+00  0.2880E+03
    -29.991  0.0000E+00  0.2880E+03
    -29.732  0.0000E+00  0.2880E+03
    -29.473  0.0000E+00  0.2880E+03
    -29.214  0.0000E+00  0.2880E+03
    -28.954  0.0000E+00  0.2880E+03
    -28.695  0.0000E+00  0.2880E+03
    -28.436  0.0000E+00  0.2880E+03
    -28.177  0.0000E+00  0.2880E+03
    -27.918  0.0000E+00  0.2880E+03
    -27.659  0.0000E+00  0.2880E+03
    -27.400  0.0000E+00  0.2880E+03
    -27.141  0.0000E+00  0.2880E+03
    -26.882  0.0000E+00  0.2880E+03
    -26.623  0.0000E+00  0.2880E+03
    -26.363  0.0000E+00  0.2880E+03
    -26.104  0.0000E+00  0.2880E+03
    -25.845  0.0000E+00  0.2880E+03
    -25.586  0.0000E+00  0.2880E+03
    -25.327  0.0000E+00  0.2880E+03
    -25.068  0.0000E+00  0.2880E+03
    -24.809  0.0000E+00  0.2880E+03
    -24.550  0.0000E+00  0.2880E+03
    -24.291  0.0000E+00  0.2880E+03
    -24.032  0.0000E+00  0.2880E+03
    -23.773  0.0000E+00  0.2880E+03
    -23.513  0.0000E+00  0.2880E+03
    -23.254  0.0000E+00  0.2880E+03
    -22.995  0.0000E+00  0.2880E+03
    -22.736  0.0000E+00  0.2880E+03
    -22.477  0.0000E+00  0.2880E+03
    -22.218  0.0000E+00  0.2880E+03
    -21.959  0.0000E+00  0.2880E+03
    -21.700  0.0000E+00  0.2880E+03
    -21.441  0.0000E+00  0.2880E+03
    -21.182  0.0000E+00  0.2880E+03
    -20.923  0.0000E+00  0.2880E+03
    -20.663  0.0000E+00  0.2880E+03
    -20.404  0.0000E+00  0.2880E+03
    -20.145  0.0000E+00  0.2880E+03
    -19.886  0.0000E+00  0.2880E+03
    -19.627  0.0000E+00  0.2880E+03
    -19.368  0.0000E+00  0.2880E+03
    -19.109  0.0000E+00  0.2880E+03
    -18.850  0.0000E+00  0.2880E+03
    -18.591  0.0000E+00  0.2880E+03
    -18.332  0.0000E+00  0.2880E+03
    -18.072  0.0000E+00  0.2880E+03
    -17.813  0.0000E+00  0.2880E+03
    -17.554  0.0000E+00  0.2880E+03
    -17.295  0.0000E+00  0.2880E+03
    -17.036  0.0000E+00  0.2880E+03
    -16.777  0.0000E+00  0.2880E+03
    -16.518  0.0000E+00  0.2880E+03
    -16.259  0.0000E+00  0.2880E+03
    -16.000  0.0000E+00  0.2880E+03
    -15.741  0.0000E+00  0.2880E+03
    -15.482  0.0000E+00  0.2880E+03
    -15.222  0.0000E+00  0.2880E+03
    -14.963  0.0000E+00  0.2880E+03
    -14.704  0.0000E+00  0.2880E+03
    -14.445  0.0000E+00  0.2880E+03
    -14.186  0.0000E+00  0.2880E+03
    -13.927  0.8570E-15  0.2880E+03
    -13.668  0.7649E-09  0.2880E+03
    -13.409  0.2269E-04  0.2880E+03
    -13.150  0.2688E-01  0.2880E+03
    -12.891  0.1497E+01  0.2884E+03
    -12.632  0.6548E+01  0.2901E+03
    -12.372  0.7131E+01  0.2919E+03
    -12.113  0.1304E+02  0.2953E+03
    -11.854  0.2044E+02  0.3006E+03
    -11.595  0.1664E+02  0.3049E+03
    -11.336  0.2171E+02  0.3106E+03
    -11.077  0.3278E+02  0.3190E+03
    -10.818  0.4981E+02  0.3319E+03
    -10.559  0.4776E+02  0.3443E+03
    -10.300  0.5496E+02  0.3586E+03
    -10.041  0.4555E+02  0.3704E+03
     -9.781  0.1589E+02  0.3745E+03
     -9.522  0.1474E+02  0.3783E+03
     -9.263  0.6352E+01  0.3799E+03
     -9.004  0.2016E+00  0.3800E+03
     -8.745  0.3293E-03  0.3800E+03
     -8.486  0.2827E-05  0.3800E+03
     -8.227  0.7083E-02  0.3800E+03
     -7.968  0.8476E+00  0.3802E+03
     -7.709  0.7214E+01  0.3821E+03
     -7.450  0.6699E+01  0.3838E+03
     -7.191  0.6662E+00  0.3840E+03
     -6.931  0.4550E-02  0.3840E+03
     -6.672  0.1445E-05  0.3840E+03
     -6.413  0.1815E-10  0.3840E+03
     -6.154  0.0000E+00  0.3840E+03
     -5.895  0.1814E-10  0.3840E+03
     -5.636  0.1725E-05  0.3840E+03
     -5.377  0.6553E-02  0.3840E+03
     -5.118  0.1139E+01  0.3843E+03
     -4.859  0.1272E+02  0.3876E+03
     -4.600  0.2424E+02  0.3939E+03
     -4.341  0.3221E+02  0.4022E+03
     -4.081  0.2412E+02  0.4085E+03
     -3.822  0.3959E+02  0.4187E+03
     -3.563  0.6220E+02  0.4348E+03
     -3.304  0.4999E+02  0.4478E+03
     -3.045  0.4103E+02  0.4584E+03
     -2.786  0.4083E+02  0.4690E+03
     -2.527  0.3373E+02  0.4777E+03
     -2.268  0.3548E+02  0.4869E+03
     -2.009  0.4793E+02  0.4994E+03
     -1.750  0.7069E+02  0.5177E+03
     -1.490  0.7460E+02  0.5370E+03
     -1.231  0.9125E+02  0.5606E+03
     -0.972  0.1194E+03  0.5916E+03
     -0.713  0.9765E+02  0.6169E+03
     -0.454  0.4623E+02  0.6289E+03
     -0.195  0.6226E+02  0.6450E+03
      0.064  0.8166E+02  0.6662E+03
      0.323  0.7852E+02  0.6865E+03
      0.582  0.1145E+03  0.7162E+03
      0.841  0.1554E+03  0.7564E+03
      1.100  0.1310E+03  0.7904E+03
      1.360  0.2039E+03  0.8432E+03
      1.619  0.2369E+03  0.9046E+03
      1.878  0.1670E+03  0.9479E+03
      2.137  0.1415E+03  0.9845E+03
      2.396  0.1016E+03  0.1011E+04
      2.655  0.6778E+02  0.1028E+04
      2.914  0.3734E+02  0.1038E+04
      3.173  0.4360E+02  0.1049E+04
      3.432  0.6954E+02  0.1067E+04
      3.691  0.9668E+02  0.1092E+04
      3.951  0.9573E+02  0.1117E+04
      4.210  0.7337E+02  0.1136E+04
      4.469  0.4678E+02  0.1148E+04
      4.728  0.1964E+02  0.1153E+04
      4.987  0.2043E+01  0.1154E+04
      5.246  0.1984E+01  0.1155E+04
      5.505  0.4909E+01  0.1156E+04
      5.764  0.5971E+01  0.1157E+04
      6.023  0.2190E+02  0.1163E+04
      6.282  0.2998E+02  0.1171E+04
      6.541  0.2355E+02  0.1177E+04
      6.801  0.1315E+02  0.1180E+04
      7.060  0.2454E+02  0.1187E+04
      7.319  0.3349E+02  0.1195E+04
      7.578  0.3320E+02  0.1204E+04
      7.837  0.3319E+02  0.1213E+04
      8.096  0.3310E+02  0.1221E+04
      8.355  0.3523E+02  0.1230E+04
      8.614  0.4531E+02  0.1242E+04
      8.873  0.3824E+02  0.1252E+04
      9.132  0.3576E+02  0.1261E+04
      9.391  0.4273E+02  0.1272E+04
      9.651  0.2744E+02  0.1279E+04
      9.910  0.2592E+01  0.1280E+04
     10.169  0.1834E-01  0.1280E+04
     10.428  0.7011E-05  0.1280E+04
     10.687  0.1201E-09  0.1280E+04
     10.946  0.0000E+00  0.1280E+04
     11.205  0.0000E+00  0.1280E+04
     11.464  0.0000E+00  0.1280E+04
     11.723  0.0000E+00  0.1280E+04
     11.982  0.0000E+00  0.1280E+04
     12.242  0.0000E+00  0.1280E+04
     12.501  0.0000E+00  0.1280E+04
     12.760  0.0000E+00  0.1280E+04
     13.019  0.0000E+00  0.1280E+04
