 running on   12 total cores
 distrk:  each k-point on   12 cores,    1 groups
 distr:  one band on    6 cores,    2 groups
 using from now: INCAR     
 vasp.5.4.4.18Apr17-6-g9f103f2a35 (build Aug 13 2019 17:33:20) gamma-only       
  
 POSCAR found type information on POSCAR  Ty Ty
 POSCAR found :  2 types and      52 ions
 scaLAPACK will be used
 WARNING: type information on POSCAR and POTCAR are incompatible
 POTCAR overwrites the type information in POSCAR
 typ   1 type information:  Ty Ni
 WARNING: type information on POSCAR and POTCAR are incompatible
 POTCAR overwrites the type information in POSCAR
 typ   2 type information:  Ty S 
 LDA part: xc-table for Pade appr. of Perdew
 POSCAR, INCAR and KPOINTS ok, starting setup
 FFT: planning ...
 WAVECAR not read
 entering main loop
       N       E                     dE             d eps       ncg     rms          rms(c)
DAV:   1     0.647793589739E+04    0.64779E+04   -0.36653E+05   848   0.154E+03
DAV:   2     0.344734020885E+03   -0.61332E+04   -0.59199E+04   736   0.492E+02
DAV:   3    -0.253018994574E+03   -0.59775E+03   -0.57704E+03   792   0.164E+02
DAV:   4    -0.284109679039E+03   -0.31091E+02   -0.30825E+02   800   0.356E+01
DAV:   5    -0.285257408324E+03   -0.11477E+01   -0.11464E+01   880   0.711E+00    0.846E+01
DAV:   6    -0.323827420486E+03   -0.38570E+02   -0.68360E+02   864   0.121E+02    0.126E+02
DAV:   7    -0.256652134003E+03    0.67175E+02   -0.14419E+02   800   0.750E+01    0.509E+01
DAV:   8    -0.289169130117E+03   -0.32517E+02   -0.16444E+02   960   0.806E+01    0.102E+02
DAV:   9    -0.262819776469E+03    0.26349E+02   -0.63335E+01   872   0.529E+01    0.417E+01
DAV:  10    -0.278097193040E+03   -0.15277E+02   -0.52042E+01   992   0.543E+01    0.849E+01
DAV:  11    -0.259713488464E+03    0.18384E+02   -0.36563E+01   944   0.356E+01    0.366E+01
DAV:  12    -0.256993819225E+03    0.27197E+01   -0.17838E+01   960   0.305E+01    0.303E+01
DAV:  13    -0.252318449349E+03    0.46754E+01   -0.94877E+00   888   0.248E+01    0.194E+01
DAV:  14    -0.251103238714E+03    0.12152E+01   -0.37211E+00   952   0.127E+01    0.135E+01
DAV:  15    -0.250759066878E+03    0.34417E+00   -0.12215E+00   944   0.724E+00    0.120E+01
DAV:  16    -0.250536040053E+03    0.22303E+00   -0.75291E-01   920   0.644E+00    0.102E+01
DAV:  17    -0.250281090555E+03    0.25495E+00   -0.38378E-01   952   0.427E+00    0.877E+00
DAV:  18    -0.250158616186E+03    0.12247E+00   -0.14250E-01   944   0.292E+00    0.767E+00
DAV:  19    -0.249961705133E+03    0.19691E+00   -0.18187E-01   984   0.349E+00    0.609E+00
DAV:  20    -0.249764263589E+03    0.19744E+00   -0.23355E-01   984   0.380E+00    0.353E+00
DAV:  21    -0.249717371072E+03    0.46893E-01   -0.17696E-01   944   0.306E+00    0.243E+00
DAV:  22    -0.249690530810E+03    0.26840E-01   -0.90229E-02   944   0.223E+00    0.134E+00
DAV:  23    -0.249690114140E+03    0.41667E-03   -0.24803E-02   880   0.855E-01    0.127E+00
DAV:  24    -0.249685771425E+03    0.43427E-02   -0.16918E-02   840   0.104E+00    0.106E+00
DAV:  25    -0.249685308383E+03    0.46304E-03   -0.20175E-02   952   0.102E+00    0.107E+00
DAV:  26    -0.249680985903E+03    0.43225E-02   -0.12773E-02   936   0.990E-01    0.532E-01
DAV:  27    -0.249680648191E+03    0.33771E-03   -0.45754E-03   936   0.487E-01    0.446E-01
DAV:  28    -0.249679997146E+03    0.65104E-03   -0.25282E-03   872   0.396E-01    0.221E-01
DAV:  29    -0.249680280351E+03   -0.28321E-03   -0.11187E-03   760   0.235E-01    0.234E-01
DAV:  30    -0.249680275589E+03    0.47619E-05   -0.66577E-04   632   0.212E-01
   1 F= -.24968028E+03 E0= -.24928479E+03  d E =-.790973E+00
