  96  96   0   0
  0.2109074E+02  0.6278560E-09  0.1125646E-08  0.2915682E-08  0.5000000E-15
  1.000000000000000E-004
  CAR 
 "Millerite NiS"                         
     13.01462151    -64.98375444  301      3.51327173      1.00000000
    -64.984  0.0000E+00  0.0000E+00
    -64.724  0.0000E+00  0.0000E+00
    -64.464  0.0000E+00  0.0000E+00
    -64.204  0.0000E+00  0.0000E+00
    -63.944  0.0000E+00  0.0000E+00
    -63.684  0.0000E+00  0.0000E+00
    -63.424  0.0000E+00  0.0000E+00
    -63.164  0.0000E+00  0.0000E+00
    -62.904  0.0000E+00  0.0000E+00
    -62.644  0.0000E+00  0.0000E+00
    -62.384  0.1773E-09  0.4610E-10
    -62.124  0.9678E-05  0.2516E-05
    -61.864  0.2073E-01  0.5392E-02
    -61.604  0.2231E+01  0.5856E+00
    -61.344  0.2516E+02  0.7126E+01
    -61.084  0.1018E+03  0.3359E+02
    -60.824  0.3419E+03  0.1225E+03
    -60.564  0.3343E+03  0.2094E+03
    -60.304  0.2100E+03  0.2640E+03
    -60.044  0.5901E+02  0.2794E+03
    -59.784  0.1271E+02  0.2827E+03
    -59.524  0.1794E+02  0.2873E+03
    -59.264  0.2577E+01  0.2880E+03
    -59.004  0.2223E-01  0.2880E+03
    -58.744  0.8836E-05  0.2880E+03
    -58.484  0.1411E-09  0.2880E+03
    -58.224  0.0000E+00  0.2880E+03
    -57.964  0.0000E+00  0.2880E+03
    -57.704  0.0000E+00  0.2880E+03
    -57.444  0.0000E+00  0.2880E+03
    -57.184  0.0000E+00  0.2880E+03
    -56.924  0.0000E+00  0.2880E+03
    -56.664  0.0000E+00  0.2880E+03
    -56.404  0.0000E+00  0.2880E+03
    -56.144  0.0000E+00  0.2880E+03
    -55.884  0.0000E+00  0.2880E+03
    -55.624  0.0000E+00  0.2880E+03
    -55.364  0.0000E+00  0.2880E+03
    -55.104  0.0000E+00  0.2880E+03
    -54.844  0.0000E+00  0.2880E+03
    -54.584  0.0000E+00  0.2880E+03
    -54.324  0.0000E+00  0.2880E+03
    -54.064  0.0000E+00  0.2880E+03
    -53.804  0.0000E+00  0.2880E+03
    -53.544  0.0000E+00  0.2880E+03
    -53.284  0.0000E+00  0.2880E+03
    -53.024  0.0000E+00  0.2880E+03
    -52.764  0.0000E+00  0.2880E+03
    -52.504  0.0000E+00  0.2880E+03
    -52.244  0.0000E+00  0.2880E+03
    -51.984  0.0000E+00  0.2880E+03
    -51.724  0.0000E+00  0.2880E+03
    -51.464  0.0000E+00  0.2880E+03
    -51.204  0.0000E+00  0.2880E+03
    -50.944  0.0000E+00  0.2880E+03
    -50.684  0.0000E+00  0.2880E+03
    -50.424  0.0000E+00  0.2880E+03
    -50.164  0.0000E+00  0.2880E+03
    -49.904  0.0000E+00  0.2880E+03
    -49.644  0.0000E+00  0.2880E+03
    -49.384  0.0000E+00  0.2880E+03
    -49.124  0.0000E+00  0.2880E+03
    -48.864  0.0000E+00  0.2880E+03
    -48.604  0.0000E+00  0.2880E+03
    -48.344  0.0000E+00  0.2880E+03
    -48.084  0.0000E+00  0.2880E+03
    -47.824  0.0000E+00  0.2880E+03
    -47.564  0.0000E+00  0.2880E+03
    -47.304  0.0000E+00  0.2880E+03
    -47.044  0.0000E+00  0.2880E+03
    -46.784  0.0000E+00  0.2880E+03
    -46.524  0.0000E+00  0.2880E+03
    -46.264  0.0000E+00  0.2880E+03
    -46.004  0.0000E+00  0.2880E+03
    -45.744  0.0000E+00  0.2880E+03
    -45.484  0.0000E+00  0.2880E+03
    -45.224  0.0000E+00  0.2880E+03
    -44.964  0.0000E+00  0.2880E+03
    -44.704  0.0000E+00  0.2880E+03
    -44.444  0.0000E+00  0.2880E+03
    -44.184  0.0000E+00  0.2880E+03
    -43.924  0.0000E+00  0.2880E+03
    -43.664  0.0000E+00  0.2880E+03
    -43.404  0.0000E+00  0.2880E+03
    -43.144  0.0000E+00  0.2880E+03
    -42.884  0.0000E+00  0.2880E+03
    -42.624  0.0000E+00  0.2880E+03
    -42.364  0.0000E+00  0.2880E+03
    -42.104  0.0000E+00  0.2880E+03
    -41.844  0.0000E+00  0.2880E+03
    -41.584  0.0000E+00  0.2880E+03
    -41.324  0.0000E+00  0.2880E+03
    -41.064  0.0000E+00  0.2880E+03
    -40.804  0.0000E+00  0.2880E+03
    -40.544  0.0000E+00  0.2880E+03
    -40.284  0.0000E+00  0.2880E+03
    -40.024  0.0000E+00  0.2880E+03
    -39.764  0.0000E+00  0.2880E+03
    -39.504  0.0000E+00  0.2880E+03
    -39.244  0.0000E+00  0.2880E+03
    -38.984  0.0000E+00  0.2880E+03
    -38.724  0.0000E+00  0.2880E+03
    -38.464  0.0000E+00  0.2880E+03
    -38.204  0.0000E+00  0.2880E+03
    -37.944  0.0000E+00  0.2880E+03
    -37.684  0.0000E+00  0.2880E+03
    -37.424  0.0000E+00  0.2880E+03
    -37.164  0.0000E+00  0.2880E+03
    -36.904  0.0000E+00  0.2880E+03
    -36.644  0.0000E+00  0.2880E+03
    -36.384  0.0000E+00  0.2880E+03
    -36.124  0.0000E+00  0.2880E+03
    -35.864  0.0000E+00  0.2880E+03
    -35.604  0.0000E+00  0.2880E+03
    -35.344  0.0000E+00  0.2880E+03
    -35.084  0.0000E+00  0.2880E+03
    -34.824  0.0000E+00  0.2880E+03
    -34.564  0.0000E+00  0.2880E+03
    -34.304  0.0000E+00  0.2880E+03
    -34.044  0.0000E+00  0.2880E+03
    -33.784  0.0000E+00  0.2880E+03
    -33.524  0.0000E+00  0.2880E+03
    -33.264  0.0000E+00  0.2880E+03
    -33.004  0.0000E+00  0.2880E+03
    -32.744  0.0000E+00  0.2880E+03
    -32.484  0.0000E+00  0.2880E+03
    -32.224  0.0000E+00  0.2880E+03
    -31.964  0.0000E+00  0.2880E+03
    -31.704  0.0000E+00  0.2880E+03
    -31.444  0.0000E+00  0.2880E+03
    -31.184  0.0000E+00  0.2880E+03
    -30.924  0.0000E+00  0.2880E+03
    -30.664  0.0000E+00  0.2880E+03
    -30.404  0.0000E+00  0.2880E+03
    -30.144  0.0000E+00  0.2880E+03
    -29.884  0.0000E+00  0.2880E+03
    -29.624  0.0000E+00  0.2880E+03
    -29.364  0.0000E+00  0.2880E+03
    -29.105  0.0000E+00  0.2880E+03
    -28.845  0.0000E+00  0.2880E+03
    -28.585  0.0000E+00  0.2880E+03
    -28.325  0.0000E+00  0.2880E+03
    -28.065  0.0000E+00  0.2880E+03
    -27.805  0.0000E+00  0.2880E+03
    -27.545  0.0000E+00  0.2880E+03
    -27.285  0.0000E+00  0.2880E+03
    -27.025  0.0000E+00  0.2880E+03
    -26.765  0.0000E+00  0.2880E+03
    -26.505  0.0000E+00  0.2880E+03
    -26.245  0.0000E+00  0.2880E+03
    -25.985  0.0000E+00  0.2880E+03
    -25.725  0.0000E+00  0.2880E+03
    -25.465  0.0000E+00  0.2880E+03
    -25.205  0.0000E+00  0.2880E+03
    -24.945  0.0000E+00  0.2880E+03
    -24.685  0.0000E+00  0.2880E+03
    -24.425  0.0000E+00  0.2880E+03
    -24.165  0.0000E+00  0.2880E+03
    -23.905  0.0000E+00  0.2880E+03
    -23.645  0.0000E+00  0.2880E+03
    -23.385  0.0000E+00  0.2880E+03
    -23.125  0.0000E+00  0.2880E+03
    -22.865  0.0000E+00  0.2880E+03
    -22.605  0.0000E+00  0.2880E+03
    -22.345  0.0000E+00  0.2880E+03
    -22.085  0.0000E+00  0.2880E+03
    -21.825  0.0000E+00  0.2880E+03
    -21.565  0.0000E+00  0.2880E+03
    -21.305  0.0000E+00  0.2880E+03
    -21.045  0.0000E+00  0.2880E+03
    -20.785  0.0000E+00  0.2880E+03
    -20.525  0.0000E+00  0.2880E+03
    -20.265  0.0000E+00  0.2880E+03
    -20.005  0.0000E+00  0.2880E+03
    -19.745  0.0000E+00  0.2880E+03
    -19.485  0.0000E+00  0.2880E+03
    -19.225  0.0000E+00  0.2880E+03
    -18.965  0.0000E+00  0.2880E+03
    -18.705  0.0000E+00  0.2880E+03
    -18.445  0.0000E+00  0.2880E+03
    -18.185  0.0000E+00  0.2880E+03
    -17.925  0.0000E+00  0.2880E+03
    -17.665  0.0000E+00  0.2880E+03
    -17.405  0.0000E+00  0.2880E+03
    -17.145  0.0000E+00  0.2880E+03
    -16.885  0.0000E+00  0.2880E+03
    -16.625  0.0000E+00  0.2880E+03
    -16.365  0.0000E+00  0.2880E+03
    -16.105  0.0000E+00  0.2880E+03
    -15.845  0.0000E+00  0.2880E+03
    -15.585  0.0000E+00  0.2880E+03
    -15.325  0.0000E+00  0.2880E+03
    -15.065  0.0000E+00  0.2880E+03
    -14.805  0.0000E+00  0.2880E+03
    -14.545  0.0000E+00  0.2880E+03
    -14.285  0.0000E+00  0.2880E+03
    -14.025  0.9805E-10  0.2880E+03
    -13.765  0.5197E-05  0.2880E+03
    -13.505  0.1060E-01  0.2880E+03
    -13.245  0.9443E+00  0.2882E+03
    -12.985  0.5165E+01  0.2896E+03
    -12.725  0.7897E+01  0.2916E+03
    -12.465  0.1124E+02  0.2946E+03
    -12.205  0.9869E+01  0.2971E+03
    -11.945  0.1496E+02  0.3010E+03
    -11.685  0.1785E+02  0.3057E+03
    -11.425  0.2402E+02  0.3119E+03
    -11.165  0.2679E+02  0.3189E+03
    -10.905  0.3506E+02  0.3280E+03
    -10.645  0.4967E+02  0.3409E+03
    -10.385  0.4031E+02  0.3514E+03
    -10.125  0.5052E+02  0.3645E+03
     -9.865  0.4509E+02  0.3762E+03
     -9.605  0.1385E+02  0.3798E+03
     -9.345  0.2082E+01  0.3804E+03
     -9.085  0.9347E+01  0.3828E+03
     -8.825  0.4423E+01  0.3840E+03
     -8.565  0.1354E+00  0.3840E+03
     -8.305  0.1953E-03  0.3840E+03
     -8.045  0.1118E-07  0.3840E+03
     -7.785  0.2391E-13  0.3840E+03
     -7.525  0.0000E+00  0.3840E+03
     -7.265  0.0000E+00  0.3840E+03
     -7.005  0.0000E+00  0.3840E+03
     -6.745  0.0000E+00  0.3840E+03
     -6.485  0.0000E+00  0.3840E+03
     -6.225  0.6363E-13  0.3840E+03
     -5.965  0.2052E-07  0.3840E+03
     -5.705  0.2469E-03  0.3840E+03
     -5.445  0.1225E+00  0.3840E+03
     -5.185  0.3358E+01  0.3849E+03
     -4.925  0.9869E+01  0.3875E+03
     -4.665  0.1955E+02  0.3926E+03
     -4.405  0.3138E+02  0.4007E+03
     -4.145  0.2864E+02  0.4082E+03
     -3.885  0.2946E+02  0.4158E+03
     -3.625  0.5407E+02  0.4299E+03
     -3.365  0.7292E+02  0.4488E+03
     -3.105  0.4267E+02  0.4599E+03
     -2.845  0.3001E+02  0.4677E+03
     -2.585  0.4404E+02  0.4792E+03
     -2.325  0.4721E+02  0.4915E+03
     -2.065  0.4980E+02  0.5044E+03
     -1.805  0.5639E+02  0.5191E+03
     -1.545  0.7520E+02  0.5386E+03
     -1.285  0.8324E+02  0.5603E+03
     -1.025  0.1017E+03  0.5867E+03
     -0.765  0.1190E+03  0.6176E+03
     -0.505  0.7619E+02  0.6374E+03
     -0.245  0.4645E+02  0.6495E+03
      0.015  0.5368E+02  0.6635E+03
      0.275  0.6988E+02  0.6817E+03
      0.535  0.8862E+02  0.7047E+03
      0.795  0.1272E+03  0.7378E+03
      1.055  0.1682E+03  0.7815E+03
      1.315  0.1382E+03  0.8174E+03
      1.575  0.2003E+03  0.8695E+03
      1.835  0.2303E+03  0.9294E+03
      2.095  0.1445E+03  0.9670E+03
      2.355  0.1257E+03  0.9996E+03
      2.615  0.8152E+02  0.1021E+04
      2.875  0.4347E+02  0.1032E+04
      3.135  0.3598E+02  0.1041E+04
      3.395  0.3233E+02  0.1050E+04
      3.655  0.6601E+02  0.1067E+04
      3.915  0.1016E+03  0.1093E+04
      4.175  0.8239E+02  0.1115E+04
      4.435  0.6437E+02  0.1132E+04
      4.695  0.4240E+02  0.1143E+04
      4.955  0.2813E+02  0.1150E+04
      5.215  0.7601E+01  0.1152E+04
      5.475  0.3941E+00  0.1152E+04
      5.735  0.4449E+01  0.1153E+04
      5.995  0.1200E+02  0.1156E+04
      6.255  0.1703E+02  0.1161E+04
      6.515  0.1712E+02  0.1165E+04
      6.775  0.1746E+02  0.1170E+04
      7.035  0.1813E+02  0.1174E+04
      7.295  0.3211E+02  0.1183E+04
      7.555  0.3835E+02  0.1193E+04
      7.815  0.3133E+02  0.1201E+04
      8.075  0.3725E+02  0.1211E+04
      8.335  0.4470E+02  0.1222E+04
      8.595  0.4394E+02  0.1234E+04
      8.855  0.4476E+02  0.1245E+04
      9.115  0.3558E+02  0.1255E+04
      9.375  0.3640E+02  0.1264E+04
      9.635  0.1419E+02  0.1268E+04
      9.895  0.1192E+01  0.1268E+04
     10.155  0.1056E-01  0.1268E+04
     10.415  0.4861E-05  0.1268E+04
     10.675  0.8878E-10  0.1268E+04
     10.935  0.0000E+00  0.1268E+04
     11.195  0.0000E+00  0.1268E+04
     11.455  0.0000E+00  0.1268E+04
     11.715  0.0000E+00  0.1268E+04
     11.975  0.0000E+00  0.1268E+04
     12.235  0.0000E+00  0.1268E+04
     12.495  0.0000E+00  0.1268E+04
     12.755  0.0000E+00  0.1268E+04
     13.015  0.0000E+00  0.1268E+04
