<?xml version="1.0" encoding="ISO-8859-1"?>
<modeling>
 <generator>
  <i name="program" type="string">vasp </i>
  <i name="version" type="string">5.4.4.18Apr17-6-g9f103f2a35  </i>
  <i name="subversion" type="string">(build Aug 13 2019 17:33:20) gamma-only         parallel </i>
  <i name="platform" type="string">LinuxIFC </i>
  <i name="date" type="string">2020 05 12 </i>
  <i name="time" type="string">07:48:28 </i>
 </generator>
 <incar>
  <i type="string" name="SYSTEM">"Millerite NiS"</i>
  <i type="string" name="PREC">normal</i>
  <i type="int" name="NSIM">     4</i>
  <i type="int" name="NELM">   100</i>
  <i name="ENCUT">    450.00000000</i>
  <i type="string" name="LREAL">A</i>
  <i type="int" name="ISMEAR">     0</i>
  <i type="int" name="NWRITE">     2</i>
  <i type="logical" name="LWAVE"> F  </i>
  <i type="logical" name="LCHARG"> F  </i>
  <v type="int" name="KPOINT_BSE">    -1     0     0     0</v>
  <i type="int" name="NELM">   100</i>
 </incar>
 <structure name="primitive_cell" >
  <crystal>
   <varray name="basis" >
    <v>      -8.37141330       5.53009776       0.00000000 </v>
    <v>       0.00000000       0.00000000     -29.15682000 </v>
    <v>      10.46426660     -11.06019551       0.00000000 </v>
   </varray>
   <i name="volume">   1012.35542170 </i>
   <varray name="rec_basis" >
    <v>      -0.31854438      -0.30138105       0.00000000 </v>
    <v>       0.00000000       0.00000000      -0.03429729 </v>
    <v>      -0.15927219      -0.24110484       0.00000000 </v>
   </varray>
  </crystal>
  <varray name="positions" >
   <v>       0.42154676      -0.15239349      -0.30568521 </v>
   <v>      -0.10327853      -0.21799173       0.03174316 </v>
   <v>       0.39672145      -0.16425677      -0.46825686 </v>
   <v>       0.23779647      -0.10899586       0.20460316 </v>
   <v>       0.39672145      -0.16425677       0.03174314 </v>
   <v>       0.23779647      -0.10899586      -0.29539684 </v>
   <v>       0.35965947      -0.07007620      -0.33334841 </v>
   <v>      -0.23896822      -0.10899586       0.16590281 </v>
   <v>       0.42154676      -0.15239349       0.19431479 </v>
   <v>      -0.49955187      -0.06881294      -0.38793668 </v>
   <v>       0.43327711      -0.06700951       0.05677293 </v>
   <v>      -0.10327853      -0.21799173      -0.46825684 </v>
   <v>      -0.07845321      -0.22985501       0.19431481 </v>
   <v>       0.26103181      -0.27325263      -0.33409717 </v>
   <v>      -0.23896822      -0.10899586      -0.33409719 </v>
   <v>      -0.26220355      -0.27325263       0.20460314 </v>
   <v>       0.42154676      -0.06559824       0.19431479 </v>
   <v>      -0.07845321      -0.22985501      -0.30568519 </v>
   <v>       0.26103181      -0.27325263       0.16590283 </v>
   <v>       0.08816064      -0.02320956      -0.41506069 </v>
   <v>      -0.26220355      -0.27325263      -0.29539686 </v>
   <v>      -0.10327853      -0.32851354       0.03174316 </v>
   <v>      -0.07845321      -0.31665025       0.19431481 </v>
   <v>      -0.10327853      -0.32851354      -0.46825684 </v>
   <v>      -0.07845321      -0.31665025      -0.30568519 </v>
   <v>       0.42154676      -0.39411177      -0.30568521 </v>
   <v>       0.39672145      -0.38224849      -0.46825686 </v>
   <v>       0.39672145      -0.38224849       0.03174314 </v>
   <v>       0.42154676      -0.39411177       0.19431479 </v>
   <v>       0.23779647      -0.43750940       0.20460316 </v>
   <v>       0.23779647      -0.43750940      -0.29539684 </v>
   <v>      -0.23896822      -0.43750940       0.16590281 </v>
   <v>      -0.23896822      -0.43750940      -0.33409719 </v>
   <v>       0.42154676      -0.48090702      -0.30568521 </v>
   <v>       0.42154676      -0.48090702       0.19431479 </v>
   <v>       0.39672145      -0.49277030      -0.46825686 </v>
   <v>       0.39672145      -0.49277030       0.03174314 </v>
   <v>      -0.10327853       0.45349474       0.03174316 </v>
   <v>      -0.10327853       0.45349474      -0.46825684 </v>
   <v>      -0.07845321       0.44163146       0.19431481 </v>
   <v>      -0.07845321       0.44163146      -0.30568519 </v>
   <v>       0.18537339       0.40905679      -0.38135769 </v>
   <v>       0.25764514       0.40670881       0.15344265 </v>
   <v>      -0.26220355       0.39823383       0.20460314 </v>
   <v>      -0.26220355       0.39823383      -0.29539686 </v>
   <v>      -0.16696512       0.36295744       0.14911698 </v>
   <v>      -0.06069595       0.35905432      -0.44448441 </v>
   <v>      -0.03131409       0.36204677      -0.29072806 </v>
  </varray>
 </structure>
 <varray name="primitive_index" >
  <v type="int" >        1 </v>
  <v type="int" >       75 </v>
  <v type="int" >       66 </v>
  <v type="int" >       80 </v>
  <v type="int" >       53 </v>
  <v type="int" >       93 </v>
  <v type="int" >        5 </v>
  <v type="int" >        9 </v>
  <v type="int" >       13 </v>
  <v type="int" >       62 </v>
  <v type="int" >       49 </v>
  <v type="int" >       86 </v>
  <v type="int" >        7 </v>
  <v type="int" >       35 </v>
  <v type="int" >       33 </v>
  <v type="int" >       60 </v>
  <v type="int" >       17 </v>
  <v type="int" >       19 </v>
  <v type="int" >       47 </v>
  <v type="int" >       90 </v>
  <v type="int" >       71 </v>
  <v type="int" >       79 </v>
  <v type="int" >        3 </v>
  <v type="int" >       91 </v>
  <v type="int" >       15 </v>
  <v type="int" >        6 </v>
  <v type="int" >       63 </v>
  <v type="int" >       50 </v>
  <v type="int" >       18 </v>
  <v type="int" >       81 </v>
  <v type="int" >       94 </v>
  <v type="int" >       10 </v>
  <v type="int" >       34 </v>
  <v type="int" >        2 </v>
  <v type="int" >       14 </v>
  <v type="int" >       67 </v>
  <v type="int" >       54 </v>
  <v type="int" >       76 </v>
  <v type="int" >       87 </v>
  <v type="int" >        8 </v>
  <v type="int" >       20 </v>
  <v type="int" >       36 </v>
  <v type="int" >       48 </v>
  <v type="int" >       61 </v>
  <v type="int" >       72 </v>
  <v type="int" >        4 </v>
  <v type="int" >       92 </v>
  <v type="int" >       16 </v>
 </varray>
 <kpoints>
  <generation param="Gamma">
   <v type="int" name="divisions">       1        1        1 </v>
   <v name="usershift">      0.00000000       0.00000000       0.00000000 </v>
   <v name="genvec1">      1.00000000       0.00000000       0.00000000 </v>
   <v name="genvec2">      0.00000000       1.00000000       0.00000000 </v>
   <v name="genvec3">      0.00000000       0.00000000       1.00000000 </v>
   <v name="shift">      0.00000000       0.00000000       0.00000000 </v>
  </generation>
  <varray name="kpointlist" >
   <v>       0.00000000       0.00000000       0.00000000 </v>
  </varray>
  <varray name="weights" >
   <v>       1.00000000 </v>
  </varray>
 </kpoints>
 <parameters>
  <separator name="general" >
   <i type="string" name="SYSTEM">"Millerite NiS"</i>
   <i type="logical" name="LCOMPAT"> F  </i>
  </separator>
  <separator name="electronic" >
   <i type="string" name="PREC">normal</i>
   <i name="ENMAX">    450.00000000</i>
   <i name="ENAUG">    703.44300000</i>
   <i name="EDIFF">      0.00010000</i>
   <i type="int" name="IALGO">    38</i>
   <i type="int" name="IWAVPR">    10</i>
   <i type="int" name="NBANDS">   634</i>
   <i name="NELECT">   1056.00000000</i>
   <i type="int" name="TURBO">     0</i>
   <i type="int" name="IRESTART">     0</i>
   <i type="int" name="NREBOOT">     0</i>
   <i type="int" name="NMIN">     0</i>
   <i name="EREF">      0.00000000</i>
   <separator name="electronic smearing" >
    <i type="int" name="ISMEAR">     0</i>
    <i name="SIGMA">      0.20000000</i>
    <i name="KSPACING">      0.50000000</i>
    <i type="logical" name="KGAMMA"> T  </i>
   </separator>
   <separator name="electronic projectors" >
    <i type="logical" name="LREAL"> T  </i>
    <v name="ROPT">     -0.00050000     -0.00050000</v>
    <i type="int" name="LMAXPAW">  -100</i>
    <i type="int" name="LMAXMIX">     2</i>
    <i type="logical" name="NLSPLINE"> F  </i>
   </separator>
   <separator name="electronic startup" >
    <i type="int" name="ISTART">     0</i>
    <i type="int" name="ICHARG">     2</i>
    <i type="int" name="INIWAV">     1</i>
   </separator>
   <separator name="electronic spin" >
    <i type="int" name="ISPIN">     1</i>
    <i type="logical" name="LNONCOLLINEAR"> F  </i>
    <v name="MAGMOM">      1.00000000      1.00000000      1.00000000      1.00000000      1.00000000      1.00000000      1.00000000      1.00000000      1.00000000      1.00000000      1.00000000      1.00000000      1.00000000      1.00000000      1.00000000      1.00000000      1.00000000      1.00000000      1.00000000      1.00000000
      1.00000000      1.00000000      1.00000000      1.00000000      1.00000000      1.00000000      1.00000000      1.00000000      1.00000000      1.00000000      1.00000000      1.00000000      1.00000000      1.00000000      1.00000000      1.00000000      1.00000000      1.00000000      1.00000000      1.00000000
      1.00000000      1.00000000      1.00000000      1.00000000      1.00000000      1.00000000      1.00000000      1.00000000      1.00000000      1.00000000      1.00000000      1.00000000      1.00000000      1.00000000      1.00000000      1.00000000      1.00000000      1.00000000      1.00000000      1.00000000
      1.00000000      1.00000000      1.00000000      1.00000000      1.00000000      1.00000000      1.00000000      1.00000000      1.00000000      1.00000000      1.00000000      1.00000000      1.00000000      1.00000000      1.00000000      1.00000000      1.00000000      1.00000000      1.00000000      1.00000000
      1.00000000      1.00000000      1.00000000      1.00000000      1.00000000      1.00000000      1.00000000      1.00000000      1.00000000      1.00000000      1.00000000      1.00000000      1.00000000      1.00000000      1.00000000      1.00000000</v>
    <i name="NUPDOWN">     -1.00000000</i>
    <i type="logical" name="LSORBIT"> F  </i>
    <v name="SAXIS">      0.00000000      0.00000000      1.00000000</v>
    <i type="logical" name="LSPIRAL"> F  </i>
    <v name="QSPIRAL">      0.00000000      0.00000000      0.00000000</v>
    <i type="logical" name="LZEROZ"> F  </i>
   </separator>
   <separator name="electronic exchange-correlation" >
    <i type="logical" name="LASPH"> F  </i>
    <i type="logical" name="LMETAGGA"> F  </i>
   </separator>
   <separator name="electronic convergence" >
    <i type="int" name="NELM">   100</i>
    <i type="int" name="NELMDL">    -5</i>
    <i type="int" name="NELMIN">     2</i>
    <i name="ENINI">    450.00000000</i>
    <separator name="electronic convergence detail" >
     <i type="logical" name="LDIAG"> T  </i>
     <i type="logical" name="LSUBROT"> F  </i>
     <i name="WEIMIN">      0.00000000</i>
     <i name="EBREAK">      0.00000004</i>
     <i name="DEPER">      0.30000000</i>
     <i type="int" name="NRMM">     4</i>
     <i name="TIME">      0.40000000</i>
    </separator>
   </separator>
   <separator name="electronic mixer" >
    <i name="AMIX">      0.40000000</i>
    <i name="BMIX">      1.00000000</i>
    <i name="AMIN">      0.10000000</i>
    <i name="AMIX_MAG">      1.60000000</i>
    <i name="BMIX_MAG">      1.00000000</i>
    <separator name="electronic mixer details" >
     <i type="int" name="IMIX">     4</i>
     <i type="logical" name="MIXFIRST"> F  </i>
     <i type="int" name="MAXMIX">   -45</i>
     <i name="WC">    100.00000000</i>
     <i type="int" name="INIMIX">     1</i>
     <i type="int" name="MIXPRE">     1</i>
     <i type="int" name="MREMOVE">     5</i>
    </separator>
   </separator>
   <separator name="electronic dipolcorrection" >
    <i type="logical" name="LDIPOL"> F  </i>
    <i type="logical" name="LMONO"> F  </i>
    <i type="int" name="IDIPOL">     0</i>
    <i name="EPSILON">      1.00000000</i>
    <v name="DIPOL">   -100.00000000   -100.00000000   -100.00000000</v>
    <i name="EFIELD">      0.00000000</i>
   </separator>
  </separator>
  <separator name="grids" >
   <i type="int" name="NGX">    36</i>
   <i type="int" name="NGY">    60</i>
   <i type="int" name="NGZ">   160</i>
   <i type="int" name="NGXF">    72</i>
   <i type="int" name="NGYF">   120</i>
   <i type="int" name="NGZF">   320</i>
   <i type="logical" name="ADDGRID"> F  </i>
  </separator>
  <separator name="ionic" >
   <i type="int" name="NSW">     0</i>
   <i type="int" name="IBRION">    -1</i>
   <i type="int" name="MDALGO">     0</i>
   <i type="int" name="ISIF">     2</i>
   <i name="PSTRESS">      0.00000000</i>
   <i name="EDIFFG">      0.00100000</i>
   <i type="int" name="NFREE">     0</i>
   <i name="POTIM">      0.50000000</i>
   <i name="SMASS">     -3.00000000</i>
   <i name="SCALEE">      1.00000000</i>
  </separator>
  <separator name="ionic md" >
   <i name="TEBEG">      0.00010000</i>
   <i name="TEEND">      0.00010000</i>
   <i type="int" name="NBLOCK">     1</i>
   <i type="int" name="KBLOCK">     1</i>
   <i type="int" name="NPACO">   256</i>
   <i name="APACO">     16.00000000</i>
  </separator>
  <separator name="symmetry" >
   <i type="int" name="ISYM">     2</i>
   <i name="SYMPREC">      0.00001000</i>
  </separator>
  <separator name="dos" >
   <i type="int" name="LORBIT">     0</i>
   <v name="RWIGS">     -1.00000000     -1.00000000</v>
   <i type="int" name="NEDOS">   301</i>
   <i name="EMIN">     10.00000000</i>
   <i name="EMAX">    -10.00000000</i>
   <i name="EFERMI">      0.00000000</i>
  </separator>
  <separator name="writing" >
   <i type="int" name="NWRITE">     2</i>
   <i type="logical" name="LWAVE"> F  </i>
   <i type="logical" name="LDOWNSAMPLE"> F  </i>
   <i type="logical" name="LCHARG"> F  </i>
   <i type="logical" name="LPARD"> F  </i>
   <i type="logical" name="LVTOT"> F  </i>
   <i type="logical" name="LVHAR"> F  </i>
   <i type="logical" name="LELF"> F  </i>
   <i type="logical" name="LOPTICS"> F  </i>
   <v name="STM">      0.00000000      0.00000000      0.00000000      0.00000000      0.00000000      0.00000000      0.00000000</v>
  </separator>
  <separator name="performance" >
   <i type="int" name="NPAR">     2</i>
   <i type="int" name="NSIM">     4</i>
   <i type="int" name="NBLK">    -1</i>
   <i type="logical" name="LPLANE"> T  </i>
   <i type="logical" name="LSCALAPACK"> T  </i>
   <i type="logical" name="LSCAAWARE"> F  </i>
   <i type="logical" name="LSCALU"> F  </i>
   <i type="logical" name="LASYNC"> F  </i>
   <i type="logical" name="LORBITALREAL"> F  </i>
  </separator>
  <separator name="miscellaneous" >
   <i type="int" name="IDIOT">     3</i>
   <i type="int" name="ISPECIAL">     0</i>
   <i type="logical" name="LMUSIC"> F  </i>
   <v name="POMASS">     58.69000000     32.06600000</v>
   <v name="DARWINR">      0.00000000      0.00000000</v>
   <v name="DARWINV">      1.00000000      1.00000000</v>
   <i type="logical" name="LCORR"> T  </i>
  </separator>
  <i type="logical" name="GGA_COMPAT"> T  </i>
  <i type="logical" name="LBERRY"> F  </i>
  <i type="int" name="ICORELEVEL">     0</i>
  <i type="logical" name="LDAU"> F  </i>
  <i type="int" name="I_CONSTRAINED_M">     0</i>
  <separator name="electronic exchange-correlation" >
   <i type="string" name="GGA">--</i>
   <i type="int" name="VOSKOWN">     0</i>
   <i type="logical" name="LHFCALC"> F  </i>
   <i type="string" name="PRECFOCK"></i>
   <i type="logical" name="LSYMGRAD"> F  </i>
   <i type="logical" name="LHFONE"> F  </i>
   <i type="logical" name="LRHFCALC"> F  </i>
   <i type="logical" name="LTHOMAS"> F  </i>
   <i type="logical" name="LMODELHF"> F  </i>
   <i name="ENCUT4O">     -1.00000000</i>
   <i type="int" name="EXXOEP">     0</i>
   <i type="int" name="FOURORBIT">     0</i>
   <i name="AEXX">      0.00000000</i>
   <i name="HFALPHA">      0.00000000</i>
   <i name="MCALPHA">      0.00000000</i>
   <i name="ALDAX">      1.00000000</i>
   <i name="AGGAX">      1.00000000</i>
   <i name="ALDAC">      1.00000000</i>
   <i name="AGGAC">      1.00000000</i>
   <i type="int" name="NKREDX">     1</i>
   <i type="int" name="NKREDY">     1</i>
   <i type="int" name="NKREDZ">     1</i>
   <i type="logical" name="SHIFTRED"> F  </i>
   <i type="logical" name="ODDONLY"> F  </i>
   <i type="logical" name="EVENONLY"> F  </i>
   <i type="int" name="LMAXFOCK">     0</i>
   <i type="int" name="NMAXFOCKAE">     0</i>
   <i type="logical" name="LFOCKAEDFT"> F  </i>
   <i name="HFSCREEN">      0.00000000</i>
   <i name="HFSCREENC">      0.00000000</i>
   <i type="int" name="NBANDSGWLOW">     0</i>
  </separator>
  <separator name="vdW DFT" >
   <i type="logical" name="LUSE_VDW"> F  </i>
   <i name="Zab_VDW">     -0.84910000</i>
   <i name="PARAM1">      0.12340000</i>
   <i name="PARAM2">      1.00000000</i>
   <i name="PARAM3">      0.00000000</i>
  </separator>
  <separator name="model GW" >
   <i type="int" name="MODEL_GW">     0</i>
   <i name="MODEL_EPS0">     12.65444277</i>
   <i name="MODEL_ALPHA">      1.00000000</i>
  </separator>
  <separator name="linear response parameters" >
   <i type="logical" name="LEPSILON"> F  </i>
   <i type="logical" name="LRPA"> F  </i>
   <i type="logical" name="LNABLA"> F  </i>
   <i type="logical" name="LVEL"> F  </i>
   <i type="int" name="KINTER">     0</i>
   <i name="CSHIFT">      0.10000000</i>
   <i name="OMEGAMAX">     -1.00000000</i>
   <i name="DEG_THRESHOLD">      0.00200000</i>
   <i name="RTIME">     -0.10000000</i>
   <i name="WPLASMAI">      0.00000000</i>
   <v name="DFIELD">      0.00000000      0.00000000      0.00000000</v>
   <v name="WPLASMA">      0.00000000      0.00000000      0.00000000      0.00000000      0.00000000      0.00000000      0.00000000      0.00000000      0.00000000</v>
  </separator>
  <separator name="orbital magnetization" >
   <i type="logical" name="NUCIND"> F  </i>
   <v name="MAGPOS">      0.00000000      0.00000000      0.00000000</v>
   <i type="logical" name="LNICSALL"> T  </i>
   <i type="logical" name="ORBITALMAG"> F  </i>
   <i type="logical" name="LMAGBLOCH"> F  </i>
   <i type="logical" name="LCHIMAG"> F  </i>
   <i type="logical" name="LGAUGE"> T  </i>
   <i type="int" name="MAGATOM">     0</i>
   <v name="MAGDIPOL">      0.00000000      0.00000000      0.00000000</v>
   <v name="AVECCONST">      0.00000000      0.00000000      0.00000000</v>
  </separator>
  <separator name="response functions" >
   <i type="logical" name="LADDER"> F  </i>
   <i type="logical" name="LRPAFORCE"> F  </i>
   <i type="logical" name="LFXC"> F  </i>
   <i type="logical" name="LHARTREE"> T  </i>
   <i type="int" name="IBSE">     0</i>
   <v type="int" name="KPOINT">    -1     0     0     0</v>
   <i type="logical" name="LTCTE"> F  </i>
   <i type="logical" name="LTETE"> F  </i>
   <i type="logical" name="LTRIPLET"> F  </i>
   <i type="logical" name="LFXCEPS"> F  </i>
   <i type="logical" name="LFXHEG"> F  </i>
   <i type="int" name="NATURALO">     2</i>
   <i type="logical" name="L2ORDER"> F  </i>
   <i type="logical" name="LMP2LT"> F  </i>
   <i type="logical" name="LUSEW"> F  </i>
   <i name="ENCUTGW">     -2.00000000</i>
   <i name="ENCUTGWSOFT">     -2.00000000</i>
   <i name="ENCUTLF">     -1.00000000</i>
   <i type="int" name="LMAXMP2">    -1</i>
   <i name="SCISSOR">      0.00000000</i>
   <i type="int" name="NOMEGA">     0</i>
   <i type="int" name="NOMEGAR">     0</i>
   <i type="int" name="NBANDSGW">    -1</i>
   <i type="int" name="NBANDSO">    -1</i>
   <i type="int" name="NBANDSV">    -1</i>
   <i type="int" name="NELM">   100</i>
   <i type="int" name="NELMHF">     1</i>
   <i type="int" name="DIM">     3</i>
   <i type="int" name="ANTIRES">     0</i>
   <i name="OMEGAMAX">    -30.00000000</i>
   <i name="OMEGAMIN">    -30.00000000</i>
   <i name="OMEGATL">   -200.00000000</i>
   <i type="int" name="OMEGAGRID">   140</i>
   <i name="CSHIFT">     -0.10000000</i>
   <i type="logical" name="SELFENERGY"> F  </i>
   <i type="logical" name="LSPECTRAL"> F  </i>
   <i type="logical" name="LSPECTRALGW"> F  </i>
   <i type="logical" name="LSINGLES"> F  </i>
   <i type="logical" name="LFERMIGW"> F  </i>
   <i type="logical" name="ODDONLYGW"> F  </i>
   <i type="logical" name="EVENONLYGW"> F  </i>
   <i type="int" name="NKREDLFX">     1</i>
   <i type="int" name="NKREDLFY">     1</i>
   <i type="int" name="NKREDLFZ">     1</i>
   <i type="int" name="MAXMEM">  2800</i>
   <i type="int" name="TELESCOPE">     0</i>
   <i type="int" name="TAUPAR">     1</i>
   <i type="int" name="OMEGAPAR">    -1</i>
   <i name="LAMBDA">      1.00000000</i>
  </separator>
  <separator name="External order field" >
   <i name="OFIELD_KAPPA">      0.00000000</i>
   <v name="OFIELD_K">      0.00000000      0.00000000      0.00000000</v>
   <i name="OFIELD_Q6_NEAR">      0.00000000</i>
   <i name="OFIELD_Q6_FAR">      0.00000000</i>
   <i name="OFIELD_A">      0.00000000</i>
  </separator>
 </parameters>
 <atominfo>
  <atoms>      96 </atoms>
  <types>       2 </types>
  <array name="atoms" >
   <dimension dim="1">ion</dimension>
   <field type="string">element</field>
   <field type="int">atomtype</field>
   <set>
    <rc><c>Ni</c><c>   1</c></rc>
    <rc><c>Ni</c><c>   1</c></rc>
    <rc><c>Ni</c><c>   1</c></rc>
    <rc><c>Ni</c><c>   1</c></rc>
    <rc><c>Ni</c><c>   1</c></rc>
    <rc><c>Ni</c><c>   1</c></rc>
    <rc><c>Ni</c><c>   1</c></rc>
    <rc><c>Ni</c><c>   1</c></rc>
    <rc><c>Ni</c><c>   1</c></rc>
    <rc><c>Ni</c><c>   1</c></rc>
    <rc><c>Ni</c><c>   1</c></rc>
    <rc><c>Ni</c><c>   1</c></rc>
    <rc><c>Ni</c><c>   1</c></rc>
    <rc><c>Ni</c><c>   1</c></rc>
    <rc><c>Ni</c><c>   1</c></rc>
    <rc><c>Ni</c><c>   1</c></rc>
    <rc><c>Ni</c><c>   1</c></rc>
    <rc><c>Ni</c><c>   1</c></rc>
    <rc><c>Ni</c><c>   1</c></rc>
    <rc><c>Ni</c><c>   1</c></rc>
    <rc><c>Ni</c><c>   1</c></rc>
    <rc><c>Ni</c><c>   1</c></rc>
    <rc><c>Ni</c><c>   1</c></rc>
    <rc><c>Ni</c><c>   1</c></rc>
    <rc><c>Ni</c><c>   1</c></rc>
    <rc><c>Ni</c><c>   1</c></rc>
    <rc><c>Ni</c><c>   1</c></rc>
    <rc><c>Ni</c><c>   1</c></rc>
    <rc><c>Ni</c><c>   1</c></rc>
    <rc><c>Ni</c><c>   1</c></rc>
    <rc><c>Ni</c><c>   1</c></rc>
    <rc><c>Ni</c><c>   1</c></rc>
    <rc><c>Ni</c><c>   1</c></rc>
    <rc><c>Ni</c><c>   1</c></rc>
    <rc><c>Ni</c><c>   1</c></rc>
    <rc><c>Ni</c><c>   1</c></rc>
    <rc><c>Ni</c><c>   1</c></rc>
    <rc><c>Ni</c><c>   1</c></rc>
    <rc><c>Ni</c><c>   1</c></rc>
    <rc><c>Ni</c><c>   1</c></rc>
    <rc><c>Ni</c><c>   1</c></rc>
    <rc><c>Ni</c><c>   1</c></rc>
    <rc><c>Ni</c><c>   1</c></rc>
    <rc><c>Ni</c><c>   1</c></rc>
    <rc><c>Ni</c><c>   1</c></rc>
    <rc><c>Ni</c><c>   1</c></rc>
    <rc><c>Ni</c><c>   1</c></rc>
    <rc><c>Ni</c><c>   1</c></rc>
    <rc><c>S </c><c>   2</c></rc>
    <rc><c>S </c><c>   2</c></rc>
    <rc><c>S </c><c>   2</c></rc>
    <rc><c>S </c><c>   2</c></rc>
    <rc><c>S </c><c>   2</c></rc>
    <rc><c>S </c><c>   2</c></rc>
    <rc><c>S </c><c>   2</c></rc>
    <rc><c>S </c><c>   2</c></rc>
    <rc><c>S </c><c>   2</c></rc>
    <rc><c>S </c><c>   2</c></rc>
    <rc><c>S </c><c>   2</c></rc>
    <rc><c>S </c><c>   2</c></rc>
    <rc><c>S </c><c>   2</c></rc>
    <rc><c>S </c><c>   2</c></rc>
    <rc><c>S </c><c>   2</c></rc>
    <rc><c>S </c><c>   2</c></rc>
    <rc><c>S </c><c>   2</c></rc>
    <rc><c>S </c><c>   2</c></rc>
    <rc><c>S </c><c>   2</c></rc>
    <rc><c>S </c><c>   2</c></rc>
    <rc><c>S </c><c>   2</c></rc>
    <rc><c>S </c><c>   2</c></rc>
    <rc><c>S </c><c>   2</c></rc>
    <rc><c>S </c><c>   2</c></rc>
    <rc><c>S </c><c>   2</c></rc>
    <rc><c>S </c><c>   2</c></rc>
    <rc><c>S </c><c>   2</c></rc>
    <rc><c>S </c><c>   2</c></rc>
    <rc><c>S </c><c>   2</c></rc>
    <rc><c>S </c><c>   2</c></rc>
    <rc><c>S </c><c>   2</c></rc>
    <rc><c>S </c><c>   2</c></rc>
    <rc><c>S </c><c>   2</c></rc>
    <rc><c>S </c><c>   2</c></rc>
    <rc><c>S </c><c>   2</c></rc>
    <rc><c>S </c><c>   2</c></rc>
    <rc><c>S </c><c>   2</c></rc>
    <rc><c>S </c><c>   2</c></rc>
    <rc><c>S </c><c>   2</c></rc>
    <rc><c>S </c><c>   2</c></rc>
    <rc><c>S </c><c>   2</c></rc>
    <rc><c>S </c><c>   2</c></rc>
    <rc><c>S </c><c>   2</c></rc>
    <rc><c>S </c><c>   2</c></rc>
    <rc><c>S </c><c>   2</c></rc>
    <rc><c>S </c><c>   2</c></rc>
    <rc><c>S </c><c>   2</c></rc>
    <rc><c>S </c><c>   2</c></rc>
   </set>
  </array>
  <array name="atomtypes" >
   <dimension dim="1">type</dimension>
   <field type="int">atomspertype</field>
   <field type="string">element</field>
   <field>mass</field>
   <field>valence</field>
   <field type="string">pseudopotential</field>
   <set>
    <rc><c>  48</c><c>Ni</c><c>     58.69000000</c><c>     16.00000000</c><c>  PAW_PBE Ni_pv 06Sep2000               </c></rc>
    <rc><c>  48</c><c>S </c><c>     32.06600000</c><c>      6.00000000</c><c>  PAW_PBE S 06Sep2000                   </c></rc>
   </set>
  </array>
 </atominfo>
 <structure name="initialpos" >
  <crystal>
   <varray name="basis" >
    <v>       6.27856000       0.00000000       0.00000000 </v>
    <v>       2.09285340      11.06019551       0.00000000 </v>
    <v>       0.00000000       0.00000000      29.15682000 </v>
   </varray>
   <i name="volume">   2024.71084344 </i>
   <varray name="rec_basis" >
    <v>       0.15927219      -0.03013811       0.00000000 </v>
    <v>       0.00000000       0.09041431       0.00000000 </v>
    <v>       0.00000000       0.00000000       0.03429729 </v>
   </varray>
  </crystal>
  <varray name="positions" >
   <v>       0.25630944       0.01645859       0.15239349 </v>
   <v>       0.25630944       0.01645859       0.48090702 </v>
   <v>       0.00630944       0.26645858       0.31665025 </v>
   <v>       0.04868164       0.26740046       0.63704256 </v>
   <v>       0.29381397       0.01317815       0.07007620 </v>
   <v>       0.25630944       0.01645859       0.39411177 </v>
   <v>       0.00630944       0.26645858       0.22985501 </v>
   <v>       0.00630944       0.26645858       0.55836854 </v>
   <v>       0.19025794       0.21461308       0.10899586 </v>
   <v>       0.19025794       0.21461308       0.43750940 </v>
   <v>       0.44025794       0.46461308       0.27325263 </v>
   <v>       0.42041758       0.47537992       0.59329119 </v>
   <v>       0.75630944       0.01645859       0.15239349 </v>
   <v>       0.75630944       0.01645859       0.48090702 </v>
   <v>       0.50630944       0.26645858       0.31665025 </v>
   <v>       0.46551501       0.27507102       0.63795323 </v>
   <v>       0.75630944       0.01645859       0.06559824 </v>
   <v>       0.75630944       0.01645859       0.39411177 </v>
   <v>       0.50630944       0.26645858       0.22985501 </v>
   <v>       0.50630944       0.26645858       0.55836854 </v>
   <v>       0.69025794       0.21461308       0.10899586 </v>
   <v>       0.69025794       0.21461308       0.43750940 </v>
   <v>       0.94025794       0.46461308       0.27325263 </v>
   <v>       0.95922454       0.47404438       0.59094321 </v>
   <v>       0.25630944       0.51645859       0.15239349 </v>
   <v>       0.25630944       0.51645859       0.48090702 </v>
   <v>       0.00630944       0.76645858       0.31665025 </v>
   <v>       0.96551501       0.77507102       0.63795323 </v>
   <v>       0.25630944       0.51645859       0.06559824 </v>
   <v>       0.25630944       0.51645859       0.39411177 </v>
   <v>       0.00630944       0.76645858       0.22985501 </v>
   <v>       0.00630944       0.76645858       0.55836854 </v>
   <v>       0.19025794       0.71461308       0.10899586 </v>
   <v>       0.19025794       0.71461308       0.43750940 </v>
   <v>       0.44025794       0.96461308       0.27325263 </v>
   <v>       0.45922454       0.97404438       0.59094321 </v>
   <v>       0.75630944       0.51645859       0.15239349 </v>
   <v>       0.75630944       0.51645859       0.48090702 </v>
   <v>       0.50630944       0.76645858       0.31665025 </v>
   <v>       0.54868164       0.76740046       0.63704256 </v>
   <v>       0.79381397       0.51317815       0.07007620 </v>
   <v>       0.75630944       0.51645859       0.39411177 </v>
   <v>       0.50630944       0.76645858       0.22985501 </v>
   <v>       0.50630944       0.76645858       0.55836854 </v>
   <v>       0.69025794       0.71461308       0.10899586 </v>
   <v>       0.69025794       0.71461308       0.43750940 </v>
   <v>       0.94025794       0.96461308       0.27325263 </v>
   <v>       0.92041758       0.97537992       0.59329119 </v>
   <v>       0.46363020       0.15986562       0.06700951 </v>
   <v>       0.46840410       0.16661759       0.38224849 </v>
   <v>       0.21840410       0.41661758       0.21799173 </v>
   <v>       0.21840410       0.41661758       0.54650526 </v>
   <v>       0.46840410       0.16661759       0.16425677 </v>
   <v>       0.46840410       0.16661759       0.49277030 </v>
   <v>       0.03763766       0.45914101       0.02320956 </v>
   <v>       0.21840410       0.41661758       0.32851354 </v>
   <v>       0.20207511       0.41413643       0.64094568 </v>
   <v>       0.05251161       0.41429508       0.10899586 </v>
   <v>       0.05251161       0.41429508       0.43750940 </v>
   <v>       0.30251160       0.16429509       0.27325263 </v>
   <v>       0.30251160       0.16429509       0.60176617 </v>
   <v>       0.97345445       0.13816074       0.06881294 </v>
   <v>       0.96840410       0.16661759       0.38224849 </v>
   <v>       0.71840410       0.41661758       0.21799173 </v>
   <v>       0.71840410       0.41661758       0.54650526 </v>
   <v>       0.96840410       0.16661759       0.16425677 </v>
   <v>       0.96840410       0.16661759       0.49277030 </v>
   <v>       0.71840410       0.41661758       0.32851354 </v>
   <v>       0.55251161       0.41429508       0.10899586 </v>
   <v>       0.55251161       0.41429508       0.43750940 </v>
   <v>       0.80251160       0.16429509       0.27325263 </v>
   <v>       0.80251160       0.16429509       0.60176617 </v>
   <v>       0.47345445       0.63816074       0.06881294 </v>
   <v>       0.46840411       0.66661759       0.38224849 </v>
   <v>       0.21840411       0.91661758       0.21799173 </v>
   <v>       0.21840411       0.91661758       0.54650526 </v>
   <v>       0.46840411       0.66661759       0.16425677 </v>
   <v>       0.46840411       0.66661759       0.49277030 </v>
   <v>       0.21840411       0.91661758       0.32851354 </v>
   <v>       0.05251161       0.91429508       0.10899586 </v>
   <v>       0.05251161       0.91429508       0.43750940 </v>
   <v>       0.30251161       0.66429509       0.27325263 </v>
   <v>       0.30251161       0.66429509       0.60176617 </v>
   <v>       0.96363020       0.65986562       0.06700951 </v>
   <v>       0.96840411       0.66661759       0.38224849 </v>
   <v>       0.71840411       0.91661758       0.21799173 </v>
   <v>       0.71840411       0.91661758       0.54650526 </v>
   <v>       0.96840411       0.66661759       0.16425677 </v>
   <v>       0.96840411       0.66661759       0.49277030 </v>
   <v>       0.53763766       0.95914101       0.02320956 </v>
   <v>       0.71840411       0.91661758       0.32851354 </v>
   <v>       0.70207511       0.91413643       0.64094568 </v>
   <v>       0.55251161       0.91429508       0.10899586 </v>
   <v>       0.55251161       0.91429508       0.43750940 </v>
   <v>       0.80251161       0.66429509       0.27325263 </v>
   <v>       0.80251161       0.66429509       0.60176617 </v>
  </varray>
 </structure>
 <calculation>
  <scstep>
   <time name="dav">   10.66   10.67</time>
   <time name="total">   10.97   10.98</time>
   <energy>
    <i name="alphaZ">   3266.22189490 </i>
    <i name="ewald"> 346407.14237203 </i>
    <i name="hartreedc">-512379.36200465 </i>
    <i name="XCdc">   4898.10224335 </i>
    <i name="pawpsdc"> 150306.04444553 </i>
    <i name="pawaedc">-156855.34918313 </i>
    <i name="eentropy">     -0.27536009 </i>
    <i name="bandstr">  -2272.24235115 </i>
    <i name="atom"> 181336.80673834 </i>
    <i name="e_fr_energy">  14707.08879516 </i>
    <i name="e_wo_entrp">  14707.36415524 </i>
    <i name="e_0_energy">  14707.22647520 </i>
   </energy>
  </scstep>
  <scstep>
   <time name="dav">    9.30    9.31</time>
   <time name="total">    9.30    9.31</time>
   <energy>
    <i name="e_fr_energy">   1199.82813665 </i>
    <i name="e_wo_entrp">   1200.45888209 </i>
    <i name="e_0_energy">   1200.14350937 </i>
   </energy>
  </scstep>
  <scstep>
   <time name="dav">   10.31   10.31</time>
   <time name="total">   10.31   10.31</time>
   <energy>
    <i name="e_fr_energy">   -403.12956788 </i>
    <i name="e_wo_entrp">   -402.25292712 </i>
    <i name="e_0_energy">   -402.69124750 </i>
   </energy>
  </scstep>
  <scstep>
   <time name="dav">   10.61   10.62</time>
   <time name="total">   10.62   10.62</time>
   <energy>
    <i name="e_fr_energy">   -537.39647228 </i>
    <i name="e_wo_entrp">   -536.53121306 </i>
    <i name="e_0_energy">   -536.96384267 </i>
   </energy>
  </scstep>
  <scstep>
   <time name="dav">   11.10   11.11</time>
   <time name="total">   11.40   11.41</time>
   <energy>
    <i name="e_fr_energy">   -542.38662897 </i>
    <i name="e_wo_entrp">   -541.51808354 </i>
    <i name="e_0_energy">   -541.95235625 </i>
   </energy>
  </scstep>
  <scstep>
   <time name="dav">   11.57   11.57</time>
   <time name="total">   12.36   12.36</time>
   <energy>
    <i name="e_fr_energy">   -780.78348578 </i>
    <i name="e_wo_entrp">   -779.64904258 </i>
    <i name="e_0_energy">   -780.21626418 </i>
   </energy>
  </scstep>
  <scstep>
   <time name="dav">   11.14   11.15</time>
   <time name="total">   11.72   11.73</time>
   <energy>
    <i name="e_fr_energy">   -637.26993665 </i>
    <i name="e_wo_entrp">   -636.34876588 </i>
    <i name="e_0_energy">   -636.80935126 </i>
   </energy>
  </scstep>
  <scstep>
   <time name="dav">   12.41   12.42</time>
   <time name="total">   13.03   13.04</time>
   <energy>
    <i name="e_fr_energy">   -720.67806671 </i>
    <i name="e_wo_entrp">   -719.23826503 </i>
    <i name="e_0_energy">   -719.95816587 </i>
   </energy>
  </scstep>
  <scstep>
   <time name="dav">   11.98   11.99</time>
   <time name="total">   12.57   12.58</time>
   <energy>
    <i name="e_fr_energy">   -551.66770422 </i>
    <i name="e_wo_entrp">   -550.63931109 </i>
    <i name="e_0_energy">   -551.15350766 </i>
   </energy>
  </scstep>
  <scstep>
   <time name="dav">   13.05   13.06</time>
   <time name="total">   13.75   13.76</time>
   <energy>
    <i name="e_fr_energy">   -638.88880414 </i>
    <i name="e_wo_entrp">   -637.52202679 </i>
    <i name="e_0_energy">   -638.20541546 </i>
   </energy>
  </scstep>
  <scstep>
   <time name="dav">   11.52   11.52</time>
   <time name="total">   12.13   12.13</time>
   <energy>
    <i name="e_fr_energy">   -687.25245714 </i>
    <i name="e_wo_entrp">   -686.26671034 </i>
    <i name="e_0_energy">   -686.75958374 </i>
   </energy>
  </scstep>
  <scstep>
   <time name="dav">   11.63   11.63</time>
   <time name="total">   12.22   12.22</time>
   <energy>
    <i name="e_fr_energy">   -571.77350645 </i>
    <i name="e_wo_entrp">   -570.49629458 </i>
    <i name="e_0_energy">   -571.13490051 </i>
   </energy>
  </scstep>
  <scstep>
   <time name="dav">   11.74   11.74</time>
   <time name="total">   12.41   12.41</time>
   <energy>
    <i name="e_fr_energy">   -564.35596074 </i>
    <i name="e_wo_entrp">   -562.89943155 </i>
    <i name="e_0_energy">   -563.62769615 </i>
   </energy>
  </scstep>
  <scstep>
   <time name="dav">   11.79   11.79</time>
   <time name="total">   12.37   12.38</time>
   <energy>
    <i name="e_fr_energy">   -560.39673295 </i>
    <i name="e_wo_entrp">   -559.18737535 </i>
    <i name="e_0_energy">   -559.79205415 </i>
   </energy>
  </scstep>
  <scstep>
   <time name="dav">   11.86   11.86</time>
   <time name="total">   12.45   12.46</time>
   <energy>
    <i name="e_fr_energy">   -534.03909164 </i>
    <i name="e_wo_entrp">   -532.34558737 </i>
    <i name="e_0_energy">   -533.19233950 </i>
   </energy>
  </scstep>
  <scstep>
   <time name="dav">   12.31   12.32</time>
   <time name="total">   12.92   12.93</time>
   <energy>
    <i name="e_fr_energy">   -498.48457810 </i>
    <i name="e_wo_entrp">   -497.63653564 </i>
    <i name="e_0_energy">   -498.06055687 </i>
   </energy>
  </scstep>
  <scstep>
   <time name="dav">   12.05   12.05</time>
   <time name="total">   12.64   12.65</time>
   <energy>
    <i name="e_fr_energy">   -490.36321076 </i>
    <i name="e_wo_entrp">   -489.05800130 </i>
    <i name="e_0_energy">   -489.71060603 </i>
   </energy>
  </scstep>
  <scstep>
   <time name="dav">   11.95   11.95</time>
   <time name="total">   12.54   12.55</time>
   <energy>
    <i name="e_fr_energy">   -486.04412071 </i>
    <i name="e_wo_entrp">   -485.13869426 </i>
    <i name="e_0_energy">   -485.59140749 </i>
   </energy>
  </scstep>
  <scstep>
   <time name="dav">   12.01   12.01</time>
   <time name="total">   12.60   12.61</time>
   <energy>
    <i name="e_fr_energy">   -484.70953646 </i>
    <i name="e_wo_entrp">   -483.71625542 </i>
    <i name="e_0_energy">   -484.21289594 </i>
   </energy>
  </scstep>
  <scstep>
   <time name="dav">   11.58   11.58</time>
   <time name="total">   12.17   12.18</time>
   <energy>
    <i name="e_fr_energy">   -482.61354696 </i>
    <i name="e_wo_entrp">   -481.57669136 </i>
    <i name="e_0_energy">   -482.09511916 </i>
   </energy>
  </scstep>
  <scstep>
   <time name="dav">   11.87   11.87</time>
   <time name="total">   12.47   12.47</time>
   <energy>
    <i name="e_fr_energy">   -481.59047143 </i>
    <i name="e_wo_entrp">   -480.49761533 </i>
    <i name="e_0_energy">   -481.04404338 </i>
   </energy>
  </scstep>
  <scstep>
   <time name="dav">   12.65   12.66</time>
   <time name="total">   13.50   13.50</time>
   <energy>
    <i name="e_fr_energy">   -480.34696930 </i>
    <i name="e_wo_entrp">   -479.21974086 </i>
    <i name="e_0_energy">   -479.78335508 </i>
   </energy>
  </scstep>
  <scstep>
   <time name="dav">   12.41   12.41</time>
   <time name="total">   13.02   13.02</time>
   <energy>
    <i name="e_fr_energy">   -479.82535168 </i>
    <i name="e_wo_entrp">   -478.63724510 </i>
    <i name="e_0_energy">   -479.23129839 </i>
   </energy>
  </scstep>
  <scstep>
   <time name="dav">   11.98   11.98</time>
   <time name="total">   12.59   12.59</time>
   <energy>
    <i name="e_fr_energy">   -479.16897870 </i>
    <i name="e_wo_entrp">   -477.92964991 </i>
    <i name="e_0_energy">   -478.54931430 </i>
   </energy>
  </scstep>
  <scstep>
   <time name="dav">   11.33   11.33</time>
   <time name="total">   12.19   12.23</time>
   <energy>
    <i name="e_fr_energy">   -478.93961903 </i>
    <i name="e_wo_entrp">   -477.69136162 </i>
    <i name="e_0_energy">   -478.31549033 </i>
   </energy>
  </scstep>
  <scstep>
   <time name="dav">   11.20   11.20</time>
   <time name="total">   11.81   11.81</time>
   <energy>
    <i name="e_fr_energy">   -478.92133337 </i>
    <i name="e_wo_entrp">   -477.70739679 </i>
    <i name="e_0_energy">   -478.31436508 </i>
   </energy>
  </scstep>
  <scstep>
   <time name="dav">   11.02   11.02</time>
   <time name="total">   11.63   11.63</time>
   <energy>
    <i name="e_fr_energy">   -478.93908578 </i>
    <i name="e_wo_entrp">   -477.72808132 </i>
    <i name="e_0_energy">   -478.33358355 </i>
   </energy>
  </scstep>
  <scstep>
   <time name="dav">   11.78   11.78</time>
   <time name="total">   12.39   12.39</time>
   <energy>
    <i name="e_fr_energy">   -478.94152992 </i>
    <i name="e_wo_entrp">   -477.67686712 </i>
    <i name="e_0_energy">   -478.30919852 </i>
   </energy>
  </scstep>
  <scstep>
   <time name="dav">   11.79   11.79</time>
   <time name="total">   12.40   12.40</time>
   <energy>
    <i name="e_fr_energy">   -478.92061556 </i>
    <i name="e_wo_entrp">   -477.63802641 </i>
    <i name="e_0_energy">   -478.27932099 </i>
   </energy>
  </scstep>
  <scstep>
   <time name="dav">   12.17   12.17</time>
   <time name="total">   12.80   12.80</time>
   <energy>
    <i name="e_fr_energy">   -478.82427816 </i>
    <i name="e_wo_entrp">   -477.57209650 </i>
    <i name="e_0_energy">   -478.19818733 </i>
   </energy>
  </scstep>
  <scstep>
   <time name="dav">   11.85   11.85</time>
   <time name="total">   12.46   12.46</time>
   <energy>
    <i name="e_fr_energy">   -478.80497436 </i>
    <i name="e_wo_entrp">   -477.54968585 </i>
    <i name="e_0_energy">   -478.17733010 </i>
   </energy>
  </scstep>
  <scstep>
   <time name="dav">   11.15   11.16</time>
   <time name="total">   11.77   11.78</time>
   <energy>
    <i name="e_fr_energy">   -478.79761325 </i>
    <i name="e_wo_entrp">   -477.53112705 </i>
    <i name="e_0_energy">   -478.16437015 </i>
   </energy>
  </scstep>
  <scstep>
   <time name="dav">   11.76   11.76</time>
   <time name="total">   12.53   12.53</time>
   <energy>
    <i name="e_fr_energy">   -478.79305962 </i>
    <i name="e_wo_entrp">   -477.53002403 </i>
    <i name="e_0_energy">   -478.16154183 </i>
   </energy>
  </scstep>
  <scstep>
   <time name="dav">   11.68   11.68</time>
   <time name="total">   12.33   12.33</time>
   <energy>
    <i name="e_fr_energy">   -478.78590393 </i>
    <i name="e_wo_entrp">   -477.52704360 </i>
    <i name="e_0_energy">   -478.15647377 </i>
   </energy>
  </scstep>
  <scstep>
   <time name="dav">   11.81   11.81</time>
   <time name="total">   12.43   12.43</time>
   <energy>
    <i name="e_fr_energy">   -478.78200003 </i>
    <i name="e_wo_entrp">   -477.52132255 </i>
    <i name="e_0_energy">   -478.15166129 </i>
   </energy>
  </scstep>
  <scstep>
   <time name="dav">   11.94   11.94</time>
   <time name="total">   12.56   12.56</time>
   <energy>
    <i name="e_fr_energy">   -478.78037550 </i>
    <i name="e_wo_entrp">   -477.52159979 </i>
    <i name="e_0_energy">   -478.15098765 </i>
   </energy>
  </scstep>
  <scstep>
   <time name="dav">   11.45   11.45</time>
   <time name="total">   12.24   12.24</time>
   <energy>
    <i name="e_fr_energy">   -478.77984962 </i>
    <i name="e_wo_entrp">   -477.52158625 </i>
    <i name="e_0_energy">   -478.15071793 </i>
   </energy>
  </scstep>
  <scstep>
   <time name="dav">   11.23   11.23</time>
   <time name="total">   11.85   11.85</time>
   <energy>
    <i name="e_fr_energy">   -478.77961608 </i>
    <i name="e_wo_entrp">   -477.52146164 </i>
    <i name="e_0_energy">   -478.15053886 </i>
   </energy>
  </scstep>
  <scstep>
   <time name="dav">    9.35    9.35</time>
   <time name="total">    9.98    9.98</time>
   <energy>
    <i name="e_fr_energy">   -478.77947101 </i>
    <i name="e_wo_entrp">   -477.51989014 </i>
    <i name="e_0_energy">   -478.14968058 </i>
   </energy>
  </scstep>
  <scstep>
   <time name="dav">    7.07    7.08</time>
   <time name="total">    7.70    7.70</time>
   <energy>
    <i name="e_fr_energy">   -478.77924759 </i>
    <i name="e_wo_entrp">   -477.52105771 </i>
    <i name="e_0_energy">   -478.15015265 </i>
   </energy>
  </scstep>
  <scstep>
   <time name="dav">    6.61    6.61</time>
   <time name="total">    7.24    7.24</time>
   <energy>
    <i name="e_fr_energy">   -478.77897534 </i>
    <i name="e_wo_entrp">   -477.52212933 </i>
    <i name="e_0_energy">   -478.15055233 </i>
   </energy>
  </scstep>
  <scstep>
   <time name="dav">    7.32    7.32</time>
   <time name="total">    7.62    7.63</time>
   <energy>
    <i name="alphaZ">   3266.22189490 </i>
    <i name="ewald"> 346407.14237203 </i>
    <i name="hartreedc">-511205.00131249 </i>
    <i name="XCdc">   4858.04156061 </i>
    <i name="pawpsdc"> 179263.78540339 </i>
    <i name="pawaedc">-185893.64467257 </i>
    <i name="eentropy">     -1.25610966 </i>
    <i name="bandstr"> -18510.87486300 </i>
    <i name="atom"> 181336.80673834 </i>
    <i name="e_fr_energy">   -478.77898842 </i>
    <i name="e_wo_entrp">   -477.52287877 </i>
    <i name="e_0_energy">   -478.15093360 </i>
   </energy>
  </scstep>
  <structure>
   <crystal>
    <varray name="basis" >
     <v>       6.27856000       0.00000000       0.00000000 </v>
     <v>       2.09285340      11.06019551       0.00000000 </v>
     <v>       0.00000000       0.00000000      29.15682000 </v>
    </varray>
    <i name="volume">   2024.71084344 </i>
    <varray name="rec_basis" >
     <v>       0.15927219      -0.03013811       0.00000000 </v>
     <v>       0.00000000       0.09041431       0.00000000 </v>
     <v>       0.00000000       0.00000000       0.03429729 </v>
    </varray>
   </crystal>
   <varray name="positions" >
    <v>       0.25630944       0.01645859       0.15239349 </v>
    <v>       0.25630944       0.01645859       0.48090702 </v>
    <v>       0.00630944       0.26645858       0.31665025 </v>
    <v>       0.04868164       0.26740046       0.63704256 </v>
    <v>       0.29381397       0.01317815       0.07007620 </v>
    <v>       0.25630944       0.01645859       0.39411177 </v>
    <v>       0.00630944       0.26645858       0.22985501 </v>
    <v>       0.00630944       0.26645858       0.55836854 </v>
    <v>       0.19025794       0.21461308       0.10899586 </v>
    <v>       0.19025794       0.21461308       0.43750940 </v>
    <v>       0.44025794       0.46461308       0.27325263 </v>
    <v>       0.42041758       0.47537992       0.59329119 </v>
    <v>       0.75630944       0.01645859       0.15239349 </v>
    <v>       0.75630944       0.01645859       0.48090702 </v>
    <v>       0.50630944       0.26645858       0.31665025 </v>
    <v>       0.46551501       0.27507102       0.63795323 </v>
    <v>       0.75630944       0.01645859       0.06559824 </v>
    <v>       0.75630944       0.01645859       0.39411177 </v>
    <v>       0.50630944       0.26645858       0.22985501 </v>
    <v>       0.50630944       0.26645858       0.55836854 </v>
    <v>       0.69025794       0.21461308       0.10899586 </v>
    <v>       0.69025794       0.21461308       0.43750940 </v>
    <v>       0.94025794       0.46461308       0.27325263 </v>
    <v>       0.95922454       0.47404438       0.59094321 </v>
    <v>       0.25630944       0.51645859       0.15239349 </v>
    <v>       0.25630944       0.51645859       0.48090702 </v>
    <v>       0.00630944       0.76645858       0.31665025 </v>
    <v>       0.96551501       0.77507102       0.63795323 </v>
    <v>       0.25630944       0.51645859       0.06559824 </v>
    <v>       0.25630944       0.51645859       0.39411177 </v>
    <v>       0.00630944       0.76645858       0.22985501 </v>
    <v>       0.00630944       0.76645858       0.55836854 </v>
    <v>       0.19025794       0.71461308       0.10899586 </v>
    <v>       0.19025794       0.71461308       0.43750940 </v>
    <v>       0.44025794       0.96461308       0.27325263 </v>
    <v>       0.45922454       0.97404438       0.59094321 </v>
    <v>       0.75630944       0.51645859       0.15239349 </v>
    <v>       0.75630944       0.51645859       0.48090702 </v>
    <v>       0.50630944       0.76645858       0.31665025 </v>
    <v>       0.54868164       0.76740046       0.63704256 </v>
    <v>       0.79381397       0.51317815       0.07007620 </v>
    <v>       0.75630944       0.51645859       0.39411177 </v>
    <v>       0.50630944       0.76645858       0.22985501 </v>
    <v>       0.50630944       0.76645858       0.55836854 </v>
    <v>       0.69025794       0.71461308       0.10899586 </v>
    <v>       0.69025794       0.71461308       0.43750940 </v>
    <v>       0.94025794       0.96461308       0.27325263 </v>
    <v>       0.92041758       0.97537992       0.59329119 </v>
    <v>       0.46363020       0.15986562       0.06700951 </v>
    <v>       0.46840410       0.16661759       0.38224849 </v>
    <v>       0.21840410       0.41661758       0.21799173 </v>
    <v>       0.21840410       0.41661758       0.54650526 </v>
    <v>       0.46840410       0.16661759       0.16425677 </v>
    <v>       0.46840410       0.16661759       0.49277030 </v>
    <v>       0.03763766       0.45914101       0.02320956 </v>
    <v>       0.21840410       0.41661758       0.32851354 </v>
    <v>       0.20207511       0.41413643       0.64094568 </v>
    <v>       0.05251161       0.41429508       0.10899586 </v>
    <v>       0.05251161       0.41429508       0.43750940 </v>
    <v>       0.30251160       0.16429509       0.27325263 </v>
    <v>       0.30251160       0.16429509       0.60176617 </v>
    <v>       0.97345445       0.13816074       0.06881294 </v>
    <v>       0.96840410       0.16661759       0.38224849 </v>
    <v>       0.71840410       0.41661758       0.21799173 </v>
    <v>       0.71840410       0.41661758       0.54650526 </v>
    <v>       0.96840410       0.16661759       0.16425677 </v>
    <v>       0.96840410       0.16661759       0.49277030 </v>
    <v>       0.71840410       0.41661758       0.32851354 </v>
    <v>       0.55251161       0.41429508       0.10899586 </v>
    <v>       0.55251161       0.41429508       0.43750940 </v>
    <v>       0.80251160       0.16429509       0.27325263 </v>
    <v>       0.80251160       0.16429509       0.60176617 </v>
    <v>       0.47345445       0.63816074       0.06881294 </v>
    <v>       0.46840411       0.66661759       0.38224849 </v>
    <v>       0.21840411       0.91661758       0.21799173 </v>
    <v>       0.21840411       0.91661758       0.54650526 </v>
    <v>       0.46840411       0.66661759       0.16425677 </v>
    <v>       0.46840411       0.66661759       0.49277030 </v>
    <v>       0.21840411       0.91661758       0.32851354 </v>
    <v>       0.05251161       0.91429508       0.10899586 </v>
    <v>       0.05251161       0.91429508       0.43750940 </v>
    <v>       0.30251161       0.66429509       0.27325263 </v>
    <v>       0.30251161       0.66429509       0.60176617 </v>
    <v>       0.96363020       0.65986562       0.06700951 </v>
    <v>       0.96840411       0.66661759       0.38224849 </v>
    <v>       0.71840411       0.91661758       0.21799173 </v>
    <v>       0.71840411       0.91661758       0.54650526 </v>
    <v>       0.96840411       0.66661759       0.16425677 </v>
    <v>       0.96840411       0.66661759       0.49277030 </v>
    <v>       0.53763766       0.95914101       0.02320956 </v>
    <v>       0.71840411       0.91661758       0.32851354 </v>
    <v>       0.70207511       0.91413643       0.64094568 </v>
    <v>       0.55251161       0.91429508       0.10899586 </v>
    <v>       0.55251161       0.91429508       0.43750940 </v>
    <v>       0.80251161       0.66429509       0.27325263 </v>
    <v>       0.80251161       0.66429509       0.60176617 </v>
   </varray>
  </structure>
  <varray name="forces" >
   <v>       0.02459650       0.11085476       0.57007104 </v>
   <v>       0.08925533       0.15230991      -0.63729099 </v>
   <v>       0.10001538       0.12757080      -0.35863181 </v>
   <v>      -1.38455405      -0.76586579       0.41070432 </v>
   <v>      -2.06801606      -0.06481809       1.14193360 </v>
   <v>       0.06231556       0.18850917       0.30321243 </v>
   <v>       0.14138433       0.16038894       0.45869184 </v>
   <v>      -0.12088594       0.01217365      -1.13125890 </v>
   <v>       0.07625436       0.00112052       2.46965809 </v>
   <v>       0.20168844      -0.36201095      -0.09127135 </v>
   <v>       0.14192883      -0.38415932       0.00345285 </v>
   <v>       1.22078571      -0.52859770       0.12690466 </v>
   <v>       0.06819158       0.09936543       0.09268825 </v>
   <v>       0.14927687       0.01385685      -0.55379504 </v>
   <v>       0.10220565       0.13380733      -0.37647697 </v>
   <v>       1.40693985      -0.57173270       0.31327095 </v>
   <v>       0.93431465      -0.37779653       2.46700050 </v>
   <v>       0.07206266       0.21555875       0.28692948 </v>
   <v>       0.09277990       0.12880870       0.38177277 </v>
   <v>       0.21824900       0.29720147      -0.93493174 </v>
   <v>       0.55541994      -0.04258825       2.12331078 </v>
   <v>       0.20290366      -0.31228217      -0.11205331 </v>
   <v>       0.17781929      -0.38764321      -0.00515066 </v>
   <v>      -1.66413449      -0.02535758       0.21989856 </v>
   <v>       0.06819158       0.09936543       0.09268825 </v>
   <v>       0.14927687       0.01385685      -0.55379504 </v>
   <v>       0.10220565       0.13380733      -0.37647697 </v>
   <v>       1.40693985      -0.57173270       0.31327095 </v>
   <v>       0.93431465      -0.37779653       2.46700050 </v>
   <v>       0.07206266       0.21555875       0.28692948 </v>
   <v>       0.09277990       0.12880870       0.38177277 </v>
   <v>       0.21824900       0.29720147      -0.93493174 </v>
   <v>       0.55541994      -0.04258825       2.12331078 </v>
   <v>       0.20290366      -0.31228217      -0.11205331 </v>
   <v>       0.17781929      -0.38764321      -0.00515066 </v>
   <v>      -1.66413449      -0.02535758       0.21989856 </v>
   <v>       0.02459650       0.11085476       0.57007104 </v>
   <v>       0.08925533       0.15230991      -0.63729099 </v>
   <v>       0.10001538       0.12757080      -0.35863181 </v>
   <v>      -1.38455405      -0.76586579       0.41070432 </v>
   <v>      -2.06801606      -0.06481809       1.14193360 </v>
   <v>       0.06231556       0.18850917       0.30321243 </v>
   <v>       0.14138433       0.16038894       0.45869184 </v>
   <v>      -0.12088594       0.01217365      -1.13125890 </v>
   <v>       0.07625436       0.00112052       2.46965809 </v>
   <v>       0.20168844      -0.36201095      -0.09127135 </v>
   <v>       0.14192883      -0.38415932       0.00345285 </v>
   <v>       1.22078571      -0.52859770       0.12690466 </v>
   <v>      -0.05457790       1.89076207      -3.23186694 </v>
   <v>      -0.11912757      -0.27805465       0.41710788 </v>
   <v>      -0.10279558      -0.21402595       0.32690482 </v>
   <v>       0.08956724      -0.65975197      -2.45002470 </v>
   <v>      -0.06685997      -0.30150211       0.15174485 </v>
   <v>      -0.10305607      -0.29176134      -0.26972964 </v>
   <v>      -0.30771863      -2.17056097      -4.03798263 </v>
   <v>      -0.08641593      -0.25159033      -0.42769800 </v>
   <v>       0.08829516       1.43252478       3.09919280 </v>
   <v>       0.56810868      -0.30591621       1.30130576 </v>
   <v>      -0.14039598       0.56776217       0.12615692 </v>
   <v>      -0.13443495       0.53296388      -0.02075815 </v>
   <v>       0.12301890      -1.41639456      -0.51520303 </v>
   <v>       0.08207949       1.21690420      -3.79544453 </v>
   <v>      -0.11503879      -0.27427867       0.46038303 </v>
   <v>      -0.06586951      -0.23206353       0.34142569 </v>
   <v>      -0.17034679       0.20931002       0.71626666 </v>
   <v>      -0.10588346       0.21795159       0.69278793 </v>
   <v>      -0.14524406      -0.24023288      -0.28246356 </v>
   <v>      -0.11024053      -0.25601481      -0.38307620 </v>
   <v>       0.16342464      -0.17649608      -0.35891618 </v>
   <v>      -0.17001603       0.61475228       0.00990931 </v>
   <v>      -0.08963167       0.54332998      -0.02395489 </v>
   <v>       0.17236232       2.02370912       0.98529344 </v>
   <v>       0.08207949       1.21690420      -3.79544453 </v>
   <v>      -0.11503879      -0.27427867       0.46038303 </v>
   <v>      -0.06586951      -0.23206353       0.34142569 </v>
   <v>      -0.17034679       0.20931002       0.71626666 </v>
   <v>      -0.10588346       0.21795159       0.69278793 </v>
   <v>      -0.14524406      -0.24023288      -0.28246356 </v>
   <v>      -0.11024053      -0.25601481      -0.38307620 </v>
   <v>       0.16342464      -0.17649608      -0.35891618 </v>
   <v>      -0.17001603       0.61475228       0.00990931 </v>
   <v>      -0.08963167       0.54332998      -0.02395489 </v>
   <v>       0.17236232       2.02370912       0.98529344 </v>
   <v>      -0.05457790       1.89076207      -3.23186694 </v>
   <v>      -0.11912757      -0.27805465       0.41710788 </v>
   <v>      -0.10279558      -0.21402595       0.32690482 </v>
   <v>       0.08956724      -0.65975197      -2.45002470 </v>
   <v>      -0.06685997      -0.30150211       0.15174485 </v>
   <v>      -0.10305607      -0.29176134      -0.26972964 </v>
   <v>      -0.30771863      -2.17056097      -4.03798263 </v>
   <v>      -0.08641593      -0.25159033      -0.42769800 </v>
   <v>       0.08829516       1.43252478       3.09919280 </v>
   <v>       0.56810868      -0.30591621       1.30130576 </v>
   <v>      -0.14039598       0.56776217       0.12615692 </v>
   <v>      -0.13443495       0.53296388      -0.02075815 </v>
   <v>       0.12301890      -1.41639456      -0.51520303 </v>
  </varray>
  <varray name="stress" >
   <v>      36.73152477       7.35158873       3.60387001 </v>
   <v>       7.35158903      17.91038504       3.72430388 </v>
   <v>       3.60387035       3.72430366      37.29414650 </v>
  </varray>
  <energy>
   <i name="e_fr_energy">   -478.77898842 </i>
   <i name="e_wo_entrp">   -478.15093360 </i>
   <i name="e_0_energy">     -1.25610966 </i>
  </energy>
  <time name="totalsc">  505.04  505.22</time>
  <eigenvalues>
   <array>
    <dimension dim="1">band</dimension>
    <dimension dim="2">kpoint</dimension>
    <dimension dim="3">spin</dimension>
    <field>eigene</field>
    <field>occ</field>
    <set>
     <set comment="spin 1">
      <set comment="kpoint 1">
       <r>  -61.4384    1.0000 </r>
       <r>  -61.4383    1.0000 </r>
       <r>  -61.2835    1.0000 </r>
       <r>  -61.2835    1.0000 </r>
       <r>  -61.2540    1.0000 </r>
       <r>  -61.2540    1.0000 </r>
       <r>  -61.2458    1.0000 </r>
       <r>  -61.2457    1.0000 </r>
       <r>  -61.1715    1.0000 </r>
       <r>  -61.1715    1.0000 </r>
       <r>  -61.0760    1.0000 </r>
       <r>  -61.0759    1.0000 </r>
       <r>  -61.0495    1.0000 </r>
       <r>  -61.0494    1.0000 </r>
       <r>  -60.9494    1.0000 </r>
       <r>  -60.9493    1.0000 </r>
       <r>  -60.9450    1.0000 </r>
       <r>  -60.9450    1.0000 </r>
       <r>  -60.9445    1.0000 </r>
       <r>  -60.9444    1.0000 </r>
       <r>  -60.9395    1.0000 </r>
       <r>  -60.9394    1.0000 </r>
       <r>  -60.9343    1.0000 </r>
       <r>  -60.9342    1.0000 </r>
       <r>  -60.9323    1.0000 </r>
       <r>  -60.9323    1.0000 </r>
       <r>  -60.9280    1.0000 </r>
       <r>  -60.9280    1.0000 </r>
       <r>  -60.9239    1.0000 </r>
       <r>  -60.9239    1.0000 </r>
       <r>  -60.9207    1.0000 </r>
       <r>  -60.9207    1.0000 </r>
       <r>  -60.9173    1.0000 </r>
       <r>  -60.9172    1.0000 </r>
       <r>  -60.9163    1.0000 </r>
       <r>  -60.9162    1.0000 </r>
       <r>  -60.9161    1.0000 </r>
       <r>  -60.9160    1.0000 </r>
       <r>  -60.9141    1.0000 </r>
       <r>  -60.9141    1.0000 </r>
       <r>  -60.9131    1.0000 </r>
       <r>  -60.9130    1.0000 </r>
       <r>  -60.9102    1.0000 </r>
       <r>  -60.9102    1.0000 </r>
       <r>  -60.9091    1.0000 </r>
       <r>  -60.9091    1.0000 </r>
       <r>  -60.9075    1.0000 </r>
       <r>  -60.9075    1.0000 </r>
       <r>  -60.9047    1.0000 </r>
       <r>  -60.9047    1.0000 </r>
       <r>  -60.9045    1.0000 </r>
       <r>  -60.9045    1.0000 </r>
       <r>  -60.9020    1.0000 </r>
       <r>  -60.9020    1.0000 </r>
       <r>  -60.8911    1.0000 </r>
       <r>  -60.8911    1.0000 </r>
       <r>  -60.8728    1.0000 </r>
       <r>  -60.8727    1.0000 </r>
       <r>  -60.8727    1.0000 </r>
       <r>  -60.8727    1.0000 </r>
       <r>  -60.8459    1.0000 </r>
       <r>  -60.8458    1.0000 </r>
       <r>  -60.8425    1.0000 </r>
       <r>  -60.8425    1.0000 </r>
       <r>  -60.8347    1.0000 </r>
       <r>  -60.8347    1.0000 </r>
       <r>  -60.8300    1.0000 </r>
       <r>  -60.8300    1.0000 </r>
       <r>  -60.8295    1.0000 </r>
       <r>  -60.8295    1.0000 </r>
       <r>  -60.8256    1.0000 </r>
       <r>  -60.8255    1.0000 </r>
       <r>  -60.8220    1.0000 </r>
       <r>  -60.8220    1.0000 </r>
       <r>  -60.7976    1.0000 </r>
       <r>  -60.7976    1.0000 </r>
       <r>  -60.7725    1.0000 </r>
       <r>  -60.7725    1.0000 </r>
       <r>  -60.7684    1.0000 </r>
       <r>  -60.7684    1.0000 </r>
       <r>  -60.7462    1.0000 </r>
       <r>  -60.7461    1.0000 </r>
       <r>  -60.7440    1.0000 </r>
       <r>  -60.7440    1.0000 </r>
       <r>  -60.7333    1.0000 </r>
       <r>  -60.7332    1.0000 </r>
       <r>  -60.6925    1.0000 </r>
       <r>  -60.6924    1.0000 </r>
       <r>  -60.6857    1.0000 </r>
       <r>  -60.6856    1.0000 </r>
       <r>  -60.6739    1.0000 </r>
       <r>  -60.6738    1.0000 </r>
       <r>  -60.6558    1.0000 </r>
       <r>  -60.6558    1.0000 </r>
       <r>  -60.6226    1.0000 </r>
       <r>  -60.6225    1.0000 </r>
       <r>  -60.6153    1.0000 </r>
       <r>  -60.6153    1.0000 </r>
       <r>  -60.5869    1.0000 </r>
       <r>  -60.5869    1.0000 </r>
       <r>  -60.5804    1.0000 </r>
       <r>  -60.5804    1.0000 </r>
       <r>  -60.5635    1.0000 </r>
       <r>  -60.5634    1.0000 </r>
       <r>  -60.5612    1.0000 </r>
       <r>  -60.5612    1.0000 </r>
       <r>  -60.5450    1.0000 </r>
       <r>  -60.5450    1.0000 </r>
       <r>  -60.5416    1.0000 </r>
       <r>  -60.5416    1.0000 </r>
       <r>  -60.5400    1.0000 </r>
       <r>  -60.5400    1.0000 </r>
       <r>  -60.5362    1.0000 </r>
       <r>  -60.5361    1.0000 </r>
       <r>  -60.5343    1.0000 </r>
       <r>  -60.5342    1.0000 </r>
       <r>  -60.4690    1.0000 </r>
       <r>  -60.4690    1.0000 </r>
       <r>  -60.4604    1.0000 </r>
       <r>  -60.4603    1.0000 </r>
       <r>  -60.4545    1.0000 </r>
       <r>  -60.4545    1.0000 </r>
       <r>  -60.4291    1.0000 </r>
       <r>  -60.4291    1.0000 </r>
       <r>  -60.4097    1.0000 </r>
       <r>  -60.4097    1.0000 </r>
       <r>  -60.4035    1.0000 </r>
       <r>  -60.4034    1.0000 </r>
       <r>  -60.3979    1.0000 </r>
       <r>  -60.3978    1.0000 </r>
       <r>  -60.3683    1.0000 </r>
       <r>  -60.3683    1.0000 </r>
       <r>  -60.3657    1.0000 </r>
       <r>  -60.3657    1.0000 </r>
       <r>  -60.3285    1.0000 </r>
       <r>  -60.3285    1.0000 </r>
       <r>  -60.2853    1.0000 </r>
       <r>  -60.2853    1.0000 </r>
       <r>  -60.2508    1.0000 </r>
       <r>  -60.2508    1.0000 </r>
       <r>  -59.7480    1.0000 </r>
       <r>  -59.7480    1.0000 </r>
       <r>  -59.6955    1.0000 </r>
       <r>  -59.6955    1.0000 </r>
       <r>  -13.0815    1.0000 </r>
       <r>  -12.7241    1.0000 </r>
       <r>  -12.6565    1.0000 </r>
       <r>  -12.4200    1.0000 </r>
       <r>  -12.1916    1.0000 </r>
       <r>  -12.0504    1.0000 </r>
       <r>  -11.9195    1.0000 </r>
       <r>  -11.8683    1.0000 </r>
       <r>  -11.7145    1.0000 </r>
       <r>  -11.5545    1.0000 </r>
       <r>  -11.5277    1.0000 </r>
       <r>  -11.4769    1.0000 </r>
       <r>  -11.3418    1.0000 </r>
       <r>  -11.3247    1.0000 </r>
       <r>  -11.3104    1.0000 </r>
       <r>  -11.1042    1.0000 </r>
       <r>  -11.0607    1.0000 </r>
       <r>  -10.9849    1.0000 </r>
       <r>  -10.9658    1.0000 </r>
       <r>  -10.9653    1.0000 </r>
       <r>  -10.8266    1.0000 </r>
       <r>  -10.7911    1.0000 </r>
       <r>  -10.7678    1.0000 </r>
       <r>  -10.7570    1.0000 </r>
       <r>  -10.7560    1.0000 </r>
       <r>  -10.7146    1.0000 </r>
       <r>  -10.7063    1.0000 </r>
       <r>  -10.6319    1.0000 </r>
       <r>  -10.5677    1.0000 </r>
       <r>  -10.4982    1.0000 </r>
       <r>  -10.3914    1.0000 </r>
       <r>  -10.3910    1.0000 </r>
       <r>  -10.3302    1.0000 </r>
       <r>  -10.2762    1.0000 </r>
       <r>  -10.2375    1.0000 </r>
       <r>  -10.2153    1.0000 </r>
       <r>  -10.1755    1.0000 </r>
       <r>  -10.1697    1.0000 </r>
       <r>  -10.1323    1.0000 </r>
       <r>  -10.1017    1.0000 </r>
       <r>  -10.0471    1.0000 </r>
       <r>  -10.0116    1.0000 </r>
       <r>   -9.9641    1.0000 </r>
       <r>   -9.9269    1.0000 </r>
       <r>   -9.9026    1.0000 </r>
       <r>   -9.8491    1.0000 </r>
       <r>   -9.1634    1.0000 </r>
       <r>   -9.1578    1.0000 </r>
       <r>   -5.1396    1.0000 </r>
       <r>   -4.9842    1.0000 </r>
       <r>   -4.7013    1.0000 </r>
       <r>   -4.6742    1.0000 </r>
       <r>   -4.6396    1.0000 </r>
       <r>   -4.6192    1.0000 </r>
       <r>   -4.5530    1.0000 </r>
       <r>   -4.5011    1.0000 </r>
       <r>   -4.3553    1.0000 </r>
       <r>   -4.2838    1.0000 </r>
       <r>   -4.2783    1.0000 </r>
       <r>   -4.2530    1.0000 </r>
       <r>   -4.1273    1.0000 </r>
       <r>   -3.9876    1.0000 </r>
       <r>   -3.9343    1.0000 </r>
       <r>   -3.8987    1.0000 </r>
       <r>   -3.8453    1.0000 </r>
       <r>   -3.7497    1.0000 </r>
       <r>   -3.7261    1.0000 </r>
       <r>   -3.7068    1.0000 </r>
       <r>   -3.6603    1.0000 </r>
       <r>   -3.6579    1.0000 </r>
       <r>   -3.6537    1.0000 </r>
       <r>   -3.6188    1.0000 </r>
       <r>   -3.6023    1.0000 </r>
       <r>   -3.5257    1.0000 </r>
       <r>   -3.5168    1.0000 </r>
       <r>   -3.4725    1.0000 </r>
       <r>   -3.4595    1.0000 </r>
       <r>   -3.4260    1.0000 </r>
       <r>   -3.4084    1.0000 </r>
       <r>   -3.3915    1.0000 </r>
       <r>   -3.3731    1.0000 </r>
       <r>   -3.3676    1.0000 </r>
       <r>   -3.3610    1.0000 </r>
       <r>   -3.3418    1.0000 </r>
       <r>   -3.3359    1.0000 </r>
       <r>   -3.1647    1.0000 </r>
       <r>   -3.0052    1.0000 </r>
       <r>   -2.9936    1.0000 </r>
       <r>   -2.8652    1.0000 </r>
       <r>   -2.8263    1.0000 </r>
       <r>   -2.8247    1.0000 </r>
       <r>   -2.7309    1.0000 </r>
       <r>   -2.7120    1.0000 </r>
       <r>   -2.7100    1.0000 </r>
       <r>   -2.6506    1.0000 </r>
       <r>   -2.6024    1.0000 </r>
       <r>   -2.5427    1.0000 </r>
       <r>   -2.4958    1.0000 </r>
       <r>   -2.4213    1.0000 </r>
       <r>   -2.4163    1.0000 </r>
       <r>   -2.3379    1.0000 </r>
       <r>   -2.3097    1.0000 </r>
       <r>   -2.3063    1.0000 </r>
       <r>   -2.2767    1.0000 </r>
       <r>   -2.2529    1.0000 </r>
       <r>   -2.1617    1.0000 </r>
       <r>   -2.1589    1.0000 </r>
       <r>   -2.1008    1.0000 </r>
       <r>   -2.0412    1.0000 </r>
       <r>   -2.0177    1.0000 </r>
       <r>   -1.9273    1.0000 </r>
       <r>   -1.9156    1.0000 </r>
       <r>   -1.8703    1.0000 </r>
       <r>   -1.8511    1.0000 </r>
       <r>   -1.8226    1.0000 </r>
       <r>   -1.7932    1.0000 </r>
       <r>   -1.7925    1.0000 </r>
       <r>   -1.7573    1.0000 </r>
       <r>   -1.7239    1.0000 </r>
       <r>   -1.6851    1.0000 </r>
       <r>   -1.6249    1.0000 </r>
       <r>   -1.6100    1.0000 </r>
       <r>   -1.6077    1.0000 </r>
       <r>   -1.5733    1.0000 </r>
       <r>   -1.5661    1.0000 </r>
       <r>   -1.5372    1.0000 </r>
       <r>   -1.5104    1.0000 </r>
       <r>   -1.4963    1.0000 </r>
       <r>   -1.4857    1.0000 </r>
       <r>   -1.4608    1.0000 </r>
       <r>   -1.4288    1.0000 </r>
       <r>   -1.4035    1.0000 </r>
       <r>   -1.3815    1.0000 </r>
       <r>   -1.3540    1.0000 </r>
       <r>   -1.2844    1.0000 </r>
       <r>   -1.2779    1.0000 </r>
       <r>   -1.2721    1.0000 </r>
       <r>   -1.2514    1.0000 </r>
       <r>   -1.2253    1.0000 </r>
       <r>   -1.2137    1.0000 </r>
       <r>   -1.1945    1.0000 </r>
       <r>   -1.1623    1.0000 </r>
       <r>   -1.1083    1.0000 </r>
       <r>   -1.1061    1.0000 </r>
       <r>   -1.0559    1.0000 </r>
       <r>   -1.0344    1.0000 </r>
       <r>   -1.0302    1.0000 </r>
       <r>   -1.0212    1.0000 </r>
       <r>   -1.0041    1.0000 </r>
       <r>   -1.0013    1.0000 </r>
       <r>   -1.0001    1.0000 </r>
       <r>   -0.9902    1.0000 </r>
       <r>   -0.9823    1.0000 </r>
       <r>   -0.9790    1.0000 </r>
       <r>   -0.9653    1.0000 </r>
       <r>   -0.9517    1.0000 </r>
       <r>   -0.9383    1.0000 </r>
       <r>   -0.9092    1.0000 </r>
       <r>   -0.9080    1.0000 </r>
       <r>   -0.8990    1.0000 </r>
       <r>   -0.8326    1.0000 </r>
       <r>   -0.8302    1.0000 </r>
       <r>   -0.8131    1.0000 </r>
       <r>   -0.7891    1.0000 </r>
       <r>   -0.7873    1.0000 </r>
       <r>   -0.7826    1.0000 </r>
       <r>   -0.7729    1.0000 </r>
       <r>   -0.7517    1.0000 </r>
       <r>   -0.7308    1.0000 </r>
       <r>   -0.6776    1.0000 </r>
       <r>   -0.6589    1.0000 </r>
       <r>   -0.6304    1.0000 </r>
       <r>   -0.6210    1.0000 </r>
       <r>   -0.5415    1.0000 </r>
       <r>   -0.5297    1.0000 </r>
       <r>   -0.4977    1.0000 </r>
       <r>   -0.4801    1.0000 </r>
       <r>   -0.3948    1.0000 </r>
       <r>   -0.3707    1.0000 </r>
       <r>   -0.3125    1.0000 </r>
       <r>   -0.2582    1.0000 </r>
       <r>   -0.1429    1.0000 </r>
       <r>   -0.1219    1.0000 </r>
       <r>   -0.1191    1.0000 </r>
       <r>   -0.0906    1.0000 </r>
       <r>   -0.0714    1.0000 </r>
       <r>   -0.0519    1.0000 </r>
       <r>    0.0306    1.0000 </r>
       <r>    0.0645    1.0000 </r>
       <r>    0.0825    1.0000 </r>
       <r>    0.1013    1.0000 </r>
       <r>    0.1344    1.0000 </r>
       <r>    0.1648    1.0000 </r>
       <r>    0.1888    1.0000 </r>
       <r>    0.2159    1.0000 </r>
       <r>    0.2499    1.0000 </r>
       <r>    0.2808    1.0000 </r>
       <r>    0.3003    1.0000 </r>
       <r>    0.3379    1.0000 </r>
       <r>    0.3423    1.0000 </r>
       <r>    0.3746    1.0000 </r>
       <r>    0.4101    1.0000 </r>
       <r>    0.4112    1.0000 </r>
       <r>    0.4439    1.0000 </r>
       <r>    0.4772    1.0000 </r>
       <r>    0.4884    1.0000 </r>
       <r>    0.5136    1.0000 </r>
       <r>    0.5192    1.0000 </r>
       <r>    0.5333    1.0000 </r>
       <r>    0.5605    1.0000 </r>
       <r>    0.5876    1.0000 </r>
       <r>    0.6056    1.0000 </r>
       <r>    0.6072    1.0000 </r>
       <r>    0.6469    1.0000 </r>
       <r>    0.6556    1.0000 </r>
       <r>    0.6962    1.0000 </r>
       <r>    0.7281    1.0000 </r>
       <r>    0.7397    1.0000 </r>
       <r>    0.7513    1.0000 </r>
       <r>    0.7637    1.0000 </r>
       <r>    0.7725    1.0000 </r>
       <r>    0.7812    1.0000 </r>
       <r>    0.7884    1.0000 </r>
       <r>    0.7897    1.0000 </r>
       <r>    0.8083    1.0000 </r>
       <r>    0.8134    1.0000 </r>
       <r>    0.8228    1.0000 </r>
       <r>    0.8468    1.0000 </r>
       <r>    0.8673    1.0000 </r>
       <r>    0.8736    1.0000 </r>
       <r>    0.8765    1.0000 </r>
       <r>    0.8864    1.0000 </r>
       <r>    0.8903    1.0000 </r>
       <r>    0.8949    1.0000 </r>
       <r>    0.8958    1.0000 </r>
       <r>    0.9104    1.0000 </r>
       <r>    0.9164    1.0000 </r>
       <r>    0.9323    1.0000 </r>
       <r>    0.9391    1.0000 </r>
       <r>    0.9508    1.0000 </r>
       <r>    0.9607    1.0000 </r>
       <r>    0.9701    1.0000 </r>
       <r>    0.9751    1.0000 </r>
       <r>    0.9777    1.0000 </r>
       <r>    0.9998    1.0000 </r>
       <r>    1.0251    1.0000 </r>
       <r>    1.0309    1.0000 </r>
       <r>    1.0392    1.0000 </r>
       <r>    1.0497    1.0000 </r>
       <r>    1.0579    1.0000 </r>
       <r>    1.0736    1.0000 </r>
       <r>    1.0935    1.0000 </r>
       <r>    1.1275    1.0000 </r>
       <r>    1.1379    1.0000 </r>
       <r>    1.1783    1.0000 </r>
       <r>    1.1920    1.0000 </r>
       <r>    1.1929    1.0000 </r>
       <r>    1.1971    1.0000 </r>
       <r>    1.2040    1.0000 </r>
       <r>    1.2203    1.0000 </r>
       <r>    1.2536    1.0000 </r>
       <r>    1.3068    1.0000 </r>
       <r>    1.3274    1.0000 </r>
       <r>    1.3405    1.0000 </r>
       <r>    1.3486    1.0000 </r>
       <r>    1.3627    1.0000 </r>
       <r>    1.3842    1.0000 </r>
       <r>    1.3971    1.0000 </r>
       <r>    1.4000    1.0000 </r>
       <r>    1.4100    1.0000 </r>
       <r>    1.4103    1.0000 </r>
       <r>    1.4222    1.0000 </r>
       <r>    1.4296    1.0000 </r>
       <r>    1.4357    1.0000 </r>
       <r>    1.4448    1.0000 </r>
       <r>    1.4566    1.0000 </r>
       <r>    1.4674    1.0000 </r>
       <r>    1.4782    1.0000 </r>
       <r>    1.4814    1.0000 </r>
       <r>    1.4986    1.0000 </r>
       <r>    1.5106    1.0000 </r>
       <r>    1.5234    1.0000 </r>
       <r>    1.5247    1.0000 </r>
       <r>    1.5260    1.0000 </r>
       <r>    1.5464    1.0000 </r>
       <r>    1.5524    1.0000 </r>
       <r>    1.5603    1.0000 </r>
       <r>    1.5703    1.0000 </r>
       <r>    1.5713    1.0000 </r>
       <r>    1.5838    1.0000 </r>
       <r>    1.5838    1.0000 </r>
       <r>    1.5901    1.0000 </r>
       <r>    1.5929    1.0000 </r>
       <r>    1.6042    1.0000 </r>
       <r>    1.6121    1.0000 </r>
       <r>    1.6200    1.0000 </r>
       <r>    1.6209    1.0000 </r>
       <r>    1.6256    1.0000 </r>
       <r>    1.6336    1.0000 </r>
       <r>    1.6462    1.0000 </r>
       <r>    1.6517    1.0000 </r>
       <r>    1.6570    1.0000 </r>
       <r>    1.6679    1.0000 </r>
       <r>    1.6749    1.0000 </r>
       <r>    1.6813    1.0000 </r>
       <r>    1.6956    1.0000 </r>
       <r>    1.6973    1.0000 </r>
       <r>    1.6978    1.0000 </r>
       <r>    1.7033    1.0000 </r>
       <r>    1.7115    1.0000 </r>
       <r>    1.7124    1.0000 </r>
       <r>    1.7199    1.0000 </r>
       <r>    1.7304    1.0000 </r>
       <r>    1.7305    1.0000 </r>
       <r>    1.7324    1.0000 </r>
       <r>    1.7456    1.0000 </r>
       <r>    1.7512    1.0000 </r>
       <r>    1.7681    1.0000 </r>
       <r>    1.7772    1.0000 </r>
       <r>    1.7855    1.0000 </r>
       <r>    1.7940    1.0000 </r>
       <r>    1.7989    1.0000 </r>
       <r>    1.8208    1.0000 </r>
       <r>    1.8218    1.0000 </r>
       <r>    1.8424    1.0000 </r>
       <r>    1.8612    1.0000 </r>
       <r>    1.8680    1.0000 </r>
       <r>    1.8895    1.0000 </r>
       <r>    1.9093    1.0000 </r>
       <r>    1.9272    1.0000 </r>
       <r>    1.9274    1.0000 </r>
       <r>    1.9540    1.0000 </r>
       <r>    1.9650    1.0000 </r>
       <r>    1.9848    1.0000 </r>
       <r>    2.0455    1.0000 </r>
       <r>    2.0508    1.0000 </r>
       <r>    2.0632    1.0000 </r>
       <r>    2.0789    1.0000 </r>
       <r>    2.0972    1.0000 </r>
       <r>    2.1169    1.0000 </r>
       <r>    2.1220    1.0000 </r>
       <r>    2.1316    1.0000 </r>
       <r>    2.1505    1.0000 </r>
       <r>    2.1592    1.0000 </r>
       <r>    2.1677    1.0000 </r>
       <r>    2.1804    1.0000 </r>
       <r>    2.1935    1.0000 </r>
       <r>    2.2034    1.0000 </r>
       <r>    2.2290    1.0000 </r>
       <r>    2.2448    1.0000 </r>
       <r>    2.2629    1.0000 </r>
       <r>    2.2746    1.0000 </r>
       <r>    2.2969    1.0000 </r>
       <r>    2.3258    1.0000 </r>
       <r>    2.3274    1.0000 </r>
       <r>    2.3411    1.0000 </r>
       <r>    2.3434    1.0000 </r>
       <r>    2.3581    1.0000 </r>
       <r>    2.3581    1.0000 </r>
       <r>    2.3781    1.0000 </r>
       <r>    2.4088    1.0000 </r>
       <r>    2.4451    1.0000 </r>
       <r>    2.4615    1.0000 </r>
       <r>    2.5026    1.0000 </r>
       <r>    2.5060    1.0000 </r>
       <r>    2.5136    1.0000 </r>
       <r>    2.5885    1.0000 </r>
       <r>    2.5946    1.0000 </r>
       <r>    2.7391    1.0000 </r>
       <r>    2.7511    1.0000 </r>
       <r>    2.8273    1.0000 </r>
       <r>    2.8474    1.0000 </r>
       <r>    2.8838    1.0000 </r>
       <r>    2.8941    1.0000 </r>
       <r>    3.0275    0.9997 </r>
       <r>    3.0439    0.9995 </r>
       <r>    3.0757    0.9990 </r>
       <r>    3.1765    0.9914 </r>
       <r>    3.2577    0.9646 </r>
       <r>    3.3530    0.8714 </r>
       <r>    3.4072    0.7734 </r>
       <r>    3.4891    0.5679 </r>
       <r>    3.4921    0.5595 </r>
       <r>    3.5142    0.4974 </r>
       <r>    3.5500    0.3974 </r>
       <r>    3.5955    0.2806 </r>
       <r>    3.6198    0.2257 </r>
       <r>    3.6515    0.1641 </r>
       <r>    3.6592    0.1511 </r>
       <r>    3.6837    0.1141 </r>
       <r>    3.7004    0.0929 </r>
       <r>    3.7275    0.0649 </r>
       <r>    3.7315    0.0614 </r>
       <r>    3.7474    0.0489 </r>
       <r>    3.7718    0.0338 </r>
       <r>    3.7762    0.0315 </r>
       <r>    3.7933    0.0239 </r>
       <r>    3.8012    0.0209 </r>
       <r>    3.8062    0.0192 </r>
       <r>    3.8063    0.0191 </r>
       <r>    3.8476    0.0090 </r>
       <r>    3.8610    0.0070 </r>
       <r>    3.8802    0.0047 </r>
       <r>    3.8981    0.0033 </r>
       <r>    3.9395    0.0013 </r>
       <r>    3.9553    0.0009 </r>
       <r>    3.9963    0.0003 </r>
       <r>    4.0233    0.0002 </r>
       <r>    4.0374    0.0001 </r>
       <r>    4.0900    0.0000 </r>
       <r>    4.0993    0.0000 </r>
       <r>    4.1089    0.0000 </r>
       <r>    4.1379    0.0000 </r>
       <r>    4.1783    0.0000 </r>
       <r>    4.1848    0.0000 </r>
       <r>    4.2094    0.0000 </r>
       <r>    4.2296    0.0000 </r>
       <r>    4.3076    0.0000 </r>
       <r>    4.3167    0.0000 </r>
       <r>    4.3541    0.0000 </r>
       <r>    4.3740    0.0000 </r>
       <r>    4.4082    0.0000 </r>
       <r>    4.4453    0.0000 </r>
       <r>    4.4453    0.0000 </r>
       <r>    4.5032    0.0000 </r>
       <r>    4.5909    0.0000 </r>
       <r>    4.6604    0.0000 </r>
       <r>    4.6994    0.0000 </r>
       <r>    4.7371    0.0000 </r>
       <r>    4.8377    0.0000 </r>
       <r>    4.8951    0.0000 </r>
       <r>    4.9023    0.0000 </r>
       <r>    5.7718    0.0000 </r>
       <r>    5.8546    0.0000 </r>
       <r>    6.1238    0.0000 </r>
       <r>    6.1756    0.0000 </r>
       <r>    6.1799    0.0000 </r>
       <r>    6.4271    0.0000 </r>
       <r>    6.5734    0.0000 </r>
       <r>    6.5858    0.0000 </r>
       <r>    6.6154    0.0000 </r>
       <r>    6.9677    0.0000 </r>
       <r>    7.0044    0.0000 </r>
       <r>    7.0565    0.0000 </r>
       <r>    7.1081    0.0000 </r>
       <r>    7.1837    0.0000 </r>
       <r>    7.3047    0.0000 </r>
       <r>    7.3090    0.0000 </r>
       <r>    7.3642    0.0000 </r>
       <r>    7.3798    0.0000 </r>
       <r>    7.4449    0.0000 </r>
       <r>    7.5054    0.0000 </r>
       <r>    7.5529    0.0000 </r>
       <r>    7.6141    0.0000 </r>
       <r>    7.6297    0.0000 </r>
       <r>    7.7645    0.0000 </r>
       <r>    7.8182    0.0000 </r>
       <r>    7.9123    0.0000 </r>
       <r>    7.9880    0.0000 </r>
       <r>    7.9993    0.0000 </r>
       <r>    8.0485    0.0000 </r>
       <r>    8.0725    0.0000 </r>
       <r>    8.1415    0.0000 </r>
       <r>    8.1774    0.0000 </r>
       <r>    8.2158    0.0000 </r>
       <r>    8.2405    0.0000 </r>
       <r>    8.2772    0.0000 </r>
       <r>    8.3147    0.0000 </r>
       <r>    8.4416    0.0000 </r>
       <r>    8.4505    0.0000 </r>
       <r>    8.5298    0.0000 </r>
[...]
       <r>   -56.9239     0.0000   288.0000 </r>
       <r>   -56.6639     0.0000   288.0000 </r>
       <r>   -56.4039     0.0000   288.0000 </r>
       <r>   -56.1439     0.0000   288.0000 </r>
       <r>   -55.8839     0.0000   288.0000 </r>
       <r>   -55.6239     0.0000   288.0000 </r>
       <r>   -55.3640     0.0000   288.0000 </r>
       <r>   -55.1040     0.0000   288.0000 </r>
       <r>   -54.8440     0.0000   288.0000 </r>
       <r>   -54.5840     0.0000   288.0000 </r>
       <r>   -54.3240     0.0000   288.0000 </r>
       <r>   -54.0640     0.0000   288.0000 </r>
       <r>   -53.8040     0.0000   288.0000 </r>
       <r>   -53.5440     0.0000   288.0000 </r>
       <r>   -53.2840     0.0000   288.0000 </r>
       <r>   -53.0240     0.0000   288.0000 </r>
       <r>   -52.7640     0.0000   288.0000 </r>
       <r>   -52.5040     0.0000   288.0000 </r>
       <r>   -52.2440     0.0000   288.0000 </r>
       <r>   -51.9840     0.0000   288.0000 </r>
       <r>   -51.7240     0.0000   288.0000 </r>
       <r>   -51.4640     0.0000   288.0000 </r>
       <r>   -51.2040     0.0000   288.0000 </r>
       <r>   -50.9440     0.0000   288.0000 </r>
       <r>   -50.6841     0.0000   288.0000 </r>
       <r>   -50.4241     0.0000   288.0000 </r>
       <r>   -50.1641     0.0000   288.0000 </r>
       <r>   -49.9041     0.0000   288.0000 </r>
       <r>   -49.6441     0.0000   288.0000 </r>
       <r>   -49.3841     0.0000   288.0000 </r>
       <r>   -49.1241     0.0000   288.0000 </r>
       <r>   -48.8641     0.0000   288.0000 </r>
       <r>   -48.6041     0.0000   288.0000 </r>
       <r>   -48.3441     0.0000   288.0000 </r>
       <r>   -48.0841     0.0000   288.0000 </r>
       <r>   -47.8241     0.0000   288.0000 </r>
       <r>   -47.5641     0.0000   288.0000 </r>
       <r>   -47.3041     0.0000   288.0000 </r>
       <r>   -47.0441     0.0000   288.0000 </r>
       <r>   -46.7841     0.0000   288.0000 </r>
       <r>   -46.5241     0.0000   288.0000 </r>
       <r>   -46.2641     0.0000   288.0000 </r>
       <r>   -46.0041     0.0000   288.0000 </r>
       <r>   -45.7442     0.0000   288.0000 </r>
       <r>   -45.4842     0.0000   288.0000 </r>
       <r>   -45.2242     0.0000   288.0000 </r>
       <r>   -44.9642     0.0000   288.0000 </r>
       <r>   -44.7042     0.0000   288.0000 </r>
       <r>   -44.4442     0.0000   288.0000 </r>
       <r>   -44.1842     0.0000   288.0000 </r>
       <r>   -43.9242     0.0000   288.0000 </r>
       <r>   -43.6642     0.0000   288.0000 </r>
       <r>   -43.4042     0.0000   288.0000 </r>
       <r>   -43.1442     0.0000   288.0000 </r>
       <r>   -42.8842     0.0000   288.0000 </r>
       <r>   -42.6242     0.0000   288.0000 </r>
       <r>   -42.3642     0.0000   288.0000 </r>
       <r>   -42.1042     0.0000   288.0000 </r>
       <r>   -41.8442     0.0000   288.0000 </r>
       <r>   -41.5842     0.0000   288.0000 </r>
       <r>   -41.3242     0.0000   288.0000 </r>
       <r>   -41.0643     0.0000   288.0000 </r>
       <r>   -40.8043     0.0000   288.0000 </r>
       <r>   -40.5443     0.0000   288.0000 </r>
       <r>   -40.2843     0.0000   288.0000 </r>
       <r>   -40.0243     0.0000   288.0000 </r>
       <r>   -39.7643     0.0000   288.0000 </r>
       <r>   -39.5043     0.0000   288.0000 </r>
       <r>   -39.2443     0.0000   288.0000 </r>
       <r>   -38.9843     0.0000   288.0000 </r>
       <r>   -38.7243     0.0000   288.0000 </r>
       <r>   -38.4643     0.0000   288.0000 </r>
       <r>   -38.2043     0.0000   288.0000 </r>
       <r>   -37.9443     0.0000   288.0000 </r>
       <r>   -37.6843     0.0000   288.0000 </r>
       <r>   -37.4243     0.0000   288.0000 </r>
       <r>   -37.1643     0.0000   288.0000 </r>
       <r>   -36.9043     0.0000   288.0000 </r>
       <r>   -36.6443     0.0000   288.0000 </r>
       <r>   -36.3843     0.0000   288.0000 </r>
       <r>   -36.1244     0.0000   288.0000 </r>
       <r>   -35.8644     0.0000   288.0000 </r>
       <r>   -35.6044     0.0000   288.0000 </r>
       <r>   -35.3444     0.0000   288.0000 </r>
       <r>   -35.0844     0.0000   288.0000 </r>
       <r>   -34.8244     0.0000   288.0000 </r>
       <r>   -34.5644     0.0000   288.0000 </r>
       <r>   -34.3044     0.0000   288.0000 </r>
       <r>   -34.0444     0.0000   288.0000 </r>
       <r>   -33.7844     0.0000   288.0000 </r>
       <r>   -33.5244     0.0000   288.0000 </r>
       <r>   -33.2644     0.0000   288.0000 </r>
       <r>   -33.0044     0.0000   288.0000 </r>
       <r>   -32.7444     0.0000   288.0000 </r>
       <r>   -32.4844     0.0000   288.0000 </r>
       <r>   -32.2244     0.0000   288.0000 </r>
       <r>   -31.9644     0.0000   288.0000 </r>
       <r>   -31.7044     0.0000   288.0000 </r>
       <r>   -31.4445     0.0000   288.0000 </r>
       <r>   -31.1845     0.0000   288.0000 </r>
       <r>   -30.9245     0.0000   288.0000 </r>
       <r>   -30.6645     0.0000   288.0000 </r>
       <r>   -30.4045     0.0000   288.0000 </r>
       <r>   -30.1445     0.0000   288.0000 </r>
       <r>   -29.8845     0.0000   288.0000 </r>
       <r>   -29.6245     0.0000   288.0000 </r>
       <r>   -29.3645     0.0000   288.0000 </r>
       <r>   -29.1045     0.0000   288.0000 </r>
       <r>   -28.8445     0.0000   288.0000 </r>
       <r>   -28.5845     0.0000   288.0000 </r>
       <r>   -28.3245     0.0000   288.0000 </r>
       <r>   -28.0645     0.0000   288.0000 </r>
       <r>   -27.8045     0.0000   288.0000 </r>
       <r>   -27.5445     0.0000   288.0000 </r>
       <r>   -27.2845     0.0000   288.0000 </r>
       <r>   -27.0245     0.0000   288.0000 </r>
       <r>   -26.7646     0.0000   288.0000 </r>
       <r>   -26.5046     0.0000   288.0000 </r>
       <r>   -26.2446     0.0000   288.0000 </r>
       <r>   -25.9846     0.0000   288.0000 </r>
       <r>   -25.7246     0.0000   288.0000 </r>
       <r>   -25.4646     0.0000   288.0000 </r>
       <r>   -25.2046     0.0000   288.0000 </r>
       <r>   -24.9446     0.0000   288.0000 </r>
       <r>   -24.6846     0.0000   288.0000 </r>
       <r>   -24.4246     0.0000   288.0000 </r>
       <r>   -24.1646     0.0000   288.0000 </r>
       <r>   -23.9046     0.0000   288.0000 </r>
       <r>   -23.6446     0.0000   288.0000 </r>
       <r>   -23.3846     0.0000   288.0000 </r>
       <r>   -23.1246     0.0000   288.0000 </r>
       <r>   -22.8646     0.0000   288.0000 </r>
       <r>   -22.6046     0.0000   288.0000 </r>
       <r>   -22.3446     0.0000   288.0000 </r>
       <r>   -22.0846     0.0000   288.0000 </r>
       <r>   -21.8247     0.0000   288.0000 </r>
       <r>   -21.5647     0.0000   288.0000 </r>
       <r>   -21.3047     0.0000   288.0000 </r>
       <r>   -21.0447     0.0000   288.0000 </r>
       <r>   -20.7847     0.0000   288.0000 </r>
       <r>   -20.5247     0.0000   288.0000 </r>
       <r>   -20.2647     0.0000   288.0000 </r>
       <r>   -20.0047     0.0000   288.0000 </r>
       <r>   -19.7447     0.0000   288.0000 </r>
       <r>   -19.4847     0.0000   288.0000 </r>
       <r>   -19.2247     0.0000   288.0000 </r>
       <r>   -18.9647     0.0000   288.0000 </r>
       <r>   -18.7047     0.0000   288.0000 </r>
       <r>   -18.4447     0.0000   288.0000 </r>
       <r>   -18.1847     0.0000   288.0000 </r>
       <r>   -17.9247     0.0000   288.0000 </r>
       <r>   -17.6647     0.0000   288.0000 </r>
       <r>   -17.4047     0.0000   288.0000 </r>
       <r>   -17.1448     0.0000   288.0000 </r>
       <r>   -16.8848     0.0000   288.0000 </r>
       <r>   -16.6248     0.0000   288.0000 </r>
       <r>   -16.3648     0.0000   288.0000 </r>
       <r>   -16.1048     0.0000   288.0000 </r>
       <r>   -15.8448     0.0000   288.0000 </r>
       <r>   -15.5848     0.0000   288.0000 </r>
       <r>   -15.3248     0.0000   288.0000 </r>
       <r>   -15.0648     0.0000   288.0000 </r>
       <r>   -14.8048     0.0000   288.0000 </r>
       <r>   -14.5448     0.0000   288.0000 </r>
       <r>   -14.2848     0.0000   288.0000 </r>
       <r>   -14.0248     0.0000   288.0000 </r>
       <r>   -13.7648     0.0000   288.0000 </r>
       <r>   -13.5048     0.0106   288.0028 </r>
       <r>   -13.2448     0.9443   288.2483 </r>
       <r>   -12.9848     5.1648   289.5911 </r>
       <r>   -12.7248     7.8967   291.6442 </r>
       <r>   -12.4648    11.2374   294.5659 </r>
       <r>   -12.2049     9.8693   297.1318 </r>
       <r>   -11.9449    14.9624   301.0220 </r>
       <r>   -11.6849    17.8509   305.6631 </r>
       <r>   -11.4249    24.0233   311.9090 </r>
       <r>   -11.1649    26.7864   318.8734 </r>
       <r>   -10.9049    35.0621   327.9893 </r>
       <r>   -10.6449    49.6666   340.9024 </r>
       <r>   -10.3849    40.3123   351.3833 </r>
       <r>   -10.1249    50.5228   364.5190 </r>
       <r>    -9.8649    45.0862   376.2412 </r>
       <r>    -9.6049    13.8549   379.8434 </r>
       <r>    -9.3449     2.0820   380.3847 </r>
       <r>    -9.0849     9.3472   382.8149 </r>
       <r>    -8.8249     4.4225   383.9647 </r>
       <r>    -8.5649     0.1354   383.9999 </r>
       <r>    -8.3049     0.0002   384.0000 </r>
       <r>    -8.0449     0.0000   384.0000 </r>
       <r>    -7.7849     0.0000   384.0000 </r>
       <r>    -7.5250     0.0000   384.0000 </r>
       <r>    -7.2650     0.0000   384.0000 </r>
       <r>    -7.0050     0.0000   384.0000 </r>
       <r>    -6.7450     0.0000   384.0000 </r>
       <r>    -6.4850     0.0000   384.0000 </r>
       <r>    -6.2250     0.0000   384.0000 </r>
       <r>    -5.9650     0.0000   384.0000 </r>
       <r>    -5.7050     0.0002   384.0001 </r>
       <r>    -5.4450     0.1225   384.0319 </r>
       <r>    -5.1850     3.3577   384.9049 </r>
       <r>    -4.9250     9.8687   387.4707 </r>
       <r>    -4.6650    19.5483   392.5532 </r>
       <r>    -4.4050    31.3773   400.7111 </r>
       <r>    -4.1450    28.6444   408.1585 </r>
       <r>    -3.8850    29.4586   415.8176 </r>
       <r>    -3.6250    54.0709   429.8757 </r>
       <r>    -3.3650    72.9231   448.8353 </r>
       <r>    -3.1050    42.6691   459.9291 </r>
       <r>    -2.8450    30.0052   467.7303 </r>
       <r>    -2.5851    44.0393   479.1802 </r>
       <r>    -2.3251    47.2073   491.4539 </r>
       <r>    -2.0651    49.8025   504.4023 </r>
       <r>    -1.8051    56.3853   519.0621 </r>
       <r>    -1.5451    75.2016   538.6142 </r>
       <r>    -1.2851    83.2430   560.2569 </r>
       <r>    -1.0251   101.7320   586.7066 </r>
       <r>    -0.7651   118.9822   617.6414 </r>
       <r>    -0.5051    76.1851   637.4491 </r>
       <r>    -0.2451    46.4485   649.5254 </r>
       <r>     0.0149    53.6783   663.4815 </r>
       <r>     0.2749    69.8837   681.6509 </r>
       <r>     0.5349    88.6214   704.6920 </r>
       <r>     0.7949   127.2240   737.7695 </r>
       <r>     1.0549   168.1883   781.4976 </r>
       <r>     1.3149   138.2094   817.4313 </r>
       <r>     1.5749   200.2986   869.5078 </r>
       <r>     1.8349   230.2768   929.3785 </r>
       <r>     2.0948   144.5249   966.9542 </r>
       <r>     2.3548   125.6550   999.6238 </r>
       <r>     2.6148    81.5209  1020.8188 </r>
       <r>     2.8748    43.4709  1032.1210 </r>
       <r>     3.1348    35.9758  1041.4746 </r>
       <r>     3.3948    32.3349  1049.8815 </r>
       <r>     3.6548    66.0129  1067.0445 </r>
       <r>     3.9148   101.6322  1093.4683 </r>
       <r>     4.1748    82.3925  1114.8899 </r>
       <r>     4.4348    64.3720  1131.6263 </r>
       <r>     4.6948    42.4004  1142.6502 </r>
       <r>     4.9548    28.1319  1149.9643 </r>
       <r>     5.2148     7.6005  1151.9404 </r>
       <r>     5.4748     0.3941  1152.0428 </r>
       <r>     5.7348     4.4493  1153.1996 </r>
       <r>     5.9948    11.9978  1156.3190 </r>
       <r>     6.2548    17.0256  1160.7456 </r>
       <r>     6.5148    17.1201  1165.1967 </r>
       <r>     6.7748    17.4580  1169.7357 </r>
       <r>     7.0347    18.1338  1174.4504 </r>
       <r>     7.2947    32.1051  1182.7975 </r>
       <r>     7.5547    38.3511  1192.7686 </r>
       <r>     7.8147    31.3291  1200.9140 </r>
       <r>     8.0747    37.2539  1210.5998 </r>
       <r>     8.3347    44.7049  1222.2228 </r>
       <r>     8.5947    43.9353  1233.6458 </r>
       <r>     8.8547    44.7583  1245.2827 </r>
       <r>     9.1147    35.5799  1254.5333 </r>
       <r>     9.3747    36.4002  1263.9971 </r>
       <r>     9.6347    14.1937  1267.6874 </r>
       <r>     9.8947     1.1918  1267.9973 </r>
       <r>    10.1547     0.0106  1268.0000 </r>
       <r>    10.4147     0.0000  1268.0000 </r>
       <r>    10.6747     0.0000  1268.0000 </r>
       <r>    10.9347     0.0000  1268.0000 </r>
       <r>    11.1947     0.0000  1268.0000 </r>
       <r>    11.4547     0.0000  1268.0000 </r>
       <r>    11.7146     0.0000  1268.0000 </r>
       <r>    11.9746     0.0000  1268.0000 </r>
       <r>    12.2346     0.0000  1268.0000 </r>
       <r>    12.4946     0.0000  1268.0000 </r>
       <r>    12.7546     0.0000  1268.0000 </r>
       <r>    13.0146     0.0000  1268.0000 </r>
      </set>
     </set>
    </array>
   </total>
  </dos>
 </calculation>
 <structure name="finalpos" >
  <crystal>
   <varray name="basis" >
    <v>       6.27856000       0.00000000       0.00000000 </v>
    <v>       2.09285340      11.06019551       0.00000000 </v>
    <v>       0.00000000       0.00000000      29.15682000 </v>
   </varray>
   <i name="volume">   2024.71084344 </i>
   <varray name="rec_basis" >
    <v>       0.15927219      -0.03013811       0.00000000 </v>
    <v>       0.00000000       0.09041431       0.00000000 </v>
    <v>       0.00000000       0.00000000       0.03429729 </v>
   </varray>
  </crystal>
  <varray name="positions" >
   <v>       0.25630944       0.01645859       0.15239349 </v>
   <v>       0.25630944       0.01645859       0.48090702 </v>
   <v>       0.00630944       0.26645858       0.31665025 </v>
   <v>       0.04868164       0.26740046       0.63704256 </v>
   <v>       0.29381397       0.01317815       0.07007620 </v>
   <v>       0.25630944       0.01645859       0.39411177 </v>
   <v>       0.00630944       0.26645858       0.22985501 </v>
   <v>       0.00630944       0.26645858       0.55836854 </v>
   <v>       0.19025794       0.21461308       0.10899586 </v>
   <v>       0.19025794       0.21461308       0.43750940 </v>
   <v>       0.44025794       0.46461308       0.27325263 </v>
   <v>       0.42041758       0.47537992       0.59329119 </v>
   <v>       0.75630944       0.01645859       0.15239349 </v>
   <v>       0.75630944       0.01645859       0.48090702 </v>
   <v>       0.50630944       0.26645858       0.31665025 </v>
   <v>       0.46551501       0.27507102       0.63795323 </v>
   <v>       0.75630944       0.01645859       0.06559824 </v>
   <v>       0.75630944       0.01645859       0.39411177 </v>
   <v>       0.50630944       0.26645858       0.22985501 </v>
   <v>       0.50630944       0.26645858       0.55836854 </v>
   <v>       0.69025794       0.21461308       0.10899586 </v>
   <v>       0.69025794       0.21461308       0.43750940 </v>
   <v>       0.94025794       0.46461308       0.27325263 </v>
   <v>       0.95922454       0.47404438       0.59094321 </v>
   <v>       0.25630944       0.51645859       0.15239349 </v>
   <v>       0.25630944       0.51645859       0.48090702 </v>
   <v>       0.00630944       0.76645858       0.31665025 </v>
   <v>       0.96551501       0.77507102       0.63795323 </v>
   <v>       0.25630944       0.51645859       0.06559824 </v>
   <v>       0.25630944       0.51645859       0.39411177 </v>
   <v>       0.00630944       0.76645858       0.22985501 </v>
   <v>       0.00630944       0.76645858       0.55836854 </v>
   <v>       0.19025794       0.71461308       0.10899586 </v>
   <v>       0.19025794       0.71461308       0.43750940 </v>
   <v>       0.44025794       0.96461308       0.27325263 </v>
   <v>       0.45922454       0.97404438       0.59094321 </v>
   <v>       0.75630944       0.51645859       0.15239349 </v>
   <v>       0.75630944       0.51645859       0.48090702 </v>
   <v>       0.50630944       0.76645858       0.31665025 </v>
   <v>       0.54868164       0.76740046       0.63704256 </v>
   <v>       0.79381397       0.51317815       0.07007620 </v>
   <v>       0.75630944       0.51645859       0.39411177 </v>
   <v>       0.50630944       0.76645858       0.22985501 </v>
   <v>       0.50630944       0.76645858       0.55836854 </v>
   <v>       0.69025794       0.71461308       0.10899586 </v>
   <v>       0.69025794       0.71461308       0.43750940 </v>
   <v>       0.94025794       0.96461308       0.27325263 </v>
   <v>       0.92041758       0.97537992       0.59329119 </v>
   <v>       0.46363020       0.15986562       0.06700951 </v>
   <v>       0.46840410       0.16661759       0.38224849 </v>
   <v>       0.21840410       0.41661758       0.21799173 </v>
   <v>       0.21840410       0.41661758       0.54650526 </v>
   <v>       0.46840410       0.16661759       0.16425677 </v>
   <v>       0.46840410       0.16661759       0.49277030 </v>
   <v>       0.03763766       0.45914101       0.02320956 </v>
   <v>       0.21840410       0.41661758       0.32851354 </v>
   <v>       0.20207511       0.41413643       0.64094568 </v>
   <v>       0.05251161       0.41429508       0.10899586 </v>
   <v>       0.05251161       0.41429508       0.43750940 </v>
   <v>       0.30251160       0.16429509       0.27325263 </v>
   <v>       0.30251160       0.16429509       0.60176617 </v>
   <v>       0.97345445       0.13816074       0.06881294 </v>
   <v>       0.96840410       0.16661759       0.38224849 </v>
   <v>       0.71840410       0.41661758       0.21799173 </v>
   <v>       0.71840410       0.41661758       0.54650526 </v>
   <v>       0.96840410       0.16661759       0.16425677 </v>
   <v>       0.96840410       0.16661759       0.49277030 </v>
   <v>       0.71840410       0.41661758       0.32851354 </v>
   <v>       0.55251161       0.41429508       0.10899586 </v>
   <v>       0.55251161       0.41429508       0.43750940 </v>
   <v>       0.80251160       0.16429509       0.27325263 </v>
   <v>       0.80251160       0.16429509       0.60176617 </v>
   <v>       0.47345445       0.63816074       0.06881294 </v>
   <v>       0.46840411       0.66661759       0.38224849 </v>
   <v>       0.21840411       0.91661758       0.21799173 </v>
   <v>       0.21840411       0.91661758       0.54650526 </v>
   <v>       0.46840411       0.66661759       0.16425677 </v>
   <v>       0.46840411       0.66661759       0.49277030 </v>
   <v>       0.21840411       0.91661758       0.32851354 </v>
   <v>       0.05251161       0.91429508       0.10899586 </v>
   <v>       0.05251161       0.91429508       0.43750940 </v>
   <v>       0.30251161       0.66429509       0.27325263 </v>
   <v>       0.30251161       0.66429509       0.60176617 </v>
   <v>       0.96363020       0.65986562       0.06700951 </v>
   <v>       0.96840411       0.66661759       0.38224849 </v>
   <v>       0.71840411       0.91661758       0.21799173 </v>
   <v>       0.71840411       0.91661758       0.54650526 </v>
   <v>       0.96840411       0.66661759       0.16425677 </v>
   <v>       0.96840411       0.66661759       0.49277030 </v>
   <v>       0.53763766       0.95914101       0.02320956 </v>
   <v>       0.71840411       0.91661758       0.32851354 </v>
   <v>       0.70207511       0.91413643       0.64094568 </v>
   <v>       0.55251161       0.91429508       0.10899586 </v>
   <v>       0.55251161       0.91429508       0.43750940 </v>
   <v>       0.80251161       0.66429509       0.27325263 </v>
   <v>       0.80251161       0.66429509       0.60176617 </v>
  </varray>
 </structure>
</modeling>
