  96  96   0   0
  0.2565633E+02  0.1125646E-08  0.1125646E-08  0.2174423E-08  0.5000000E-15
  1.000000000000000E-004
  CAR 
 "Millerite NiS"                         
     11.52469981    -66.12271525  301      1.54679307      1.00000000
    -66.123  0.0000E+00  0.0000E+00
    -65.864  0.0000E+00  0.0000E+00
    -65.605  0.0000E+00  0.0000E+00
    -65.346  0.0000E+00  0.0000E+00
    -65.087  0.0000E+00  0.0000E+00
    -64.829  0.0000E+00  0.0000E+00
    -64.570  0.0000E+00  0.0000E+00
    -64.311  0.0000E+00  0.0000E+00
    -64.052  0.0000E+00  0.0000E+00
    -63.793  0.0000E+00  0.0000E+00
    -63.534  0.3370E-09  0.8721E-10
    -63.276  0.2308E-04  0.5973E-05
    -63.017  0.7851E-01  0.2033E-01
    -62.758  0.1550E+02  0.4031E+01
    -62.499  0.2226E+03  0.6164E+02
    -62.240  0.4206E+03  0.1705E+03
    -61.982  0.2687E+03  0.2401E+03
    -61.723  0.1155E+03  0.2700E+03
    -61.464  0.4008E+02  0.2803E+03
    -61.205  0.1846E+02  0.2851E+03
    -60.946  0.1044E+02  0.2878E+03
    -60.687  0.7161E+00  0.2880E+03
    -60.429  0.3206E-02  0.2880E+03
    -60.170  0.7021E-06  0.2880E+03
    -59.911  0.6435E-11  0.2880E+03
    -59.652  0.0000E+00  0.2880E+03
    -59.393  0.0000E+00  0.2880E+03
    -59.134  0.0000E+00  0.2880E+03
    -58.876  0.0000E+00  0.2880E+03
    -58.617  0.0000E+00  0.2880E+03
    -58.358  0.0000E+00  0.2880E+03
    -58.099  0.0000E+00  0.2880E+03
    -57.840  0.0000E+00  0.2880E+03
    -57.581  0.0000E+00  0.2880E+03
    -57.323  0.0000E+00  0.2880E+03
    -57.064  0.0000E+00  0.2880E+03
    -56.805  0.0000E+00  0.2880E+03
    -56.546  0.0000E+00  0.2880E+03
    -56.287  0.0000E+00  0.2880E+03
    -56.029  0.0000E+00  0.2880E+03
    -55.770  0.0000E+00  0.2880E+03
    -55.511  0.0000E+00  0.2880E+03
    -55.252  0.0000E+00  0.2880E+03
    -54.993  0.0000E+00  0.2880E+03
    -54.734  0.0000E+00  0.2880E+03
    -54.476  0.0000E+00  0.2880E+03
    -54.217  0.0000E+00  0.2880E+03
    -53.958  0.0000E+00  0.2880E+03
    -53.699  0.0000E+00  0.2880E+03
    -53.440  0.0000E+00  0.2880E+03
    -53.181  0.0000E+00  0.2880E+03
    -52.923  0.0000E+00  0.2880E+03
    -52.664  0.0000E+00  0.2880E+03
    -52.405  0.0000E+00  0.2880E+03
    -52.146  0.0000E+00  0.2880E+03
    -51.887  0.0000E+00  0.2880E+03
    -51.629  0.0000E+00  0.2880E+03
    -51.370  0.0000E+00  0.2880E+03
    -51.111  0.0000E+00  0.2880E+03
    -50.852  0.0000E+00  0.2880E+03
    -50.593  0.0000E+00  0.2880E+03
    -50.334  0.0000E+00  0.2880E+03
    -50.076  0.0000E+00  0.2880E+03
    -49.817  0.0000E+00  0.2880E+03
    -49.558  0.0000E+00  0.2880E+03
    -49.299  0.0000E+00  0.2880E+03
    -49.040  0.0000E+00  0.2880E+03
    -48.781  0.0000E+00  0.2880E+03
    -48.523  0.0000E+00  0.2880E+03
    -48.264  0.0000E+00  0.2880E+03
    -48.005  0.0000E+00  0.2880E+03
    -47.746  0.0000E+00  0.2880E+03
    -47.487  0.0000E+00  0.2880E+03
    -47.229  0.0000E+00  0.2880E+03
    -46.970  0.0000E+00  0.2880E+03
    -46.711  0.0000E+00  0.2880E+03
    -46.452  0.0000E+00  0.2880E+03
    -46.193  0.0000E+00  0.2880E+03
    -45.934  0.0000E+00  0.2880E+03
    -45.676  0.0000E+00  0.2880E+03
    -45.417  0.0000E+00  0.2880E+03
    -45.158  0.0000E+00  0.2880E+03
    -44.899  0.0000E+00  0.2880E+03
    -44.640  0.0000E+00  0.2880E+03
    -44.381  0.0000E+00  0.2880E+03
    -44.123  0.0000E+00  0.2880E+03
    -43.864  0.0000E+00  0.2880E+03
    -43.605  0.0000E+00  0.2880E+03
    -43.346  0.0000E+00  0.2880E+03
    -43.087  0.0000E+00  0.2880E+03
    -42.828  0.0000E+00  0.2880E+03
    -42.570  0.0000E+00  0.2880E+03
    -42.311  0.0000E+00  0.2880E+03
    -42.052  0.0000E+00  0.2880E+03
    -41.793  0.0000E+00  0.2880E+03
    -41.534  0.0000E+00  0.2880E+03
    -41.276  0.0000E+00  0.2880E+03
    -41.017  0.0000E+00  0.2880E+03
    -40.758  0.0000E+00  0.2880E+03
    -40.499  0.0000E+00  0.2880E+03
    -40.240  0.0000E+00  0.2880E+03
    -39.981  0.0000E+00  0.2880E+03
    -39.723  0.0000E+00  0.2880E+03
    -39.464  0.0000E+00  0.2880E+03
    -39.205  0.0000E+00  0.2880E+03
    -38.946  0.0000E+00  0.2880E+03
    -38.687  0.0000E+00  0.2880E+03
    -38.428  0.0000E+00  0.2880E+03
    -38.170  0.0000E+00  0.2880E+03
    -37.911  0.0000E+00  0.2880E+03
    -37.652  0.0000E+00  0.2880E+03
    -37.393  0.0000E+00  0.2880E+03
    -37.134  0.0000E+00  0.2880E+03
    -36.876  0.0000E+00  0.2880E+03
    -36.617  0.0000E+00  0.2880E+03
    -36.358  0.0000E+00  0.2880E+03
    -36.099  0.0000E+00  0.2880E+03
    -35.840  0.0000E+00  0.2880E+03
    -35.581  0.0000E+00  0.2880E+03
    -35.323  0.0000E+00  0.2880E+03
    -35.064  0.0000E+00  0.2880E+03
    -34.805  0.0000E+00  0.2880E+03
    -34.546  0.0000E+00  0.2880E+03
    -34.287  0.0000E+00  0.2880E+03
    -34.028  0.0000E+00  0.2880E+03
    -33.770  0.0000E+00  0.2880E+03
    -33.511  0.0000E+00  0.2880E+03
    -33.252  0.0000E+00  0.2880E+03
    -32.993  0.0000E+00  0.2880E+03
    -32.734  0.0000E+00  0.2880E+03
    -32.476  0.0000E+00  0.2880E+03
    -32.217  0.0000E+00  0.2880E+03
    -31.958  0.0000E+00  0.2880E+03
    -31.699  0.0000E+00  0.2880E+03
    -31.440  0.0000E+00  0.2880E+03
    -31.181  0.0000E+00  0.2880E+03
    -30.923  0.0000E+00  0.2880E+03
    -30.664  0.0000E+00  0.2880E+03
    -30.405  0.0000E+00  0.2880E+03
    -30.146  0.0000E+00  0.2880E+03
    -29.887  0.0000E+00  0.2880E+03
    -29.628  0.0000E+00  0.2880E+03
    -29.370  0.0000E+00  0.2880E+03
    -29.111  0.0000E+00  0.2880E+03
    -28.852  0.0000E+00  0.2880E+03
    -28.593  0.0000E+00  0.2880E+03
    -28.334  0.0000E+00  0.2880E+03
    -28.075  0.0000E+00  0.2880E+03
    -27.817  0.0000E+00  0.2880E+03
    -27.558  0.0000E+00  0.2880E+03
    -27.299  0.0000E+00  0.2880E+03
    -27.040  0.0000E+00  0.2880E+03
    -26.781  0.0000E+00  0.2880E+03
    -26.523  0.0000E+00  0.2880E+03
    -26.264  0.0000E+00  0.2880E+03
    -26.005  0.0000E+00  0.2880E+03
    -25.746  0.0000E+00  0.2880E+03
    -25.487  0.0000E+00  0.2880E+03
    -25.228  0.0000E+00  0.2880E+03
    -24.970  0.0000E+00  0.2880E+03
    -24.711  0.0000E+00  0.2880E+03
    -24.452  0.0000E+00  0.2880E+03
    -24.193  0.0000E+00  0.2880E+03
    -23.934  0.0000E+00  0.2880E+03
    -23.675  0.0000E+00  0.2880E+03
    -23.417  0.0000E+00  0.2880E+03
    -23.158  0.0000E+00  0.2880E+03
    -22.899  0.0000E+00  0.2880E+03
    -22.640  0.0000E+00  0.2880E+03
    -22.381  0.0000E+00  0.2880E+03
    -22.123  0.0000E+00  0.2880E+03
    -21.864  0.0000E+00  0.2880E+03
    -21.605  0.0000E+00  0.2880E+03
    -21.346  0.0000E+00  0.2880E+03
    -21.087  0.0000E+00  0.2880E+03
    -20.828  0.0000E+00  0.2880E+03
    -20.570  0.0000E+00  0.2880E+03
    -20.311  0.0000E+00  0.2880E+03
    -20.052  0.0000E+00  0.2880E+03
    -19.793  0.0000E+00  0.2880E+03
    -19.534  0.0000E+00  0.2880E+03
    -19.275  0.0000E+00  0.2880E+03
    -19.017  0.0000E+00  0.2880E+03
    -18.758  0.0000E+00  0.2880E+03
    -18.499  0.0000E+00  0.2880E+03
    -18.240  0.0000E+00  0.2880E+03
    -17.981  0.0000E+00  0.2880E+03
    -17.722  0.0000E+00  0.2880E+03
    -17.464  0.0000E+00  0.2880E+03
    -17.205  0.0000E+00  0.2880E+03
    -16.946  0.0000E+00  0.2880E+03
    -16.687  0.0000E+00  0.2880E+03
    -16.428  0.0000E+00  0.2880E+03
    -16.170  0.0000E+00  0.2880E+03
    -15.911  0.0000E+00  0.2880E+03
    -15.652  0.0000E+00  0.2880E+03
    -15.393  0.0000E+00  0.2880E+03
    -15.134  0.0000E+00  0.2880E+03
    -14.875  0.4016E-10  0.2880E+03
    -14.617  0.2576E-05  0.2880E+03
    -14.358  0.6511E-02  0.2880E+03
    -14.099  0.7278E+00  0.2882E+03
    -13.840  0.4667E+01  0.2894E+03
    -13.581  0.2906E+01  0.2902E+03
    -13.322  0.7609E+01  0.2921E+03
    -13.064  0.2114E+02  0.2976E+03
    -12.805  0.2551E+02  0.3042E+03
    -12.546  0.3489E+02  0.3132E+03
    -12.287  0.2897E+02  0.3207E+03
    -12.028  0.4727E+02  0.3330E+03
    -11.770  0.5904E+02  0.3482E+03
    -11.511  0.3681E+02  0.3578E+03
    -11.252  0.2011E+02  0.3630E+03
    -10.993  0.1673E+02  0.3673E+03
    -10.734  0.2074E+02  0.3727E+03
    -10.475  0.2583E+02  0.3794E+03
    -10.217  0.1214E+02  0.3825E+03
     -9.958  0.5453E+01  0.3839E+03
     -9.699  0.3534E+00  0.3840E+03
     -9.440  0.1464E-02  0.3840E+03
     -9.181  0.2738E-06  0.3840E+03
     -8.922  0.2013E-11  0.3840E+03
     -8.664  0.0000E+00  0.3840E+03
     -8.405  0.0000E+00  0.3840E+03
     -8.146  0.0000E+00  0.3840E+03
     -7.887  0.0000E+00  0.3840E+03
     -7.628  0.0000E+00  0.3840E+03
     -7.370  0.0000E+00  0.3840E+03
     -7.111  0.0000E+00  0.3840E+03
     -6.852  0.3003E-14  0.3840E+03
     -6.593  0.2622E-08  0.3840E+03
     -6.334  0.8362E-04  0.3840E+03
     -6.075  0.1099E+00  0.3840E+03
     -5.817  0.6963E+01  0.3858E+03
     -5.558  0.2921E+02  0.3934E+03
     -5.299  0.1806E+02  0.3981E+03
     -5.040  0.2697E+02  0.4050E+03
     -4.781  0.4696E+02  0.4172E+03
     -4.522  0.6050E+02  0.4329E+03
     -4.264  0.6715E+02  0.4502E+03
     -4.005  0.3673E+02  0.4597E+03
     -3.746  0.4518E+02  0.4714E+03
     -3.487  0.6729E+02  0.4889E+03
     -3.228  0.7090E+02  0.5072E+03
     -2.969  0.8959E+02  0.5304E+03
     -2.711  0.8774E+02  0.5531E+03
     -2.452  0.8782E+02  0.5758E+03
     -2.193  0.1069E+03  0.6035E+03
     -1.934  0.6948E+02  0.6215E+03
     -1.675  0.4633E+02  0.6335E+03
     -1.417  0.6498E+02  0.6503E+03
     -1.158  0.8592E+02  0.6725E+03
     -0.899  0.1020E+03  0.6989E+03
     -0.640  0.1294E+03  0.7324E+03
     -0.381  0.1668E+03  0.7756E+03
     -0.122  0.1962E+03  0.8264E+03
      0.136  0.2313E+03  0.8862E+03
      0.395  0.2056E+03  0.9395E+03
      0.654  0.1459E+03  0.9772E+03
      0.913  0.1138E+03  0.1007E+04
      1.172  0.9011E+02  0.1030E+04
      1.431  0.7025E+02  0.1048E+04
      1.689  0.6807E+02  0.1066E+04
      1.948  0.6749E+02  0.1083E+04
      2.207  0.7692E+02  0.1103E+04
      2.466  0.7841E+02  0.1123E+04
      2.725  0.7470E+02  0.1143E+04
      2.983  0.3224E+02  0.1151E+04
      3.242  0.4817E+01  0.1152E+04
      3.501  0.1020E+02  0.1155E+04
      3.760  0.9379E+01  0.1157E+04
      4.019  0.1991E+01  0.1158E+04
      4.278  0.4828E+00  0.1158E+04
      4.536  0.8397E+01  0.1160E+04
      4.795  0.1824E+02  0.1165E+04
      5.054  0.1781E+02  0.1170E+04
      5.313  0.1852E+02  0.1174E+04
      5.572  0.2047E+02  0.1180E+04
      5.831  0.2220E+02  0.1185E+04
      6.089  0.2417E+02  0.1192E+04
      6.348  0.3759E+02  0.1201E+04
      6.607  0.3293E+02  0.1210E+04
      6.866  0.3434E+02  0.1219E+04
      7.125  0.4285E+02  0.1230E+04
      7.384  0.5017E+02  0.1243E+04
      7.642  0.4789E+02  0.1255E+04
      7.901  0.5936E+02  0.1271E+04
      8.160  0.3306E+02  0.1279E+04
      8.419  0.2886E+01  0.1280E+04
      8.678  0.2066E-01  0.1280E+04
      8.936  0.8087E-05  0.1280E+04
      9.195  0.1402E-09  0.1280E+04
      9.454  0.0000E+00  0.1280E+04
      9.713  0.0000E+00  0.1280E+04
      9.972  0.0000E+00  0.1280E+04
     10.231  0.0000E+00  0.1280E+04
     10.489  0.0000E+00  0.1280E+04
     10.748  0.0000E+00  0.1280E+04
     11.007  0.0000E+00  0.1280E+04
     11.266  0.0000E+00  0.1280E+04
     11.525  0.0000E+00  0.1280E+04
