 vasp.5.4.4.18Apr17-6-g9f103f2a35 (build Aug 13 2019 17:33:20) gamma-only       
  
 executed on             LinuxIFC date 2020.05.11  23:55:17
 running on   12 total cores
 distrk:  each k-point on   12 cores,    1 groups
 distr:  one band on NCORES_PER_BAND=   6 cores,    2 groups


--------------------------------------------------------------------------------------------------------


 INCAR:
 POTCAR:    PAW_PBE Ni_pv 06Sep2000               
 POTCAR:    PAW_PBE S 06Sep2000                   
 POTCAR:    PAW_PBE Ni_pv 06Sep2000               
   VRHFIN =Ni:                                                                  
   LEXCH  = PE                                                                  
   EATOM  =  3501.1230 eV,  257.3253 Ry                                         
                                                                                
   TITEL  = PAW_PBE Ni_pv 06Sep2000                                             
   LULTRA =        F    use ultrasoft PP ?                                      
   IUNSCR =        1    unscreen: 0-lin 1-nonlin 2-no                           
   RPACOR =    1.500    partial core radius                                     
   POMASS =   58.690; ZVAL   =   16.000    mass and valenz                      
   RCORE  =    2.000    outmost cutoff radius                                   
   RWIGS  =    2.000; RWIGS  =    1.058    wigner-seitz radius (au A)           
   ENMAX  =  367.986; ENMIN  =  275.989 eV                                      
   RCLOC  =    1.301    cutoff for local pot                                    
   LCOR   =        T    correct aug charges                                     
   LPAW   =        T    paw PP                                                  
   EAUG   =  703.443                                                            
   DEXC   =    0.000                                                            
   RMAX   =    2.041    core radius for proj-oper                               
   RAUG   =    1.300    factor for augmentation sphere                          
   RDEP   =    2.103    radius for radial grids                                 
   RDEPT  =    1.618    core radius for aug-charge                              
                                                                                
   Atomic configuration                                                         
    8 entries                                                                   
     n  l   j            E        occ.                                          
     1  0  0.50     -8206.4253   2.0000                                         
     2  0  0.50      -976.1748   2.0000                                         
     2  1  1.50      -839.0571   6.0000                                         
     3  0  0.50      -105.9991   2.0000                                         
     3  1  1.50       -66.4603   6.0000                                         
     3  2  2.50        -4.6458   9.0000                                         
     4  0  0.50        -4.4926   1.0000                                         
     4  3  2.50        -1.3606   0.0000                                         
   Description                                                                  
     l       E           TYP  RCUT    TYP  RCUT                                 
     1    -66.4602962     23  1.700                                             
     1     -1.3605826     23  1.700                                             
     2     -4.6457867     23  2.000                                             
     2     -6.0063693     23  2.000                                             
     0     -4.4925576     23  1.900                                             
     0     16.3626226     23  1.900                                             
  local pseudopotential read in
  partial core-charges read in
  partial kinetic energy density read in
  atomic valenz-charges read in
  non local Contribution for L=           1  read in
    real space projection operators read in
  non local Contribution for L=           1  read in
    real space projection operators read in
  non local Contribution for L=           2  read in
    real space projection operators read in
  non local Contribution for L=           2  read in
    real space projection operators read in
  non local Contribution for L=           0  read in
    real space projection operators read in
  non local Contribution for L=           0  read in
    real space projection operators read in
    PAW grid and wavefunctions read in
 
   number of l-projection  operators is LMAX  =           6
   number of lm-projection operators is LMMAX =          18
 
 POTCAR:    PAW_PBE S 06Sep2000                   
   VRHFIN =S : s2p4                                                             
   LEXCH  = PE                                                                  
   EATOM  =   276.8230 eV,   20.3459 Ry                                         
                                                                                
   TITEL  = PAW_PBE S 06Sep2000                                                 
   LULTRA =        F    use ultrasoft PP ?                                      
   IUNSCR =        1    unscreen: 0-lin 1-nonlin 2-no                           
   RPACOR =    1.500    partial core radius                                     
   POMASS =   32.066; ZVAL   =    6.000    mass and valenz                      
   RCORE  =    1.900    outmost cutoff radius                                   
   RWIGS  =    2.200; RWIGS  =    1.164    wigner-seitz radius (au A)           
   ENMAX  =  258.689; ENMIN  =  194.016 eV                                      
   ICORE  =        2    local potential                                         
   LCOR   =        T    correct aug charges                                     
   LPAW   =        T    paw PP                                                  
   EAUG   =  335.092                                                            
   DEXC   =    0.000                                                            
   RMAX   =    1.942    core radius for proj-oper                               
   RAUG   =    1.300    factor for augmentation sphere                          
   RDEP   =    1.954    radius for radial grids                                 
   RDEPT  =    1.744    core radius for aug-charge                              
                                                                                
   Atomic configuration                                                         
    6 entries                                                                   
     n  l   j            E        occ.                                          
     1  0  0.50     -2405.8406   2.0000                                         
     2  0  0.50      -211.7007   2.0000                                         
     2  1  1.50      -156.4958   6.0000                                         
     3  0  0.50       -17.2562   2.0000                                         
     3  1  0.50        -7.0085   4.0000                                         
     3  2  1.50        -6.8029   0.0000                                         
   Description                                                                  
     l       E           TYP  RCUT    TYP  RCUT                                 
     0    -17.2561641     23  1.900                                             
     0    -15.8743224     23  1.900                                             
     1     -7.0085400     23  1.900                                             
     1     -2.7779785     23  1.900                                             
     2     -6.8029130     23  1.900                                             
  local pseudopotential read in
  partial core-charges read in
  partial kinetic energy density read in
  atomic valenz-charges read in
  non local Contribution for L=           0  read in
    real space projection operators read in
  non local Contribution for L=           0  read in
    real space projection operators read in
  non local Contribution for L=           1  read in
    real space projection operators read in
  non local Contribution for L=           1  read in
    real space projection operators read in
    PAW grid and wavefunctions read in
 
   number of l-projection  operators is LMAX  =           4
   number of lm-projection operators is LMMAX =           8
 
 Optimization of the real space projectors (new method)

 maximal supplied QI-value         = 18.90
 optimisation between [QCUT,QGAM] = [ 10.77, 21.73] = [ 32.49,132.25] Ry 
 Optimized for a Real-space Cutoff    1.38 Angstroem

   l    n(q)    QCUT    max X(q) W(low)/X(q) W(high)/X(q)  e(spline) 
   1      8    10.771     2.836    0.40E-04    0.29E-04    0.12E-06
   1      8    10.771     4.023    0.10E-03    0.48E-04    0.29E-06
   2      8    10.771    73.368    0.42E-03    0.97E-04    0.44E-06
   2      8    10.771    69.010    0.42E-03    0.99E-04    0.45E-06
   0      9    10.771    54.797    0.10E-03    0.56E-04    0.74E-07
   0      9    10.771    24.266    0.89E-04    0.49E-04    0.67E-07
 Optimization of the real space projectors (new method)

 maximal supplied QI-value         = 19.84
 optimisation between [QCUT,QGAM] = [ 10.71, 21.63] = [ 32.15,130.99] Ry 
 Optimized for a Real-space Cutoff    1.19 Angstroem

   l    n(q)    QCUT    max X(q) W(low)/X(q) W(high)/X(q)  e(spline) 
   0      8    10.715   187.594    0.41E-03    0.53E-04    0.66E-07
   0      8    10.715   164.243    0.41E-03    0.53E-04    0.65E-07
   1      7    10.715    67.533    0.19E-03    0.59E-03    0.68E-07
   1      7    10.715    50.729    0.19E-03    0.58E-03    0.67E-07
  PAW_PBE Ni_pv 06Sep2000               :
 energy of atom  1       EATOM=-3501.1230
 kinetic energy error for atom=    0.0925 (will be added to EATOM!!)
  PAW_PBE S 06Sep2000                   :
 energy of atom  2       EATOM= -276.8230
 kinetic energy error for atom=    0.0033 (will be added to EATOM!!)
 
 
 POSCAR: Type_037 Type_137                       
  positions in cartesian coordinates
  No initial velocities read in
 exchange correlation table for  LEXCH =        8
   RHO(1)=    0.500       N(1)  =     2000
   RHO(2)=  100.500       N(2)  =     4000
 


--------------------------------------------------------------------------------------------------------


 ion  position               nearest neighbor table
   1  0.780  0.145  0.123-  65 2.06  51 2.09  42 2.15  52 2.36  66 2.36
   2  0.804  0.145  0.286-  66 2.05  52 2.05  43 2.07
   3  0.217  0.681  0.093-  44 2.03  45 2.06  53 2.10  27 2.46   4 2.49  63 2.57
   4  0.297  0.645  0.216-  64 2.13  46 2.20  53 2.26  63 2.26  45 2.33  22 2.43   3 2.49  28 2.53
                            17 2.53
   5  0.387  0.179  0.131-  47 2.03  48 2.11  55 2.11   6 2.40  34 2.51
   6  0.470  0.145  0.247-  70 2.11  69 2.14  56 2.15  48 2.25  55 2.26   5 2.40  31 2.53  19 2.53

   7  0.952  0.645  0.154-  68 2.08  58 2.10  67 2.17  49 2.25  57 2.36   8 2.40  32 2.53  20 2.53

   8  0.956  0.635  0.298-  50 2.02  57 2.07  67 2.08   7 2.40
   9  0.171  0.147  0.047-  47 2.01  59 2.05  73 2.05  10 2.44
  10  0.125  0.145  0.185-  60 2.08  59 2.13  73 2.18  39 2.25  11 2.32  74 2.36   9 2.44  34 2.53
                            21 2.53
  11  0.071  0.116  0.312-  38 2.03  60 2.14  74 2.26  10 2.32  15 2.52  39 2.55
  12  0.569  0.654  0.163-  40 2.01  41 2.14  61 2.15  71 2.27  13 2.28
  13  0.642  0.645  0.278-  72 2.02  62 2.03  41 2.25  61 2.26  71 2.26  12 2.28  37 2.53  24 2.53

  14  0.910  0.003  0.120-  65 2.06  58 2.08  66 2.10  39 2.20  15 2.53
  15  0.942  0.007  0.269-  38 2.05  39 2.11  66 2.13  57 2.14  11 2.52  14 2.53
  16  0.417  0.412  0.063-  55 2.10  63 2.12  17 2.35  27 2.45  40 2.47
  17  0.425  0.513  0.192-  64 2.18  55 2.25  40 2.26  63 2.26  16 2.35  41 2.36  18 2.49   4 2.53
                            28 2.53
  18  0.456  0.483  0.337-  56 2.00  64 2.03  41 2.07  17 2.49
  19  0.597  0.013  0.222-  70 2.12  69 2.13  43 2.19  42 2.21  61 2.25  29 2.32  30 2.50  31 2.53
                             6 2.53
  20  0.080  0.513  0.130-  45 2.07  68 2.10  44 2.11  59 2.12  67 2.24   7 2.53  32 2.53
  21  0.252  0.013  0.161-  47 2.13  73 2.14  53 2.25  22 2.36  48 2.36  74 2.36  10 2.53  34 2.53

  22  0.284  0.877  0.274-  46 2.02  54 2.03  74 2.09  21 2.36   4 2.43  53 2.65
  23  0.770  0.431  0.122-  51 2.03  52 2.16  71 2.22  49 2.27  24 2.33
  24  0.770  0.513  0.253-  72 2.03  50 2.09  52 2.25  71 2.26  49 2.26  23 2.33  13 2.53  37 2.53

  25  0.919  0.373  0.134-  68 2.04  52 2.10  51 2.10  67 2.16  26 2.51  39 2.64
  26  0.942  0.273  0.272-  38 2.05  39 2.09  52 2.17  67 2.18  25 2.51
  27  0.358  0.646  0.062-  40 2.02  53 2.04  63 2.06  16 2.45   3 2.46
  28  0.425  0.777  0.192-  69 2.12  54 2.13  40 2.26  53 2.26  41 2.36  29 2.43   4 2.53  17 2.53

  29  0.520  0.854  0.292-  70 2.01  41 2.02  54 2.08  19 2.32  69 2.38  28 2.43
  30  0.534  0.134  0.106-  42 2.05  55 2.07  69 2.09  19 2.50
  31  0.597  0.277  0.222-  56 2.07  43 2.12  42 2.19  71 2.25  55 2.26  19 2.53   6 2.53
  32  0.080  0.777  0.130-  44 2.07  58 2.10  73 2.13  45 2.30  57 2.36   7 2.53  20 2.53
  33  0.127  0.780  0.276-  74 2.05  45 2.06  46 2.10  57 2.20
  34  0.252  0.277  0.161-  59 2.12  47 2.16  63 2.25  48 2.36  35 2.43   5 2.51  10 2.53  21 2.53
                            60 2.56
  35  0.280  0.306  0.303-  48 2.05  60 2.05  64 2.05  34 2.43
  36  0.779  0.856  0.120-  65 2.01  66 2.13  49 2.20  37 2.35  61 2.35
  37  0.770  0.777  0.253-  62 2.06  50 2.08  66 2.25  61 2.26  49 2.26  36 2.35  13 2.53  24 2.53

  38  0.963  0.137  0.364-  11 2.03  26 2.05  15 2.05
  39  0.991  0.145  0.183-  26 2.09  15 2.11  14 2.20  10 2.25  11 2.55  25 2.64
  40  0.474  0.645  0.091-  12 2.01  27 2.02  17 2.26  28 2.26  16 2.47
  41  0.509  0.645  0.276-  29 2.02  18 2.07  12 2.14  13 2.25  28 2.36  17 2.36  54 2.76
  42  0.653  0.148  0.130-  30 2.05   1 2.15  31 2.19  19 2.21  43 2.59
  43  0.682  0.152  0.283-   2 2.07  31 2.12  19 2.19  42 2.59  70 2.73
  44  0.112  0.649  0.035-   3 2.03  32 2.07  20 2.11  68 2.69
  45  0.161  0.624  0.198-   3 2.06  33 2.06  20 2.07  32 2.30   4 2.33  46 2.58
  46  0.233  0.708  0.325-  22 2.02  33 2.10   4 2.20  45 2.58
  47  0.289  0.143  0.063-   9 2.01   5 2.03  21 2.13  34 2.16
  48  0.336  0.145  0.245-  35 2.05   5 2.11   6 2.25  34 2.36  21 2.36
  49  0.819  0.645  0.153-  36 2.20   7 2.25  24 2.26  37 2.26  23 2.27
  50  0.839  0.646  0.324-   8 2.02  37 2.08  24 2.09
  51  0.834  0.298  0.053-  23 2.03   1 2.09  25 2.10  52 2.71
  52  0.829  0.314  0.215-   2 2.05  25 2.10  23 2.16  26 2.17  24 2.25   1 2.36  51 2.71
  53  0.312  0.814  0.122-  27 2.04   3 2.10  21 2.25   4 2.26  28 2.26  22 2.65
  54  0.398  0.848  0.309-  22 2.03  29 2.08  28 2.13  41 2.76
  55  0.484  0.314  0.153-  30 2.07  16 2.10   5 2.11  17 2.25   6 2.26  31 2.26
  56  0.520  0.311  0.317-  18 2.00  31 2.07   6 2.15  70 2.58
  57  0.001  0.814  0.246-   8 2.07  15 2.14  33 2.20  32 2.36   7 2.36  58 2.78
  58  0.968  0.823  0.082-  14 2.08   7 2.10  32 2.10  57 2.78
  59  0.140  0.323  0.109-   9 2.05  20 2.12  34 2.12  10 2.13
  60  0.162  0.262  0.284-  35 2.05  10 2.08  11 2.14  34 2.56  74 2.74
  61  0.657  0.814  0.184-  12 2.15  19 2.25  37 2.26  13 2.26  36 2.35  62 2.66
  62  0.686  0.810  0.341-  13 2.03  37 2.06  61 2.66
  63  0.312  0.477  0.122-  27 2.06  16 2.12  34 2.25   4 2.26  17 2.26   3 2.57
  64  0.344  0.486  0.292-  18 2.03  35 2.05   4 2.13  17 2.18
  65  0.817  1.000  0.040-  36 2.01   1 2.06  14 2.06
  66  0.829  0.977  0.215-   2 2.05  14 2.10  36 2.13  15 2.13  37 2.25   1 2.36
  67  0.991  0.469  0.226-   8 2.08  25 2.16   7 2.17  26 2.18  20 2.24
  68  0.976  0.509  0.060-  25 2.04   7 2.08  20 2.10  44 2.69
  69  0.485  0.968  0.170-  30 2.09  28 2.12  19 2.13   6 2.14  29 2.38
  70  0.540  0.046  0.334-  29 2.01   6 2.11  19 2.12  56 2.58  43 2.73
  71  0.657  0.477  0.184-  23 2.22  31 2.25  24 2.26  13 2.26  12 2.27
  72  0.694  0.499  0.348-  13 2.02  24 2.03
  73  0.141  0.967  0.106-   9 2.05  32 2.13  21 2.14  10 2.18
  74  0.174  0.977  0.276-  33 2.05  22 2.09  11 2.26  10 2.36  21 2.36  60 2.74
 
  LATTYP: Found a simple orthorhombic cell.
 ALAT       =     9.5784100000
 B/A-ratio  =     1.7387693453
 C/A-ratio  =     1.7627867312
  
  Lattice vectors:
  
 A1 = (   0.0000000000,   9.5784100000,   0.0000000000)
 A2 = (   0.0000000000,   0.0000000000, -16.6546456851)
 A3 = ( -16.8846940542,   0.0000000000,   0.0000000000)


Analysis of symmetry for initial positions (statically):
=====================================================================
 Subroutine PRICEL returns:
 Original cell was already a primitive cell.
 

 Routine SETGRP: Setting up the symmetry group for a 
 simple orthorhombic supercell.


 Subroutine GETGRP returns: Found  1 space group operations
 (whereof  1 operations were pure point group operations)
 out of a pool of  8 trial point group operations.


The static configuration has the point symmetry C_1 .


Analysis of symmetry for dynamics (positions and initial velocities):
=====================================================================
 Subroutine PRICEL returns:
 Original cell was already a primitive cell.
 

 Routine SETGRP: Setting up the symmetry group for a 
 simple orthorhombic supercell.


 Subroutine GETGRP returns: Found  1 space group operations
 (whereof  1 operations were pure point group operations)
 out of a pool of  8 trial point group operations.


The dynamic configuration has the point symmetry C_1 .


 Subroutine INISYM returns: Found  1 space group operations
 (whereof  1 operations are pure point group operations),
 and found     1 'primitive' translations

 
 
 KPOINTS: gamma-point-only calculation. no periodi

Automatic generation of k-mesh.
Space group operators:
 irot       det(A)        alpha          n_x          n_y          n_z        tau_x        tau_y        tau_z
    1     1.000000     0.000000     1.000000     0.000000     0.000000     0.000000     0.000000     0.000000
 
 Subroutine IBZKPT returns following result:
 ===========================================
 
 Found      1 irreducible k-points:
 
 Following reciprocal coordinates:
            Coordinates               Weight
  0.000000  0.000000  0.000000      1.000000
 
 Following cartesian coordinates:
            Coordinates               Weight
  0.000000  0.000000  0.000000      1.000000
 


--------------------------------------------------------------------------------------------------------




 Dimension of arrays:
   k-points           NKPTS =      1   k-points in BZ     NKDIM =      1   number of bands    NBANDS=    488
   number of dos      NEDOS =    301   number of ions     NIONS =     74
   non local maximal  LDIM  =      6   non local SUM 2l+1 LMDIM =     18
   total plane-waves  NPLWV = 405000
   max r-space proj   IRMAX =   1708   max aug-charges    IRDMAX=   4936
   dimension x,y,z NGX =    90 NGY =   50 NGZ =   90
   dimension x,y,z NGXF=   180 NGYF=  100 NGZF=  180
   support grid    NGXF=   180 NGYF=  100 NGZF=  180
   ions per type =              37  37
   NGX,Y,Z   is equivalent  to a cutoff of   8.86,  8.68,  8.98 a.u.
   NGXF,Y,Z  is equivalent  to a cutoff of  17.72, 17.36, 17.97 a.u.

 SYSTEM =  "Millerite NiS"                         
 POSCAR =  Type_037 Type_137                       

 Startparameter for this run:
   NWRITE =      2    write-flag & timer
   PREC   = normal    normal or accurate (medium, high low for compatibility)
   ISTART =      0    job   : 0-new  1-cont  2-samecut
   ICHARG =      2    charge: 1-file 2-atom 10-const
   ISPIN  =      1    spin polarized calculation?
   LNONCOLLINEAR =      F non collinear calculations
   LSORBIT =      F    spin-orbit coupling
   INIWAV =      1    electr: 0-lowe 1-rand  2-diag
   LASPH  =      F    aspherical Exc in radial PAW
   METAGGA=      F    non-selfconsistent MetaGGA calc.

 Electronic Relaxation 1
   ENCUT  =  450.0 eV  33.07 Ry    5.75 a.u.  29.20 16.57 28.81*2*pi/ulx,y,z
   ENINI  =  450.0     initial cutoff
   ENAUG  =  703.4 eV  augmentation charge cutoff
   NELM   =    100;   NELMIN=  2; NELMDL= -5     # of ELM steps 
   EDIFF  = 0.1E-03   stopping-criterion for ELM
   LREAL  =      T    real-space projection
   NLSPLINE    = F    spline interpolate recip. space projectors
   LCOMPAT=      F    compatible to vasp.4.4
   GGA_COMPAT  = T    GGA compatible to vasp.4.4-vasp.4.6
   LMAXPAW     = -100 max onsite density
   LMAXMIX     =    2 max onsite mixed and CHGCAR
   VOSKOWN=      0    Vosko Wilk Nusair interpolation
   ROPT   =   -0.00050  -0.00050
 Ionic relaxation
   EDIFFG = 0.1E-02   stopping-criterion for IOM
   NSW    =      0    number of steps for IOM
   NBLOCK =      1;   KBLOCK =      1    inner block; outer block 
   IBRION =     -1    ionic relax: 0-MD 1-quasi-New 2-CG
   NFREE  =      0    steps in history (QN), initial steepest desc. (CG)
   ISIF   =      2    stress and relaxation
   IWAVPR =     10    prediction:  0-non 1-charg 2-wave 3-comb
   ISYM   =      2    0-nonsym 1-usesym 2-fastsym
   LCORR  =      T    Harris-Foulkes like correction to forces

   POTIM  = 0.5000    time-step for ionic-motion
   TEIN   =    0.0    initial temperature
   TEBEG  =    0.0;   TEEND  =   0.0 temperature during run
   SMASS  =  -3.00    Nose mass-parameter (am)
   estimated Nose-frequenzy (Omega)   =  0.10E-29 period in steps =****** mass=  -0.652E-26a.u.
   SCALEE = 1.0000    scale energy and forces
   NPACO  =    256;   APACO  = 16.0  distance and # of slots for P.C.
   PSTRESS=    0.0 pullay stress

  Mass of Ions in am
   POMASS =  58.69 32.07
  Ionic Valenz
   ZVAL   =  16.00  6.00
  Atomic Wigner-Seitz radii
   RWIGS  =  -1.00 -1.00
  virtual crystal weights 
   VCA    =   1.00  1.00
   NELECT =     814.0000    total number of electrons
   NUPDOWN=      -1.0000    fix difference up-down

 DOS related values:
   EMIN   =  10.00;   EMAX   =-10.00  energy-range for DOS
   EFERMI =   0.00
   ISMEAR =     0;   SIGMA  =   0.20  broadening in eV -4-tet -1-fermi 0-gaus

 Electronic relaxation 2 (details)
   IALGO  =     38    algorithm
   LDIAG  =      T    sub-space diagonalisation (order eigenvalues)
   LSUBROT=      F    optimize rotation matrix (better conditioning)
   TURBO    =      0    0=normal 1=particle mesh
   IRESTART =      0    0=no restart 2=restart with 2 vectors
   NREBOOT  =      0    no. of reboots
   NMIN     =      0    reboot dimension
   EREF     =   0.00    reference energy to select bands
   IMIX   =      4    mixing-type and parameters
     AMIX     =   0.40;   BMIX     =  1.00
     AMIX_MAG =   1.60;   BMIX_MAG =  1.00
     AMIN     =   0.10
     WC   =   100.;   INIMIX=   1;  MIXPRE=   1;  MAXMIX= -45

 Intra band minimization:
   WEIMIN = 0.0000     energy-eigenvalue tresh-hold
   EBREAK =  0.51E-07  absolut break condition
   DEPER  =   0.30     relativ break condition  

   TIME   =   0.40     timestep for ELM

  volume/ion in A,a.u.               =      36.40       245.63
  Fermi-wavevector in a.u.,A,eV,Ry     =   1.098607  2.076066 16.421374  1.206937
  Thomas-Fermi vector in A             =   2.234987
 
 Write flags
   LWAVE        =      F    write WAVECAR
   LDOWNSAMPLE  =      F    k-point downsampling of WAVECAR
   LCHARG       =      F    write CHGCAR
   LVTOT        =      F    write LOCPOT, total local potential
   LVHAR        =      F    write LOCPOT, Hartree potential only
   LELF         =      F    write electronic localiz. function (ELF)
   LORBIT       =      0    0 simple, 1 ext, 2 COOP (PROOUT), +10 PAW based schemes


 Dipole corrections
   LMONO  =      F    monopole corrections only (constant potential shift)
   LDIPOL =      F    correct potential (dipole corrections)
   IDIPOL =      0    1-x, 2-y, 3-z, 4-all directions 
   EPSILON=  1.0000000 bulk dielectric constant

 Exchange correlation treatment:
   GGA     =    --    GGA type
   LEXCH   =     8    internal setting for exchange type
   VOSKOWN=      0    Vosko Wilk Nusair interpolation
   LHFCALC =     F    Hartree Fock is set to
   LHFONE  =     F    Hartree Fock one center treatment
   AEXX    =    0.0000 exact exchange contribution

 Linear response parameters
   LEPSILON=     F    determine dielectric tensor
   LRPA    =     F    only Hartree local field effects (RPA)
   LNABLA  =     F    use nabla operator in PAW spheres
   LVEL    =     F    velocity operator in full k-point grid
   LINTERFAST=   F  fast interpolation
   KINTER  =     0    interpolate to denser k-point grid
   CSHIFT  =0.1000    complex shift for real part using Kramers Kronig
   OMEGAMAX=  -1.0    maximum frequency
   DEG_THRESHOLD= 0.2000000E-02 threshold for treating states as degnerate
   RTIME   =   -0.100 relaxation time in fs
  (WPLASMAI=    0.000 imaginary part of plasma frequency in eV, 0.658/RTIME)
   DFIELD  = 0.0000000 0.0000000 0.0000000 field for delta impulse in time
 
 Orbital magnetization related:
   ORBITALMAG=     F  switch on orbital magnetization
   LCHIMAG   =     F  perturbation theory with respect to B field
   DQ        =  0.001000  dq finite difference perturbation B field
   LLRAUG    =     F  two centre corrections for induced B field



--------------------------------------------------------------------------------------------------------


 Static calculation
 charge density and potential will be updated during run
 non-spin polarized calculation
 Variant of blocked Davidson
 Davidson routine will perform the subspace rotation
 perform sub-space diagonalisation
    after iterative eigenvector-optimisation
 modified Broyden-mixing scheme, WC =      100.0
 initial mixing is a Kerker type mixing with AMIX =  0.4000 and BMIX =      1.0000
 Hartree-type preconditioning will be used
 using additional bands           81
 real space projection scheme for non local part
 use partial core corrections
 calculate Harris-corrections to forces 
   (improved forces if not selfconsistent)
 use gradient corrections 
 use of overlap-Matrix (Vanderbilt PP)
 Gauss-broadening in eV      SIGMA  =   0.20


--------------------------------------------------------------------------------------------------------


  energy-cutoff  :      450.00
  volume of cell :     2693.53
      direct lattice vectors                 reciprocal lattice vectors
    16.884694054  0.000000000  0.000000000     0.059225237  0.000000000  0.000000000
     0.000000000  9.578410000  0.000000000     0.000000000  0.104401461  0.000000000
     0.000000000  0.000000000 16.654645685     0.000000000  0.000000000  0.060043307

  length of vectors
    16.884694054  9.578410000 16.654645685     0.059225237  0.104401461  0.060043307


 
 k-points in units of 2pi/SCALE and weight: gamma-point-only calculation. no periodi
   0.00000000  0.00000000  0.00000000       1.000
 
 k-points in reciprocal lattice and weights: gamma-point-only calculation. no periodi
   0.00000000  0.00000000  0.00000000       1.000
 
 position of ions in fractional coordinates (direct lattice) 
   0.78004630  0.14529696  0.12347080
   0.80429787  0.14509364  0.28648776
   0.21670069  0.68077162  0.09279580
   0.29733028  0.64529696  0.21607389
   0.38728018  0.17907145  0.13111980
   0.46975828  0.14529696  0.24694159
   0.95247430  0.64529696  0.15433850
   0.95595499  0.63533358  0.29834797
   0.17118662  0.14736738  0.04651233
   0.12490229  0.14529696  0.18520619
   0.07117509  0.11561525  0.31214102
   0.56921300  0.65400186  0.16308695
   0.64218627  0.64529696  0.27780929
   0.90989277  0.00325170  0.12014203
   0.94235147  0.00706880  0.26859892
   0.41739474  0.41247852  0.06346349
   0.42486675  0.51319396  0.19160760
   0.45551640  0.48251579  0.33705506
   0.59729475  0.01319396  0.22247530
   0.08001077  0.51319396  0.12987220
   0.25243876  0.01319396  0.16073990
   0.28384279  0.87670278  0.27421467
   0.76985132  0.43097739  0.12150232
   0.76972274  0.51319396  0.25334300
   0.91853077  0.37293708  0.13414984
   0.94241013  0.27340650  0.27166380
   0.35819334  0.64618851  0.06235038
   0.42486675  0.77739996  0.19160760
   0.52000324  0.85356393  0.29160017
   0.53390786  0.13422331  0.10584877
   0.59729475  0.27739996  0.22247530
   0.08001077  0.77739996  0.12987220
   0.12666912  0.78014237  0.27582676
   0.25243876  0.27739996  0.16073990
   0.27968873  0.30561688  0.30283884
   0.77865002  0.85645239  0.12010755
   0.76972274  0.77739996  0.25334300
   0.96344620  0.13735921  0.36412720
   0.99146120  0.14529696  0.18349304
   0.47417723  0.64529696  0.09088994
   0.50874518  0.64529696  0.27609614
   0.65285112  0.14755977  0.13015356
   0.68175235  0.15171258  0.28314289
   0.11241845  0.64860447  0.03540682
   0.16120588  0.62446521  0.19775525
   0.23343649  0.70758663  0.32545366
   0.28915099  0.14286244  0.06339836
   0.33631719  0.14529696  0.24522844
   0.81903321  0.64529696  0.15262534
   0.83922980  0.64634908  0.32376021
   0.83391429  0.29809289  0.05251558
   0.82906105  0.31351196  0.21464750
   0.31177707  0.81351196  0.12204440
   0.39798773  0.84838966  0.30946260
   0.48420507  0.31351196  0.15291210
   0.52004687  0.31106437  0.31723513
   0.00148905  0.81351196  0.24551520
   0.96773294  0.82338897  0.08245254
   0.14032551  0.32262325  0.10940492
   0.16245359  0.26182701  0.28378650
   0.65663306  0.81351196  0.18377980
   0.68555573  0.80995193  0.34099853
   0.31177707  0.47708196  0.12204440
   0.34388018  0.48617171  0.29215611
   0.81661759  0.99959395  0.04047275
   0.82906105  0.97708196  0.21464750
   0.99093930  0.46915234  0.22594077
   0.97628868  0.50902520  0.06005162
   0.48522206  0.96793385  0.17000754
   0.54048767  0.04613569  0.33409873
   0.65663306  0.47708196  0.18377980
   0.69424321  0.49855724  0.34753396
   0.14105562  0.96699855  0.10560641
   0.17391704  0.97708196  0.27638290
 
 position of ions in cartesian coordinates  (Angst):
  13.17084321  1.39171383  2.05636238
  13.58032352  1.38976638  4.77135219
   3.65892479  6.52070966  1.54548118
   5.02033088  6.18091883  3.59863415
   6.53910731  1.71521978  2.18375387
   7.93172477  1.39171383  4.11272475
  16.08223712  6.18091883  2.57045297
  16.14100761  6.08548549  4.96887973
   2.89043370  1.41154520  0.77464639
   2.10893697  1.39171383  3.08454356
   1.20176954  1.10741027  5.19859814
   9.61098742  6.26429795  2.71615539
  10.84311868  6.18091883  4.62681534
  15.36326109  0.03114616  2.00092286
  15.91131618  0.06770783  4.47341990
   7.04758244  3.95088841  1.05696189
   7.17374514  4.91558213  3.19115669
   7.69125504  4.62173411  5.61353260
  10.08513905  0.12637713  3.70524730
   1.35095732  4.91558213  2.16297551
   4.26235123  0.12637713  2.67706610
   4.79259859  8.39741871  4.56694823
  12.99870397  4.12807818  2.02357805
  12.99653294  4.91558213  4.21933789
  15.50911101  3.57214429  2.23421797
  15.91230679  2.61879952  4.52446437
   6.04798502  6.18945845  1.03842346
   7.17374514  7.44625552  3.19115669
   8.78009569  8.17578530  4.85649747
   9.01487087  1.28564591  1.76287379
  10.08513905  2.65705052  3.70524730
   1.35095732  7.44625552  2.16297551
   2.13876927  7.47252349  4.59379704
   4.26235123  2.65705052  2.67706610
   4.72245867  2.92732377  5.04367362
  13.14726742  8.20345214  2.00034877
  12.99653294  7.44625552  4.21933789
  16.26749430  1.31568282  6.06440958
  16.74051910  1.39171383  3.05601153
   8.00633737  6.18091883  1.51373975
   8.59000675  6.18091883  4.59828332
  11.02319144  1.41338794  2.16766145
  11.51117983  1.45316534  4.71564453
   1.89815117  6.21259955  0.58968810
   2.72191203  5.98138386  3.29354362
   3.94150365  6.77755484  5.42031540
   4.88222598  1.36839505  1.05587727
   5.67861284  1.39171383  4.08419271
  13.82912519  6.18091883  2.54192094
  14.17013840  6.19099652  5.39211162
  14.08038769  2.85525592  0.87462833
  13.99844223  3.00294606  3.57487803
   5.26426051  7.79215106  2.03260624
   6.71990100  8.12622401  5.15398987
   8.17565442  3.00294606  2.54669685
   8.78083226  2.97950206  5.28343877
   0.02514209  7.79215106  4.08896862
  16.33987456  7.88675718  1.37321778
   2.36935328  3.09021773  1.82210020
   2.74297925  2.50788642  4.72636357
  11.08704832  7.79215106  3.06078744
  11.57539883  7.75805163  5.67920977
   5.26426051  4.56968659  2.03260624
   5.80631170  4.65675194  4.86575649
  13.78833812  9.57452065  0.67405939
  13.99844223  9.35889159  3.57487803
  16.73170690  4.49373351  3.76296342
  16.48433565  4.87565208  1.00013850
   8.19282596  9.27126728  2.83141531
   9.12596901  0.44190656  5.56429599
  11.08704832  4.56968659  3.06078744
  11.72208415  4.77538566  5.78805489
   2.38168092  9.26230862  1.75883730
   2.93653598  9.35889159  4.60305921
 


--------------------------------------------------------------------------------------------------------


 use parallel FFT for orbitals z direction half grid
 k-point  1 :   0.0000 0.0000 0.0000  plane waves:   29200

 maximum and minimum number of plane-waves per node :      4869     4864

 maximum number of plane-waves:     29200
 maximum index in each direction: 
   IXMAX=   29   IYMAX=   16   IZMAX=   28
   IXMIN=  -29   IYMIN=  -16   IZMIN=    0


 real space projection operators:
  total allocation   :      10766.61 KBytes
  max/ min on nodes  :       1802.92       1787.92


 parallel 3D FFT for wavefunctions:
    minimum data exchange during FFTs selected (reduces bandwidth)
 parallel 3D FFT for charge:
    minimum data exchange during FFTs selected (reduces bandwidth)


 total amount of memory used by VASP MPI-rank0    80242. kBytes
=======================================================================

   base      :      30000. kBytes
   nonlr-proj:       2202. kBytes
   fftplans  :      10634. kBytes
   grid      :      17961. kBytes
   one-center:        101. kBytes
   wavefun   :      19344. kBytes
 
     INWAV:  cpu time    0.0001: real time    0.0001
 Broyden mixing: mesh for mixing (old mesh)
   NGX = 59   NGY = 33   NGZ = 57
  (NGX  =180   NGY  =100   NGZ  =180)
  gives a total of 110979 points

 initial charge density was supplied:
 charge density of overlapping atoms calculated
 number of electron     814.0000000 magnetization 
 keeping initial charge density in first step


--------------------------------------------------------------------------------------------------------


 Maximum index for non-local projection operator          278
 Maximum index for augmentation-charges          445 (set IRDMAX)


--------------------------------------------------------------------------------------------------------


 First call to EWALD:  gamma=   0.127
 Maximum number of real-space cells 2x 4x 2
 Maximum number of reciprocal cells 3x 2x 3

    FEWALD:  cpu time    0.0117: real time    0.0117


--------------------------------------- Iteration      1(   1)  ---------------------------------------


    POTLOK:  cpu time    0.3513: real time    0.3513
    SETDIJ:  cpu time    0.0189: real time    0.0190
     EDDAV:  cpu time    9.4725: real time    9.4780
       DOS:  cpu time    0.0016: real time    0.0016
    --------------------------------------------
      LOOP:  cpu time    9.8443: real time    9.8498

 eigenvalue-minimisations  :  1200
 total energy-change (2. order) : 0.9163624E+04  (-0.5209168E+05)
 number of electron     814.0000000 magnetization 
 augmentation part      814.0000000 magnetization 

 Free energy of the ion-electron system (eV)
  ---------------------------------------------------
  alpha Z        PSCENC =      1458.83996183
  Ewald energy   TEWEN  =    174352.08399584
  -Hartree energ DENC   =   -297934.18972006
  -exchange      EXHF   =         0.00000000
  -V(xc)+E(xc)   XCENC  =      3787.48969097
  PAW double counting   =    115860.90926010  -120909.33166199
  entropy T*S    EENTRO =        -0.45918604
  eigenvalues    EBANDS =     -7232.17332726
  atomic energy  EATOM  =    139780.45519414
  Solvation  Ediel_sol  =         0.00000000
  ---------------------------------------------------
  free energy    TOTEN  =      9163.62420754 eV

  energy without entropy =     9164.08339358  energy(sigma->0) =     9163.85380056


--------------------------------------------------------------------------------------------------------




--------------------------------------- Iteration      1(   2)  ---------------------------------------


     EDDAV:  cpu time    8.3038: real time    8.3054
       DOS:  cpu time    0.0012: real time    0.0012
    --------------------------------------------
      LOOP:  cpu time    8.3050: real time    8.3066

 eigenvalue-minimisations  :  1048
 total energy-change (2. order) :-0.8669749E+04  (-0.8372051E+04)
 number of electron     814.0000000 magnetization 
 augmentation part      814.0000000 magnetization 

 Free energy of the ion-electron system (eV)
  ---------------------------------------------------
  alpha Z        PSCENC =      1458.83996183
  Ewald energy   TEWEN  =    174352.08399584
  -Hartree energ DENC   =   -297934.18972006
  -exchange      EXHF   =         0.00000000
  -V(xc)+E(xc)   XCENC  =      3787.48969097
  PAW double counting   =    115860.90926010  -120909.33166199
  entropy T*S    EENTRO =        -0.84256044
  eigenvalues    EBANDS =    -15901.53909072
  atomic energy  EATOM  =    139780.45519414
  Solvation  Ediel_sol  =         0.00000000
  ---------------------------------------------------
  free energy    TOTEN  =       493.87506968 eV

  energy without entropy =      494.71763011  energy(sigma->0) =      494.29634990


--------------------------------------------------------------------------------------------------------




--------------------------------------- Iteration      1(   3)  ---------------------------------------


     EDDAV:  cpu time    9.0463: real time    9.0484
       DOS:  cpu time    0.0014: real time    0.0014
    --------------------------------------------
      LOOP:  cpu time    9.0477: real time    9.0498

 eigenvalue-minimisations  :  1136
 total energy-change (2. order) :-0.8493976E+03  (-0.8163976E+03)
 number of electron     814.0000000 magnetization 
 augmentation part      814.0000000 magnetization 

 Free energy of the ion-electron system (eV)
  ---------------------------------------------------
  alpha Z        PSCENC =      1458.83996183
  Ewald energy   TEWEN  =    174352.08399584
  -Hartree energ DENC   =   -297934.18972006
  -exchange      EXHF   =         0.00000000
  -V(xc)+E(xc)   XCENC  =      3787.48969097
  PAW double counting   =    115860.90926010  -120909.33166199
  entropy T*S    EENTRO =        -1.13268539
  eigenvalues    EBANDS =    -16750.64659755
  atomic energy  EATOM  =    139780.45519414
  Solvation  Ediel_sol  =         0.00000000
  ---------------------------------------------------
  free energy    TOTEN  =      -355.52256211 eV

  energy without entropy =     -354.38987672  energy(sigma->0) =     -354.95621941


--------------------------------------------------------------------------------------------------------




--------------------------------------- Iteration      1(   4)  ---------------------------------------


     EDDAV:  cpu time    8.6684: real time    8.6700
       DOS:  cpu time    0.0013: real time    0.0012
    --------------------------------------------
      LOOP:  cpu time    8.6697: real time    8.6712

 eigenvalue-minimisations  :  1112
 total energy-change (2. order) :-0.4327494E+02  (-0.4283650E+02)
 number of electron     814.0000000 magnetization 
 augmentation part      814.0000000 magnetization 

 Free energy of the ion-electron system (eV)
  ---------------------------------------------------
  alpha Z        PSCENC =      1458.83996183
  Ewald energy   TEWEN  =    174352.08399584
  -Hartree energ DENC   =   -297934.18972006
  -exchange      EXHF   =         0.00000000
  -V(xc)+E(xc)   XCENC  =      3787.48969097
  PAW double counting   =    115860.90926010  -120909.33166199
  entropy T*S    EENTRO =        -1.14885401
  eigenvalues    EBANDS =    -16793.90536484
  atomic energy  EATOM  =    139780.45519414
  Solvation  Ediel_sol  =         0.00000000
  ---------------------------------------------------
  free energy    TOTEN  =      -398.79749801 eV

  energy without entropy =     -397.64864400  energy(sigma->0) =     -398.22307101


--------------------------------------------------------------------------------------------------------




--------------------------------------- Iteration      1(   5)  ---------------------------------------


     EDDAV:  cpu time    9.9842: real time    9.9861
       DOS:  cpu time    0.0014: real time    0.0014
    CHARGE:  cpu time    0.3058: real time    0.3058
    MIXING:  cpu time    0.0116: real time    0.0116
    --------------------------------------------
      LOOP:  cpu time   10.3030: real time   10.3049

 eigenvalue-minimisations  :  1296
 total energy-change (2. order) :-0.1765252E+01  (-0.1763182E+01)
 number of electron     813.9997829 magnetization 
 augmentation part      294.6364713 magnetization 

 Broyden mixing:
  rms(total) = 0.10222E+02    rms(broyden)= 0.10215E+02
  rms(prec ) = 0.10721E+02
  weight for this iteration     100.00

 Free energy of the ion-electron system (eV)
  ---------------------------------------------------
  alpha Z        PSCENC =      1458.83996183
  Ewald energy   TEWEN  =    174352.08399584
  -Hartree energ DENC   =   -297934.18972006
  -exchange      EXHF   =         0.00000000
  -V(xc)+E(xc)   XCENC  =      3787.48969097
  PAW double counting   =    115860.90926010  -120909.33166199
  entropy T*S    EENTRO =        -1.14260726
  eigenvalues    EBANDS =    -16795.67686344
  atomic energy  EATOM  =    139780.45519414
  Solvation  Ediel_sol  =         0.00000000
  ---------------------------------------------------
  free energy    TOTEN  =      -400.56274986 eV

  energy without entropy =     -399.42014260  energy(sigma->0) =     -399.99144623


--------------------------------------------------------------------------------------------------------




--------------------------------------- Iteration      1(   6)  ---------------------------------------


    POTLOK:  cpu time    0.3390: real time    0.3393
    SETDIJ:  cpu time    0.0194: real time    0.0194
     EDDAV:  cpu time    9.5947: real time    9.5963
       DOS:  cpu time    0.0011: real time    0.0011
    CHARGE:  cpu time    0.2897: real time    0.2897
    MIXING:  cpu time    0.0118: real time    0.0118
    --------------------------------------------
      LOOP:  cpu time   10.2556: real time   10.2576

 eigenvalue-minimisations  :  1224
 total energy-change (2. order) :-0.6685277E+02  (-0.9768861E+02)
 number of electron     813.9997309 magnetization 
 augmentation part      355.7396240 magnetization 

 Broyden mixing:
  rms(total) = 0.16151E+02    rms(broyden)= 0.16149E+02
  rms(prec ) = 0.16857E+02
  weight for this iteration     100.00

 eigenvalues of (default mixing * dielectric matrix)
  average eigenvalue GAMMA=   0.2394
  0.2394

 Free energy of the ion-electron system (eV)
  ---------------------------------------------------
  alpha Z        PSCENC =      1458.83996183
  Ewald energy   TEWEN  =    174352.08399584
  -Hartree energ DENC   =   -295263.18884700
  -exchange      EXHF   =         0.00000000
  -V(xc)+E(xc)   XCENC  =      3713.06685881
  PAW double counting   =    121623.95410988  -126438.38629669
  entropy T*S    EENTRO =        -0.72161777
  eigenvalues    EBANDS =    -19693.51888389
  atomic energy  EATOM  =    139780.45519414
  Solvation  Ediel_sol  =         0.00000000
  ---------------------------------------------------
  free energy    TOTEN  =      -467.41552485 eV

  energy without entropy =     -466.69390708  energy(sigma->0) =     -467.05471596


--------------------------------------------------------------------------------------------------------




--------------------------------------- Iteration      1(   7)  ---------------------------------------


    POTLOK:  cpu time    0.3376: real time    0.3378
    SETDIJ:  cpu time    0.0194: real time    0.0194
     EDDAV:  cpu time    8.8012: real time    8.8024
       DOS:  cpu time    0.0012: real time    0.0011
    CHARGE:  cpu time    0.2911: real time    0.2911
    MIXING:  cpu time    0.0113: real time    0.0113
    --------------------------------------------
      LOOP:  cpu time    9.4618: real time    9.4632

 eigenvalue-minimisations  :  1096
 total energy-change (2. order) : 0.1004113E+03  (-0.1974368E+02)
 number of electron     813.9997469 magnetization 
 augmentation part      339.4832366 magnetization 

 Broyden mixing:
  rms(total) = 0.67527E+01    rms(broyden)= 0.67518E+01
  rms(prec ) = 0.71180E+01
  weight for this iteration     100.00

 eigenvalues of (default mixing * dielectric matrix)
  average eigenvalue GAMMA=   0.5816
  0.6945  0.4687

 Free energy of the ion-electron system (eV)
  ---------------------------------------------------
  alpha Z        PSCENC =      1458.83996183
  Ewald energy   TEWEN  =    174352.08399584
  -Hartree energ DENC   =   -296357.24902576
  -exchange      EXHF   =         0.00000000
  -V(xc)+E(xc)   XCENC  =      3740.18614565
  PAW double counting   =    126472.96506483  -131434.36945652
  entropy T*S    EENTRO =        -0.86164662
  eigenvalues    EBANDS =    -18379.05441345
  atomic energy  EATOM  =    139780.45519414
  Solvation  Ediel_sol  =         0.00000000
  ---------------------------------------------------
  free energy    TOTEN  =      -367.00418006 eV

  energy without entropy =     -366.14253344  energy(sigma->0) =     -366.57335675


--------------------------------------------------------------------------------------------------------




--------------------------------------- Iteration      1(   8)  ---------------------------------------


    POTLOK:  cpu time    0.3434: real time    0.3435
    SETDIJ:  cpu time    0.0193: real time    0.0193
     EDDAV:  cpu time   10.4281: real time   10.4331
       DOS:  cpu time    0.0012: real time    0.0012
    CHARGE:  cpu time    0.2904: real time    0.2906
    MIXING:  cpu time    0.0128: real time    0.0127
    --------------------------------------------
      LOOP:  cpu time   11.0952: real time   11.1004

 eigenvalue-minimisations  :  1352
 total energy-change (2. order) :-0.3052473E+02  (-0.2427594E+02)
 number of electron     813.9997643 magnetization 
 augmentation part      310.9643347 magnetization 

 Broyden mixing:
  rms(total) = 0.11486E+02    rms(broyden)= 0.11484E+02
  rms(prec ) = 0.13544E+02
  weight for this iteration     100.00

 eigenvalues of (default mixing * dielectric matrix)
  average eigenvalue GAMMA=   0.5071
  0.9218  0.4122  0.1872

 Free energy of the ion-electron system (eV)
  ---------------------------------------------------
  alpha Z        PSCENC =      1458.83996183
  Ewald energy   TEWEN  =    174352.08399584
  -Hartree energ DENC   =   -297464.52377811
  -exchange      EXHF   =         0.00000000
  -V(xc)+E(xc)   XCENC  =      3767.53063948
  PAW double counting   =    135637.16981140  -140748.44975635
  entropy T*S    EENTRO =        -1.16903001
  eigenvalues    EBANDS =    -17179.46595099
  atomic energy  EATOM  =    139780.45519414
  Solvation  Ediel_sol  =         0.00000000
  ---------------------------------------------------
  free energy    TOTEN  =      -397.52891276 eV

  energy without entropy =     -396.35988275  energy(sigma->0) =     -396.94439776


--------------------------------------------------------------------------------------------------------




--------------------------------------- Iteration      1(   9)  ---------------------------------------


    POTLOK:  cpu time    0.3426: real time    0.3426
    SETDIJ:  cpu time    0.0193: real time    0.0193
     EDDAV:  cpu time   10.0175: real time   10.0195
       DOS:  cpu time    0.0011: real time    0.0011
    CHARGE:  cpu time    0.2948: real time    0.2948
    MIXING:  cpu time    0.0117: real time    0.0117
    --------------------------------------------
      LOOP:  cpu time   10.6870: real time   10.6891

 eigenvalue-minimisations  :  1304
 total energy-change (2. order) : 0.2853644E+02  (-0.1151608E+02)
 number of electron     813.9997716 magnetization 
 augmentation part      311.7917376 magnetization 

 Broyden mixing:
  rms(total) = 0.53813E+01    rms(broyden)= 0.53775E+01
  rms(prec ) = 0.61466E+01
  weight for this iteration     100.00

 eigenvalues of (default mixing * dielectric matrix)
  average eigenvalue GAMMA=   0.7083
  1.8479  0.4278  0.4278  0.1296

 Free energy of the ion-electron system (eV)
  ---------------------------------------------------
  alpha Z        PSCENC =      1458.83996183
  Ewald energy   TEWEN  =    174352.08399584
  -Hartree energ DENC   =   -297412.85042489
  -exchange      EXHF   =         0.00000000
  -V(xc)+E(xc)   XCENC  =      3765.75482116
  PAW double counting   =    138021.65059630  -143142.03139005
  entropy T*S    EENTRO =        -1.07776853
  eigenvalues    EBANDS =    -17191.81746294
  atomic energy  EATOM  =    139780.45519414
  Solvation  Ediel_sol  =         0.00000000
  ---------------------------------------------------
  free energy    TOTEN  =      -368.99247714 eV

  energy without entropy =     -367.91470861  energy(sigma->0) =     -368.45359287


--------------------------------------------------------------------------------------------------------




--------------------------------------- Iteration      1(  10)  ---------------------------------------


    POTLOK:  cpu time    0.3380: real time    0.3380
    SETDIJ:  cpu time    0.0194: real time    0.0194
     EDDAV:  cpu time   10.4131: real time   10.4155
       DOS:  cpu time    0.0014: real time    0.0014
    CHARGE:  cpu time    0.3019: real time    0.3019
    MIXING:  cpu time    0.0122: real time    0.0122
    --------------------------------------------
      LOOP:  cpu time   11.0861: real time   11.0883

 eigenvalue-minimisations  :  1368
 total energy-change (2. order) :-0.2661533E+02  (-0.1027212E+02)
 number of electron     813.9997673 magnetization 
 augmentation part      310.7396997 magnetization 

 Broyden mixing:
  rms(total) = 0.10175E+02    rms(broyden)= 0.10172E+02
  rms(prec ) = 0.12233E+02
  weight for this iteration     100.00

 eigenvalues of (default mixing * dielectric matrix)
  average eigenvalue GAMMA=   0.6765
  2.2446  0.4368  0.4368  0.1322  0.1322

 Free energy of the ion-electron system (eV)
  ---------------------------------------------------
  alpha Z        PSCENC =      1458.83996183
  Ewald energy   TEWEN  =    174352.08399584
  -Hartree energ DENC   =   -297259.65129268
  -exchange      EXHF   =         0.00000000
  -V(xc)+E(xc)   XCENC  =      3761.18299973
  PAW double counting   =    144832.81870604  -149984.05892514
  entropy T*S    EENTRO =        -1.17025369
  eigenvalues    EBANDS =    -17336.10818922
  atomic energy  EATOM  =    139780.45519414
  Solvation  Ediel_sol  =         0.00000000
  ---------------------------------------------------
  free energy    TOTEN  =      -395.60780315 eV

  energy without entropy =     -394.43754946  energy(sigma->0) =     -395.02267631


--------------------------------------------------------------------------------------------------------




--------------------------------------- Iteration      1(  11)  ---------------------------------------


    POTLOK:  cpu time    0.3378: real time    0.3381
    SETDIJ:  cpu time    0.0193: real time    0.0193
     EDDAV:  cpu time   10.3713: real time   10.3732
       DOS:  cpu time    0.0015: real time    0.0014
    CHARGE:  cpu time    0.3117: real time    0.3118
    MIXING:  cpu time    0.0122: real time    0.0122
    --------------------------------------------
      LOOP:  cpu time   11.0538: real time   11.0561

 eigenvalue-minimisations  :  1360
 total energy-change (2. order) : 0.2687521E+02  (-0.5694935E+01)
 number of electron     813.9997689 magnetization 
 augmentation part      319.4426433 magnetization 

 Broyden mixing:
  rms(total) = 0.50117E+01    rms(broyden)= 0.50085E+01
  rms(prec ) = 0.59219E+01
  weight for this iteration     100.00

 eigenvalues of (default mixing * dielectric matrix)
  average eigenvalue GAMMA=   0.6124
  2.3421  0.4392  0.4392  0.1747  0.1747  0.1048

 Free energy of the ion-electron system (eV)
  ---------------------------------------------------
  alpha Z        PSCENC =      1458.83996183
  Ewald energy   TEWEN  =    174352.08399584
  -Hartree energ DENC   =   -297097.23059449
  -exchange      EXHF   =         0.00000000
  -V(xc)+E(xc)   XCENC  =      3757.04506647
  PAW double counting   =    148049.86042639  -153208.17340141
  entropy T*S    EENTRO =        -1.01350967
  eigenvalues    EBANDS =    -17460.59973325
  atomic energy  EATOM  =    139780.45519414
  Solvation  Ediel_sol  =         0.00000000
  ---------------------------------------------------
  free energy    TOTEN  =      -368.73259416 eV

  energy without entropy =     -367.71908449  energy(sigma->0) =     -368.22583933


--------------------------------------------------------------------------------------------------------




--------------------------------------- Iteration      1(  12)  ---------------------------------------


    POTLOK:  cpu time    0.3427: real time    0.3427
    SETDIJ:  cpu time    0.0194: real time    0.0194
     EDDAV:  cpu time   10.2189: real time   10.2208
       DOS:  cpu time    0.0014: real time    0.0014
    CHARGE:  cpu time    0.3123: real time    0.3123
    MIXING:  cpu time    0.0138: real time    0.0138
    --------------------------------------------
      LOOP:  cpu time   10.9087: real time   10.9106

 eigenvalue-minimisations  :  1336
 total energy-change (2. order) : 0.1060081E+02  (-0.2893377E+01)
 number of electron     813.9997673 magnetization 
 augmentation part      321.3943162 magnetization 

 Broyden mixing:
  rms(total) = 0.30795E+01    rms(broyden)= 0.30773E+01
  rms(prec ) = 0.35753E+01
  weight for this iteration     100.00

 eigenvalues of (default mixing * dielectric matrix)
  average eigenvalue GAMMA=   0.5770
  2.3444  0.4486  0.4486  0.3398  0.2073  0.1250  0.1250

 Free energy of the ion-electron system (eV)
  ---------------------------------------------------
  alpha Z        PSCENC =      1458.83996183
  Ewald energy   TEWEN  =    174352.08399584
  -Hartree energ DENC   =   -297079.50588650
  -exchange      EXHF   =         0.00000000
  -V(xc)+E(xc)   XCENC  =      3756.37285997
  PAW double counting   =    148896.11944036  -154058.43992474
  entropy T*S    EENTRO =        -1.09083469
  eigenvalues    EBANDS =    -17462.96658886
  atomic energy  EATOM  =    139780.45519414
  Solvation  Ediel_sol  =         0.00000000
  ---------------------------------------------------
  free energy    TOTEN  =      -358.13178266 eV

  energy without entropy =     -357.04094797  energy(sigma->0) =     -357.58636531


--------------------------------------------------------------------------------------------------------




--------------------------------------- Iteration      1(  13)  ---------------------------------------


    POTLOK:  cpu time    0.3410: real time    0.3412
    SETDIJ:  cpu time    0.0194: real time    0.0194
     EDDAV:  cpu time   10.2578: real time   10.2595
       DOS:  cpu time    0.0014: real time    0.0014
    CHARGE:  cpu time    0.3060: real time    0.3060
    MIXING:  cpu time    0.0136: real time    0.0136
    --------------------------------------------
      LOOP:  cpu time   10.9393: real time   10.9411

 eigenvalue-minimisations  :  1344
 total energy-change (2. order) : 0.2541654E+01  (-0.1878511E+01)
 number of electron     813.9997606 magnetization 
 augmentation part      320.9966126 magnetization 

 Broyden mixing:
  rms(total) = 0.29071E+01    rms(broyden)= 0.29050E+01
  rms(prec ) = 0.36180E+01
  weight for this iteration     100.00

 eigenvalues of (default mixing * dielectric matrix)
  average eigenvalue GAMMA=   0.5675
  2.2266  0.7848  0.4544  0.4544  0.2035  0.1515  0.1515  0.1130

 Free energy of the ion-electron system (eV)
  ---------------------------------------------------
  alpha Z        PSCENC =      1458.83996183
  Ewald energy   TEWEN  =    174352.08399584
  -Hartree energ DENC   =   -297107.76618892
  -exchange      EXHF   =         0.00000000
  -V(xc)+E(xc)   XCENC  =      3756.97349331
  PAW double counting   =    148758.54448664  -153921.94776704
  entropy T*S    EENTRO =        -1.03197466
  eigenvalues    EBANDS =    -17431.74132976
  atomic energy  EATOM  =    139780.45519414
  Solvation  Ediel_sol  =         0.00000000
  ---------------------------------------------------
  free energy    TOTEN  =      -355.59012862 eV

  energy without entropy =     -354.55815395  energy(sigma->0) =     -355.07414129


--------------------------------------------------------------------------------------------------------




--------------------------------------- Iteration      1(  14)  ---------------------------------------


    POTLOK:  cpu time    0.3408: real time    0.3410
    SETDIJ:  cpu time    0.0193: real time    0.0193
     EDDAV:  cpu time   10.2736: real time   10.2752
       DOS:  cpu time    0.0013: real time    0.0013
    CHARGE:  cpu time    0.3054: real time    0.3055
    MIXING:  cpu time    0.0138: real time    0.0138
    --------------------------------------------
      LOOP:  cpu time   10.9542: real time   10.9561

 eigenvalue-minimisations  :  1336
 total energy-change (2. order) : 0.2976063E+01  (-0.9565474E+00)
 number of electron     813.9997647 magnetization 
 augmentation part      320.8346252 magnetization 

 Broyden mixing:
  rms(total) = 0.19794E+01    rms(broyden)= 0.19773E+01
  rms(prec ) = 0.23131E+01
  weight for this iteration     100.00

 eigenvalues of (default mixing * dielectric matrix)
  average eigenvalue GAMMA=   0.5289
  2.2060  0.5443  0.5443  0.4460  0.4460  0.1629  0.1629  0.1331  0.1144

 Free energy of the ion-electron system (eV)
  ---------------------------------------------------
  alpha Z        PSCENC =      1458.83996183
  Ewald energy   TEWEN  =    174352.08399584
  -Hartree energ DENC   =   -297143.22398300
  -exchange      EXHF   =         0.00000000
  -V(xc)+E(xc)   XCENC  =      3757.08848456
  PAW double counting   =    147900.91650047  -153058.06382061
  entropy T*S    EENTRO =        -1.06870059
  eigenvalues    EBANDS =    -17399.64169788
  atomic energy  EATOM  =    139780.45519414
  Solvation  Ediel_sol  =         0.00000000
  ---------------------------------------------------
  free energy    TOTEN  =      -352.61406523 eV

  energy without entropy =     -351.54536464  energy(sigma->0) =     -352.07971494


--------------------------------------------------------------------------------------------------------




--------------------------------------- Iteration      1(  15)  ---------------------------------------


    POTLOK:  cpu time    0.3412: real time    0.3412
    SETDIJ:  cpu time    0.0194: real time    0.0194
     EDDAV:  cpu time   10.2783: real time   10.2801
       DOS:  cpu time    0.0014: real time    0.0014
    CHARGE:  cpu time    0.3177: real time    0.3177
    MIXING:  cpu time    0.0159: real time    0.0160
    --------------------------------------------
      LOOP:  cpu time   10.9739: real time   10.9757

 eigenvalue-minimisations  :  1344
 total energy-change (2. order) : 0.1190499E+01  (-0.3153498E+00)
 number of electron     813.9997636 magnetization 
 augmentation part      321.1962093 magnetization 

 Broyden mixing:
  rms(total) = 0.14762E+01    rms(broyden)= 0.14757E+01
  rms(prec ) = 0.17324E+01
  weight for this iteration     100.00

 eigenvalues of (default mixing * dielectric matrix)
  average eigenvalue GAMMA=   0.5224
  2.1943  0.7001  0.7001  0.4364  0.4364  0.1812  0.1812  0.1413  0.1413  0.1113

 Free energy of the ion-electron system (eV)
  ---------------------------------------------------
  alpha Z        PSCENC =      1458.83996183
  Ewald energy   TEWEN  =    174352.08399584
  -Hartree energ DENC   =   -297150.57323136
  -exchange      EXHF   =         0.00000000
  -V(xc)+E(xc)   XCENC  =      3757.22940029
  PAW double counting   =    147640.98432901  -152796.26555082
  entropy T*S    EENTRO =        -1.07798980
  eigenvalues    EBANDS =    -17393.09967520
  atomic energy  EATOM  =    139780.45519414
  Solvation  Ediel_sol  =         0.00000000
  ---------------------------------------------------
  free energy    TOTEN  =      -351.42356608 eV

  energy without entropy =     -350.34557628  energy(sigma->0) =     -350.88457118


--------------------------------------------------------------------------------------------------------




--------------------------------------- Iteration      1(  16)  ---------------------------------------


    POTLOK:  cpu time    0.3436: real time    0.3436
    SETDIJ:  cpu time    0.0193: real time    0.0193
     EDDAV:  cpu time   10.1967: real time   10.1987
       DOS:  cpu time    0.0012: real time    0.0012
    CHARGE:  cpu time    0.3097: real time    0.3097
    MIXING:  cpu time    0.0156: real time    0.0156
    --------------------------------------------
      LOOP:  cpu time   10.8861: real time   10.8880

 eigenvalue-minimisations  :  1336
 total energy-change (2. order) : 0.4572594E+00  (-0.1178588E+00)
 number of electron     813.9997631 magnetization 
 augmentation part      321.0204924 magnetization 

 Broyden mixing:
  rms(total) = 0.12880E+01    rms(broyden)= 0.12878E+01
  rms(prec ) = 0.15101E+01
  weight for this iteration     100.00

 eigenvalues of (default mixing * dielectric matrix)
  average eigenvalue GAMMA=   0.5331
  2.2002  0.8882  0.8882  0.4384  0.4384  0.2291  0.2291  0.1533  0.1533  0.1134
  0.1325

 Free energy of the ion-electron system (eV)
  ---------------------------------------------------
  alpha Z        PSCENC =      1458.83996183
  Ewald energy   TEWEN  =    174352.08399584
  -Hartree energ DENC   =   -297160.64827230
  -exchange      EXHF   =         0.00000000
  -V(xc)+E(xc)   XCENC  =      3757.41920182
  PAW double counting   =    147447.82282028  -152601.41028020
  entropy T*S    EENTRO =        -1.09180030
  eigenvalues    EBANDS =    -17384.43712778
  atomic energy  EATOM  =    139780.45519414
  Solvation  Ediel_sol  =         0.00000000
  ---------------------------------------------------
  free energy    TOTEN  =      -350.96630667 eV

  energy without entropy =     -349.87450637  energy(sigma->0) =     -350.42040652


--------------------------------------------------------------------------------------------------------




--------------------------------------- Iteration      1(  17)  ---------------------------------------


    POTLOK:  cpu time    0.3422: real time    0.3424
    SETDIJ:  cpu time    0.0194: real time    0.0194
     EDDAV:  cpu time    9.9545: real time    9.9559
       DOS:  cpu time    0.0014: real time    0.0014
    CHARGE:  cpu time    0.3073: real time    0.3073
    MIXING:  cpu time    0.0156: real time    0.0156
    --------------------------------------------
      LOOP:  cpu time   10.6404: real time   10.6421

 eigenvalue-minimisations  :  1288
 total energy-change (2. order) : 0.2764949E+00  (-0.5968798E-01)
 number of electron     813.9997631 magnetization 
 augmentation part      320.9633109 magnetization 

 Broyden mixing:
  rms(total) = 0.11316E+01    rms(broyden)= 0.11314E+01
  rms(prec ) = 0.13645E+01
  weight for this iteration     100.00

 eigenvalues of (default mixing * dielectric matrix)
  average eigenvalue GAMMA=   0.5343
  2.1874  1.0259  1.0259  0.4374  0.4374  0.3067  0.2820  0.1630  0.1630  0.1356
  0.1356  0.1118

 Free energy of the ion-electron system (eV)
  ---------------------------------------------------
  alpha Z        PSCENC =      1458.83996183
  Ewald energy   TEWEN  =    174352.08399584
  -Hartree energ DENC   =   -297173.66394918
  -exchange      EXHF   =         0.00000000
  -V(xc)+E(xc)   XCENC  =      3757.52152714
  PAW double counting   =    147223.49646458  -152374.43391021
  entropy T*S    EENTRO =        -1.08619471
  eigenvalues    EBANDS =    -17373.90290125
  atomic energy  EATOM  =    139780.45519414
  Solvation  Ediel_sol  =         0.00000000
  ---------------------------------------------------
  free energy    TOTEN  =      -350.68981181 eV

  energy without entropy =     -349.60361710  energy(sigma->0) =     -350.14671445


--------------------------------------------------------------------------------------------------------




--------------------------------------- Iteration      1(  18)  ---------------------------------------


    POTLOK:  cpu time    0.3441: real time    0.3441
    SETDIJ:  cpu time    0.0191: real time    0.0191
     EDDAV:  cpu time   10.2091: real time   10.2104
       DOS:  cpu time    0.0014: real time    0.0014
    CHARGE:  cpu time    0.3116: real time    0.3116
    MIXING:  cpu time    0.0162: real time    0.0162
    --------------------------------------------
      LOOP:  cpu time   10.9016: real time   10.9029

 eigenvalue-minimisations  :  1336
 total energy-change (2. order) : 0.3080853E+00  (-0.3299944E-01)
 number of electron     813.9997629 magnetization 
 augmentation part      320.6831601 magnetization 

 Broyden mixing:
  rms(total) = 0.10131E+01    rms(broyden)= 0.10130E+01
  rms(prec ) = 0.12055E+01
  weight for this iteration     100.00

 eigenvalues of (default mixing * dielectric matrix)
  average eigenvalue GAMMA=   0.5718
  2.1860  1.3230  1.3230  0.4545  0.4545  0.4568  0.3359  0.1801  0.1801  0.1481
  0.1481  0.1125  0.1309

 Free energy of the ion-electron system (eV)
  ---------------------------------------------------
  alpha Z        PSCENC =      1458.83996183
  Ewald energy   TEWEN  =    174352.08399584
  -Hartree energ DENC   =   -297190.55409659
  -exchange      EXHF   =         0.00000000
  -V(xc)+E(xc)   XCENC  =      3757.63421236
  PAW double counting   =    146964.56860964  -152112.67238039
  entropy T*S    EENTRO =        -1.10285343
  eigenvalues    EBANDS =    -17359.63436993
  atomic energy  EATOM  =    139780.45519414
  Solvation  Ediel_sol  =         0.00000000
  ---------------------------------------------------
  free energy    TOTEN  =      -350.38172653 eV

  energy without entropy =     -349.27887310  energy(sigma->0) =     -349.83029982


--------------------------------------------------------------------------------------------------------




--------------------------------------- Iteration      1(  19)  ---------------------------------------


    POTLOK:  cpu time    0.3435: real time    0.3435
    SETDIJ:  cpu time    0.0192: real time    0.0192
     EDDAV:  cpu time   10.3071: real time   10.3087
       DOS:  cpu time    0.0016: real time    0.0015
    CHARGE:  cpu time    0.3079: real time    0.3079
    MIXING:  cpu time    0.0199: real time    0.0199
    --------------------------------------------
      LOOP:  cpu time   10.9992: real time   11.0008

 eigenvalue-minimisations  :  1352
 total energy-change (2. order) : 0.3219453E+00  (-0.3694354E-01)
 number of electron     813.9997623 magnetization 
 augmentation part      320.5907359 magnetization 

 Broyden mixing:
  rms(total) = 0.83456E+00    rms(broyden)= 0.83439E+00
  rms(prec ) = 0.98387E+00
  weight for this iteration     100.00

 eigenvalues of (default mixing * dielectric matrix)
  average eigenvalue GAMMA=   0.6091
  2.1455  1.7122  1.7122  0.5583  0.4566  0.4566  0.4028  0.1930  0.1930  0.1548
  0.1548  0.1123  0.1378  0.1372

 Free energy of the ion-electron system (eV)
  ---------------------------------------------------
  alpha Z        PSCENC =      1458.83996183
  Ewald energy   TEWEN  =    174352.08399584
  -Hartree energ DENC   =   -297211.43921417
  -exchange      EXHF   =         0.00000000
  -V(xc)+E(xc)   XCENC  =      3757.74019751
  PAW double counting   =    146582.77076872  -151726.55619679
  entropy T*S    EENTRO =        -1.10260644
  eigenvalues    EBANDS =    -17342.85188186
  atomic energy  EATOM  =    139780.45519414
  Solvation  Ediel_sol  =         0.00000000
  ---------------------------------------------------
  free energy    TOTEN  =      -350.05978123 eV

  energy without entropy =     -348.95717479  energy(sigma->0) =     -349.50847801


--------------------------------------------------------------------------------------------------------




--------------------------------------- Iteration      1(  20)  ---------------------------------------


    POTLOK:  cpu time    0.3448: real time    0.3449
    SETDIJ:  cpu time    0.0193: real time    0.0193
     EDDAV:  cpu time   10.3841: real time   10.3856
       DOS:  cpu time    0.0014: real time    0.0014
    CHARGE:  cpu time    0.3117: real time    0.3118
    MIXING:  cpu time    0.0177: real time    0.0178
    --------------------------------------------
      LOOP:  cpu time   11.0790: real time   11.0808

 eigenvalue-minimisations  :  1360
 total energy-change (2. order) : 0.3933595E+00  (-0.4739839E-01)
 number of electron     813.9997626 magnetization 
 augmentation part      320.4870606 magnetization 

 Broyden mixing:
  rms(total) = 0.44684E+00    rms(broyden)= 0.44645E+00
  rms(prec ) = 0.52866E+00
  weight for this iteration     100.00

 eigenvalues of (default mixing * dielectric matrix)
  average eigenvalue GAMMA=   0.6159
  2.1503  1.8563  1.8563  0.5815  0.5815  0.4379  0.4379  0.2675  0.2071  0.1626
  0.1626  0.1123  0.1482  0.1482  0.1293

 Free energy of the ion-electron system (eV)
  ---------------------------------------------------
  alpha Z        PSCENC =      1458.83996183
  Ewald energy   TEWEN  =    174352.08399584
  -Hartree energ DENC   =   -297244.40438826
  -exchange      EXHF   =         0.00000000
  -V(xc)+E(xc)   XCENC  =      3757.89205241
  PAW double counting   =    145905.42461121  -151041.61770396
  entropy T*S    EENTRO =        -1.12741002
  eigenvalues    EBANDS =    -17317.21273488
  atomic energy  EATOM  =    139780.45519414
  Solvation  Ediel_sol  =         0.00000000
  ---------------------------------------------------
  free energy    TOTEN  =      -349.66642169 eV

  energy without entropy =     -348.53901167  energy(sigma->0) =     -349.10271668


--------------------------------------------------------------------------------------------------------




--------------------------------------- Iteration      1(  21)  ---------------------------------------


    POTLOK:  cpu time    0.3458: real time    0.3458
    SETDIJ:  cpu time    0.0193: real time    0.0193
     EDDAV:  cpu time   10.2112: real time   10.2129
       DOS:  cpu time    0.0013: real time    0.0013
    CHARGE:  cpu time    0.3015: real time    0.3015
    MIXING:  cpu time    0.0189: real time    0.0190
    --------------------------------------------
      LOOP:  cpu time   10.8981: real time   10.8998

 eigenvalue-minimisations  :  1328
 total energy-change (2. order) : 0.6587883E-01  (-0.3320853E-01)
 number of electron     813.9997617 magnetization 
 augmentation part      320.5411884 magnetization 

 Broyden mixing:
  rms(total) = 0.29975E+00    rms(broyden)= 0.29949E+00
  rms(prec ) = 0.32755E+00
  weight for this iteration     100.00

 eigenvalues of (default mixing * dielectric matrix)
  average eigenvalue GAMMA=   0.6126
  2.1113  1.9305  1.9305  0.6673  0.6673  0.4383  0.4383  0.3314  0.2485  0.1757
  0.1757  0.1123  0.1504  0.1504  0.1459  0.1278

 Free energy of the ion-electron system (eV)
  ---------------------------------------------------
  alpha Z        PSCENC =      1458.83996183
  Ewald energy   TEWEN  =    174352.08399584
  -Hartree energ DENC   =   -297259.78923785
  -exchange      EXHF   =         0.00000000
  -V(xc)+E(xc)   XCENC  =      3757.93363792
  PAW double counting   =    145611.90378721  -150744.69003547
  entropy T*S    EENTRO =        -1.14207784
  eigenvalues    EBANDS =    -17305.19576865
  atomic energy  EATOM  =    139780.45519414
  Solvation  Ediel_sol  =         0.00000000
  ---------------------------------------------------
  free energy    TOTEN  =      -349.60054286 eV

  energy without entropy =     -348.45846503  energy(sigma->0) =     -349.02950395


--------------------------------------------------------------------------------------------------------




--------------------------------------- Iteration      1(  22)  ---------------------------------------


    POTLOK:  cpu time    0.3465: real time    0.3465
    SETDIJ:  cpu time    0.0250: real time    0.0250
     EDDAV:  cpu time    9.8438: real time    9.8454
       DOS:  cpu time    0.0014: real time    0.0014
    CHARGE:  cpu time    0.2997: real time    0.2997
    MIXING:  cpu time    0.0191: real time    0.0191
    --------------------------------------------
      LOOP:  cpu time   10.5355: real time   10.5372

 eigenvalue-minimisations  :  1272
 total energy-change (2. order) : 0.4742638E-02  (-0.1225545E-01)
 number of electron     813.9997619 magnetization 
 augmentation part      320.5005343 magnetization 

 Broyden mixing:
  rms(total) = 0.26919E+00    rms(broyden)= 0.26908E+00
  rms(prec ) = 0.29869E+00
  weight for this iteration     100.00

 eigenvalues of (default mixing * dielectric matrix)
  average eigenvalue GAMMA=   0.6053
  2.1221  1.9275  1.9275  0.7213  0.7213  0.4439  0.4439  0.3690  0.3690  0.1964
  0.1964  0.1123  0.1585  0.1585  0.1471  0.1471  0.1281

 Free energy of the ion-electron system (eV)
  ---------------------------------------------------
  alpha Z        PSCENC =      1458.83996183
  Ewald energy   TEWEN  =    174352.08399584
  -Hartree energ DENC   =   -297274.13686556
  -exchange      EXHF   =         0.00000000
  -V(xc)+E(xc)   XCENC  =      3757.97867639
  PAW double counting   =    145380.89782539  -150511.28923714
  entropy T*S    EENTRO =        -1.15096055
  eigenvalues    EBANDS =    -17293.27439055
  atomic energy  EATOM  =    139780.45519414
  Solvation  Ediel_sol  =         0.00000000
  ---------------------------------------------------
  free energy    TOTEN  =      -349.59580023 eV

  energy without entropy =     -348.44483967  energy(sigma->0) =     -349.02031995


--------------------------------------------------------------------------------------------------------




--------------------------------------- Iteration      1(  23)  ---------------------------------------


    POTLOK:  cpu time    0.3599: real time    0.3600
    SETDIJ:  cpu time    0.0255: real time    0.0255
     EDDAV:  cpu time    8.8351: real time    8.8409
       DOS:  cpu time    0.0015: real time    0.0014
    CHARGE:  cpu time    0.3133: real time    0.3133
    MIXING:  cpu time    0.0203: real time    0.0203
    --------------------------------------------
      LOOP:  cpu time    9.5555: real time    9.5613

 eigenvalue-minimisations  :  1104
 total energy-change (2. order) : 0.8159720E-02  (-0.8379653E-02)
 number of electron     813.9997620 magnetization 
 augmentation part      320.5672522 magnetization 

 Broyden mixing:
  rms(total) = 0.25438E+00    rms(broyden)= 0.25431E+00
  rms(prec ) = 0.27794E+00
  weight for this iteration     100.00

 eigenvalues of (default mixing * dielectric matrix)
  average eigenvalue GAMMA=   0.6263
  2.0028  1.8853  1.8853  1.0916  1.0916  0.5930  0.4480  0.4480  0.3971  0.2084
  0.2084  0.1667  0.1667  0.1123  0.1493  0.1493  0.1422  0.1275

 Free energy of the ion-electron system (eV)
  ---------------------------------------------------
  alpha Z        PSCENC =      1458.83996183
  Ewald energy   TEWEN  =    174352.08399584
  -Hartree energ DENC   =   -297275.35929568
  -exchange      EXHF   =         0.00000000
  -V(xc)+E(xc)   XCENC  =      3757.94022910
  PAW double counting   =    145398.51414682  -150529.15042408
  entropy T*S    EENTRO =        -1.13816500
  eigenvalues    EBANDS =    -17291.77328347
  atomic energy  EATOM  =    139780.45519414
  Solvation  Ediel_sol  =         0.00000000
  ---------------------------------------------------
  free energy    TOTEN  =      -349.58764051 eV

  energy without entropy =     -348.44947551  energy(sigma->0) =     -349.01855801


--------------------------------------------------------------------------------------------------------




--------------------------------------- Iteration      1(  24)  ---------------------------------------


    POTLOK:  cpu time    0.3474: real time    0.3474
    SETDIJ:  cpu time    0.0193: real time    0.0193
     EDDAV:  cpu time   10.1014: real time   10.1063
       DOS:  cpu time    0.0014: real time    0.0013
    CHARGE:  cpu time    0.2986: real time    0.2986
    MIXING:  cpu time    0.0220: real time    0.0220
    --------------------------------------------
      LOOP:  cpu time   10.7901: real time   10.7949

 eigenvalue-minimisations  :  1240
 total energy-change (2. order) : 0.8177049E-02  (-0.6057691E-02)
 number of electron     813.9997616 magnetization 
 augmentation part      320.6620787 magnetization 

 Broyden mixing:
  rms(total) = 0.19781E+00    rms(broyden)= 0.19770E+00
  rms(prec ) = 0.22439E+00
  weight for this iteration     100.00

 eigenvalues of (default mixing * dielectric matrix)
  average eigenvalue GAMMA=   0.6281
  2.0565  1.6101  1.6101  1.4973  1.4973  0.5975  0.4469  0.4469  0.4501  0.3026
  0.2124  0.1123  0.1826  0.1685  0.1685  0.1519  0.1519  0.1428  0.1275

 Free energy of the ion-electron system (eV)
  ---------------------------------------------------
  alpha Z        PSCENC =      1458.83996183
  Ewald energy   TEWEN  =    174352.08399584
  -Hartree energ DENC   =   -297287.63810001
  -exchange      EXHF   =         0.00000000
  -V(xc)+E(xc)   XCENC  =      3757.97515239
  PAW double counting   =    145242.14194865  -150371.81778366
  entropy T*S    EENTRO =        -1.14934773
  eigenvalues    EBANDS =    -17280.47048490
  atomic energy  EATOM  =    139780.45519414
  Solvation  Ediel_sol  =         0.00000000
  ---------------------------------------------------
  free energy    TOTEN  =      -349.57946346 eV

  energy without entropy =     -348.43011572  energy(sigma->0) =     -349.00478959


--------------------------------------------------------------------------------------------------------




--------------------------------------- Iteration      1(  25)  ---------------------------------------


    POTLOK:  cpu time    0.3500: real time    0.3500
    SETDIJ:  cpu time    0.0202: real time    0.0202
     EDDAV:  cpu time   10.3207: real time   10.3227
       DOS:  cpu time    0.0015: real time    0.0015
    CHARGE:  cpu time    0.3056: real time    0.3057
    MIXING:  cpu time    0.0221: real time    0.0221
    --------------------------------------------
      LOOP:  cpu time   11.0201: real time   11.0221

 eigenvalue-minimisations  :  1352
 total energy-change (2. order) : 0.5006491E-02  (-0.6567221E-02)
 number of electron     813.9997618 magnetization 
 augmentation part      320.7832957 magnetization 

 Broyden mixing:
  rms(total) = 0.18195E+00    rms(broyden)= 0.18181E+00
  rms(prec ) = 0.20927E+00
  weight for this iteration     100.00

 eigenvalues of (default mixing * dielectric matrix)
  average eigenvalue GAMMA=   0.6556
  2.3044  2.0019  1.7593  1.7593  1.0808  0.6772  0.6772  0.4453  0.4453  0.3681
  0.2118  0.2032  0.1123  0.1668  0.1668  0.1658  0.1492  0.1492  0.1273  0.1400

 Free energy of the ion-electron system (eV)
  ---------------------------------------------------
  alpha Z        PSCENC =      1458.83996183
  Ewald energy   TEWEN  =    174352.08399584
  -Hartree energ DENC   =   -297289.38911831
  -exchange      EXHF   =         0.00000000
  -V(xc)+E(xc)   XCENC  =      3757.92750570
  PAW double counting   =    145290.84434937  -150421.24763991
[...]
  Alpha Z  1458.83996  1458.83996  1458.83996
  Ewald  226722.06646225249.53595************  -176.25472   395.17829  1360.80855
  Hartree260877.83342260503.18178************  -274.88285   290.86376  1210.58847
  E(xc)   -5196.01117 -5198.37116 -5205.81544     0.37448     0.23340     0.13079
  Local  ************************488691.44988   466.21469  -678.81907 -2571.76957
  n-local  -596.27102  -610.59342  -614.32538     5.80362     3.46655     0.05814
  augment  5930.14584  5955.36234  5963.36798    -5.72202    -1.58946    -2.01236
  Kinetic 11376.62043 11436.12828 11518.38192   -11.39978    -6.24552     0.71439
  Fock        0.00000     0.00000     0.00000     0.00000     0.00000     0.00000
  -------------------------------------------------------------------------------------
  Total     129.44903   140.47614   147.97133     4.13342     3.08797    -1.48160
  in kB      76.99940    83.55860    88.01692     2.45866     1.83680    -0.88129
  external pressure =       82.86 kB  Pullay stress =        0.00 kB


 VOLUME and BASIS-vectors are now :
 -----------------------------------------------------------------------------
  energy-cutoff  :      450.00
  volume of cell :     2693.53
      direct lattice vectors                 reciprocal lattice vectors
    16.884694054  0.000000000  0.000000000     0.059225237  0.000000000  0.000000000
     0.000000000  9.578410000  0.000000000     0.000000000  0.104401461  0.000000000
     0.000000000  0.000000000 16.654645685     0.000000000  0.000000000  0.060043307

  length of vectors
    16.884694054  9.578410000 16.654645685     0.059225237  0.104401461  0.060043307


 FORCES acting on ions
    electron-ion (+dipol)            ewald-force                    non-local-force                 convergence-correction
 -----------------------------------------------------------------------------------------------
   0.567E+03 -.767E+02 0.221E+04   -.569E+03 0.779E+02 -.221E+04   0.215E+01 -.982E+00 0.600E+01   -.808E-02 -.894E-02 0.619E-02
   0.440E+03 -.186E+02 -.292E+04   -.443E+03 0.177E+02 0.292E+04   0.346E+01 0.824E+00 0.729E+00   -.151E-01 -.786E-02 -.939E-02
   0.175E+03 0.120E+02 0.302E+04   -.174E+03 -.117E+02 -.303E+04   0.571E+00 -.372E+00 0.584E+01   0.839E-02 -.855E-02 0.749E-02
   0.425E+03 0.318E+03 -.114E+04   -.425E+03 -.317E+03 0.114E+04   -.474E+00 -.986E+00 -.440E+01   0.812E-02 -.290E-01 -.732E-02
   -.179E+03 0.382E+03 0.215E+04   0.180E+03 -.381E+03 -.215E+04   -.483E+00 -.126E+01 0.398E+01   0.177E-01 0.881E-02 0.103E-01
   0.291E+03 -.179E+02 -.195E+04   -.296E+03 0.178E+02 0.196E+04   0.428E+01 0.365E+00 -.555E+01   -.104E-02 0.556E-02 -.160E-01
   0.541E+03 -.155E+03 0.126E+04   -.547E+03 0.158E+03 -.127E+04   0.506E+01 -.248E+01 0.232E+01   -.105E-01 0.656E-02 -.364E-03
   -.174E+03 0.139E+03 -.329E+04   0.170E+03 -.138E+03 0.329E+04   0.395E+01 -.125E+01 0.165E+01   -.147E-01 0.474E-02 -.268E-02
   0.513E+03 -.441E+02 0.416E+04   -.517E+03 0.438E+02 -.417E+04   0.316E+01 0.158E+00 0.356E+01   0.802E-02 0.199E-02 0.182E-01
   0.635E+03 -.199E+03 0.210E+03   -.638E+03 0.198E+03 -.212E+03   0.308E+01 -.244E+00 0.120E+01   -.109E-01 0.549E-02 0.458E-01
   -.222E+03 -.105E+03 -.344E+04   0.221E+03 0.107E+03 0.344E+04   0.143E+01 -.152E+01 -.544E+01   0.543E-02 0.373E-02 -.413E-02
   -.604E+03 0.579E+02 0.197E+04   0.608E+03 -.589E+02 -.197E+04   -.322E+01 0.442E+00 0.421E+01   0.636E-02 -.102E-02 0.500E-03
   -.612E+01 0.189E+03 -.230E+04   0.483E+01 -.191E+03 0.230E+04   0.714E+00 0.172E+01 -.687E+01   0.228E-01 -.362E-02 0.586E-02
   -.351E+03 -.365E+02 0.249E+04   0.357E+03 0.346E+02 -.250E+04   -.580E+01 0.253E+01 0.550E+01   -.148E-01 -.273E-03 0.602E-02
   0.128E+03 0.564E+03 -.221E+04   -.126E+03 -.568E+03 0.221E+04   -.202E+01 0.386E+01 -.399E+01   -.528E-02 -.480E-02 -.421E-02
   -.591E+03 0.284E+03 0.396E+04   0.589E+03 -.284E+03 -.396E+04   0.259E+01 -.519E-01 -.215E+01   0.364E-02 -.163E-01 0.107E-01
   -.434E+03 0.312E+03 -.857E+02   0.434E+03 -.314E+03 0.878E+02   0.270E+00 0.250E+01 -.171E+01   -.640E-02 -.132E-01 -.806E-02
   -.109E+03 0.955E+02 -.389E+04   0.109E+03 -.976E+02 0.389E+04   0.714E+00 0.274E+01 0.194E+01   -.167E-03 -.104E-01 -.541E-02
   -.820E+03 0.248E+03 -.448E+03   0.827E+03 -.252E+03 0.447E+03   -.438E+01 0.425E+01 0.932E-01   0.119E-01 0.134E-01 -.644E-02
   -.454E+02 0.641E+03 0.154E+04   0.446E+02 -.646E+03 -.154E+04   0.257E+00 0.410E+01 0.225E+00   0.309E-03 0.456E-02 0.903E-02
   -.203E+03 0.304E+03 0.985E+03   0.204E+03 -.307E+03 -.986E+03   0.531E+00 0.244E+01 0.123E+01   0.212E-01 0.153E-01 0.516E-02
   -.764E+02 -.331E+03 -.276E+04   0.778E+02 0.332E+03 0.276E+04   -.926E+00 0.192E+00 -.468E+01   0.148E-01 -.249E-02 -.562E-02
   0.638E+03 -.286E+03 0.270E+04   -.640E+03 0.288E+03 -.271E+04   0.987E+00 -.134E+01 0.649E+01   -.650E-02 -.210E-02 0.116E-01
   -.132E+03 0.356E+03 -.171E+04   0.134E+03 -.359E+03 0.171E+04   -.179E+01 0.274E+01 -.488E+01   -.978E-02 0.840E-02 0.103E-01
   -.150E+03 0.154E+03 0.204E+04   0.151E+03 -.155E+03 -.204E+04   -.888E+00 -.209E+00 0.771E+01   -.969E-02 -.190E-03 0.468E-03
   -.105E+03 -.599E+03 -.239E+04   0.106E+03 0.600E+03 0.240E+04   -.159E+01 -.408E+00 -.536E+01   -.158E-02 -.678E-02 -.532E-03
   -.248E+03 -.412E+03 0.403E+04   0.246E+03 0.412E+03 -.404E+04   0.101E+01 0.201E+00 0.623E+01   0.564E-02 -.896E-02 0.800E-02
   -.246E+03 -.492E+03 0.453E+03   0.243E+03 0.492E+03 -.454E+03   0.308E+01 -.679E+00 0.650E-01   -.438E-03 -.174E-02 -.118E-01
   -.191E+03 0.111E+02 -.297E+04   0.193E+03 -.966E+01 0.298E+04   -.846E+00 -.191E+01 -.519E+01   0.996E-02 0.170E-01 -.118E-01
   -.523E+03 0.234E+03 0.350E+04   0.524E+03 -.234E+03 -.351E+04   -.709E+00 0.312E+00 0.453E+01   -.851E-02 -.324E-03 0.154E-01
   -.633E+03 -.548E+03 -.667E+03   0.638E+03 0.555E+03 0.669E+03   -.396E+01 -.601E+01 -.295E+01   -.228E-02 -.133E-01 0.170E-02
   0.291E+03 -.461E+03 0.185E+04   -.293E+03 0.466E+03 -.185E+04   0.178E+01 -.401E+01 0.297E+01   -.928E-02 -.427E-02 0.339E-02
   0.358E+03 0.275E+03 -.280E+04   -.361E+03 -.274E+03 0.280E+04   0.128E+01 -.213E+01 -.245E+01   -.123E-01 -.630E-02 0.315E-03
   0.189E+03 -.608E+03 0.785E+03   -.189E+03 0.612E+03 -.786E+03   0.548E+00 -.321E+01 0.602E+00   0.325E-01 0.114E-01 0.309E-01
   0.245E+03 -.113E+03 -.345E+04   -.245E+03 0.115E+03 0.344E+04   0.194E-01 -.182E+01 0.344E+01   0.385E-02 0.172E-02 -.810E-02
   0.544E+03 0.379E+03 0.267E+04   -.546E+03 -.382E+03 -.268E+04   0.152E+01 0.218E+01 0.708E+01   -.370E-02 0.760E-02 0.137E-01
   -.197E+03 -.339E+03 -.168E+04   0.200E+03 0.341E+03 0.168E+04   -.265E+01 -.217E+01 -.526E+01   -.790E-02 -.350E-03 0.480E-02
   0.106E+03 -.451E+02 -.177E+04   -.106E+03 0.453E+02 0.177E+04   -.122E+01 -.496E-01 -.171E+01   0.299E-02 -.355E-02 0.880E-03
   -.978E+02 -.789E+02 0.430E+03   0.986E+02 0.799E+02 -.435E+03   0.675E+00 -.131E+01 0.292E+01   0.145E-03 -.470E-02 0.102E-02
   -.450E+03 -.152E+03 0.140E+04   0.454E+03 0.154E+03 -.140E+04   -.285E+01 -.306E+01 0.249E+01   -.667E-03 -.225E-02 0.907E-03
   -.871E+02 0.925E+02 -.960E+03   0.875E+02 -.934E+02 0.966E+03   0.133E+00 -.119E+01 -.463E+01   0.163E-02 -.644E-02 -.311E-02
   -.177E+03 -.111E+02 0.986E+03   0.178E+03 0.115E+02 -.991E+03   -.305E+00 -.205E+00 0.311E+01   0.117E-02 -.440E-02 0.468E-02
   -.982E+02 -.295E+02 -.106E+04   0.991E+02 0.298E+02 0.107E+04   -.782E+00 -.606E+00 -.215E+01   -.377E-02 -.406E-02 -.369E-02
   0.127E+03 0.504E+02 0.173E+04   -.127E+03 -.500E+02 -.174E+04   -.474E+00 -.668E+00 0.291E+01   0.597E-03 0.290E-03 0.109E-02
   0.529E+02 0.310E+03 -.367E+03   -.541E+02 -.314E+03 0.369E+03   0.162E+01 0.347E+01 -.605E+00   0.457E-02 -.430E-02 0.295E-03
   0.110E+03 0.259E+03 -.158E+04   -.110E+03 -.261E+03 0.159E+04   -.921E+00 0.120E+01 -.377E+01   -.154E-02 -.148E-01 0.270E-02
   -.209E+03 0.933E+02 0.159E+04   0.211E+03 -.941E+02 -.159E+04   -.612E+00 0.698E+00 0.289E+01   0.312E-01 0.321E-02 0.113E-01
   -.407E+02 0.134E+03 -.831E+03   0.406E+02 -.136E+03 0.836E+03   0.360E+00 0.794E+00 -.438E+01   0.887E-02 0.996E-02 -.707E-02
   0.512E+02 -.108E+02 0.727E+03   -.497E+02 0.106E+02 -.731E+03   -.149E+01 0.261E+00 0.237E+01   -.219E-02 0.249E-02 0.550E-02
   -.730E+02 -.783E+01 -.145E+04   0.754E+02 0.823E+01 0.146E+04   -.156E+01 -.550E+00 -.208E+01   -.916E-02 0.124E-02 -.279E-02
   0.193E+02 0.247E+01 0.164E+04   -.181E+02 -.214E+01 -.165E+04   -.726E+00 -.107E+00 0.382E+01   -.390E-02 -.515E-02 0.230E-02
   0.130E+03 -.486E+02 -.309E+03   -.131E+03 0.488E+02 0.312E+03   -.529E+00 0.889E+00 -.150E+01   -.810E-02 -.590E-03 -.353E-03
   -.903E+02 -.341E+03 0.930E+03   0.904E+02 0.344E+03 -.934E+03   -.518E+00 -.512E+00 0.453E+01   0.546E-02 -.329E-02 -.111E-02
   0.570E+02 -.100E+03 -.143E+04   -.590E+02 0.992E+02 0.144E+04   0.149E+01 0.634E+00 -.319E+01   0.690E-02 -.397E-03 0.195E-03
   -.295E+03 -.182E+03 0.518E+03   0.296E+03 0.185E+03 -.519E+03   -.108E+01 -.150E+01 0.374E+00   -.797E-02 -.563E-02 -.141E-02
   -.154E+03 0.197E+02 -.138E+04   0.155E+03 -.181E+02 0.138E+04   -.945E+00 -.170E+01 -.153E+01   0.135E-02 -.556E-02 -.341E-02
   0.542E+02 -.668E+02 -.631E+03   -.553E+02 0.682E+02 0.633E+03   0.198E+01 -.166E+01 -.568E+00   -.413E-02 0.219E-02 -.120E-02
   0.131E+03 -.721E+02 0.135E+04   -.132E+03 0.717E+02 -.136E+04   0.931E+00 0.961E+00 0.367E+01   -.535E-02 0.778E-03 0.302E-02
   0.233E+03 -.228E+03 0.912E+03   -.234E+03 0.229E+03 -.915E+03   -.873E-01 0.158E-01 0.176E+01   -.187E-02 0.135E-01 0.175E-01
   0.123E+03 -.325E+03 -.112E+04   -.124E+03 0.329E+03 0.113E+04   0.875E+00 -.239E+01 -.117E+01   0.680E-03 -.840E-03 -.282E-03
   -.429E+02 -.101E+03 0.503E+03   0.411E+02 0.103E+03 -.507E+03   0.217E+01 -.117E+01 0.226E+01   0.363E-02 0.588E-02 0.352E-02
   -.537E+02 -.246E+03 -.154E+04   0.533E+02 0.249E+03 0.154E+04   0.240E-01 -.134E+01 -.198E+01   0.463E-02 -.795E-03 -.424E-02
   0.288E+03 0.185E+03 0.758E+03   -.291E+03 -.188E+03 -.759E+03   0.230E+01 0.799E+00 0.175E+00   0.562E-02 -.296E-02 0.483E-02
   0.220E+03 0.143E+02 -.120E+04   -.221E+03 -.158E+02 0.120E+04   0.248E+00 0.916E+00 -.198E+01   -.415E-02 -.302E-02 -.523E-02
   0.121E+03 0.443E+02 0.173E+04   -.121E+03 -.452E+02 -.173E+04   -.528E+00 0.513E+00 0.209E+01   -.178E-02 0.245E-02 0.548E-02
   0.132E+03 0.111E+03 -.320E+03   -.133E+03 -.111E+03 0.323E+03   -.547E+00 -.123E+01 -.197E+01   -.434E-02 -.140E-02 -.181E-02
   -.206E+03 0.115E+03 -.575E+03   0.209E+03 -.115E+03 0.579E+03   -.181E+01 -.895E+00 -.203E+01   0.490E-03 0.242E-02 -.599E-03
   0.123E+03 0.590E+02 0.160E+04   -.124E+03 -.600E+02 -.161E+04   0.112E+01 0.432E+00 0.325E+01   -.320E-02 0.322E-02 0.125E-02
   0.189E+02 0.175E+03 0.633E+03   -.197E+02 -.176E+03 -.637E+03   -.846E-01 0.193E+00 0.260E+01   0.163E-02 0.826E-02 -.180E-02
   -.105E+03 -.132E+03 -.166E+04   0.106E+03 0.131E+03 0.166E+04   -.460E-01 0.160E+01 -.301E+01   0.467E-02 0.953E-02 -.544E-02
   0.557E+02 0.948E+02 0.428E+03   -.573E+02 -.965E+02 -.431E+03   0.939E+00 0.124E+01 0.196E+01   0.159E-02 -.400E-03 0.449E-02
   0.276E+01 0.257E+03 -.157E+04   -.375E+01 -.260E+03 0.158E+04   0.725E+00 0.165E+01 -.103E+01   0.155E-02 0.164E-02 -.350E-02
   0.235E+03 0.135E+03 0.104E+04   -.235E+03 -.136E+03 -.104E+04   -.670E+00 0.400E+00 0.145E+01   -.550E-02 -.132E-01 0.135E-01
   0.441E+02 -.868E+02 -.107E+04   -.437E+02 0.868E+02 0.107E+04   -.127E+01 0.125E+01 -.250E+01   -.124E-01 0.117E-01 0.112E-02
 -----------------------------------------------------------------------------------------------
   -.925E+01 0.372E+01 -.197E+02   0.313E-12 0.172E-11 0.273E-11   0.923E+01 -.372E+01 0.196E+02   0.310E-01 -.435E-01 0.162E+00
 
 
 POSITION                                       TOTAL-FORCE (eV/Angst)
 -----------------------------------------------------------------------------------
     13.17084      1.39171      2.05636         0.095045      0.169376      1.168008
     13.58032      1.38977      4.77135         0.215187     -0.067905      0.786651
      3.65892      6.52071      1.54548         1.116661     -0.037931     -0.899907
      5.02033      6.18092      3.59863        -0.608968     -0.429577     -0.311402
      6.53911      1.71522      2.18375         0.521814     -0.267114     -0.429291
      7.93172      1.39171      4.11272        -0.726928      0.306057      0.499412
     16.08224      6.18092      2.57045        -0.801653      0.816187      0.521799
     16.14101      6.08549      4.96888         0.522486     -0.014646      0.872529
      2.89043      1.41155      0.77465        -0.740234     -0.089774     -1.928424
      2.10894      1.39171      3.08454        -0.496317     -0.717447     -0.443414
      1.20177      1.10741      5.19860         0.750133     -0.201318      0.097107
      9.61099      6.26430      2.71616         0.504172     -0.548644     -0.670216
     10.84312      6.18092      4.62682        -0.556367     -0.491045     -0.981121
     15.36326      0.03115      2.00092         0.681134      0.621516      0.027510
     15.91132      0.06771      4.47342        -0.251105     -0.490300     -0.347895
      7.04758      3.95089      1.05696         0.233795     -0.087224     -0.690097
      7.17375      4.91558      3.19116         0.613495      0.597263      0.349022
      7.69126      4.62173      5.61353         0.243293      0.557418      0.780294
     10.08514      0.12638      3.70525         2.112748      0.128641     -0.891241
      1.35096      4.91558      2.16298        -0.506098     -1.004069     -0.216590
      4.26235      0.12638      2.67707         0.748211     -0.175256      0.563139
      4.79260      8.39742      4.56695         0.560224      1.476286     -0.147409
     12.99870      4.12808      2.02358        -0.921302      0.908287      0.109847
     12.99653      4.91558      4.21934         0.310938     -0.019672     -1.329676
     15.50911      3.57214      2.23422         0.560892     -1.076417      0.578726
     15.91231      2.61880      4.52446        -0.272952      0.996284     -0.102102
      6.04799      6.18946      1.03842        -0.531526      0.081148     -1.393706
      7.17375      7.44626      3.19116        -0.318111     -0.460354     -0.712129
      8.78010      8.17579      4.85650         0.621210     -0.497416      0.345123
      9.01487      1.28565      1.76287        -0.277340     -0.126568     -1.623296
     10.08514      2.65705      3.70525         0.962448      1.211736     -1.242239
      1.35096      7.44626      2.16298        -0.073692      0.322286      1.226677
      2.13877      7.47252      4.59380        -1.632722     -0.387447      0.521335
      4.26235      2.65705      2.67707         0.568437      0.596281      0.319573
      4.72246      2.92732      5.04367        -0.489137      0.203266      0.556785
     13.14727      8.20345      2.00035        -1.063371     -0.908302      0.424208
     12.99653      7.44626      4.21934        -0.013073      0.205984     -1.147843
     16.26749      1.31568      6.06441        -0.797330      0.151431      4.184978
     16.74052      1.39171      3.05601         1.446760     -0.365987     -2.096137
      8.00634      6.18092      1.51374         1.247045     -0.547088     -2.751291
      8.59001      6.18092      4.59828         0.608771     -2.149015      1.225166
     11.02319      1.41339      2.16766         0.557818      0.104285     -1.676241
     11.51118      1.45317      4.71564         0.173283     -0.337817      2.593868
      1.89815      6.21260      0.58969        -0.000867     -0.272531     -3.481582
      2.72191      5.98138      3.29354         0.370653     -0.800664      1.750946
      3.94150      6.77755      5.42032        -0.301179     -1.024797      2.500683
      4.88223      1.36840      1.05588         1.448417     -0.153432     -2.997005
      5.67861      1.39171      4.08419         0.231273     -0.867728      0.947761
     13.82913      6.18092      2.54192         0.019881     -0.026245     -1.427347
     14.17014      6.19100      5.39211         0.768154     -0.139912      2.712686
     14.08039      2.85526      0.87463         0.496835      0.221591     -3.746194
     13.99844      3.00295      3.57488        -1.405918      1.133283      1.333712
      5.26426      7.79215      2.03261        -0.376871      2.487989      0.227711
      6.71990      8.12622      5.15399        -0.515125     -0.240814      2.573056
      8.17565      3.00295      2.54670         0.029290      1.522180     -0.910955
      8.78083      2.97950      5.28344         0.001353     -0.134115      2.419621
      0.02514      7.79215      4.08897         0.812359     -0.295792      1.505858
     16.33987      7.88676      1.37322        -0.131963      0.590267     -2.727201
      2.36935      3.09022      1.82210        -0.763795      0.945325     -1.184105
      2.74298      2.50789      4.72636        -0.460452      1.885155      1.996885
     11.08705      7.79215      3.06079         0.456047      0.865341     -1.588178
     11.57540      7.75805      5.67921        -0.320679      1.967271      3.474144
      5.26426      4.56969      2.03261        -1.168059     -1.450176     -0.939887
      5.80631      4.65675      4.86576        -0.502275     -0.625994      1.767286
     13.78834      9.57452      0.67406        -0.275776     -0.464862     -4.181477
     13.99844      9.35889      3.57488        -0.908274     -1.482045      1.497599
     16.73171      4.49373      3.76296         1.329906     -0.469095      2.217337
     16.48434      4.87565      1.00014        -0.396986     -0.613688     -3.608113
      8.19283      9.27127      2.83142        -0.927327     -0.348551     -1.887224
      9.12597      0.44191      5.56430         0.404683      1.004577      3.483152
     11.08705      4.56969      3.06079        -0.706019     -0.491264     -0.973171
     11.72208      4.77539      5.78805        -0.271828     -1.536311      3.823377
      2.38168      9.26231      1.75884        -0.996091     -0.412769     -1.404378
      2.93654      9.35889      4.60306        -0.837141      1.272409      1.104915
 -----------------------------------------------------------------------------------
    total drift:                                0.014816     -0.048388      0.025117


--------------------------------------------------------------------------------------------------------



  FREE ENERGIE OF THE ION-ELECTRON SYSTEM (eV)
  ---------------------------------------------------
  free  energy   TOTEN  =      -349.56312987 eV

  energy  without entropy=     -348.43044646  energy(sigma->0) =     -348.99678817
 


--------------------------------------------------------------------------------------------------------


    POTLOK:  cpu time    0.4219: real time    0.4221


--------------------------------------------------------------------------------------------------------


     LOOP+:  cpu time  429.3616: real time  429.4514
    4ORBIT:  cpu time    0.0000: real time    0.0000

 total amount of memory used by VASP MPI-rank0    80242. kBytes
=======================================================================

   base      :      30000. kBytes
   nonlr-proj:       2202. kBytes
   fftplans  :      10634. kBytes
   grid      :      17961. kBytes
   one-center:        101. kBytes
   wavefun   :      19344. kBytes
 
  
  
 General timing and accounting informations for this job:
 ========================================================
  
                  Total CPU time used (sec):      432.821
                            User time (sec):      432.464
                          System time (sec):        0.357
                         Elapsed time (sec):      433.152
  
                   Maximum memory used (kb):      218900.
                   Average memory used (kb):           0.
  
                          Minor page faults:       115934
                          Major page faults:            0
                 Voluntary context switches:          170
