  72  72   0   0
  0.3633021E+02  0.1688469E-08  0.9578410E-09  0.1617386E-08  0.5000000E-15
  1.000000000000000E-004
  CAR 
 "Millerite NiS"                         
      9.09018171    -68.07098652  301     -0.37171558      1.00000000
    -68.071  0.0000E+00  0.0000E+00
    -67.814  0.0000E+00  0.0000E+00
    -67.557  0.0000E+00  0.0000E+00
    -67.299  0.0000E+00  0.0000E+00
    -67.042  0.0000E+00  0.0000E+00
    -66.785  0.0000E+00  0.0000E+00
    -66.528  0.0000E+00  0.0000E+00
    -66.271  0.0000E+00  0.0000E+00
    -66.013  0.0000E+00  0.0000E+00
    -65.756  0.0000E+00  0.0000E+00
    -65.499  0.1591E-09  0.4092E-10
    -65.242  0.7992E-05  0.2056E-05
    -64.985  0.2108E-01  0.5423E-02
    -64.727  0.4091E+01  0.1058E+01
    -64.470  0.7852E+02  0.2125E+02
    -64.213  0.2096E+03  0.7517E+02
    -63.956  0.1787E+03  0.1211E+03
    -63.699  0.1362E+03  0.1562E+03
    -63.441  0.1011E+03  0.1822E+03
    -63.184  0.6474E+02  0.1988E+03
    -62.927  0.4768E+02  0.2111E+03
    -62.670  0.1319E+02  0.2145E+03
    -62.413  0.5116E+01  0.2158E+03
    -62.155  0.7910E+00  0.2160E+03
    -61.898  0.7894E-02  0.2160E+03
    -61.641  0.3645E-05  0.2160E+03
    -61.384  0.6920E-10  0.2160E+03
    -61.126  0.0000E+00  0.2160E+03
    -60.869  0.0000E+00  0.2160E+03
    -60.612  0.0000E+00  0.2160E+03
    -60.355  0.0000E+00  0.2160E+03
    -60.098  0.0000E+00  0.2160E+03
    -59.840  0.0000E+00  0.2160E+03
    -59.583  0.0000E+00  0.2160E+03
    -59.326  0.0000E+00  0.2160E+03
    -59.069  0.0000E+00  0.2160E+03
    -58.812  0.0000E+00  0.2160E+03
    -58.554  0.0000E+00  0.2160E+03
    -58.297  0.0000E+00  0.2160E+03
    -58.040  0.0000E+00  0.2160E+03
    -57.783  0.0000E+00  0.2160E+03
    -57.526  0.0000E+00  0.2160E+03
    -57.268  0.0000E+00  0.2160E+03
    -57.011  0.0000E+00  0.2160E+03
    -56.754  0.0000E+00  0.2160E+03
    -56.497  0.0000E+00  0.2160E+03
    -56.240  0.0000E+00  0.2160E+03
    -55.982  0.0000E+00  0.2160E+03
    -55.725  0.0000E+00  0.2160E+03
    -55.468  0.0000E+00  0.2160E+03
    -55.211  0.0000E+00  0.2160E+03
    -54.954  0.0000E+00  0.2160E+03
    -54.696  0.0000E+00  0.2160E+03
    -54.439  0.0000E+00  0.2160E+03
    -54.182  0.0000E+00  0.2160E+03
    -53.925  0.0000E+00  0.2160E+03
    -53.668  0.0000E+00  0.2160E+03
    -53.410  0.0000E+00  0.2160E+03
    -53.153  0.0000E+00  0.2160E+03
    -52.896  0.0000E+00  0.2160E+03
    -52.639  0.0000E+00  0.2160E+03
    -52.382  0.0000E+00  0.2160E+03
    -52.124  0.0000E+00  0.2160E+03
    -51.867  0.0000E+00  0.2160E+03
    -51.610  0.0000E+00  0.2160E+03
    -51.353  0.0000E+00  0.2160E+03
    -51.096  0.0000E+00  0.2160E+03
    -50.838  0.0000E+00  0.2160E+03
    -50.581  0.0000E+00  0.2160E+03
    -50.324  0.0000E+00  0.2160E+03
    -50.067  0.0000E+00  0.2160E+03
    -49.810  0.0000E+00  0.2160E+03
    -49.552  0.0000E+00  0.2160E+03
    -49.295  0.0000E+00  0.2160E+03
    -49.038  0.0000E+00  0.2160E+03
    -48.781  0.0000E+00  0.2160E+03
    -48.523  0.0000E+00  0.2160E+03
    -48.266  0.0000E+00  0.2160E+03
    -48.009  0.0000E+00  0.2160E+03
    -47.752  0.0000E+00  0.2160E+03
    -47.495  0.0000E+00  0.2160E+03
    -47.237  0.0000E+00  0.2160E+03
    -46.980  0.0000E+00  0.2160E+03
    -46.723  0.0000E+00  0.2160E+03
    -46.466  0.0000E+00  0.2160E+03
    -46.209  0.0000E+00  0.2160E+03
    -45.951  0.0000E+00  0.2160E+03
    -45.694  0.0000E+00  0.2160E+03
    -45.437  0.0000E+00  0.2160E+03
    -45.180  0.0000E+00  0.2160E+03
    -44.923  0.0000E+00  0.2160E+03
    -44.665  0.0000E+00  0.2160E+03
    -44.408  0.0000E+00  0.2160E+03
    -44.151  0.0000E+00  0.2160E+03
    -43.894  0.0000E+00  0.2160E+03
    -43.637  0.0000E+00  0.2160E+03
    -43.379  0.0000E+00  0.2160E+03
    -43.122  0.0000E+00  0.2160E+03
    -42.865  0.0000E+00  0.2160E+03
    -42.608  0.0000E+00  0.2160E+03
    -42.351  0.0000E+00  0.2160E+03
    -42.093  0.0000E+00  0.2160E+03
    -41.836  0.0000E+00  0.2160E+03
    -41.579  0.0000E+00  0.2160E+03
    -41.322  0.0000E+00  0.2160E+03
    -41.065  0.0000E+00  0.2160E+03
    -40.807  0.0000E+00  0.2160E+03
    -40.550  0.0000E+00  0.2160E+03
    -40.293  0.0000E+00  0.2160E+03
    -40.036  0.0000E+00  0.2160E+03
    -39.779  0.0000E+00  0.2160E+03
    -39.521  0.0000E+00  0.2160E+03
    -39.264  0.0000E+00  0.2160E+03
    -39.007  0.0000E+00  0.2160E+03
    -38.750  0.0000E+00  0.2160E+03
    -38.493  0.0000E+00  0.2160E+03
    -38.235  0.0000E+00  0.2160E+03
    -37.978  0.0000E+00  0.2160E+03
    -37.721  0.0000E+00  0.2160E+03
    -37.464  0.0000E+00  0.2160E+03
    -37.207  0.0000E+00  0.2160E+03
    -36.949  0.0000E+00  0.2160E+03
    -36.692  0.0000E+00  0.2160E+03
    -36.435  0.0000E+00  0.2160E+03
    -36.178  0.0000E+00  0.2160E+03
    -35.920  0.0000E+00  0.2160E+03
    -35.663  0.0000E+00  0.2160E+03
    -35.406  0.0000E+00  0.2160E+03
    -35.149  0.0000E+00  0.2160E+03
    -34.892  0.0000E+00  0.2160E+03
    -34.634  0.0000E+00  0.2160E+03
    -34.377  0.0000E+00  0.2160E+03
    -34.120  0.0000E+00  0.2160E+03
    -33.863  0.0000E+00  0.2160E+03
    -33.606  0.0000E+00  0.2160E+03
    -33.348  0.0000E+00  0.2160E+03
    -33.091  0.0000E+00  0.2160E+03
    -32.834  0.0000E+00  0.2160E+03
    -32.577  0.0000E+00  0.2160E+03
    -32.320  0.0000E+00  0.2160E+03
    -32.062  0.0000E+00  0.2160E+03
    -31.805  0.0000E+00  0.2160E+03
    -31.548  0.0000E+00  0.2160E+03
    -31.291  0.0000E+00  0.2160E+03
    -31.034  0.0000E+00  0.2160E+03
    -30.776  0.0000E+00  0.2160E+03
    -30.519  0.0000E+00  0.2160E+03
    -30.262  0.0000E+00  0.2160E+03
    -30.005  0.0000E+00  0.2160E+03
    -29.748  0.0000E+00  0.2160E+03
    -29.490  0.0000E+00  0.2160E+03
    -29.233  0.0000E+00  0.2160E+03
    -28.976  0.0000E+00  0.2160E+03
    -28.719  0.0000E+00  0.2160E+03
    -28.462  0.0000E+00  0.2160E+03
    -28.204  0.0000E+00  0.2160E+03
    -27.947  0.0000E+00  0.2160E+03
    -27.690  0.0000E+00  0.2160E+03
    -27.433  0.0000E+00  0.2160E+03
    -27.176  0.0000E+00  0.2160E+03
    -26.918  0.0000E+00  0.2160E+03
    -26.661  0.0000E+00  0.2160E+03
    -26.404  0.0000E+00  0.2160E+03
    -26.147  0.0000E+00  0.2160E+03
    -25.890  0.0000E+00  0.2160E+03
    -25.632  0.0000E+00  0.2160E+03
    -25.375  0.0000E+00  0.2160E+03
    -25.118  0.0000E+00  0.2160E+03
    -24.861  0.0000E+00  0.2160E+03
    -24.604  0.0000E+00  0.2160E+03
    -24.346  0.0000E+00  0.2160E+03
    -24.089  0.0000E+00  0.2160E+03
    -23.832  0.0000E+00  0.2160E+03
    -23.575  0.0000E+00  0.2160E+03
    -23.318  0.0000E+00  0.2160E+03
    -23.060  0.0000E+00  0.2160E+03
    -22.803  0.0000E+00  0.2160E+03
    -22.546  0.0000E+00  0.2160E+03
    -22.289  0.0000E+00  0.2160E+03
    -22.031  0.0000E+00  0.2160E+03
    -21.774  0.0000E+00  0.2160E+03
    -21.517  0.0000E+00  0.2160E+03
    -21.260  0.0000E+00  0.2160E+03
    -21.003  0.0000E+00  0.2160E+03
    -20.745  0.0000E+00  0.2160E+03
    -20.488  0.0000E+00  0.2160E+03
    -20.231  0.0000E+00  0.2160E+03
    -19.974  0.0000E+00  0.2160E+03
    -19.717  0.0000E+00  0.2160E+03
    -19.459  0.0000E+00  0.2160E+03
    -19.202  0.0000E+00  0.2160E+03
    -18.945  0.0000E+00  0.2160E+03
    -18.688  0.0000E+00  0.2160E+03
    -18.431  0.0000E+00  0.2160E+03
    -18.173  0.0000E+00  0.2160E+03
    -17.916  0.0000E+00  0.2160E+03
    -17.659  0.0000E+00  0.2160E+03
    -17.402  0.0000E+00  0.2160E+03
    -17.145  0.0000E+00  0.2160E+03
    -16.887  0.0000E+00  0.2160E+03
    -16.630  0.0000E+00  0.2160E+03
    -16.373  0.1878E-12  0.2160E+03
    -16.116  0.4195E-07  0.2160E+03
    -15.859  0.3754E-03  0.2160E+03
    -15.601  0.1457E+00  0.2160E+03
    -15.344  0.3117E+01  0.2168E+03
    -15.087  0.8962E+01  0.2191E+03
    -14.830  0.1016E+02  0.2218E+03
    -14.573  0.9977E+01  0.2243E+03
    -14.315  0.2057E+02  0.2296E+03
    -14.058  0.2843E+02  0.2369E+03
    -13.801  0.2946E+02  0.2445E+03
    -13.544  0.2526E+02  0.2510E+03
    -13.287  0.1960E+02  0.2560E+03
    -13.029  0.2268E+02  0.2619E+03
    -12.772  0.2786E+02  0.2690E+03
    -12.515  0.2988E+02  0.2767E+03
    -12.258  0.1501E+02  0.2806E+03
    -12.001  0.1024E+02  0.2832E+03
    -11.743  0.1350E+02  0.2867E+03
    -11.486  0.4909E+01  0.2880E+03
    -11.229  0.1598E+00  0.2880E+03
    -10.972  0.2745E-03  0.2880E+03
    -10.715  0.2024E-07  0.2880E+03
    -10.457  0.5870E-13  0.2880E+03
    -10.200  0.0000E+00  0.2880E+03
     -9.943  0.0000E+00  0.2880E+03
     -9.686  0.0000E+00  0.2880E+03
     -9.428  0.0000E+00  0.2880E+03
     -9.171  0.0000E+00  0.2880E+03
     -8.914  0.0000E+00  0.2880E+03
     -8.657  0.0000E+00  0.2880E+03
     -8.400  0.0000E+00  0.2880E+03
     -8.142  0.6345E-13  0.2880E+03
     -7.885  0.1967E-07  0.2880E+03
     -7.628  0.2610E-03  0.2880E+03
     -7.371  0.1702E+00  0.2880E+03
     -7.114  0.6884E+01  0.2898E+03
     -6.856  0.2395E+02  0.2960E+03
     -6.599  0.1975E+02  0.3011E+03
     -6.342  0.3860E+02  0.3110E+03
     -6.085  0.4216E+02  0.3218E+03
     -5.828  0.4261E+02  0.3328E+03
     -5.570  0.5165E+02  0.3461E+03
     -5.313  0.4963E+02  0.3588E+03
     -5.056  0.3845E+02  0.3687E+03
     -4.799  0.3861E+02  0.3787E+03
     -4.542  0.6035E+02  0.3942E+03
     -4.284  0.5277E+02  0.4077E+03
     -4.027  0.5849E+02  0.4228E+03
     -3.770  0.6252E+02  0.4389E+03
     -3.513  0.6243E+02  0.4549E+03
     -3.256  0.6574E+02  0.4718E+03
     -2.998  0.6309E+02  0.4881E+03
     -2.741  0.6387E+02  0.5045E+03
     -2.484  0.8426E+02  0.5262E+03
     -2.227  0.1200E+03  0.5570E+03
     -1.970  0.1509E+03  0.5958E+03
     -1.712  0.1634E+03  0.6379E+03
     -1.455  0.1515E+03  0.6769E+03
     -1.198  0.1265E+03  0.7094E+03
     -0.941  0.1169E+03  0.7395E+03
     -0.684  0.1054E+03  0.7666E+03
     -0.426  0.8386E+02  0.7882E+03
     -0.169  0.6296E+02  0.8044E+03
      0.088  0.5382E+02  0.8182E+03
      0.345  0.5436E+02  0.8322E+03
      0.602  0.5480E+02  0.8463E+03
      0.860  0.5764E+02  0.8611E+03
      1.117  0.3115E+02  0.8691E+03
      1.374  0.6800E+01  0.8709E+03
      1.631  0.8758E+01  0.8731E+03
      1.888  0.9551E+01  0.8756E+03
      2.146  0.8660E+01  0.8778E+03
      2.403  0.7079E+01  0.8796E+03
      2.660  0.9534E+01  0.8821E+03
      2.917  0.8998E+01  0.8844E+03
      3.174  0.1005E+02  0.8870E+03
      3.432  0.6317E+01  0.8886E+03
      3.689  0.1652E+02  0.8928E+03
      3.946  0.2099E+02  0.8982E+03
      4.203  0.2989E+02  0.9059E+03
      4.461  0.3181E+02  0.9141E+03
      4.718  0.3118E+02  0.9221E+03
      4.975  0.3074E+02  0.9300E+03
      5.232  0.3967E+02  0.9402E+03
      5.489  0.4900E+02  0.9528E+03
      5.747  0.2557E+02  0.9594E+03
      6.004  0.2243E+01  0.9600E+03
      6.261  0.1751E-01  0.9600E+03
      6.518  0.7903E-05  0.9600E+03
      6.775  0.1639E-09  0.9600E+03
      7.033  0.0000E+00  0.9600E+03
      7.290  0.0000E+00  0.9600E+03
      7.547  0.0000E+00  0.9600E+03
      7.804  0.0000E+00  0.9600E+03
      8.061  0.0000E+00  0.9600E+03
      8.319  0.0000E+00  0.9600E+03
      8.576  0.0000E+00  0.9600E+03
      8.833  0.0000E+00  0.9600E+03
      9.090  0.0000E+00  0.9600E+03
