
96 atoms
2 atom types
   0.0000000000    6.2785600000 xlo xhi
   0.0000000000   11.0601955134 ylo yhi
   0.0000000000   28.8109244581 zlo zhi
   2.0928533957    0.0000000000    0.0000000000 xy xz yz

Atoms # atomic

     1      1    1.6436996031    0.1820352343    2.5306733827
     2      1    1.6436996031    0.1820352343   12.1090834040
     3      1    0.5972729353    2.9470840242    7.3198783789
     4      1    0.5972729353    2.9470840242   16.8982884002
     5      1    1.6436996031    0.1820352343    0.0000000000
     6      1    1.6436996031    0.1820352343    9.5784099924
     7      1    0.5972729353    2.9470840242    4.7892049962
     8      1    0.5972729353    2.9470840242   14.3676149886
     9      1    1.6436996029    2.3736626798    1.2653367058
    10      1    1.6436996029    2.3736626798   10.8437466982
    11      1    3.7365529372    5.1387114808    6.0545417020
    12      1    3.7365529372    5.1387114808   15.6329516944
    13      1    4.7829796031    0.1820352343    2.5306733827
    14      1    4.7829796031    0.1820352343   12.1090834040
    15      1    3.7365529353    2.9470840242    7.3198783789
    16      1    3.7365529353    2.9470840242   16.8982884002
    17      1    4.7829796031    0.1820352343    0.0000000000
    18      1    4.7829796031    0.1820352343    9.5784099924
    19      1    3.7365529353    2.9470840242    4.7892049962
    20      1    3.7365529353    2.9470840242   14.3676149886
    21      1    4.7829796029    2.3736626798    1.2653367058
    22      1    4.7829796029    2.3736626798   10.8437466982
    23      1    6.8758329372    5.1387114808    6.0545417020
    24      1    6.8758329372    5.1387114808   15.6329516944
    25      1    2.6901263010    5.7121329910    2.5306733827
    26      1    2.6901263010    5.7121329910   12.1090834040
    27      1    1.6436996332    8.4771817809    7.3198783789
    28      1    1.6436996332    8.4771817809   16.8982884002
    29      1    2.6901263010    5.7121329910    0.0000000000
    30      1    2.6901263010    5.7121329910    9.5784099924
    31      1    1.6436996332    8.4771817809    4.7892049962
    32      1    1.6436996332    8.4771817809   14.3676149886
    33      1    2.6901263008    7.9037604365    1.2653367058
    34      1    2.6901263008    7.9037604365   10.8437466982
    35      1    4.7829796351   10.6688092375    6.0545417020
    36      1    4.7829796351   10.6688092375   15.6329516944
    37      1    5.8294063010    5.7121329910    2.5306733827
    38      1    5.8294063010    5.7121329910   12.1090834040
    39      1    4.7829796332    8.4771817809    7.3198783789
    40      1    4.7829796332    8.4771817809   16.8982884002
    41      1    5.8294063010    5.7121329910    0.0000000000
    42      1    5.8294063010    5.7121329910    9.5784099924
    43      1    4.7829796332    8.4771817809    4.7892049962
    44      1    4.7829796332    8.4771817809   14.3676149886
    45      1    5.8294063008    7.9037604365    1.2653367058
    46      1    5.8294063008    7.9037604365   10.8437466982
    47      1    7.9222596351   10.6688092375    6.0545417020
    48      1    7.9222596351   10.6688092375   15.6329516944
    49      2    3.2896094581    1.8428230771    9.2325144462
    50      2    3.2896094581    1.8428230771   18.8109244674
    51      2    2.2431827924    4.6078718781    4.4433094500
    52      2    2.2431827924    4.6078718781   14.0217194712
    53      2    3.2896094581    1.8428230771    2.8765689290
    54      2    3.2896094581    1.8428230771   12.4549789214
    55      2    2.2431827924    4.6078718781    7.6657739252
    56      2    2.2431827924    4.6078718781   17.2441839464
    57      2    1.1967561256    4.5821845740    1.2653367058
    58      2    1.1967561256    4.5821845740   10.8437466982
    59      2    2.2431827913    1.8171357730    6.0545417020
    60      2    2.2431827913    1.8171357730   15.6329516944
    61      2    6.4288894581    1.8428230771    9.2325144462
    62      2    6.4288894581    1.8428230771   18.8109244674
    63      2    5.3824627924    4.6078718781    4.4433094500
    64      2    5.3824627924    4.6078718781   14.0217194712
    65      2    6.4288894581    1.8428230771    2.8765689290
    66      2    6.4288894581    1.8428230771   12.4549789214
    67      2    5.3824627924    4.6078718781    7.6657739252
    68      2    5.3824627924    4.6078718781   17.2441839464
    69      2    4.3360361256    4.5821845740    1.2653367058
    70      2    4.3360361256    4.5821845740   10.8437466982
    71      2    5.3824627913    1.8171357730    6.0545417020
    72      2    5.3824627913    1.8171357730   15.6329516944
    73      2    4.3360361560    7.3729208338    9.2325144462
    74      2    4.3360361560    7.3729208338   18.8109244674
    75      2    3.2896094903   10.1379696347    4.4433094500
    76      2    3.2896094903   10.1379696347   14.0217194712
    77      2    4.3360361560    7.3729208338    2.8765689290
    78      2    4.3360361560    7.3729208338   12.4549789214
    79      2    3.2896094903   10.1379696347    7.6657739252
    80      2    3.2896094903   10.1379696347   17.2441839464
    81      2    2.2431828235   10.1122823307    1.2653367058
    82      2    2.2431828235   10.1122823307   10.8437466982
    83      2    3.2896094892    7.3472335297    6.0545417020
    84      2    3.2896094892    7.3472335297   15.6329516944
    85      2    7.4753161560    7.3729208338    9.2325144462
    86      2    7.4753161560    7.3729208338   18.8109244674
    87      2    6.4288894903   10.1379696347    4.4433094500
    88      2    6.4288894903   10.1379696347   14.0217194712
    89      2    7.4753161560    7.3729208338    2.8765689290
    90      2    7.4753161560    7.3729208338   12.4549789214
    91      2    6.4288894903   10.1379696347    7.6657739252
    92      2    6.4288894903   10.1379696347   17.2441839464
    93      2    5.3824628235   10.1122823307    1.2653367058
    94      2    5.3824628235   10.1122823307   10.8437466982
    95      2    6.4288894892    7.3472335297    6.0545417020
    96      2    6.4288894892    7.3472335297   15.6329516944
