<?xml version="1.0" encoding="ISO-8859-1"?>
<modeling>
 <generator>
  <i name="program" type="string">vasp </i>
  <i name="version" type="string">5.4.4.18Apr17-6-g9f103f2a35  </i>
  <i name="subversion" type="string">(build Aug 13 2019 17:33:20) gamma-only         parallel </i>
  <i name="platform" type="string">LinuxIFC </i>
  <i name="date" type="string">2020 05 12 </i>
  <i name="time" type="string">06:41:31 </i>
 </generator>
 <incar>
  <i type="string" name="SYSTEM">"Millerite NiS"</i>
  <i type="string" name="PREC">normal</i>
  <i type="int" name="NSIM">     4</i>
  <i type="int" name="NELM">   100</i>
  <i name="ENCUT">    450.00000000</i>
  <i type="string" name="LREAL">A</i>
  <i type="int" name="ISMEAR">     0</i>
  <i type="int" name="NWRITE">     2</i>
  <i type="logical" name="LWAVE"> F  </i>
  <i type="logical" name="LCHARG"> F  </i>
  <v type="int" name="KPOINT_BSE">    -1     0     0     0</v>
  <i type="int" name="NELM">   100</i>
 </incar>
 <structure name="primitive_cell" >
  <crystal>
   <varray name="basis" >
    <v>      -4.18570670      -5.53009776       0.00000000 </v>
    <v>       0.00000000       0.00000000     -28.81092446 </v>
    <v>       7.32498670       5.53009776       0.00000000 </v>
   </varray>
   <i name="volume">    500.17278256 </i>
   <varray name="rec_basis" >
    <v>       0.31854438      -0.42193347       0.00000000 </v>
    <v>       0.00000000       0.00000000      -0.03470906 </v>
    <v>       0.31854438      -0.24110484       0.00000000 </v>
   </varray>
  </crystal>
  <varray name="positions" >
   <v>       0.44678451      -0.08783728       0.47970169 </v>
   <v>      -0.22966211      -0.15422308      -0.39642695 </v>
   <v>       0.27033787      -0.09984299      -0.39642696 </v>
   <v>       0.44784289      -0.04391864       0.27643305 </v>
   <v>      -0.28856074      -0.00524134      -0.35877674 </v>
   <v>       0.18972999      -0.09632830      -0.21292943 </v>
   <v>      -0.05321546      -0.16622879       0.47970171 </v>
   <v>       0.02206356      -0.21014743      -0.04871028 </v>
   <v>      -0.05215713      -0.21014743       0.27643304 </v>
   <v>      -0.22966211      -0.26607178      -0.39642695 </v>
   <v>      -0.05321546      -0.25406607       0.47970171 </v>
   <v>       0.44678451      -0.33245757       0.47970169 </v>
   <v>       0.27033787      -0.32045186      -0.39642696 </v>
   <v>       0.44784289      -0.37637622       0.27643305 </v>
   <v>      -0.47793646      -0.37637622      -0.04871029 </v>
   <v>       0.44678451      -0.42029486       0.47970169 </v>
   <v>       0.27033787      -0.43230056      -0.39642696 </v>
   <v>      -0.22966211      -0.48668065      -0.39642695 </v>
   <v>      -0.05321546      -0.49868636       0.47970171 </v>
   <v>       0.02206356       0.45739500      -0.04871028 </v>
   <v>      -0.05215713       0.45739500       0.27643304 </v>
   <v>      -0.30578918       0.37106150       0.12105356 </v>
   <v>      -0.20351964       0.41566819      -0.39229108 </v>
   <v>      -0.05321546       0.41347636       0.47970171 </v>
  </varray>
 </structure>
 <varray name="primitive_index" >
  <v type="int" >        1 </v>
  <v type="int" >       75 </v>
  <v type="int" >       65 </v>
  <v type="int" >       81 </v>
  <v type="int" >        5 </v>
  <v type="int" >       33 </v>
  <v type="int" >        7 </v>
  <v type="int" >       35 </v>
  <v type="int" >       59 </v>
  <v type="int" >       79 </v>
  <v type="int" >        3 </v>
  <v type="int" >        6 </v>
  <v type="int" >       61 </v>
  <v type="int" >       82 </v>
  <v type="int" >       10 </v>
  <v type="int" >        2 </v>
  <v type="int" >       66 </v>
  <v type="int" >       76 </v>
  <v type="int" >        8 </v>
  <v type="int" >       36 </v>
  <v type="int" >       60 </v>
  <v type="int" >       50 </v>
  <v type="int" >       80 </v>
  <v type="int" >        4 </v>
 </varray>
 <kpoints>
  <generation param="Gamma">
   <v type="int" name="divisions">       1        1        1 </v>
   <v name="usershift">      0.00000000       0.00000000       0.00000000 </v>
   <v name="genvec1">      1.00000000       0.00000000       0.00000000 </v>
   <v name="genvec2">      0.00000000       1.00000000       0.00000000 </v>
   <v name="genvec3">      0.00000000       0.00000000       1.00000000 </v>
   <v name="shift">      0.00000000       0.00000000       0.00000000 </v>
  </generation>
  <varray name="kpointlist" >
   <v>       0.00000000       0.00000000       0.00000000 </v>
  </varray>
  <varray name="weights" >
   <v>       1.00000000 </v>
  </varray>
 </kpoints>
 <parameters>
  <separator name="general" >
   <i type="string" name="SYSTEM">"Millerite NiS"</i>
   <i type="logical" name="LCOMPAT"> F  </i>
  </separator>
  <separator name="electronic" >
   <i type="string" name="PREC">normal</i>
   <i name="ENMAX">    450.00000000</i>
   <i name="ENAUG">    703.44300000</i>
   <i name="EDIFF">      0.00010000</i>
   <i type="int" name="IALGO">    38</i>
   <i type="int" name="IWAVPR">    10</i>
   <i type="int" name="NBANDS">   634</i>
   <i name="NELECT">   1056.00000000</i>
   <i type="int" name="TURBO">     0</i>
   <i type="int" name="IRESTART">     0</i>
   <i type="int" name="NREBOOT">     0</i>
   <i type="int" name="NMIN">     0</i>
   <i name="EREF">      0.00000000</i>
   <separator name="electronic smearing" >
    <i type="int" name="ISMEAR">     0</i>
    <i name="SIGMA">      0.20000000</i>
    <i name="KSPACING">      0.50000000</i>
    <i type="logical" name="KGAMMA"> T  </i>
   </separator>
   <separator name="electronic projectors" >
    <i type="logical" name="LREAL"> T  </i>
    <v name="ROPT">     -0.00050000     -0.00050000</v>
    <i type="int" name="LMAXPAW">  -100</i>
    <i type="int" name="LMAXMIX">     2</i>
    <i type="logical" name="NLSPLINE"> F  </i>
   </separator>
   <separator name="electronic startup" >
    <i type="int" name="ISTART">     0</i>
    <i type="int" name="ICHARG">     2</i>
    <i type="int" name="INIWAV">     1</i>
   </separator>
   <separator name="electronic spin" >
    <i type="int" name="ISPIN">     1</i>
    <i type="logical" name="LNONCOLLINEAR"> F  </i>
    <v name="MAGMOM">      1.00000000      1.00000000      1.00000000      1.00000000      1.00000000      1.00000000      1.00000000      1.00000000      1.00000000      1.00000000      1.00000000      1.00000000      1.00000000      1.00000000      1.00000000      1.00000000      1.00000000      1.00000000      1.00000000      1.00000000
      1.00000000      1.00000000      1.00000000      1.00000000      1.00000000      1.00000000      1.00000000      1.00000000      1.00000000      1.00000000      1.00000000      1.00000000      1.00000000      1.00000000      1.00000000      1.00000000      1.00000000      1.00000000      1.00000000      1.00000000
      1.00000000      1.00000000      1.00000000      1.00000000      1.00000000      1.00000000      1.00000000      1.00000000      1.00000000      1.00000000      1.00000000      1.00000000      1.00000000      1.00000000      1.00000000      1.00000000      1.00000000      1.00000000      1.00000000      1.00000000
      1.00000000      1.00000000      1.00000000      1.00000000      1.00000000      1.00000000      1.00000000      1.00000000      1.00000000      1.00000000      1.00000000      1.00000000      1.00000000      1.00000000      1.00000000      1.00000000      1.00000000      1.00000000      1.00000000      1.00000000
      1.00000000      1.00000000      1.00000000      1.00000000      1.00000000      1.00000000      1.00000000      1.00000000      1.00000000      1.00000000      1.00000000      1.00000000      1.00000000      1.00000000      1.00000000      1.00000000</v>
    <i name="NUPDOWN">     -1.00000000</i>
    <i type="logical" name="LSORBIT"> F  </i>
    <v name="SAXIS">      0.00000000      0.00000000      1.00000000</v>
    <i type="logical" name="LSPIRAL"> F  </i>
    <v name="QSPIRAL">      0.00000000      0.00000000      0.00000000</v>
    <i type="logical" name="LZEROZ"> F  </i>
   </separator>
   <separator name="electronic exchange-correlation" >
    <i type="logical" name="LASPH"> F  </i>
    <i type="logical" name="LMETAGGA"> F  </i>
   </separator>
   <separator name="electronic convergence" >
    <i type="int" name="NELM">   100</i>
    <i type="int" name="NELMDL">    -5</i>
    <i type="int" name="NELMIN">     2</i>
    <i name="ENINI">    450.00000000</i>
    <separator name="electronic convergence detail" >
     <i type="logical" name="LDIAG"> T  </i>
     <i type="logical" name="LSUBROT"> F  </i>
     <i name="WEIMIN">      0.00000000</i>
     <i name="EBREAK">      0.00000004</i>
     <i name="DEPER">      0.30000000</i>
     <i type="int" name="NRMM">     4</i>
     <i name="TIME">      0.40000000</i>
    </separator>
   </separator>
   <separator name="electronic mixer" >
    <i name="AMIX">      0.40000000</i>
    <i name="BMIX">      1.00000000</i>
    <i name="AMIN">      0.10000000</i>
    <i name="AMIX_MAG">      1.60000000</i>
    <i name="BMIX_MAG">      1.00000000</i>
    <separator name="electronic mixer details" >
     <i type="int" name="IMIX">     4</i>
     <i type="logical" name="MIXFIRST"> F  </i>
     <i type="int" name="MAXMIX">   -45</i>
     <i name="WC">    100.00000000</i>
     <i type="int" name="INIMIX">     1</i>
     <i type="int" name="MIXPRE">     1</i>
     <i type="int" name="MREMOVE">     5</i>
    </separator>
   </separator>
   <separator name="electronic dipolcorrection" >
    <i type="logical" name="LDIPOL"> F  </i>
    <i type="logical" name="LMONO"> F  </i>
    <i type="int" name="IDIPOL">     0</i>
    <i name="EPSILON">      1.00000000</i>
    <v name="DIPOL">   -100.00000000   -100.00000000   -100.00000000</v>
    <i name="EFIELD">      0.00000000</i>
   </separator>
  </separator>
  <separator name="grids" >
   <i type="int" name="NGX">    36</i>
   <i type="int" name="NGY">    60</i>
   <i type="int" name="NGZ">   150</i>
   <i type="int" name="NGXF">    72</i>
   <i type="int" name="NGYF">   120</i>
   <i type="int" name="NGZF">   300</i>
   <i type="logical" name="ADDGRID"> F  </i>
  </separator>
  <separator name="ionic" >
   <i type="int" name="NSW">     0</i>
   <i type="int" name="IBRION">    -1</i>
   <i type="int" name="MDALGO">     0</i>
   <i type="int" name="ISIF">     2</i>
   <i name="PSTRESS">      0.00000000</i>
   <i name="EDIFFG">      0.00100000</i>
   <i type="int" name="NFREE">     0</i>
   <i name="POTIM">      0.50000000</i>
   <i name="SMASS">     -3.00000000</i>
   <i name="SCALEE">      1.00000000</i>
  </separator>
  <separator name="ionic md" >
   <i name="TEBEG">      0.00010000</i>
   <i name="TEEND">      0.00010000</i>
   <i type="int" name="NBLOCK">     1</i>
   <i type="int" name="KBLOCK">     1</i>
   <i type="int" name="NPACO">   256</i>
   <i name="APACO">     16.00000000</i>
  </separator>
  <separator name="symmetry" >
   <i type="int" name="ISYM">     2</i>
   <i name="SYMPREC">      0.00001000</i>
  </separator>
  <separator name="dos" >
   <i type="int" name="LORBIT">     0</i>
   <v name="RWIGS">     -1.00000000     -1.00000000</v>
   <i type="int" name="NEDOS">   301</i>
   <i name="EMIN">     10.00000000</i>
   <i name="EMAX">    -10.00000000</i>
   <i name="EFERMI">      0.00000000</i>
  </separator>
  <separator name="writing" >
   <i type="int" name="NWRITE">     2</i>
   <i type="logical" name="LWAVE"> F  </i>
   <i type="logical" name="LDOWNSAMPLE"> F  </i>
   <i type="logical" name="LCHARG"> F  </i>
   <i type="logical" name="LPARD"> F  </i>
   <i type="logical" name="LVTOT"> F  </i>
   <i type="logical" name="LVHAR"> F  </i>
   <i type="logical" name="LELF"> F  </i>
   <i type="logical" name="LOPTICS"> F  </i>
   <v name="STM">      0.00000000      0.00000000      0.00000000      0.00000000      0.00000000      0.00000000      0.00000000</v>
  </separator>
  <separator name="performance" >
   <i type="int" name="NPAR">     2</i>
   <i type="int" name="NSIM">     4</i>
   <i type="int" name="NBLK">    -1</i>
   <i type="logical" name="LPLANE"> T  </i>
   <i type="logical" name="LSCALAPACK"> T  </i>
   <i type="logical" name="LSCAAWARE"> F  </i>
   <i type="logical" name="LSCALU"> F  </i>
   <i type="logical" name="LASYNC"> F  </i>
   <i type="logical" name="LORBITALREAL"> F  </i>
  </separator>
  <separator name="miscellaneous" >
   <i type="int" name="IDIOT">     3</i>
   <i type="int" name="ISPECIAL">     0</i>
   <i type="logical" name="LMUSIC"> F  </i>
   <v name="POMASS">     58.69000000     32.06600000</v>
   <v name="DARWINR">      0.00000000      0.00000000</v>
   <v name="DARWINV">      1.00000000      1.00000000</v>
   <i type="logical" name="LCORR"> T  </i>
  </separator>
  <i type="logical" name="GGA_COMPAT"> T  </i>
  <i type="logical" name="LBERRY"> F  </i>
  <i type="int" name="ICORELEVEL">     0</i>
  <i type="logical" name="LDAU"> F  </i>
  <i type="int" name="I_CONSTRAINED_M">     0</i>
  <separator name="electronic exchange-correlation" >
   <i type="string" name="GGA">--</i>
   <i type="int" name="VOSKOWN">     0</i>
   <i type="logical" name="LHFCALC"> F  </i>
   <i type="string" name="PRECFOCK"></i>
   <i type="logical" name="LSYMGRAD"> F  </i>
   <i type="logical" name="LHFONE"> F  </i>
   <i type="logical" name="LRHFCALC"> F  </i>
   <i type="logical" name="LTHOMAS"> F  </i>
   <i type="logical" name="LMODELHF"> F  </i>
   <i name="ENCUT4O">     -1.00000000</i>
   <i type="int" name="EXXOEP">     0</i>
   <i type="int" name="FOURORBIT">     0</i>
   <i name="AEXX">      0.00000000</i>
   <i name="HFALPHA">      0.00000000</i>
   <i name="MCALPHA">      0.00000000</i>
   <i name="ALDAX">      1.00000000</i>
   <i name="AGGAX">      1.00000000</i>
   <i name="ALDAC">      1.00000000</i>
   <i name="AGGAC">      1.00000000</i>
   <i type="int" name="NKREDX">     1</i>
   <i type="int" name="NKREDY">     1</i>
   <i type="int" name="NKREDZ">     1</i>
   <i type="logical" name="SHIFTRED"> F  </i>
   <i type="logical" name="ODDONLY"> F  </i>
   <i type="logical" name="EVENONLY"> F  </i>
   <i type="int" name="LMAXFOCK">     0</i>
   <i type="int" name="NMAXFOCKAE">     0</i>
   <i type="logical" name="LFOCKAEDFT"> F  </i>
   <i name="HFSCREEN">      0.00000000</i>
   <i name="HFSCREENC">      0.00000000</i>
   <i type="int" name="NBANDSGWLOW">     0</i>
  </separator>
  <separator name="vdW DFT" >
   <i type="logical" name="LUSE_VDW"> F  </i>
   <i name="Zab_VDW">     -0.84910000</i>
   <i name="PARAM1">      0.12340000</i>
   <i name="PARAM2">      1.00000000</i>
   <i name="PARAM3">      0.00000000</i>
  </separator>
  <separator name="model GW" >
   <i type="int" name="MODEL_GW">     0</i>
   <i name="MODEL_EPS0">     12.50431956</i>
   <i name="MODEL_ALPHA">      1.00000000</i>
  </separator>
  <separator name="linear response parameters" >
   <i type="logical" name="LEPSILON"> F  </i>
   <i type="logical" name="LRPA"> F  </i>
   <i type="logical" name="LNABLA"> F  </i>
   <i type="logical" name="LVEL"> F  </i>
   <i type="int" name="KINTER">     0</i>
   <i name="CSHIFT">      0.10000000</i>
   <i name="OMEGAMAX">     -1.00000000</i>
   <i name="DEG_THRESHOLD">      0.00200000</i>
   <i name="RTIME">     -0.10000000</i>
   <i name="WPLASMAI">      0.00000000</i>
   <v name="DFIELD">      0.00000000      0.00000000      0.00000000</v>
   <v name="WPLASMA">      0.00000000      0.00000000      0.00000000      0.00000000      0.00000000      0.00000000      0.00000000      0.00000000      0.00000000</v>
  </separator>
  <separator name="orbital magnetization" >
   <i type="logical" name="NUCIND"> F  </i>
   <v name="MAGPOS">      0.00000000      0.00000000      0.00000000</v>
   <i type="logical" name="LNICSALL"> T  </i>
   <i type="logical" name="ORBITALMAG"> F  </i>
   <i type="logical" name="LMAGBLOCH"> F  </i>
   <i type="logical" name="LCHIMAG"> F  </i>
   <i type="logical" name="LGAUGE"> T  </i>
   <i type="int" name="MAGATOM">     0</i>
   <v name="MAGDIPOL">      0.00000000      0.00000000      0.00000000</v>
   <v name="AVECCONST">      0.00000000      0.00000000      0.00000000</v>
  </separator>
  <separator name="response functions" >
   <i type="logical" name="LADDER"> F  </i>
   <i type="logical" name="LRPAFORCE"> F  </i>
   <i type="logical" name="LFXC"> F  </i>
   <i type="logical" name="LHARTREE"> T  </i>
   <i type="int" name="IBSE">     0</i>
   <v type="int" name="KPOINT">    -1     0     0     0</v>
   <i type="logical" name="LTCTE"> F  </i>
   <i type="logical" name="LTETE"> F  </i>
   <i type="logical" name="LTRIPLET"> F  </i>
   <i type="logical" name="LFXCEPS"> F  </i>
   <i type="logical" name="LFXHEG"> F  </i>
   <i type="int" name="NATURALO">     2</i>
   <i type="logical" name="L2ORDER"> F  </i>
   <i type="logical" name="LMP2LT"> F  </i>
   <i type="logical" name="LUSEW"> F  </i>
   <i name="ENCUTGW">     -2.00000000</i>
   <i name="ENCUTGWSOFT">     -2.00000000</i>
   <i name="ENCUTLF">     -1.00000000</i>
   <i type="int" name="LMAXMP2">    -1</i>
   <i name="SCISSOR">      0.00000000</i>
   <i type="int" name="NOMEGA">     0</i>
   <i type="int" name="NOMEGAR">     0</i>
   <i type="int" name="NBANDSGW">    -1</i>
   <i type="int" name="NBANDSO">    -1</i>
   <i type="int" name="NBANDSV">    -1</i>
   <i type="int" name="NELM">   100</i>
   <i type="int" name="NELMHF">     1</i>
   <i type="int" name="DIM">     3</i>
   <i type="int" name="ANTIRES">     0</i>
   <i name="OMEGAMAX">    -30.00000000</i>
   <i name="OMEGAMIN">    -30.00000000</i>
   <i name="OMEGATL">   -200.00000000</i>
   <i type="int" name="OMEGAGRID">   140</i>
   <i name="CSHIFT">     -0.10000000</i>
   <i type="logical" name="SELFENERGY"> F  </i>
   <i type="logical" name="LSPECTRAL"> F  </i>
   <i type="logical" name="LSPECTRALGW"> F  </i>
   <i type="logical" name="LSINGLES"> F  </i>
   <i type="logical" name="LFERMIGW"> F  </i>
   <i type="logical" name="ODDONLYGW"> F  </i>
   <i type="logical" name="EVENONLYGW"> F  </i>
   <i type="int" name="NKREDLFX">     1</i>
   <i type="int" name="NKREDLFY">     1</i>
   <i type="int" name="NKREDLFZ">     1</i>
   <i type="int" name="MAXMEM">  2800</i>
   <i type="int" name="TELESCOPE">     0</i>
   <i type="int" name="TAUPAR">     1</i>
   <i type="int" name="OMEGAPAR">    -1</i>
   <i name="LAMBDA">      1.00000000</i>
  </separator>
  <separator name="External order field" >
   <i name="OFIELD_KAPPA">      0.00000000</i>
   <v name="OFIELD_K">      0.00000000      0.00000000      0.00000000</v>
   <i name="OFIELD_Q6_NEAR">      0.00000000</i>
   <i name="OFIELD_Q6_FAR">      0.00000000</i>
   <i name="OFIELD_A">      0.00000000</i>
  </separator>
 </parameters>
 <atominfo>
  <atoms>      96 </atoms>
  <types>       2 </types>
  <array name="atoms" >
   <dimension dim="1">ion</dimension>
   <field type="string">element</field>
   <field type="int">atomtype</field>
   <set>
    <rc><c>Ni</c><c>   1</c></rc>
    <rc><c>Ni</c><c>   1</c></rc>
    <rc><c>Ni</c><c>   1</c></rc>
    <rc><c>Ni</c><c>   1</c></rc>
    <rc><c>Ni</c><c>   1</c></rc>
    <rc><c>Ni</c><c>   1</c></rc>
    <rc><c>Ni</c><c>   1</c></rc>
    <rc><c>Ni</c><c>   1</c></rc>
    <rc><c>Ni</c><c>   1</c></rc>
    <rc><c>Ni</c><c>   1</c></rc>
    <rc><c>Ni</c><c>   1</c></rc>
    <rc><c>Ni</c><c>   1</c></rc>
    <rc><c>Ni</c><c>   1</c></rc>
    <rc><c>Ni</c><c>   1</c></rc>
    <rc><c>Ni</c><c>   1</c></rc>
    <rc><c>Ni</c><c>   1</c></rc>
    <rc><c>Ni</c><c>   1</c></rc>
    <rc><c>Ni</c><c>   1</c></rc>
    <rc><c>Ni</c><c>   1</c></rc>
    <rc><c>Ni</c><c>   1</c></rc>
    <rc><c>Ni</c><c>   1</c></rc>
    <rc><c>Ni</c><c>   1</c></rc>
    <rc><c>Ni</c><c>   1</c></rc>
    <rc><c>Ni</c><c>   1</c></rc>
    <rc><c>Ni</c><c>   1</c></rc>
    <rc><c>Ni</c><c>   1</c></rc>
    <rc><c>Ni</c><c>   1</c></rc>
    <rc><c>Ni</c><c>   1</c></rc>
    <rc><c>Ni</c><c>   1</c></rc>
    <rc><c>Ni</c><c>   1</c></rc>
    <rc><c>Ni</c><c>   1</c></rc>
    <rc><c>Ni</c><c>   1</c></rc>
    <rc><c>Ni</c><c>   1</c></rc>
    <rc><c>Ni</c><c>   1</c></rc>
    <rc><c>Ni</c><c>   1</c></rc>
    <rc><c>Ni</c><c>   1</c></rc>
    <rc><c>Ni</c><c>   1</c></rc>
    <rc><c>Ni</c><c>   1</c></rc>
    <rc><c>Ni</c><c>   1</c></rc>
    <rc><c>Ni</c><c>   1</c></rc>
    <rc><c>Ni</c><c>   1</c></rc>
    <rc><c>Ni</c><c>   1</c></rc>
    <rc><c>Ni</c><c>   1</c></rc>
    <rc><c>Ni</c><c>   1</c></rc>
    <rc><c>Ni</c><c>   1</c></rc>
    <rc><c>Ni</c><c>   1</c></rc>
    <rc><c>Ni</c><c>   1</c></rc>
    <rc><c>Ni</c><c>   1</c></rc>
    <rc><c>S </c><c>   2</c></rc>
    <rc><c>S </c><c>   2</c></rc>
    <rc><c>S </c><c>   2</c></rc>
    <rc><c>S </c><c>   2</c></rc>
    <rc><c>S </c><c>   2</c></rc>
    <rc><c>S </c><c>   2</c></rc>
    <rc><c>S </c><c>   2</c></rc>
    <rc><c>S </c><c>   2</c></rc>
    <rc><c>S </c><c>   2</c></rc>
    <rc><c>S </c><c>   2</c></rc>
    <rc><c>S </c><c>   2</c></rc>
    <rc><c>S </c><c>   2</c></rc>
    <rc><c>S </c><c>   2</c></rc>
    <rc><c>S </c><c>   2</c></rc>
    <rc><c>S </c><c>   2</c></rc>
    <rc><c>S </c><c>   2</c></rc>
    <rc><c>S </c><c>   2</c></rc>
    <rc><c>S </c><c>   2</c></rc>
    <rc><c>S </c><c>   2</c></rc>
    <rc><c>S </c><c>   2</c></rc>
    <rc><c>S </c><c>   2</c></rc>
    <rc><c>S </c><c>   2</c></rc>
    <rc><c>S </c><c>   2</c></rc>
    <rc><c>S </c><c>   2</c></rc>
    <rc><c>S </c><c>   2</c></rc>
    <rc><c>S </c><c>   2</c></rc>
    <rc><c>S </c><c>   2</c></rc>
    <rc><c>S </c><c>   2</c></rc>
    <rc><c>S </c><c>   2</c></rc>
    <rc><c>S </c><c>   2</c></rc>
    <rc><c>S </c><c>   2</c></rc>
    <rc><c>S </c><c>   2</c></rc>
    <rc><c>S </c><c>   2</c></rc>
    <rc><c>S </c><c>   2</c></rc>
    <rc><c>S </c><c>   2</c></rc>
    <rc><c>S </c><c>   2</c></rc>
    <rc><c>S </c><c>   2</c></rc>
    <rc><c>S </c><c>   2</c></rc>
    <rc><c>S </c><c>   2</c></rc>
    <rc><c>S </c><c>   2</c></rc>
    <rc><c>S </c><c>   2</c></rc>
    <rc><c>S </c><c>   2</c></rc>
    <rc><c>S </c><c>   2</c></rc>
    <rc><c>S </c><c>   2</c></rc>
    <rc><c>S </c><c>   2</c></rc>
    <rc><c>S </c><c>   2</c></rc>
    <rc><c>S </c><c>   2</c></rc>
    <rc><c>S </c><c>   2</c></rc>
   </set>
  </array>
  <array name="atomtypes" >
   <dimension dim="1">type</dimension>
   <field type="int">atomspertype</field>
   <field type="string">element</field>
   <field>mass</field>
   <field>valence</field>
   <field type="string">pseudopotential</field>
   <set>
    <rc><c>  48</c><c>Ni</c><c>     58.69000000</c><c>     16.00000000</c><c>  PAW_PBE Ni_pv 06Sep2000               </c></rc>
    <rc><c>  48</c><c>S </c><c>     32.06600000</c><c>      6.00000000</c><c>  PAW_PBE S 06Sep2000                   </c></rc>
   </set>
  </array>
 </atominfo>
 <structure name="initialpos" >
  <crystal>
   <varray name="basis" >
    <v>       6.27856000       0.00000000       0.00000000 </v>
    <v>       2.09285340      11.06019551       0.00000000 </v>
    <v>       0.00000000       0.00000000      28.81092446 </v>
   </varray>
   <i name="volume">   2000.69113023 </i>
   <varray name="rec_basis" >
    <v>       0.15927219      -0.03013811       0.00000000 </v>
    <v>       0.00000000       0.09041431       0.00000000 </v>
    <v>       0.00000000       0.00000000       0.03470906 </v>
   </varray>
  </crystal>
  <varray name="positions" >
   <v>       0.25630944       0.01645859       0.08783728 </v>
   <v>       0.25630944       0.01645859       0.42029486 </v>
   <v>       0.00630944       0.26645858       0.25406607 </v>
   <v>       0.00630944       0.26645858       0.58652364 </v>
   <v>       0.28550363       0.96489200       0.00524134 </v>
   <v>       0.25630944       0.01645859       0.33245757 </v>
   <v>       0.00630944       0.26645858       0.16622879 </v>
   <v>       0.00630944       0.26645858       0.49868636 </v>
   <v>       0.19220557       0.29867029       0.09632830 </v>
   <v>       0.19025794       0.21461308       0.37637622 </v>
   <v>       0.44025794       0.46461308       0.21014743 </v>
   <v>       0.44025794       0.46461308       0.54260500 </v>
   <v>       0.75630944       0.01645859       0.08783728 </v>
   <v>       0.75630944       0.01645859       0.42029486 </v>
   <v>       0.50630944       0.26645858       0.25406607 </v>
   <v>       0.50630944       0.26645858       0.58652364 </v>
   <v>       0.78550363       0.96489200       0.00524134 </v>
   <v>       0.75630944       0.01645859       0.33245757 </v>
   <v>       0.50630944       0.26645858       0.16622879 </v>
   <v>       0.50630944       0.26645858       0.49868636 </v>
   <v>       0.69220557       0.29867029       0.09632830 </v>
   <v>       0.69025794       0.21461308       0.37637622 </v>
   <v>       0.94025794       0.46461308       0.21014743 </v>
   <v>       0.94025794       0.46461308       0.54260500 </v>
   <v>       0.25630944       0.51645859       0.08783728 </v>
   <v>       0.25630944       0.51645859       0.42029486 </v>
   <v>       0.00630944       0.76645858       0.25406607 </v>
   <v>       0.00630944       0.76645858       0.58652364 </v>
   <v>       0.28550363       0.46489200       0.00524134 </v>
   <v>       0.25630944       0.51645859       0.33245757 </v>
   <v>       0.00630944       0.76645858       0.16622879 </v>
   <v>       0.00630944       0.76645858       0.49868636 </v>
   <v>       0.19220557       0.79867029       0.09632830 </v>
   <v>       0.19025794       0.71461308       0.37637622 </v>
   <v>       0.44025794       0.96461308       0.21014743 </v>
   <v>       0.44025794       0.96461308       0.54260500 </v>
   <v>       0.75630944       0.51645859       0.08783728 </v>
   <v>       0.75630944       0.51645859       0.42029486 </v>
   <v>       0.50630944       0.76645858       0.25406607 </v>
   <v>       0.50630944       0.76645858       0.58652364 </v>
   <v>       0.78550363       0.46489200       0.00524134 </v>
   <v>       0.75630944       0.51645859       0.33245757 </v>
   <v>       0.50630944       0.76645858       0.16622879 </v>
   <v>       0.50630944       0.76645858       0.49868636 </v>
   <v>       0.69220557       0.79867029       0.09632830 </v>
   <v>       0.69025794       0.71461308       0.37637622 </v>
   <v>       0.94025794       0.96461308       0.21014743 </v>
   <v>       0.94025794       0.96461308       0.54260500 </v>
   <v>       0.46840410       0.16661759       0.32045186 </v>
   <v>       0.27394815       0.21342137       0.62893850 </v>
   <v>       0.21840410       0.41661758       0.15422308 </v>
   <v>       0.21840410       0.41661758       0.48668065 </v>
   <v>       0.46840410       0.16661759       0.09984299 </v>
   <v>       0.46840410       0.16661759       0.43230056 </v>
   <v>       0.21840410       0.41661758       0.26607178 </v>
   <v>       0.20946874       0.40561428       0.58433181 </v>
   <v>       0.05251161       0.41429508       0.04391864 </v>
   <v>       0.05251161       0.41429508       0.37637622 </v>
   <v>       0.30251160       0.16429509       0.21014743 </v>
   <v>       0.30251160       0.16429509       0.54260500 </v>
   <v>       0.96840410       0.16661759       0.32045186 </v>
   <v>       0.77394815       0.21342137       0.62893850 </v>
   <v>       0.71840410       0.41661758       0.15422308 </v>
   <v>       0.71840410       0.41661758       0.48668065 </v>
   <v>       0.96840410       0.16661759       0.09984299 </v>
   <v>       0.96840410       0.16661759       0.43230056 </v>
   <v>       0.71840410       0.41661758       0.26607178 </v>
   <v>       0.70946874       0.40561428       0.58433181 </v>
   <v>       0.55251161       0.41429508       0.04391864 </v>
   <v>       0.55251161       0.41429508       0.37637622 </v>
   <v>       0.80251160       0.16429509       0.21014743 </v>
   <v>       0.80251160       0.16429509       0.54260500 </v>
   <v>       0.46840411       0.66661759       0.32045186 </v>
   <v>       0.27394815       0.71342137       0.62893850 </v>
   <v>       0.21840411       0.91661758       0.15422308 </v>
   <v>       0.21840411       0.91661758       0.48668065 </v>
   <v>       0.46840411       0.66661759       0.09984299 </v>
   <v>       0.46840411       0.66661759       0.43230056 </v>
   <v>       0.21840411       0.91661758       0.26607178 </v>
   <v>       0.20946874       0.90561428       0.58433181 </v>
   <v>       0.05251161       0.91429508       0.04391864 </v>
   <v>       0.05251161       0.91429508       0.37637622 </v>
   <v>       0.30251161       0.66429509       0.21014743 </v>
   <v>       0.30251161       0.66429509       0.54260500 </v>
   <v>       0.96840411       0.66661759       0.32045186 </v>
   <v>       0.77394815       0.71342137       0.62893850 </v>
   <v>       0.71840411       0.91661758       0.15422308 </v>
   <v>       0.71840411       0.91661758       0.48668065 </v>
   <v>       0.96840411       0.66661759       0.09984299 </v>
   <v>       0.96840411       0.66661759       0.43230056 </v>
   <v>       0.71840411       0.91661758       0.26607178 </v>
   <v>       0.70946874       0.90561428       0.58433181 </v>
   <v>       0.55251161       0.91429508       0.04391864 </v>
   <v>       0.55251161       0.91429508       0.37637622 </v>
   <v>       0.80251161       0.66429509       0.21014743 </v>
   <v>       0.80251161       0.66429509       0.54260500 </v>
  </varray>
 </structure>
 <calculation>
  <scstep>
   <time name="dav">   10.59   10.60</time>
   <time name="total">   10.88   10.89</time>
   <energy>
    <i name="alphaZ">   3305.43520074 </i>
    <i name="ewald"> 343722.45495444 </i>
    <i name="hartreedc">-509803.97967790 </i>
    <i name="XCdc">   4901.38903890 </i>
    <i name="pawpsdc"> 150306.04444553 </i>
    <i name="pawaedc">-156855.34918313 </i>
    <i name="eentropy">     -0.41661653 </i>
    <i name="bandstr">  -2105.23383997 </i>
    <i name="atom"> 181336.80673834 </i>
    <i name="e_fr_energy">  14807.15106043 </i>
    <i name="e_wo_entrp">  14807.56767696 </i>
    <i name="e_0_energy">  14807.35936870 </i>
   </energy>
  </scstep>
  <scstep>
   <time name="dav">    9.28    9.29</time>
   <time name="total">    9.29    9.29</time>
   <energy>
    <i name="e_fr_energy">   1223.12128863 </i>
    <i name="e_wo_entrp">   1223.85492542 </i>
    <i name="e_0_energy">   1223.48810703 </i>
   </energy>
  </scstep>
  <scstep>
   <time name="dav">    9.87    9.88</time>
   <time name="total">    9.88    9.88</time>
   <energy>
    <i name="e_fr_energy">   -391.29349628 </i>
    <i name="e_wo_entrp">   -390.01045705 </i>
    <i name="e_0_energy">   -390.65197667 </i>
   </energy>
  </scstep>
  <scstep>
   <time name="dav">   10.66   10.66</time>
   <time name="total">   10.66   10.66</time>
   <energy>
    <i name="e_fr_energy">   -528.09181729 </i>
    <i name="e_wo_entrp">   -526.88713384 </i>
    <i name="e_0_energy">   -527.48947557 </i>
   </energy>
  </scstep>
  <scstep>
   <time name="dav">   10.70   10.71</time>
   <time name="total">   11.00   11.01</time>
   <energy>
    <i name="e_fr_energy">   -532.54889283 </i>
    <i name="e_wo_entrp">   -531.34390692 </i>
    <i name="e_0_energy">   -531.94639987 </i>
   </energy>
  </scstep>
  <scstep>
   <time name="dav">   11.40   11.40</time>
   <time name="total">   12.01   12.01</time>
   <energy>
    <i name="e_fr_energy">   -772.53119638 </i>
    <i name="e_wo_entrp">   -771.64690701 </i>
    <i name="e_0_energy">   -772.08905169 </i>
   </energy>
  </scstep>
  <scstep>
   <time name="dav">   11.11   11.12</time>
   <time name="total">   11.67   11.68</time>
   <energy>
    <i name="e_fr_energy">   -637.66709154 </i>
    <i name="e_wo_entrp">   -637.07145572 </i>
    <i name="e_0_energy">   -637.36927363 </i>
   </energy>
  </scstep>
  <scstep>
   <time name="dav">   12.36   12.36</time>
   <time name="total">   12.93   12.93</time>
   <energy>
    <i name="e_fr_energy">   -769.33036355 </i>
    <i name="e_wo_entrp">   -768.13794393 </i>
    <i name="e_0_energy">   -768.73415374 </i>
   </energy>
  </scstep>
  <scstep>
   <time name="dav">   11.40   11.40</time>
   <time name="total">   11.96   11.96</time>
   <energy>
    <i name="e_fr_energy">   -601.93857015 </i>
    <i name="e_wo_entrp">   -601.01936470 </i>
    <i name="e_0_energy">   -601.47896743 </i>
   </energy>
  </scstep>
  <scstep>
   <time name="dav">   13.01   13.01</time>
   <time name="total">   13.58   13.58</time>
   <energy>
    <i name="e_fr_energy">   -613.00378132 </i>
    <i name="e_wo_entrp">   -611.65317039 </i>
    <i name="e_0_energy">   -612.32847586 </i>
   </energy>
  </scstep>
  <scstep>
   <time name="dav">   11.94   11.94</time>
   <time name="total">   12.50   12.50</time>
   <energy>
    <i name="e_fr_energy">   -705.99654021 </i>
    <i name="e_wo_entrp">   -704.90725012 </i>
    <i name="e_0_energy">   -705.45189517 </i>
   </energy>
  </scstep>
  <scstep>
   <time name="dav">   11.55   11.56</time>
   <time name="total">   12.11   12.12</time>
   <energy>
    <i name="e_fr_energy">   -564.56032202 </i>
    <i name="e_wo_entrp">   -563.06314486 </i>
    <i name="e_0_energy">   -563.81173344 </i>
   </energy>
  </scstep>
  <scstep>
   <time name="dav">   12.41   12.41</time>
   <time name="total">   12.97   12.97</time>
   <energy>
    <i name="e_fr_energy">   -569.20537818 </i>
    <i name="e_wo_entrp">   -567.37108985 </i>
    <i name="e_0_energy">   -568.28823402 </i>
   </energy>
  </scstep>
  <scstep>
   <time name="dav">   11.49   11.49</time>
   <time name="total">   12.05   12.05</time>
   <energy>
    <i name="e_fr_energy">   -537.11148786 </i>
    <i name="e_wo_entrp">   -535.37371703 </i>
    <i name="e_0_energy">   -536.24260245 </i>
   </energy>
  </scstep>
  <scstep>
   <time name="dav">   11.65   11.66</time>
   <time name="total">   12.22   12.24</time>
   <energy>
    <i name="e_fr_energy">   -514.08671432 </i>
    <i name="e_wo_entrp">   -512.08498197 </i>
    <i name="e_0_energy">   -513.08584815 </i>
   </energy>
  </scstep>
  <scstep>
   <time name="dav">   11.42   11.43</time>
   <time name="total">   12.00   12.00</time>
   <energy>
    <i name="e_fr_energy">   -494.15561555 </i>
    <i name="e_wo_entrp">   -493.36811702 </i>
    <i name="e_0_energy">   -493.76186628 </i>
   </energy>
  </scstep>
  <scstep>
   <time name="dav">   11.85   11.86</time>
   <time name="total">   12.43   12.43</time>
   <energy>
    <i name="e_fr_energy">   -485.18420929 </i>
    <i name="e_wo_entrp">   -484.47739379 </i>
    <i name="e_0_energy">   -484.83080154 </i>
   </energy>
  </scstep>
  <scstep>
   <time name="dav">   11.67   11.67</time>
   <time name="total">   12.24   12.25</time>
   <energy>
    <i name="e_fr_energy">   -482.03890227 </i>
    <i name="e_wo_entrp">   -481.21800899 </i>
    <i name="e_0_energy">   -481.62845563 </i>
   </energy>
  </scstep>
  <scstep>
   <time name="dav">   10.82   10.82</time>
   <time name="total">   11.39   11.39</time>
   <energy>
    <i name="e_fr_energy">   -480.63698963 </i>
    <i name="e_wo_entrp">   -479.73660514 </i>
    <i name="e_0_energy">   -480.18679738 </i>
   </energy>
  </scstep>
  <scstep>
   <time name="dav">   11.38   11.38</time>
   <time name="total">   11.95   11.96</time>
   <energy>
    <i name="e_fr_energy">   -479.33993988 </i>
    <i name="e_wo_entrp">   -478.35365538 </i>
    <i name="e_0_energy">   -478.84679763 </i>
   </energy>
  </scstep>
  <scstep>
   <time name="dav">   11.99   11.99</time>
   <time name="total">   12.81   12.82</time>
   <energy>
    <i name="e_fr_energy">   -476.15680654 </i>
    <i name="e_wo_entrp">   -475.04424516 </i>
    <i name="e_0_energy">   -475.60052585 </i>
   </energy>
  </scstep>
  <scstep>
   <time name="dav">   11.67   11.67</time>
   <time name="total">   12.25   12.25</time>
   <energy>
    <i name="e_fr_energy">   -474.94361517 </i>
    <i name="e_wo_entrp">   -473.77135155 </i>
    <i name="e_0_energy">   -474.35748336 </i>
   </energy>
  </scstep>
  <scstep>
   <time name="dav">   11.78   11.78</time>
   <time name="total">   12.36   12.36</time>
   <energy>
    <i name="e_fr_energy">   -473.25805721 </i>
    <i name="e_wo_entrp">   -472.08477306 </i>
    <i name="e_0_energy">   -472.67141514 </i>
   </energy>
  </scstep>
  <scstep>
   <time name="dav">   12.09   12.09</time>
   <time name="total">   12.68   12.68</time>
   <energy>
    <i name="e_fr_energy">   -471.62927847 </i>
    <i name="e_wo_entrp">   -470.38059005 </i>
    <i name="e_0_energy">   -471.00493426 </i>
   </energy>
  </scstep>
  <scstep>
   <time name="dav">   12.03   12.03</time>
   <time name="total">   12.61   12.61</time>
   <energy>
    <i name="e_fr_energy">   -470.77756494 </i>
    <i name="e_wo_entrp">   -469.44918086 </i>
    <i name="e_0_energy">   -470.11337290 </i>
   </energy>
  </scstep>
  <scstep>
   <time name="dav">   11.56   11.56</time>
   <time name="total">   12.14   12.14</time>
   <energy>
    <i name="e_fr_energy">   -470.53054951 </i>
    <i name="e_wo_entrp">   -469.17883069 </i>
    <i name="e_0_energy">   -469.85469010 </i>
   </energy>
  </scstep>
  <scstep>
   <time name="dav">   11.43   11.43</time>
   <time name="total">   12.02   12.02</time>
   <energy>
    <i name="e_fr_energy">   -470.61082711 </i>
    <i name="e_wo_entrp">   -469.29733529 </i>
    <i name="e_0_energy">   -469.95408120 </i>
   </energy>
  </scstep>
  <scstep>
   <time name="dav">   11.89   11.89</time>
   <time name="total">   12.47   12.48</time>
   <energy>
    <i name="e_fr_energy">   -470.39049178 </i>
    <i name="e_wo_entrp">   -468.95769925 </i>
    <i name="e_0_energy">   -469.67409552 </i>
   </energy>
  </scstep>
  <scstep>
   <time name="dav">   11.14   11.15</time>
   <time name="total">   11.82   11.83</time>
   <energy>
    <i name="e_fr_energy">   -470.36227081 </i>
    <i name="e_wo_entrp">   -468.95611650 </i>
    <i name="e_0_energy">   -469.65919366 </i>
   </energy>
  </scstep>
  <scstep>
   <time name="dav">   11.51   11.52</time>
   <time name="total">   12.10   12.10</time>
   <energy>
    <i name="e_fr_energy">   -470.34598318 </i>
    <i name="e_wo_entrp">   -468.95090289 </i>
    <i name="e_0_energy">   -469.64844303 </i>
   </energy>
  </scstep>
  <scstep>
   <time name="dav">   12.03   12.03</time>
   <time name="total">   12.62   12.63</time>
   <energy>
    <i name="e_fr_energy">   -470.32111852 </i>
    <i name="e_wo_entrp">   -468.92769592 </i>
    <i name="e_0_energy">   -469.62440722 </i>
   </energy>
  </scstep>
  <scstep>
   <time name="dav">   10.98   10.99</time>
   <time name="total">   11.57   11.58</time>
   <energy>
    <i name="e_fr_energy">   -470.32393044 </i>
    <i name="e_wo_entrp">   -468.92449912 </i>
    <i name="e_0_energy">   -469.62421478 </i>
   </energy>
  </scstep>
  <scstep>
   <time name="dav">   11.03   11.03</time>
   <time name="total">   11.62   11.62</time>
   <energy>
    <i name="e_fr_energy">   -470.32423345 </i>
    <i name="e_wo_entrp">   -468.91371445 </i>
    <i name="e_0_energy">   -469.61897395 </i>
   </energy>
  </scstep>
  <scstep>
   <time name="dav">    9.95    9.95</time>
   <time name="total">   10.56   10.57</time>
   <energy>
    <i name="e_fr_energy">   -470.32300000 </i>
    <i name="e_wo_entrp">   -468.91601457 </i>
    <i name="e_0_energy">   -469.61950728 </i>
   </energy>
  </scstep>
  <scstep>
   <time name="dav">   11.26   11.27</time>
   <time name="total">   12.08   12.09</time>
   <energy>
    <i name="e_fr_energy">   -470.32084678 </i>
    <i name="e_wo_entrp">   -468.91846174 </i>
    <i name="e_0_energy">   -469.61965426 </i>
   </energy>
  </scstep>
  <scstep>
   <time name="dav">    9.89    9.90</time>
   <time name="total">   10.73   10.73</time>
   <energy>
    <i name="e_fr_energy">   -470.31992590 </i>
    <i name="e_wo_entrp">   -468.91587899 </i>
    <i name="e_0_energy">   -469.61790245 </i>
   </energy>
  </scstep>
  <scstep>
   <time name="dav">   10.12   10.13</time>
   <time name="total">   10.93   10.95</time>
   <energy>
    <i name="e_fr_energy">   -470.31925657 </i>
    <i name="e_wo_entrp">   -468.91543490 </i>
    <i name="e_0_energy">   -469.61734574 </i>
   </energy>
  </scstep>
  <scstep>
   <time name="dav">    8.29    8.29</time>
   <time name="total">    8.88    8.88</time>
   <energy>
    <i name="e_fr_energy">   -470.31840481 </i>
    <i name="e_wo_entrp">   -468.91598282 </i>
    <i name="e_0_energy">   -469.61719381 </i>
   </energy>
  </scstep>
  <scstep>
   <time name="dav">    9.28    9.29</time>
   <time name="total">    9.88    9.88</time>
   <energy>
    <i name="e_fr_energy">   -470.31811538 </i>
    <i name="e_wo_entrp">   -468.91797812 </i>
    <i name="e_0_energy">   -469.61804675 </i>
   </energy>
  </scstep>
  <scstep>
   <time name="dav">    8.99    9.00</time>
   <time name="total">    9.59    9.60</time>
   <energy>
    <i name="e_fr_energy">   -470.31825187 </i>
    <i name="e_wo_entrp">   -468.91875955 </i>
    <i name="e_0_energy">   -469.61850571 </i>
   </energy>
  </scstep>
  <scstep>
   <time name="dav">    6.87    6.87</time>
   <time name="total">    7.47    7.47</time>
   <energy>
    <i name="e_fr_energy">   -470.31835663 </i>
    <i name="e_wo_entrp">   -468.91986779 </i>
    <i name="e_0_energy">   -469.61911221 </i>
   </energy>
  </scstep>
  <scstep>
   <time name="dav">    6.77    6.77</time>
   <time name="total">    7.62    7.62</time>
   <energy>
    <i name="e_fr_energy">   -470.31849892 </i>
    <i name="e_wo_entrp">   -468.92101622 </i>
    <i name="e_0_energy">   -469.61975757 </i>
   </energy>
  </scstep>
  <scstep>
   <time name="dav">    6.58    6.58</time>
   <time name="total">    7.19    7.19</time>
   <energy>
    <i name="e_fr_energy">   -470.31860808 </i>
    <i name="e_wo_entrp">   -468.92008681 </i>
    <i name="e_0_energy">   -469.61934744 </i>
   </energy>
  </scstep>
  <scstep>
   <time name="dav">    6.63    6.63</time>
   <time name="total">    7.24    7.24</time>
   <energy>
    <i name="e_fr_energy">   -470.31871525 </i>
    <i name="e_wo_entrp">   -468.92066345 </i>
    <i name="e_0_energy">   -469.61968935 </i>
   </energy>
  </scstep>
  <scstep>
   <time name="dav">    6.65    6.66</time>
   <time name="total">    6.93    6.94</time>
   <energy>
    <i name="alphaZ">   3305.43520074 </i>
    <i name="ewald"> 343722.45495444 </i>
    <i name="hartreedc">-508759.95956855 </i>
    <i name="XCdc">   4862.83690149 </i>
    <i name="pawpsdc"> 181003.82291287 </i>
    <i name="pawaedc">-187631.04208715 </i>
    <i name="eentropy">     -1.39809552 </i>
    <i name="bandstr"> -18309.27576262 </i>
    <i name="atom"> 181336.80673834 </i>
    <i name="e_fr_energy">   -470.31880596 </i>
    <i name="e_wo_entrp">   -468.92071044 </i>
    <i name="e_0_energy">   -469.61975820 </i>
   </energy>
  </scstep>
  <structure>
   <crystal>
    <varray name="basis" >
     <v>       6.27856000       0.00000000       0.00000000 </v>
     <v>       2.09285340      11.06019551       0.00000000 </v>
     <v>       0.00000000       0.00000000      28.81092446 </v>
    </varray>
    <i name="volume">   2000.69113023 </i>
    <varray name="rec_basis" >
     <v>       0.15927219      -0.03013811       0.00000000 </v>
     <v>       0.00000000       0.09041431       0.00000000 </v>
     <v>       0.00000000       0.00000000       0.03470906 </v>
    </varray>
   </crystal>
   <varray name="positions" >
    <v>       0.25630944       0.01645859       0.08783728 </v>
    <v>       0.25630944       0.01645859       0.42029486 </v>
    <v>       0.00630944       0.26645858       0.25406607 </v>
    <v>       0.00630944       0.26645858       0.58652364 </v>
    <v>       0.28550363       0.96489200       0.00524134 </v>
    <v>       0.25630944       0.01645859       0.33245757 </v>
    <v>       0.00630944       0.26645858       0.16622879 </v>
    <v>       0.00630944       0.26645858       0.49868636 </v>
    <v>       0.19220557       0.29867029       0.09632830 </v>
    <v>       0.19025794       0.21461308       0.37637622 </v>
    <v>       0.44025794       0.46461308       0.21014743 </v>
    <v>       0.44025794       0.46461308       0.54260500 </v>
    <v>       0.75630944       0.01645859       0.08783728 </v>
    <v>       0.75630944       0.01645859       0.42029486 </v>
    <v>       0.50630944       0.26645858       0.25406607 </v>
    <v>       0.50630944       0.26645858       0.58652364 </v>
    <v>       0.78550363       0.96489200       0.00524134 </v>
    <v>       0.75630944       0.01645859       0.33245757 </v>
    <v>       0.50630944       0.26645858       0.16622879 </v>
    <v>       0.50630944       0.26645858       0.49868636 </v>
    <v>       0.69220557       0.29867029       0.09632830 </v>
    <v>       0.69025794       0.21461308       0.37637622 </v>
    <v>       0.94025794       0.46461308       0.21014743 </v>
    <v>       0.94025794       0.46461308       0.54260500 </v>
    <v>       0.25630944       0.51645859       0.08783728 </v>
    <v>       0.25630944       0.51645859       0.42029486 </v>
    <v>       0.00630944       0.76645858       0.25406607 </v>
    <v>       0.00630944       0.76645858       0.58652364 </v>
    <v>       0.28550363       0.46489200       0.00524134 </v>
    <v>       0.25630944       0.51645859       0.33245757 </v>
    <v>       0.00630944       0.76645858       0.16622879 </v>
    <v>       0.00630944       0.76645858       0.49868636 </v>
    <v>       0.19220557       0.79867029       0.09632830 </v>
    <v>       0.19025794       0.71461308       0.37637622 </v>
    <v>       0.44025794       0.96461308       0.21014743 </v>
    <v>       0.44025794       0.96461308       0.54260500 </v>
    <v>       0.75630944       0.51645859       0.08783728 </v>
    <v>       0.75630944       0.51645859       0.42029486 </v>
    <v>       0.50630944       0.76645858       0.25406607 </v>
    <v>       0.50630944       0.76645858       0.58652364 </v>
    <v>       0.78550363       0.46489200       0.00524134 </v>
    <v>       0.75630944       0.51645859       0.33245757 </v>
    <v>       0.50630944       0.76645858       0.16622879 </v>
    <v>       0.50630944       0.76645858       0.49868636 </v>
    <v>       0.69220557       0.79867029       0.09632830 </v>
    <v>       0.69025794       0.71461308       0.37637622 </v>
    <v>       0.94025794       0.96461308       0.21014743 </v>
    <v>       0.94025794       0.96461308       0.54260500 </v>
    <v>       0.46840410       0.16661759       0.32045186 </v>
    <v>       0.27394815       0.21342137       0.62893850 </v>
    <v>       0.21840410       0.41661758       0.15422308 </v>
    <v>       0.21840410       0.41661758       0.48668065 </v>
    <v>       0.46840410       0.16661759       0.09984299 </v>
    <v>       0.46840410       0.16661759       0.43230056 </v>
    <v>       0.21840410       0.41661758       0.26607178 </v>
    <v>       0.20946874       0.40561428       0.58433181 </v>
    <v>       0.05251161       0.41429508       0.04391864 </v>
    <v>       0.05251161       0.41429508       0.37637622 </v>
    <v>       0.30251160       0.16429509       0.21014743 </v>
    <v>       0.30251160       0.16429509       0.54260500 </v>
    <v>       0.96840410       0.16661759       0.32045186 </v>
    <v>       0.77394815       0.21342137       0.62893850 </v>
    <v>       0.71840410       0.41661758       0.15422308 </v>
    <v>       0.71840410       0.41661758       0.48668065 </v>
    <v>       0.96840410       0.16661759       0.09984299 </v>
    <v>       0.96840410       0.16661759       0.43230056 </v>
    <v>       0.71840410       0.41661758       0.26607178 </v>
    <v>       0.70946874       0.40561428       0.58433181 </v>
    <v>       0.55251161       0.41429508       0.04391864 </v>
    <v>       0.55251161       0.41429508       0.37637622 </v>
    <v>       0.80251160       0.16429509       0.21014743 </v>
    <v>       0.80251160       0.16429509       0.54260500 </v>
    <v>       0.46840411       0.66661759       0.32045186 </v>
    <v>       0.27394815       0.71342137       0.62893850 </v>
    <v>       0.21840411       0.91661758       0.15422308 </v>
    <v>       0.21840411       0.91661758       0.48668065 </v>
    <v>       0.46840411       0.66661759       0.09984299 </v>
    <v>       0.46840411       0.66661759       0.43230056 </v>
    <v>       0.21840411       0.91661758       0.26607178 </v>
    <v>       0.20946874       0.90561428       0.58433181 </v>
    <v>       0.05251161       0.91429508       0.04391864 </v>
    <v>       0.05251161       0.91429508       0.37637622 </v>
    <v>       0.30251161       0.66429509       0.21014743 </v>
    <v>       0.30251161       0.66429509       0.54260500 </v>
    <v>       0.96840411       0.66661759       0.32045186 </v>
    <v>       0.77394815       0.71342137       0.62893850 </v>
    <v>       0.71840411       0.91661758       0.15422308 </v>
    <v>       0.71840411       0.91661758       0.48668065 </v>
    <v>       0.96840411       0.66661759       0.09984299 </v>
    <v>       0.96840411       0.66661759       0.43230056 </v>
    <v>       0.71840411       0.91661758       0.26607178 </v>
    <v>       0.70946874       0.90561428       0.58433181 </v>
    <v>       0.55251161       0.91429508       0.04391864 </v>
    <v>       0.55251161       0.91429508       0.37637622 </v>
    <v>       0.80251161       0.66429509       0.21014743 </v>
    <v>       0.80251161       0.66429509       0.54260500 </v>
   </varray>
  </structure>
  <varray name="forces" >
   <v>       0.13490695       1.02378695       0.40079453 </v>
   <v>       0.11657439       0.12584596      -0.35714065 </v>
   <v>       0.08747717       0.10541894      -0.25823114 </v>
   <v>       0.12411304       0.05099923      -2.16166290 </v>
   <v>       0.05472821      -0.14356887       0.20409021 </v>
   <v>       0.09284255       0.17791597       0.35327868 </v>
   <v>      -0.32721461      -0.41932021       1.39943806 </v>
   <v>      -0.05319545      -0.18771318      -0.49984684 </v>
   <v>      -0.85934288      -0.40582588      -0.13252518 </v>
   <v>       0.14050064      -0.38548447       0.01494717 </v>
   <v>       0.16834297      -0.36322804       0.20453148 </v>
   <v>      -0.00471042       0.43973902      -2.46142838 </v>
   <v>       0.13490695       1.02378695       0.40079453 </v>
   <v>       0.11657439       0.12584596      -0.35714065 </v>
   <v>       0.08747717       0.10541894      -0.25823114 </v>
   <v>       0.12411304       0.05099923      -2.16166290 </v>
   <v>       0.05472821      -0.14356887       0.20409021 </v>
   <v>       0.09284255       0.17791597       0.35327868 </v>
   <v>      -0.32721461      -0.41932021       1.39943806 </v>
   <v>      -0.05319545      -0.18771318      -0.49984684 </v>
   <v>      -0.85934288      -0.40582588      -0.13252518 </v>
   <v>       0.14050064      -0.38548447       0.01494717 </v>
   <v>       0.16834297      -0.36322804       0.20453148 </v>
   <v>      -0.00471042       0.43973902      -2.46142838 </v>
   <v>       0.13490695       1.02378695       0.40079453 </v>
   <v>       0.11657439       0.12584596      -0.35714065 </v>
   <v>       0.08747717       0.10541894      -0.25823114 </v>
   <v>       0.12411304       0.05099923      -2.16166290 </v>
   <v>       0.05472821      -0.14356887       0.20409021 </v>
   <v>       0.09284255       0.17791597       0.35327868 </v>
   <v>      -0.32721461      -0.41932021       1.39943806 </v>
   <v>      -0.05319545      -0.18771318      -0.49984684 </v>
   <v>      -0.85934288      -0.40582588      -0.13252518 </v>
   <v>       0.14050064      -0.38548447       0.01494717 </v>
   <v>       0.16834297      -0.36322804       0.20453148 </v>
   <v>      -0.00471042       0.43973902      -2.46142838 </v>
   <v>       0.13490695       1.02378695       0.40079453 </v>
   <v>       0.11657439       0.12584596      -0.35714065 </v>
   <v>       0.08747717       0.10541894      -0.25823114 </v>
   <v>       0.12411304       0.05099923      -2.16166290 </v>
   <v>       0.05472821      -0.14356887       0.20409021 </v>
   <v>       0.09284255       0.17791597       0.35327868 </v>
   <v>      -0.32721461      -0.41932021       1.39943806 </v>
   <v>      -0.05319545      -0.18771318      -0.49984684 </v>
   <v>      -0.85934288      -0.40582588      -0.13252518 </v>
   <v>       0.14050064      -0.38548447       0.01494717 </v>
   <v>       0.16834297      -0.36322804       0.20453148 </v>
   <v>      -0.00471042       0.43973902      -2.46142838 </v>
   <v>      -0.09284632      -0.22889780       0.38497697 </v>
   <v>      -0.04244593      -1.59567104       3.66768873 </v>
   <v>      -0.24925139       0.61903981       0.70788112 </v>
   <v>      -0.14529717       0.03436120      -0.62677926 </v>
   <v>       1.31858043      -1.38863701      -0.20255913 </v>
   <v>      -0.13245787      -0.22945841      -0.29242687 </v>
   <v>      -0.05369660      -0.24813942      -0.46455584 </v>
   <v>      -0.23461423       1.97306421       3.34380557 </v>
   <v>      -0.15663445       0.75458787      -2.19373355 </v>
   <v>      -0.12466313       0.53334608       0.03853537 </v>
   <v>      -0.11765886       0.46122704       0.05501565 </v>
   <v>       0.35596296      -0.70338791      -1.12409379 </v>
   <v>      -0.09284632      -0.22889780       0.38497697 </v>
   <v>      -0.04244593      -1.59567104       3.66768873 </v>
   <v>      -0.24925139       0.61903981       0.70788112 </v>
   <v>      -0.14529717       0.03436120      -0.62677926 </v>
   <v>       1.31858043      -1.38863701      -0.20255913 </v>
   <v>      -0.13245787      -0.22945841      -0.29242687 </v>
   <v>      -0.05369660      -0.24813942      -0.46455584 </v>
   <v>      -0.23461423       1.97306421       3.34380557 </v>
   <v>      -0.15663445       0.75458787      -2.19373355 </v>
   <v>      -0.12466313       0.53334608       0.03853537 </v>
   <v>      -0.11765886       0.46122704       0.05501565 </v>
   <v>       0.35596296      -0.70338791      -1.12409379 </v>
   <v>      -0.09284632      -0.22889780       0.38497697 </v>
   <v>      -0.04244593      -1.59567104       3.66768873 </v>
   <v>      -0.24925139       0.61903981       0.70788112 </v>
   <v>      -0.14529717       0.03436120      -0.62677926 </v>
   <v>       1.31858043      -1.38863701      -0.20255913 </v>
   <v>      -0.13245787      -0.22945841      -0.29242687 </v>
   <v>      -0.05369660      -0.24813942      -0.46455584 </v>
   <v>      -0.23461423       1.97306421       3.34380557 </v>
   <v>      -0.15663445       0.75458787      -2.19373355 </v>
   <v>      -0.12466313       0.53334608       0.03853537 </v>
   <v>      -0.11765886       0.46122704       0.05501565 </v>
   <v>       0.35596296      -0.70338791      -1.12409379 </v>
   <v>      -0.09284632      -0.22889780       0.38497697 </v>
   <v>      -0.04244593      -1.59567104       3.66768873 </v>
   <v>      -0.24925139       0.61903981       0.70788112 </v>
   <v>      -0.14529717       0.03436120      -0.62677926 </v>
   <v>       1.31858043      -1.38863701      -0.20255913 </v>
   <v>      -0.13245787      -0.22945841      -0.29242687 </v>
   <v>      -0.05369660      -0.24813942      -0.46455584 </v>
   <v>      -0.23461423       1.97306421       3.34380557 </v>
   <v>      -0.15663445       0.75458787      -2.19373355 </v>
   <v>      -0.12466313       0.53334608       0.03853537 </v>
   <v>      -0.11765886       0.46122704       0.05501565 </v>
   <v>       0.35596296      -0.70338791      -1.12409379 </v>
  </varray>
  <varray name="stress" >
   <v>      70.66894961      -3.73027243      -2.03354644 </v>
   <v>      -3.73027247      28.66267357      -7.91032338 </v>
   <v>      -2.03354678      -7.91032361      51.67257609 </v>
  </varray>
  <energy>
   <i name="e_fr_energy">   -470.31880596 </i>
   <i name="e_wo_entrp">   -469.61975820 </i>
   <i name="e_0_energy">     -1.39809552 </i>
  </energy>
  <time name="totalsc">  513.01  513.16</time>
  <eigenvalues>
   <array>
    <dimension dim="1">band</dimension>
    <dimension dim="2">kpoint</dimension>
    <dimension dim="3">spin</dimension>
    <field>eigene</field>
    <field>occ</field>
    <set>
     <set comment="spin 1">
      <set comment="kpoint 1">
       <r>  -61.6813    1.0000 </r>
       <r>  -61.6813    1.0000 </r>
       <r>  -61.6713    1.0000 </r>
       <r>  -61.6713    1.0000 </r>
       <r>  -61.3113    1.0000 </r>
       <r>  -61.3113    1.0000 </r>
       <r>  -61.3103    1.0000 </r>
       <r>  -61.3103    1.0000 </r>
       <r>  -61.1224    1.0000 </r>
       <r>  -61.1223    1.0000 </r>
       <r>  -61.1136    1.0000 </r>
       <r>  -61.1136    1.0000 </r>
       <r>  -60.9887    1.0000 </r>
       <r>  -60.9887    1.0000 </r>
       <r>  -60.9878    1.0000 </r>
       <r>  -60.9877    1.0000 </r>
       <r>  -60.8677    1.0000 </r>
       <r>  -60.8677    1.0000 </r>
       <r>  -60.8669    1.0000 </r>
       <r>  -60.8669    1.0000 </r>
       <r>  -60.7594    1.0000 </r>
       <r>  -60.7594    1.0000 </r>
       <r>  -60.7526    1.0000 </r>
       <r>  -60.7526    1.0000 </r>
       <r>  -60.7314    1.0000 </r>
       <r>  -60.7313    1.0000 </r>
       <r>  -60.7308    1.0000 </r>
       <r>  -60.7307    1.0000 </r>
       <r>  -60.7266    1.0000 </r>
       <r>  -60.7266    1.0000 </r>
       <r>  -60.7196    1.0000 </r>
       <r>  -60.7196    1.0000 </r>
       <r>  -60.7184    1.0000 </r>
       <r>  -60.7184    1.0000 </r>
       <r>  -60.7184    1.0000 </r>
       <r>  -60.7183    1.0000 </r>
       <r>  -60.7078    1.0000 </r>
       <r>  -60.7078    1.0000 </r>
       <r>  -60.7075    1.0000 </r>
       <r>  -60.7075    1.0000 </r>
       <r>  -60.7068    1.0000 </r>
       <r>  -60.7068    1.0000 </r>
       <r>  -60.7039    1.0000 </r>
       <r>  -60.7039    1.0000 </r>
       <r>  -60.7017    1.0000 </r>
       <r>  -60.7017    1.0000 </r>
       <r>  -60.6996    1.0000 </r>
       <r>  -60.6996    1.0000 </r>
       <r>  -60.6975    1.0000 </r>
       <r>  -60.6975    1.0000 </r>
       <r>  -60.6933    1.0000 </r>
       <r>  -60.6933    1.0000 </r>
       <r>  -60.6907    1.0000 </r>
       <r>  -60.6906    1.0000 </r>
       <r>  -60.6893    1.0000 </r>
       <r>  -60.6892    1.0000 </r>
       <r>  -60.6599    1.0000 </r>
       <r>  -60.6598    1.0000 </r>
       <r>  -60.6596    1.0000 </r>
       <r>  -60.6596    1.0000 </r>
       <r>  -60.6331    1.0000 </r>
       <r>  -60.6330    1.0000 </r>
       <r>  -60.6300    1.0000 </r>
       <r>  -60.6300    1.0000 </r>
       <r>  -60.5886    1.0000 </r>
       <r>  -60.5886    1.0000 </r>
       <r>  -60.5849    1.0000 </r>
       <r>  -60.5849    1.0000 </r>
       <r>  -60.5790    1.0000 </r>
       <r>  -60.5788    1.0000 </r>
       <r>  -60.5783    1.0000 </r>
       <r>  -60.5781    1.0000 </r>
       <r>  -60.5511    1.0000 </r>
       <r>  -60.5508    1.0000 </r>
       <r>  -60.5506    1.0000 </r>
       <r>  -60.5503    1.0000 </r>
       <r>  -60.5193    1.0000 </r>
       <r>  -60.5186    1.0000 </r>
       <r>  -60.5179    1.0000 </r>
       <r>  -60.5172    1.0000 </r>
       <r>  -60.5162    1.0000 </r>
       <r>  -60.5162    1.0000 </r>
       <r>  -60.5088    1.0000 </r>
       <r>  -60.5088    1.0000 </r>
       <r>  -60.4140    1.0000 </r>
       <r>  -60.4140    1.0000 </r>
       <r>  -60.4134    1.0000 </r>
       <r>  -60.4134    1.0000 </r>
       <r>  -60.4109    1.0000 </r>
       <r>  -60.4109    1.0000 </r>
       <r>  -60.4107    1.0000 </r>
       <r>  -60.4107    1.0000 </r>
       <r>  -60.3813    1.0000 </r>
       <r>  -60.3813    1.0000 </r>
       <r>  -60.3768    1.0000 </r>
       <r>  -60.3768    1.0000 </r>
       <r>  -60.3514    1.0000 </r>
       <r>  -60.3513    1.0000 </r>
       <r>  -60.3508    1.0000 </r>
       <r>  -60.3508    1.0000 </r>
       <r>  -60.3375    1.0000 </r>
       <r>  -60.3368    1.0000 </r>
       <r>  -60.3368    1.0000 </r>
       <r>  -60.3366    1.0000 </r>
       <r>  -60.3365    1.0000 </r>
       <r>  -60.3361    1.0000 </r>
       <r>  -60.3361    1.0000 </r>
       <r>  -60.3361    1.0000 </r>
       <r>  -60.3271    1.0000 </r>
       <r>  -60.3270    1.0000 </r>
       <r>  -60.3266    1.0000 </r>
       <r>  -60.3265    1.0000 </r>
       <r>  -60.3012    1.0000 </r>
       <r>  -60.3011    1.0000 </r>
       <r>  -60.3007    1.0000 </r>
       <r>  -60.3006    1.0000 </r>
       <r>  -60.2148    1.0000 </r>
       <r>  -60.2148    1.0000 </r>
       <r>  -60.2143    1.0000 </r>
       <r>  -60.2142    1.0000 </r>
       <r>  -60.1987    1.0000 </r>
       <r>  -60.1986    1.0000 </r>
       <r>  -60.1909    1.0000 </r>
       <r>  -60.1909    1.0000 </r>
       <r>  -60.1370    1.0000 </r>
       <r>  -60.1370    1.0000 </r>
       <r>  -60.1342    1.0000 </r>
       <r>  -60.1342    1.0000 </r>
       <r>  -59.9782    1.0000 </r>
       <r>  -59.9781    1.0000 </r>
       <r>  -59.9776    1.0000 </r>
       <r>  -59.9775    1.0000 </r>
       <r>  -59.9062    1.0000 </r>
       <r>  -59.9062    1.0000 </r>
       <r>  -59.8969    1.0000 </r>
       <r>  -59.8969    1.0000 </r>
       <r>  -59.6019    1.0000 </r>
       <r>  -59.6019    1.0000 </r>
       <r>  -59.6010    1.0000 </r>
       <r>  -59.6010    1.0000 </r>
       <r>  -59.1447    1.0000 </r>
       <r>  -59.1447    1.0000 </r>
       <r>  -59.1440    1.0000 </r>
       <r>  -59.1440    1.0000 </r>
       <r>  -13.2361    1.0000 </r>
       <r>  -12.9294    1.0000 </r>
       <r>  -12.5263    1.0000 </r>
       <r>  -12.1735    1.0000 </r>
       <r>  -12.0643    1.0000 </r>
       <r>  -11.8025    1.0000 </r>
       <r>  -11.7739    1.0000 </r>
       <r>  -11.7466    1.0000 </r>
       <r>  -11.6888    1.0000 </r>
       <r>  -11.6028    1.0000 </r>
       <r>  -11.5257    1.0000 </r>
       <r>  -11.3460    1.0000 </r>
       <r>  -11.3257    1.0000 </r>
       <r>  -11.2705    1.0000 </r>
       <r>  -11.0578    1.0000 </r>
       <r>  -11.0126    1.0000 </r>
       <r>  -10.8975    1.0000 </r>
       <r>  -10.8936    1.0000 </r>
       <r>  -10.8750    1.0000 </r>
       <r>  -10.8578    1.0000 </r>
       <r>  -10.7807    1.0000 </r>
       <r>  -10.7189    1.0000 </r>
       <r>  -10.6795    1.0000 </r>
       <r>  -10.6593    1.0000 </r>
       <r>  -10.5878    1.0000 </r>
       <r>  -10.5770    1.0000 </r>
       <r>  -10.5661    1.0000 </r>
       <r>  -10.5050    1.0000 </r>
       <r>  -10.4947    1.0000 </r>
       <r>  -10.4213    1.0000 </r>
       <r>  -10.4129    1.0000 </r>
       <r>  -10.2224    1.0000 </r>
       <r>  -10.1812    1.0000 </r>
       <r>  -10.1803    1.0000 </r>
       <r>  -10.1168    1.0000 </r>
       <r>  -10.0902    1.0000 </r>
       <r>  -10.0621    1.0000 </r>
       <r>  -10.0407    1.0000 </r>
       <r>   -9.9678    1.0000 </r>
       <r>   -9.9231    1.0000 </r>
       <r>   -9.8863    1.0000 </r>
       <r>   -9.7617    1.0000 </r>
       <r>   -9.7541    1.0000 </r>
       <r>   -9.7272    1.0000 </r>
       <r>   -9.5718    1.0000 </r>
       <r>   -9.5573    1.0000 </r>
       <r>   -8.9810    1.0000 </r>
       <r>   -8.9396    1.0000 </r>
       <r>   -5.1351    1.0000 </r>
       <r>   -5.0150    1.0000 </r>
       <r>   -4.6214    1.0000 </r>
       <r>   -4.6005    1.0000 </r>
       <r>   -4.5613    1.0000 </r>
       <r>   -4.5569    1.0000 </r>
       <r>   -4.4818    1.0000 </r>
       <r>   -4.4685    1.0000 </r>
       <r>   -4.3491    1.0000 </r>
       <r>   -4.3124    1.0000 </r>
       <r>   -4.2408    1.0000 </r>
       <r>   -4.0832    1.0000 </r>
       <r>   -4.0049    1.0000 </r>
       <r>   -3.9230    1.0000 </r>
       <r>   -3.8617    1.0000 </r>
       <r>   -3.8189    1.0000 </r>
       <r>   -3.7878    1.0000 </r>
       <r>   -3.6542    1.0000 </r>
       <r>   -3.6404    1.0000 </r>
       <r>   -3.6199    1.0000 </r>
       <r>   -3.6066    1.0000 </r>
       <r>   -3.5960    1.0000 </r>
       <r>   -3.5270    1.0000 </r>
       <r>   -3.5026    1.0000 </r>
       <r>   -3.4909    1.0000 </r>
       <r>   -3.4519    1.0000 </r>
       <r>   -3.4352    1.0000 </r>
       <r>   -3.4099    1.0000 </r>
       <r>   -3.3481    1.0000 </r>
       <r>   -3.3476    1.0000 </r>
       <r>   -3.3203    1.0000 </r>
       <r>   -3.2249    1.0000 </r>
       <r>   -3.2029    1.0000 </r>
       <r>   -3.1889    1.0000 </r>
       <r>   -3.1759    1.0000 </r>
       <r>   -3.1560    1.0000 </r>
       <r>   -2.9795    1.0000 </r>
       <r>   -2.8993    1.0000 </r>
       <r>   -2.8721    1.0000 </r>
       <r>   -2.8202    1.0000 </r>
       <r>   -2.7862    1.0000 </r>
       <r>   -2.7722    1.0000 </r>
       <r>   -2.7010    1.0000 </r>
       <r>   -2.6455    1.0000 </r>
       <r>   -2.6306    1.0000 </r>
       <r>   -2.5069    1.0000 </r>
       <r>   -2.4897    1.0000 </r>
       <r>   -2.4463    1.0000 </r>
       <r>   -2.4463    1.0000 </r>
       <r>   -2.3929    1.0000 </r>
       <r>   -2.3743    1.0000 </r>
       <r>   -2.2780    1.0000 </r>
       <r>   -2.2269    1.0000 </r>
       <r>   -2.1920    1.0000 </r>
       <r>   -2.1281    1.0000 </r>
       <r>   -2.1174    1.0000 </r>
       <r>   -2.0991    1.0000 </r>
       <r>   -2.0969    1.0000 </r>
       <r>   -2.0631    1.0000 </r>
       <r>   -2.0590    1.0000 </r>
       <r>   -2.0356    1.0000 </r>
       <r>   -2.0270    1.0000 </r>
       <r>   -2.0146    1.0000 </r>
       <r>   -1.9320    1.0000 </r>
       <r>   -1.8887    1.0000 </r>
       <r>   -1.7874    1.0000 </r>
       <r>   -1.7340    1.0000 </r>
       <r>   -1.6663    1.0000 </r>
       <r>   -1.6464    1.0000 </r>
       <r>   -1.6089    1.0000 </r>
       <r>   -1.6083    1.0000 </r>
       <r>   -1.6062    1.0000 </r>
       <r>   -1.5859    1.0000 </r>
       <r>   -1.5642    1.0000 </r>
       <r>   -1.5484    1.0000 </r>
       <r>   -1.5005    1.0000 </r>
       <r>   -1.4857    1.0000 </r>
       <r>   -1.4461    1.0000 </r>
       <r>   -1.4188    1.0000 </r>
       <r>   -1.3717    1.0000 </r>
       <r>   -1.3420    1.0000 </r>
       <r>   -1.3250    1.0000 </r>
       <r>   -1.3243    1.0000 </r>
       <r>   -1.3127    1.0000 </r>
       <r>   -1.2971    1.0000 </r>
       <r>   -1.2602    1.0000 </r>
       <r>   -1.2442    1.0000 </r>
       <r>   -1.2409    1.0000 </r>
       <r>   -1.2099    1.0000 </r>
       <r>   -1.2045    1.0000 </r>
       <r>   -1.1740    1.0000 </r>
       <r>   -1.1670    1.0000 </r>
       <r>   -1.1493    1.0000 </r>
       <r>   -1.0585    1.0000 </r>
       <r>   -1.0333    1.0000 </r>
       <r>   -1.0309    1.0000 </r>
       <r>   -0.9888    1.0000 </r>
       <r>   -0.9866    1.0000 </r>
       <r>   -0.9264    1.0000 </r>
       <r>   -0.9252    1.0000 </r>
       <r>   -0.9198    1.0000 </r>
       <r>   -0.9002    1.0000 </r>
       <r>   -0.8799    1.0000 </r>
       <r>   -0.8704    1.0000 </r>
       <r>   -0.8631    1.0000 </r>
       <r>   -0.8510    1.0000 </r>
       <r>   -0.8410    1.0000 </r>
       <r>   -0.7908    1.0000 </r>
       <r>   -0.7879    1.0000 </r>
       <r>   -0.7715    1.0000 </r>
       <r>   -0.7587    1.0000 </r>
       <r>   -0.7535    1.0000 </r>
       <r>   -0.7044    1.0000 </r>
       <r>   -0.6999    1.0000 </r>
       <r>   -0.6657    1.0000 </r>
       <r>   -0.6471    1.0000 </r>
       <r>   -0.6354    1.0000 </r>
       <r>   -0.5899    1.0000 </r>
       <r>   -0.5859    1.0000 </r>
       <r>   -0.5814    1.0000 </r>
       <r>   -0.5661    1.0000 </r>
       <r>   -0.5146    1.0000 </r>
       <r>   -0.5046    1.0000 </r>
       <r>   -0.4505    1.0000 </r>
       <r>   -0.4083    1.0000 </r>
       <r>   -0.2485    1.0000 </r>
       <r>   -0.2318    1.0000 </r>
       <r>   -0.2079    1.0000 </r>
       <r>   -0.2048    1.0000 </r>
       <r>   -0.1481    1.0000 </r>
       <r>   -0.1171    1.0000 </r>
       <r>   -0.1130    1.0000 </r>
       <r>   -0.0569    1.0000 </r>
       <r>    0.0447    1.0000 </r>
       <r>    0.0744    1.0000 </r>
       <r>    0.1205    1.0000 </r>
       <r>    0.1891    1.0000 </r>
       <r>    0.1991    1.0000 </r>
       <r>    0.1993    1.0000 </r>
       <r>    0.2276    1.0000 </r>
       <r>    0.2427    1.0000 </r>
       <r>    0.2875    1.0000 </r>
       <r>    0.3221    1.0000 </r>
       <r>    0.3308    1.0000 </r>
       <r>    0.3328    1.0000 </r>
       <r>    0.3407    1.0000 </r>
       <r>    0.3408    1.0000 </r>
       <r>    0.3609    1.0000 </r>
       <r>    0.4107    1.0000 </r>
       <r>    0.4434    1.0000 </r>
       <r>    0.4498    1.0000 </r>
       <r>    0.4550    1.0000 </r>
       <r>    0.5044    1.0000 </r>
       <r>    0.5230    1.0000 </r>
       <r>    0.5381    1.0000 </r>
       <r>    0.5985    1.0000 </r>
       <r>    0.6475    1.0000 </r>
       <r>    0.6723    1.0000 </r>
       <r>    0.6857    1.0000 </r>
       <r>    0.7095    1.0000 </r>
       <r>    0.7177    1.0000 </r>
       <r>    0.7374    1.0000 </r>
       <r>    0.7438    1.0000 </r>
       <r>    0.7793    1.0000 </r>
       <r>    0.7977    1.0000 </r>
       <r>    0.8134    1.0000 </r>
       <r>    0.8141    1.0000 </r>
       <r>    0.8263    1.0000 </r>
       <r>    0.8485    1.0000 </r>
       <r>    0.8487    1.0000 </r>
       <r>    0.8698    1.0000 </r>
       <r>    0.8726    1.0000 </r>
       <r>    0.9063    1.0000 </r>
       <r>    0.9231    1.0000 </r>
       <r>    0.9278    1.0000 </r>
       <r>    0.9438    1.0000 </r>
       <r>    0.9727    1.0000 </r>
       <r>    0.9759    1.0000 </r>
       <r>    0.9850    1.0000 </r>
       <r>    0.9995    1.0000 </r>
       <r>    1.0036    1.0000 </r>
       <r>    1.0072    1.0000 </r>
       <r>    1.0121    1.0000 </r>
       <r>    1.0432    1.0000 </r>
       <r>    1.0664    1.0000 </r>
       <r>    1.0712    1.0000 </r>
       <r>    1.0926    1.0000 </r>
       <r>    1.0961    1.0000 </r>
       <r>    1.1071    1.0000 </r>
       <r>    1.1118    1.0000 </r>
       <r>    1.1263    1.0000 </r>
       <r>    1.1324    1.0000 </r>
       <r>    1.1385    1.0000 </r>
       <r>    1.1652    1.0000 </r>
       <r>    1.1918    1.0000 </r>
       <r>    1.2078    1.0000 </r>
       <r>    1.2271    1.0000 </r>
       <r>    1.2277    1.0000 </r>
       <r>    1.2496    1.0000 </r>
       <r>    1.2691    1.0000 </r>
       <r>    1.2971    1.0000 </r>
       <r>    1.2995    1.0000 </r>
       <r>    1.3751    1.0000 </r>
       <r>    1.3976    1.0000 </r>
       <r>    1.4032    1.0000 </r>
       <r>    1.4595    1.0000 </r>
       <r>    1.4789    1.0000 </r>
       <r>    1.5064    1.0000 </r>
       <r>    1.5112    1.0000 </r>
       <r>    1.5342    1.0000 </r>
       <r>    1.5350    1.0000 </r>
       <r>    1.5484    1.0000 </r>
       <r>    1.5571    1.0000 </r>
       <r>    1.5781    1.0000 </r>
       <r>    1.6106    1.0000 </r>
       <r>    1.6126    1.0000 </r>
       <r>    1.6128    1.0000 </r>
       <r>    1.6128    1.0000 </r>
       <r>    1.6305    1.0000 </r>
       <r>    1.6379    1.0000 </r>
       <r>    1.6439    1.0000 </r>
       <r>    1.6445    1.0000 </r>
       <r>    1.6544    1.0000 </r>
       <r>    1.6693    1.0000 </r>
       <r>    1.6785    1.0000 </r>
       <r>    1.6840    1.0000 </r>
       <r>    1.7059    1.0000 </r>
       <r>    1.7147    1.0000 </r>
       <r>    1.7174    1.0000 </r>
       <r>    1.7265    1.0000 </r>
       <r>    1.7288    1.0000 </r>
       <r>    1.7405    1.0000 </r>
       <r>    1.7528    1.0000 </r>
       <r>    1.7611    1.0000 </r>
       <r>    1.7615    1.0000 </r>
       <r>    1.7632    1.0000 </r>
       <r>    1.7747    1.0000 </r>
       <r>    1.7966    1.0000 </r>
       <r>    1.8028    1.0000 </r>
       <r>    1.8041    1.0000 </r>
       <r>    1.8086    1.0000 </r>
       <r>    1.8221    1.0000 </r>
       <r>    1.8257    1.0000 </r>
       <r>    1.8271    1.0000 </r>
       <r>    1.8311    1.0000 </r>
       <r>    1.8395    1.0000 </r>
       <r>    1.8433    1.0000 </r>
       <r>    1.8703    1.0000 </r>
       <r>    1.8732    1.0000 </r>
       <r>    1.8783    1.0000 </r>
       <r>    1.8864    1.0000 </r>
       <r>    1.8899    1.0000 </r>
       <r>    1.9014    1.0000 </r>
       <r>    1.9040    1.0000 </r>
       <r>    1.9161    1.0000 </r>
       <r>    1.9183    1.0000 </r>
       <r>    1.9209    1.0000 </r>
       <r>    1.9344    1.0000 </r>
       <r>    1.9350    1.0000 </r>
       <r>    1.9450    1.0000 </r>
       <r>    1.9533    1.0000 </r>
       <r>    1.9591    1.0000 </r>
       <r>    1.9669    1.0000 </r>
       <r>    1.9780    1.0000 </r>
       <r>    2.0023    1.0000 </r>
       <r>    2.0064    1.0000 </r>
       <r>    2.0388    1.0000 </r>
       <r>    2.0421    1.0000 </r>
       <r>    2.0432    1.0000 </r>
       <r>    2.0618    1.0000 </r>
       <r>    2.0628    1.0000 </r>
       <r>    2.0682    1.0000 </r>
       <r>    2.0753    1.0000 </r>
       <r>    2.0876    1.0000 </r>
       <r>    2.0933    1.0000 </r>
       <r>    2.0936    1.0000 </r>
       <r>    2.1056    1.0000 </r>
       <r>    2.1184    1.0000 </r>
       <r>    2.1321    1.0000 </r>
       <r>    2.2005    1.0000 </r>
       <r>    2.2170    1.0000 </r>
       <r>    2.2296    1.0000 </r>
       <r>    2.2522    1.0000 </r>
       <r>    2.2545    1.0000 </r>
       <r>    2.2826    1.0000 </r>
       <r>    2.2925    1.0000 </r>
       <r>    2.2982    1.0000 </r>
       <r>    2.3024    1.0000 </r>
       <r>    2.3169    1.0000 </r>
       <r>    2.3312    1.0000 </r>
       <r>    2.3376    1.0000 </r>
       <r>    2.3388    1.0000 </r>
       <r>    2.3466    1.0000 </r>
       <r>    2.3472    1.0000 </r>
       <r>    2.3632    1.0000 </r>
       <r>    2.3866    1.0000 </r>
       <r>    2.4054    1.0000 </r>
       <r>    2.4294    1.0000 </r>
       <r>    2.4581    1.0000 </r>
       <r>    2.4731    1.0000 </r>
       <r>    2.4746    1.0000 </r>
       <r>    2.5132    1.0000 </r>
       <r>    2.5342    1.0000 </r>
       <r>    2.5616    1.0000 </r>
       <r>    2.5656    1.0000 </r>
       <r>    2.5706    1.0000 </r>
       <r>    2.5808    1.0000 </r>
       <r>    2.5925    1.0000 </r>
       <r>    2.6392    1.0000 </r>
       <r>    2.6484    1.0000 </r>
       <r>    2.6639    1.0000 </r>
       <r>    2.7209    1.0000 </r>
       <r>    2.7238    1.0000 </r>
       <r>    2.7248    1.0000 </r>
       <r>    2.7478    1.0000 </r>
       <r>    2.8014    1.0000 </r>
       <r>    2.8520    1.0000 </r>
       <r>    2.8585    1.0000 </r>
       <r>    2.9302    1.0000 </r>
       <r>    2.9593    1.0000 </r>
       <r>    3.0041    1.0000 </r>
       <r>    3.0066    1.0000 </r>
       <r>    3.1864    0.9999 </r>
       <r>    3.1964    0.9999 </r>
       <r>    3.2325    0.9997 </r>
       <r>    3.2368    0.9997 </r>
       <r>    3.3017    0.9986 </r>
       <r>    3.3177    0.9979 </r>
       <r>    3.4290    0.9812 </r>
       <r>    3.4771    0.9590 </r>
       <r>    3.5677    0.8641 </r>
       <r>    3.5958    0.8160 </r>
       <r>    3.6022    0.8037 </r>
       <r>    3.6472    0.7044 </r>
       <r>    3.7249    0.4949 </r>
       <r>    3.7552    0.4102 </r>
       <r>    3.7594    0.3988 </r>
       <r>    3.7763    0.3534 </r>
       <r>    3.8458    0.1929 </r>
       <r>    3.8570    0.1719 </r>
       <r>    3.8777    0.1372 </r>
       <r>    3.8955    0.1115 </r>
       <r>    3.8978    0.1085 </r>
       <r>    3.9232    0.0786 </r>
       <r>    3.9242    0.0776 </r>
       <r>    3.9298    0.0719 </r>
       <r>    3.9385    0.0639 </r>
       <r>    3.9581    0.0483 </r>
       <r>    3.9658    0.0431 </r>
       <r>    3.9727    0.0388 </r>
       <r>    3.9917    0.0288 </r>
       <r>    4.0312    0.0147 </r>
       <r>    4.0313    0.0147 </r>
       <r>    4.0741    0.0065 </r>
       <r>    4.0954    0.0042 </r>
       <r>    4.1387    0.0016 </r>
       <r>    4.1472    0.0014 </r>
       <r>    4.1744    0.0007 </r>
       <r>    4.1811    0.0006 </r>
       <r>    4.1831    0.0006 </r>
       <r>    4.1960    0.0004 </r>
       <r>    4.2555    0.0001 </r>
       <r>    4.3055    0.0000 </r>
       <r>    4.3320    0.0000 </r>
       <r>    4.3390    0.0000 </r>
       <r>    4.3830    0.0000 </r>
       <r>    4.3942    0.0000 </r>
       <r>    4.3962    0.0000 </r>
       <r>    4.4340    0.0000 </r>
       <r>    4.4609    0.0000 </r>
       <r>    4.5364    0.0000 </r>
       <r>    4.5565    0.0000 </r>
       <r>    4.5996    0.0000 </r>
       <r>    4.6070    0.0000 </r>
       <r>    4.6328    0.0000 </r>
       <r>    4.6963    0.0000 </r>
       <r>    4.6988    0.0000 </r>
       <r>    4.8855    0.0000 </r>
       <r>    5.0756    0.0000 </r>
       <r>    5.2752    0.0000 </r>
       <r>    5.2837    0.0000 </r>
       <r>    5.3826    0.0000 </r>
       <r>    5.4359    0.0000 </r>
       <r>    5.5074    0.0000 </r>
       <r>    5.5887    0.0000 </r>
       <r>    5.5955    0.0000 </r>
       <r>    6.1829    0.0000 </r>
       <r>    6.3390    0.0000 </r>
       <r>    6.3513    0.0000 </r>
       <r>    6.5932    0.0000 </r>
       <r>    6.5933    0.0000 </r>
       <r>    6.6411    0.0000 </r>
       <r>    6.6923    0.0000 </r>
       <r>    6.7342    0.0000 </r>
       <r>    6.8975    0.0000 </r>
       <r>    7.0307    0.0000 </r>
       <r>    7.2182    0.0000 </r>
       <r>    7.3280    0.0000 </r>
       <r>    7.4933    0.0000 </r>
       <r>    7.5145    0.0000 </r>
       <r>    7.5145    0.0000 </r>
       <r>    7.5775    0.0000 </r>
       <r>    7.6211    0.0000 </r>
       <r>    7.6462    0.0000 </r>
       <r>    7.6804    0.0000 </r>
       <r>    7.7714    0.0000 </r>
       <r>    7.8304    0.0000 </r>
       <r>    7.8938    0.0000 </r>
       <r>    8.0031    0.0000 </r>
       <r>    8.0032    0.0000 </r>
       <r>    8.1048    0.0000 </r>
       <r>    8.1504    0.0000 </r>
       <r>    8.1628    0.0000 </r>
       <r>    8.2019    0.0000 </r>
       <r>    8.2459    0.0000 </r>
       <r>    8.2535    0.0000 </r>
       <r>    8.2840    0.0000 </r>
       <r>    8.2914    0.0000 </r>
       <r>    8.3300    0.0000 </r>
       <r>    8.4743    0.0000 </r>
       <r>    8.6095    0.0000 </r>
       <r>    8.6646    0.0000 </r>
       <r>    8.6981    0.0000 </r>
       <r>    8.7417    0.0000 </r>
       <r>    8.7552    0.0000 </r>
       <r>    8.7872    0.0000 </r>
       <r>    8.8226    0.0000 </r>
       <r>    8.8313    0.0000 </r>
       <r>    8.8697    0.0000 </r>
       <r>    8.8982    0.0000 </r>
       <r>    8.9913    0.0000 </r>
       <r>    9.0895    0.0000 </r>
       <r>    9.1184    0.0000 </r>
       <r>    9.1810    0.0000 </r>
       <r>    9.2162    0.0000 </r>
       <r>    9.2728    0.0000 </r>
       <r>    9.2950    0.0000 </r>
       <r>    9.3353    0.0000 </r>
       <r>    9.3503    0.0000 </r>
       <r>    9.4043    0.0000 </r>
       <r>    9.5191    0.0000 </r>
       <r>    9.5920    0.0000 </r>
      </set>
     </set>
    </set>
   </array>
  </eigenvalues>
  <separator name="orbital magnetization" >
   <v name="MAGDIPOLOUT">      0.00000000      0.00000000      0.00000000</v>
  </separator>
  <dos>
   <i name="efermi">      3.72313535 </i>
   <total>
    <array>
     <dimension dim="1">gridpoints</dimension>
     <dimension dim="2">spin</dimension>
     <field>energy</field>
     <field>total</field>
     <field>integrated</field>
     <set>
      <set comment="spin 1">
       <r>   -65.2450     0.0000     0.0000 </r>
       <r>   -64.9836     0.0000     0.0000 </r>
       <r>   -64.7223     0.0000     0.0000 </r>
       <r>   -64.4610     0.0000     0.0000 </r>
       <r>   -64.1996     0.0000     0.0000 </r>
[...]
       <r>   -57.1436     0.0000   288.0000 </r>
       <r>   -56.8822     0.0000   288.0000 </r>
       <r>   -56.6209     0.0000   288.0000 </r>
       <r>   -56.3596     0.0000   288.0000 </r>
       <r>   -56.0982     0.0000   288.0000 </r>
       <r>   -55.8369     0.0000   288.0000 </r>
       <r>   -55.5756     0.0000   288.0000 </r>
       <r>   -55.3142     0.0000   288.0000 </r>
       <r>   -55.0529     0.0000   288.0000 </r>
       <r>   -54.7916     0.0000   288.0000 </r>
       <r>   -54.5302     0.0000   288.0000 </r>
       <r>   -54.2689     0.0000   288.0000 </r>
       <r>   -54.0076     0.0000   288.0000 </r>
       <r>   -53.7462     0.0000   288.0000 </r>
       <r>   -53.4849     0.0000   288.0000 </r>
       <r>   -53.2235     0.0000   288.0000 </r>
       <r>   -52.9622     0.0000   288.0000 </r>
       <r>   -52.7009     0.0000   288.0000 </r>
       <r>   -52.4395     0.0000   288.0000 </r>
       <r>   -52.1782     0.0000   288.0000 </r>
       <r>   -51.9169     0.0000   288.0000 </r>
       <r>   -51.6555     0.0000   288.0000 </r>
       <r>   -51.3942     0.0000   288.0000 </r>
       <r>   -51.1329     0.0000   288.0000 </r>
       <r>   -50.8715     0.0000   288.0000 </r>
       <r>   -50.6102     0.0000   288.0000 </r>
       <r>   -50.3489     0.0000   288.0000 </r>
       <r>   -50.0875     0.0000   288.0000 </r>
       <r>   -49.8262     0.0000   288.0000 </r>
       <r>   -49.5649     0.0000   288.0000 </r>
       <r>   -49.3035     0.0000   288.0000 </r>
       <r>   -49.0422     0.0000   288.0000 </r>
       <r>   -48.7808     0.0000   288.0000 </r>
       <r>   -48.5195     0.0000   288.0000 </r>
       <r>   -48.2582     0.0000   288.0000 </r>
       <r>   -47.9968     0.0000   288.0000 </r>
       <r>   -47.7355     0.0000   288.0000 </r>
       <r>   -47.4742     0.0000   288.0000 </r>
       <r>   -47.2128     0.0000   288.0000 </r>
       <r>   -46.9515     0.0000   288.0000 </r>
       <r>   -46.6902     0.0000   288.0000 </r>
       <r>   -46.4288     0.0000   288.0000 </r>
       <r>   -46.1675     0.0000   288.0000 </r>
       <r>   -45.9062     0.0000   288.0000 </r>
       <r>   -45.6448     0.0000   288.0000 </r>
       <r>   -45.3835     0.0000   288.0000 </r>
       <r>   -45.1221     0.0000   288.0000 </r>
       <r>   -44.8608     0.0000   288.0000 </r>
       <r>   -44.5995     0.0000   288.0000 </r>
       <r>   -44.3381     0.0000   288.0000 </r>
       <r>   -44.0768     0.0000   288.0000 </r>
       <r>   -43.8155     0.0000   288.0000 </r>
       <r>   -43.5541     0.0000   288.0000 </r>
       <r>   -43.2928     0.0000   288.0000 </r>
       <r>   -43.0315     0.0000   288.0000 </r>
       <r>   -42.7701     0.0000   288.0000 </r>
       <r>   -42.5088     0.0000   288.0000 </r>
       <r>   -42.2475     0.0000   288.0000 </r>
       <r>   -41.9861     0.0000   288.0000 </r>
       <r>   -41.7248     0.0000   288.0000 </r>
       <r>   -41.4635     0.0000   288.0000 </r>
       <r>   -41.2021     0.0000   288.0000 </r>
       <r>   -40.9408     0.0000   288.0000 </r>
       <r>   -40.6794     0.0000   288.0000 </r>
       <r>   -40.4181     0.0000   288.0000 </r>
       <r>   -40.1568     0.0000   288.0000 </r>
       <r>   -39.8954     0.0000   288.0000 </r>
       <r>   -39.6341     0.0000   288.0000 </r>
       <r>   -39.3728     0.0000   288.0000 </r>
       <r>   -39.1114     0.0000   288.0000 </r>
       <r>   -38.8501     0.0000   288.0000 </r>
       <r>   -38.5888     0.0000   288.0000 </r>
       <r>   -38.3274     0.0000   288.0000 </r>
       <r>   -38.0661     0.0000   288.0000 </r>
       <r>   -37.8048     0.0000   288.0000 </r>
       <r>   -37.5434     0.0000   288.0000 </r>
       <r>   -37.2821     0.0000   288.0000 </r>
       <r>   -37.0208     0.0000   288.0000 </r>
       <r>   -36.7594     0.0000   288.0000 </r>
       <r>   -36.4981     0.0000   288.0000 </r>
       <r>   -36.2367     0.0000   288.0000 </r>
       <r>   -35.9754     0.0000   288.0000 </r>
       <r>   -35.7141     0.0000   288.0000 </r>
       <r>   -35.4527     0.0000   288.0000 </r>
       <r>   -35.1914     0.0000   288.0000 </r>
       <r>   -34.9301     0.0000   288.0000 </r>
       <r>   -34.6687     0.0000   288.0000 </r>
       <r>   -34.4074     0.0000   288.0000 </r>
       <r>   -34.1461     0.0000   288.0000 </r>
       <r>   -33.8847     0.0000   288.0000 </r>
       <r>   -33.6234     0.0000   288.0000 </r>
       <r>   -33.3621     0.0000   288.0000 </r>
       <r>   -33.1007     0.0000   288.0000 </r>
       <r>   -32.8394     0.0000   288.0000 </r>
       <r>   -32.5780     0.0000   288.0000 </r>
       <r>   -32.3167     0.0000   288.0000 </r>
       <r>   -32.0554     0.0000   288.0000 </r>
       <r>   -31.7940     0.0000   288.0000 </r>
       <r>   -31.5327     0.0000   288.0000 </r>
       <r>   -31.2714     0.0000   288.0000 </r>
       <r>   -31.0100     0.0000   288.0000 </r>
       <r>   -30.7487     0.0000   288.0000 </r>
       <r>   -30.4874     0.0000   288.0000 </r>
       <r>   -30.2260     0.0000   288.0000 </r>
       <r>   -29.9647     0.0000   288.0000 </r>
       <r>   -29.7034     0.0000   288.0000 </r>
       <r>   -29.4420     0.0000   288.0000 </r>
       <r>   -29.1807     0.0000   288.0000 </r>
       <r>   -28.9194     0.0000   288.0000 </r>
       <r>   -28.6580     0.0000   288.0000 </r>
       <r>   -28.3967     0.0000   288.0000 </r>
       <r>   -28.1353     0.0000   288.0000 </r>
       <r>   -27.8740     0.0000   288.0000 </r>
       <r>   -27.6127     0.0000   288.0000 </r>
       <r>   -27.3513     0.0000   288.0000 </r>
       <r>   -27.0900     0.0000   288.0000 </r>
       <r>   -26.8287     0.0000   288.0000 </r>
       <r>   -26.5673     0.0000   288.0000 </r>
       <r>   -26.3060     0.0000   288.0000 </r>
       <r>   -26.0447     0.0000   288.0000 </r>
       <r>   -25.7833     0.0000   288.0000 </r>
       <r>   -25.5220     0.0000   288.0000 </r>
       <r>   -25.2607     0.0000   288.0000 </r>
       <r>   -24.9993     0.0000   288.0000 </r>
       <r>   -24.7380     0.0000   288.0000 </r>
       <r>   -24.4767     0.0000   288.0000 </r>
       <r>   -24.2153     0.0000   288.0000 </r>
       <r>   -23.9540     0.0000   288.0000 </r>
       <r>   -23.6926     0.0000   288.0000 </r>
       <r>   -23.4313     0.0000   288.0000 </r>
       <r>   -23.1700     0.0000   288.0000 </r>
       <r>   -22.9086     0.0000   288.0000 </r>
       <r>   -22.6473     0.0000   288.0000 </r>
       <r>   -22.3860     0.0000   288.0000 </r>
       <r>   -22.1246     0.0000   288.0000 </r>
       <r>   -21.8633     0.0000   288.0000 </r>
       <r>   -21.6020     0.0000   288.0000 </r>
       <r>   -21.3406     0.0000   288.0000 </r>
       <r>   -21.0793     0.0000   288.0000 </r>
       <r>   -20.8180     0.0000   288.0000 </r>
       <r>   -20.5566     0.0000   288.0000 </r>
       <r>   -20.2953     0.0000   288.0000 </r>
       <r>   -20.0339     0.0000   288.0000 </r>
       <r>   -19.7726     0.0000   288.0000 </r>
       <r>   -19.5113     0.0000   288.0000 </r>
       <r>   -19.2499     0.0000   288.0000 </r>
       <r>   -18.9886     0.0000   288.0000 </r>
       <r>   -18.7273     0.0000   288.0000 </r>
       <r>   -18.4659     0.0000   288.0000 </r>
       <r>   -18.2046     0.0000   288.0000 </r>
       <r>   -17.9433     0.0000   288.0000 </r>
       <r>   -17.6819     0.0000   288.0000 </r>
       <r>   -17.4206     0.0000   288.0000 </r>
       <r>   -17.1593     0.0000   288.0000 </r>
       <r>   -16.8979     0.0000   288.0000 </r>
       <r>   -16.6366     0.0000   288.0000 </r>
       <r>   -16.3753     0.0000   288.0000 </r>
       <r>   -16.1139     0.0000   288.0000 </r>
       <r>   -15.8526     0.0000   288.0000 </r>
       <r>   -15.5912     0.0000   288.0000 </r>
       <r>   -15.3299     0.0000   288.0000 </r>
       <r>   -15.0686     0.0000   288.0000 </r>
       <r>   -14.8072     0.0000   288.0000 </r>
       <r>   -14.5459     0.0000   288.0000 </r>
       <r>   -14.2846     0.0000   288.0000 </r>
       <r>   -14.0232     0.0000   288.0000 </r>
       <r>   -13.7619     0.0008   288.0002 </r>
       <r>   -13.5006     0.2348   288.0616 </r>
       <r>   -13.2392     3.6329   289.0110 </r>
       <r>   -12.9779     6.3293   290.6650 </r>
       <r>   -12.7166     5.2848   292.0461 </r>
       <r>   -12.4552     5.3194   293.4363 </r>
       <r>   -12.1939     6.8893   295.2367 </r>
       <r>   -11.9326    12.3989   298.4770 </r>
       <r>   -11.6712    23.6250   304.6510 </r>
       <r>   -11.4099    23.8333   310.8795 </r>
       <r>   -11.1485    20.8967   316.3405 </r>
       <r>   -10.8872    30.3866   324.2816 </r>
       <r>   -10.6259    47.2192   336.6217 </r>
       <r>   -10.3645    44.7512   348.3168 </r>
       <r>   -10.1032    38.9836   358.5046 </r>
       <r>    -9.8419    41.9991   369.4804 </r>
       <r>    -9.5805    28.9496   377.0460 </r>
       <r>    -9.3192    10.7291   379.8499 </r>
       <r>    -9.0579     4.3601   380.9893 </r>
       <r>    -8.7965     9.5931   383.4963 </r>
       <r>    -8.5352     1.9049   383.9941 </r>
       <r>    -8.2739     0.0224   384.0000 </r>
       <r>    -8.0125     0.0000   384.0000 </r>
       <r>    -7.7512     0.0000   384.0000 </r>
       <r>    -7.4898     0.0000   384.0000 </r>
       <r>    -7.2285     0.0000   384.0000 </r>
       <r>    -6.9672     0.0000   384.0000 </r>
       <r>    -6.7058     0.0000   384.0000 </r>
       <r>    -6.4445     0.0000   384.0000 </r>
       <r>    -6.1832     0.0000   384.0000 </r>
       <r>    -5.9218     0.0000   384.0000 </r>
       <r>    -5.6605     0.0008   384.0002 </r>
       <r>    -5.3992     0.2610   384.0684 </r>
       <r>    -5.1378     4.9803   385.3700 </r>
       <r>    -4.8765     9.2468   387.7865 </r>
       <r>    -4.6152    16.4197   392.0775 </r>
       <r>    -4.3538    34.2341   401.0241 </r>
       <r>    -4.0925    24.4211   407.4062 </r>
       <r>    -3.8312    28.5350   414.8634 </r>
       <r>    -3.5698    48.4817   427.5334 </r>
       <r>    -3.3085    62.1948   443.7871 </r>
       <r>    -3.0471    45.3827   455.6472 </r>
       <r>    -2.7858    36.6598   465.2277 </r>
       <r>    -2.5245    42.7565   476.4015 </r>
       <r>    -2.2631    47.6222   488.8468 </r>
       <r>    -2.0018    62.5746   505.1998 </r>
       <r>    -1.7405    51.2612   518.5962 </r>
       <r>    -1.4791    69.1723   536.6734 </r>
       <r>    -1.2178    87.3053   559.4893 </r>
       <r>    -0.9565    89.3374   582.8364 </r>
       <r>    -0.6951   103.0764   609.7739 </r>
       <r>    -0.4338    75.9582   629.6244 </r>
       <r>    -0.1725    46.7630   641.8453 </r>
       <r>     0.0889    50.3008   654.9906 </r>
       <r>     0.3502    76.1775   674.8985 </r>
       <r>     0.6116    85.6614   697.2849 </r>
       <r>     0.8729   110.8165   726.2451 </r>
       <r>     1.1342   142.3424   763.4442 </r>
       <r>     1.3956   112.1637   792.7566 </r>
       <r>     1.6569   148.3416   831.5235 </r>
       <r>     1.9182   230.1128   891.6601 </r>
       <r>     2.1796   190.6635   941.4872 </r>
       <r>     2.4409   140.2354   978.1357 </r>
       <r>     2.7022   105.7536  1005.7729 </r>
       <r>     2.9636    63.8149  1022.4500 </r>
       <r>     3.2249    41.3683  1033.2610 </r>
       <r>     3.4862    39.8270  1043.6692 </r>
       <r>     3.7476    53.9566  1057.7700 </r>
       <r>     4.0089    97.1192  1083.1506 </r>
       <r>     4.2702    92.1551  1107.2340 </r>
       <r>     4.5316    69.4704  1125.3891 </r>
       <r>     4.7929    43.3967  1136.7302 </r>
       <r>     5.0543    15.8373  1140.8691 </r>
       <r>     5.3156    18.1704  1145.6176 </r>
       <r>     5.5769    26.8959  1152.6465 </r>
       <r>     5.8383    12.1689  1155.8266 </r>
       <r>     6.0996     3.4254  1156.7218 </r>
       <r>     6.3609    13.4830  1160.2454 </r>
       <r>     6.6223    22.8676  1166.2215 </r>
       <r>     6.8836    24.4293  1172.6058 </r>
       <r>     7.1449    14.2510  1176.3301 </r>
       <r>     7.4063    18.4992  1181.1646 </r>
       <r>     7.6676    37.0578  1190.8491 </r>
       <r>     7.9289    35.1135  1200.0255 </r>
       <r>     8.1903    42.1701  1211.0460 </r>
       <r>     8.4516    42.3038  1222.1015 </r>
       <r>     8.7129    35.3726  1231.3456 </r>
       <r>     8.9743    47.6390  1243.7954 </r>
       <r>     9.2356    39.9471  1254.2350 </r>
       <r>     9.4970    37.2193  1263.9617 </r>
       <r>     9.7583    14.1088  1267.6488 </r>
       <r>    10.0196     1.3326  1267.9971 </r>
       <r>    10.2810     0.0111  1268.0000 </r>
       <r>    10.5423     0.0000  1268.0000 </r>
       <r>    10.8036     0.0000  1268.0000 </r>
       <r>    11.0650     0.0000  1268.0000 </r>
       <r>    11.3263     0.0000  1268.0000 </r>
       <r>    11.5876     0.0000  1268.0000 </r>
       <r>    11.8490     0.0000  1268.0000 </r>
       <r>    12.1103     0.0000  1268.0000 </r>
       <r>    12.3716     0.0000  1268.0000 </r>
       <r>    12.6330     0.0000  1268.0000 </r>
       <r>    12.8943     0.0000  1268.0000 </r>
       <r>    13.1557     0.0000  1268.0000 </r>
      </set>
     </set>
    </array>
   </total>
  </dos>
 </calculation>
 <structure name="finalpos" >
  <crystal>
   <varray name="basis" >
    <v>       6.27856000       0.00000000       0.00000000 </v>
    <v>       2.09285340      11.06019551       0.00000000 </v>
    <v>       0.00000000       0.00000000      28.81092446 </v>
   </varray>
   <i name="volume">   2000.69113023 </i>
   <varray name="rec_basis" >
    <v>       0.15927219      -0.03013811       0.00000000 </v>
    <v>       0.00000000       0.09041431       0.00000000 </v>
    <v>       0.00000000       0.00000000       0.03470906 </v>
   </varray>
  </crystal>
  <varray name="positions" >
   <v>       0.25630944       0.01645859       0.08783728 </v>
   <v>       0.25630944       0.01645859       0.42029486 </v>
   <v>       0.00630944       0.26645858       0.25406607 </v>
   <v>       0.00630944       0.26645858       0.58652364 </v>
   <v>       0.28550363       0.96489200       0.00524134 </v>
   <v>       0.25630944       0.01645859       0.33245757 </v>
   <v>       0.00630944       0.26645858       0.16622879 </v>
   <v>       0.00630944       0.26645858       0.49868636 </v>
   <v>       0.19220557       0.29867029       0.09632830 </v>
   <v>       0.19025794       0.21461308       0.37637622 </v>
   <v>       0.44025794       0.46461308       0.21014743 </v>
   <v>       0.44025794       0.46461308       0.54260500 </v>
   <v>       0.75630944       0.01645859       0.08783728 </v>
   <v>       0.75630944       0.01645859       0.42029486 </v>
   <v>       0.50630944       0.26645858       0.25406607 </v>
   <v>       0.50630944       0.26645858       0.58652364 </v>
   <v>       0.78550363       0.96489200       0.00524134 </v>
   <v>       0.75630944       0.01645859       0.33245757 </v>
   <v>       0.50630944       0.26645858       0.16622879 </v>
   <v>       0.50630944       0.26645858       0.49868636 </v>
   <v>       0.69220557       0.29867029       0.09632830 </v>
   <v>       0.69025794       0.21461308       0.37637622 </v>
   <v>       0.94025794       0.46461308       0.21014743 </v>
   <v>       0.94025794       0.46461308       0.54260500 </v>
   <v>       0.25630944       0.51645859       0.08783728 </v>
   <v>       0.25630944       0.51645859       0.42029486 </v>
   <v>       0.00630944       0.76645858       0.25406607 </v>
   <v>       0.00630944       0.76645858       0.58652364 </v>
   <v>       0.28550363       0.46489200       0.00524134 </v>
   <v>       0.25630944       0.51645859       0.33245757 </v>
   <v>       0.00630944       0.76645858       0.16622879 </v>
   <v>       0.00630944       0.76645858       0.49868636 </v>
   <v>       0.19220557       0.79867029       0.09632830 </v>
   <v>       0.19025794       0.71461308       0.37637622 </v>
   <v>       0.44025794       0.96461308       0.21014743 </v>
   <v>       0.44025794       0.96461308       0.54260500 </v>
   <v>       0.75630944       0.51645859       0.08783728 </v>
   <v>       0.75630944       0.51645859       0.42029486 </v>
   <v>       0.50630944       0.76645858       0.25406607 </v>
   <v>       0.50630944       0.76645858       0.58652364 </v>
   <v>       0.78550363       0.46489200       0.00524134 </v>
   <v>       0.75630944       0.51645859       0.33245757 </v>
   <v>       0.50630944       0.76645858       0.16622879 </v>
   <v>       0.50630944       0.76645858       0.49868636 </v>
   <v>       0.69220557       0.79867029       0.09632830 </v>
   <v>       0.69025794       0.71461308       0.37637622 </v>
   <v>       0.94025794       0.96461308       0.21014743 </v>
   <v>       0.94025794       0.96461308       0.54260500 </v>
   <v>       0.46840410       0.16661759       0.32045186 </v>
   <v>       0.27394815       0.21342137       0.62893850 </v>
   <v>       0.21840410       0.41661758       0.15422308 </v>
   <v>       0.21840410       0.41661758       0.48668065 </v>
   <v>       0.46840410       0.16661759       0.09984299 </v>
   <v>       0.46840410       0.16661759       0.43230056 </v>
   <v>       0.21840410       0.41661758       0.26607178 </v>
   <v>       0.20946874       0.40561428       0.58433181 </v>
   <v>       0.05251161       0.41429508       0.04391864 </v>
   <v>       0.05251161       0.41429508       0.37637622 </v>
   <v>       0.30251160       0.16429509       0.21014743 </v>
   <v>       0.30251160       0.16429509       0.54260500 </v>
   <v>       0.96840410       0.16661759       0.32045186 </v>
   <v>       0.77394815       0.21342137       0.62893850 </v>
   <v>       0.71840410       0.41661758       0.15422308 </v>
   <v>       0.71840410       0.41661758       0.48668065 </v>
   <v>       0.96840410       0.16661759       0.09984299 </v>
   <v>       0.96840410       0.16661759       0.43230056 </v>
   <v>       0.71840410       0.41661758       0.26607178 </v>
   <v>       0.70946874       0.40561428       0.58433181 </v>
   <v>       0.55251161       0.41429508       0.04391864 </v>
   <v>       0.55251161       0.41429508       0.37637622 </v>
   <v>       0.80251160       0.16429509       0.21014743 </v>
   <v>       0.80251160       0.16429509       0.54260500 </v>
   <v>       0.46840411       0.66661759       0.32045186 </v>
   <v>       0.27394815       0.71342137       0.62893850 </v>
   <v>       0.21840411       0.91661758       0.15422308 </v>
   <v>       0.21840411       0.91661758       0.48668065 </v>
   <v>       0.46840411       0.66661759       0.09984299 </v>
   <v>       0.46840411       0.66661759       0.43230056 </v>
   <v>       0.21840411       0.91661758       0.26607178 </v>
   <v>       0.20946874       0.90561428       0.58433181 </v>
   <v>       0.05251161       0.91429508       0.04391864 </v>
   <v>       0.05251161       0.91429508       0.37637622 </v>
   <v>       0.30251161       0.66429509       0.21014743 </v>
   <v>       0.30251161       0.66429509       0.54260500 </v>
   <v>       0.96840411       0.66661759       0.32045186 </v>
   <v>       0.77394815       0.71342137       0.62893850 </v>
   <v>       0.71840411       0.91661758       0.15422308 </v>
   <v>       0.71840411       0.91661758       0.48668065 </v>
   <v>       0.96840411       0.66661759       0.09984299 </v>
   <v>       0.96840411       0.66661759       0.43230056 </v>
   <v>       0.71840411       0.91661758       0.26607178 </v>
   <v>       0.70946874       0.90561428       0.58433181 </v>
   <v>       0.55251161       0.91429508       0.04391864 </v>
   <v>       0.55251161       0.91429508       0.37637622 </v>
   <v>       0.80251161       0.66429509       0.21014743 </v>
   <v>       0.80251161       0.66429509       0.54260500 </v>
  </varray>
 </structure>
</modeling>
