<?xml version="1.0" encoding="ISO-8859-1"?>
<modeling>
 <generator>
  <i name="program" type="string">vasp </i>
  <i name="version" type="string">5.4.4.18Apr17-6-g9f103f2a35  </i>
  <i name="subversion" type="string">(build Aug 13 2019 17:33:20) gamma-only         parallel </i>
  <i name="platform" type="string">LinuxIFC </i>
  <i name="date" type="string">2020 05 12 </i>
  <i name="time" type="string">13:52:48 </i>
 </generator>
 <incar>
  <i type="string" name="SYSTEM">"Millerite NiS"</i>
  <i type="string" name="PREC">normal</i>
  <i type="int" name="NSIM">     4</i>
  <i type="int" name="NELM">   100</i>
  <i name="ENCUT">    450.00000000</i>
  <i type="string" name="LREAL">A</i>
  <i type="int" name="ISMEAR">     0</i>
  <i type="int" name="NWRITE">     2</i>
  <i type="logical" name="LWAVE"> F  </i>
  <i type="logical" name="LCHARG"> F  </i>
  <v type="int" name="KPOINT_BSE">    -1     0     0     0</v>
  <i type="int" name="NELM">   100</i>
 </incar>
 <structure name="primitive_cell" >
  <crystal>
   <varray name="basis" >
    <v>      10.07973298       0.00000000       0.00000000 </v>
    <v>       3.57329804       9.42510255       0.00000000 </v>
    <v>       0.00000000       0.00000000      20.51013988 </v>
   </varray>
   <i name="volume">   1948.51491473 </i>
   <varray name="rec_basis" >
    <v>       0.09920898      -0.03761267       0.00000000 </v>
    <v>       0.00000000       0.10609964       0.00000000 </v>
    <v>       0.00000000       0.00000000       0.04875637 </v>
   </varray>
  </crystal>
  <varray name="positions" >
   <v>       0.37433215      -0.24863780       0.09511235 </v>
   <v>       0.36905228      -0.36203486       0.01303599 </v>
   <v>       0.41214686      -0.06590462       0.06541866 </v>
   <v>       0.14670739      -0.15413438       0.12800997 </v>
   <v>       0.47740939      -0.48793304       0.12840637 </v>
   <v>      -0.47203578      -0.20205788       0.17147277 </v>
   <v>      -0.42734562      -0.43596082       0.04958043 </v>
   <v>      -0.37763994      -0.20949412       0.08261090 </v>
   <v>      -0.47539934      -0.39890632       0.22312232 </v>
   <v>       0.24902563      -0.47636656       0.04550097 </v>
   <v>       0.29697590      -0.30440289       0.25601994 </v>
   <v>      -0.23671545      -0.43737821       0.08533998 </v>
   <v>       0.09282582      -0.30046480       0.19815030 </v>
   <v>       0.32598014       0.13304754       0.11281032 </v>
   <v>       0.13252766      -0.07596064       0.23197130 </v>
   <v>       0.24425506       0.07855462       0.21374635 </v>
   <v>       0.14454139      -0.48530171       0.12880278 </v>
   <v>      -0.29059702       0.41629137       0.15548031 </v>
   <v>      -0.25089518      -0.35920447       0.18930132 </v>
   <v>       0.47624865      -0.01722097       0.24082029 </v>
   <v>       0.36568198       0.35755170       0.14663132 </v>
   <v>      -0.01774085       0.07430787       0.10396133 </v>
   <v>      -0.05744270      -0.15019629       0.07014033 </v>
   <v>       0.02575024      -0.36153135       0.03271841 </v>
   <v>      -0.02877045       0.00031667       0.01577195 </v>
   <v>      -0.28997125      -0.05355254       0.05479206 </v>
   <v>       0.09103571       0.23160382       0.09728572 </v>
   <v>       0.35428483       0.29369165       0.05183580 </v>
   <v>      -0.46986977       0.12910945       0.17067996 </v>
   <v>      -0.32176726      -0.35232639       0.29948274 </v>
   <v>      -0.37232210       0.36179845       0.25641634 </v>
   <v>      -0.43772142       0.16569871       0.07308358 </v>
   <v>       0.27024608      -0.20665274       0.34399554 </v>
   <v>      -0.13916777      -0.20468921       0.17107636 </v>
   <v>      -0.08861294       0.08118595       0.21414276 </v>
   <v>      -0.24862723       0.22558612       0.09874204 </v>
   <v>       0.39452358      -0.07171389       0.34175632 </v>
   <v>       0.29480990       0.36442978       0.25681275 </v>
   <v>       0.24309433      -0.45073331       0.32616027 </v>
   <v>      -0.01328629       0.46602004       0.08600554 </v>
   <v>       0.14117783       0.31784985       0.18045233 </v>
   <v>      -0.09197650      -0.11566249       0.26579231 </v>
   <v>      -0.24224501       0.03460603       0.13778234 </v>
   <v>      -0.08644694       0.41235328       0.21334995 </v>
   <v>       0.06165557      -0.06908256       0.34215273 </v>
   <v>       0.01110074      -0.35495773       0.29908634 </v>
   <v>       0.29144634       0.16758134       0.30846230 </v>
   <v>      -0.31960126      -0.02115906       0.29868993 </v>
   <v>       0.44724441      -0.45467140       0.38402991 </v>
   <v>      -0.32513082       0.45082517       0.35113229 </v>
   <v>      -0.37348283      -0.16748948       0.36883026 </v>
   <v>      -0.48404950       0.20728318       0.27464130 </v>
   <v>      -0.10062667       0.49052701       0.31731128 </v>
   <v>      -0.14032851       0.26602286       0.28349028 </v>
   <v>       0.03557796      -0.25362388       0.38123746 </v>
   <v>       0.06382158       0.26208477       0.34135992 </v>
   <v>       0.44468238       0.02176351       0.42147207 </v>
   <v>       0.16362635      -0.47177465       0.41716854 </v>
   <v>      -0.00550413       0.13038452       0.39624001 </v>
   <v>      -0.40603526      -0.41120412       0.44831418 </v>
   <v>       0.44507841       0.21416127       0.38482272 </v>
   <v>       0.38308918       0.40838562       0.43432073 </v>
   <v>      -0.44649301      -0.18899711       0.46129443 </v>
   <v>      -0.33912731       0.07129228       0.38834432 </v>
   <v>      -0.17149875       0.49740510       0.42749271 </v>
   <v>      -0.22205359       0.21152993       0.38442632 </v>
   <v>      -0.18334939      -0.13809977       0.40972927 </v>
   <v>      -0.22839013      -0.29336960       0.45873670 </v>
   <v>      -0.43259167       0.40781922       0.48562402 </v>
   <v>       0.04623832       0.38592466       0.42300380 </v>
   <v>      -0.21594932       0.32906624       0.46539180 </v>
   <v>       0.00107888       0.23769211       0.48031428 </v>
  </varray>
 </structure>
 <varray name="primitive_index" >
  <v type="int" >        1 </v>
  <v type="int" >       60 </v>
  <v type="int" >       49 </v>
  <v type="int" >       40 </v>
  <v type="int" >       61 </v>
  <v type="int" >       50 </v>
  <v type="int" >       14 </v>
  <v type="int" >       26 </v>
  <v type="int" >        2 </v>
  <v type="int" >       33 </v>
  <v type="int" >       41 </v>
  <v type="int" >       38 </v>
  <v type="int" >       17 </v>
  <v type="int" >       21 </v>
  <v type="int" >       30 </v>
  <v type="int" >       70 </v>
  <v type="int" >       56 </v>
  <v type="int" >       15 </v>
  <v type="int" >       27 </v>
  <v type="int" >       22 </v>
  <v type="int" >       34 </v>
  <v type="int" >       29 </v>
  <v type="int" >       20 </v>
  <v type="int" >       59 </v>
  <v type="int" >       44 </v>
  <v type="int" >       67 </v>
  <v type="int" >       69 </v>
  <v type="int" >       45 </v>
  <v type="int" >       46 </v>
  <v type="int" >       51 </v>
  <v type="int" >       62 </v>
  <v type="int" >        5 </v>
  <v type="int" >       31 </v>
  <v type="int" >       68 </v>
  <v type="int" >       54 </v>
  <v type="int" >       53 </v>
  <v type="int" >       71 </v>
  <v type="int" >       57 </v>
  <v type="int" >       18 </v>
  <v type="int" >       12 </v>
  <v type="int" >        9 </v>
  <v type="int" >        8 </v>
  <v type="int" >        6 </v>
  <v type="int" >       39 </v>
  <v type="int" >       55 </v>
  <v type="int" >       65 </v>
  <v type="int" >       10 </v>
  <v type="int" >       47 </v>
  <v type="int" >       42 </v>
  <v type="int" >        3 </v>
  <v type="int" >       23 </v>
  <v type="int" >       35 </v>
  <v type="int" >       28 </v>
  <v type="int" >       16 </v>
  <v type="int" >        7 </v>
  <v type="int" >       37 </v>
  <v type="int" >       11 </v>
  <v type="int" >       66 </v>
  <v type="int" >       13 </v>
  <v type="int" >       32 </v>
  <v type="int" >       58 </v>
  <v type="int" >       19 </v>
  <v type="int" >       72 </v>
  <v type="int" >       36 </v>
  <v type="int" >       52 </v>
  <v type="int" >       63 </v>
  <v type="int" >       48 </v>
  <v type="int" >       24 </v>
  <v type="int" >       43 </v>
  <v type="int" >       25 </v>
  <v type="int" >        4 </v>
  <v type="int" >       64 </v>
 </varray>
 <kpoints>
  <generation param="Gamma">
   <v type="int" name="divisions">       1        1        1 </v>
   <v name="usershift">      0.00000000       0.00000000       0.00000000 </v>
   <v name="genvec1">      1.00000000       0.00000000       0.00000000 </v>
   <v name="genvec2">      0.00000000       1.00000000       0.00000000 </v>
   <v name="genvec3">      0.00000000       0.00000000       1.00000000 </v>
   <v name="shift">      0.00000000       0.00000000       0.00000000 </v>
  </generation>
  <varray name="kpointlist" >
   <v>       0.00000000       0.00000000       0.00000000 </v>
  </varray>
  <varray name="weights" >
   <v>       1.00000000 </v>
  </varray>
 </kpoints>
 <parameters>
  <separator name="general" >
   <i type="string" name="SYSTEM">"Millerite NiS"</i>
   <i type="logical" name="LCOMPAT"> F  </i>
  </separator>
  <separator name="electronic" >
   <i type="string" name="PREC">normal</i>
   <i name="ENMAX">    450.00000000</i>
   <i name="ENAUG">    703.44300000</i>
   <i name="EDIFF">      0.00010000</i>
   <i type="int" name="IALGO">    38</i>
   <i type="int" name="IWAVPR">    10</i>
   <i type="int" name="NBANDS">   476</i>
   <i name="NELECT">    792.00000000</i>
   <i type="int" name="TURBO">     0</i>
   <i type="int" name="IRESTART">     0</i>
   <i type="int" name="NREBOOT">     0</i>
   <i type="int" name="NMIN">     0</i>
   <i name="EREF">      0.00000000</i>
   <separator name="electronic smearing" >
    <i type="int" name="ISMEAR">     0</i>
    <i name="SIGMA">      0.20000000</i>
    <i name="KSPACING">      0.50000000</i>
    <i type="logical" name="KGAMMA"> T  </i>
   </separator>
   <separator name="electronic projectors" >
    <i type="logical" name="LREAL"> T  </i>
    <v name="ROPT">     -0.00050000     -0.00050000</v>
    <i type="int" name="LMAXPAW">  -100</i>
    <i type="int" name="LMAXMIX">     2</i>
    <i type="logical" name="NLSPLINE"> F  </i>
   </separator>
   <separator name="electronic startup" >
    <i type="int" name="ISTART">     0</i>
    <i type="int" name="ICHARG">     2</i>
    <i type="int" name="INIWAV">     1</i>
   </separator>
   <separator name="electronic spin" >
    <i type="int" name="ISPIN">     1</i>
    <i type="logical" name="LNONCOLLINEAR"> F  </i>
    <v name="MAGMOM">      1.00000000      1.00000000      1.00000000      1.00000000      1.00000000      1.00000000      1.00000000      1.00000000      1.00000000      1.00000000      1.00000000      1.00000000      1.00000000      1.00000000      1.00000000      1.00000000      1.00000000      1.00000000      1.00000000      1.00000000
      1.00000000      1.00000000      1.00000000      1.00000000      1.00000000      1.00000000      1.00000000      1.00000000      1.00000000      1.00000000      1.00000000      1.00000000      1.00000000      1.00000000      1.00000000      1.00000000      1.00000000      1.00000000      1.00000000      1.00000000
      1.00000000      1.00000000      1.00000000      1.00000000      1.00000000      1.00000000      1.00000000      1.00000000      1.00000000      1.00000000      1.00000000      1.00000000      1.00000000      1.00000000      1.00000000      1.00000000      1.00000000      1.00000000      1.00000000      1.00000000
      1.00000000      1.00000000      1.00000000      1.00000000      1.00000000      1.00000000      1.00000000      1.00000000      1.00000000      1.00000000      1.00000000      1.00000000</v>
    <i name="NUPDOWN">     -1.00000000</i>
    <i type="logical" name="LSORBIT"> F  </i>
    <v name="SAXIS">      0.00000000      0.00000000      1.00000000</v>
    <i type="logical" name="LSPIRAL"> F  </i>
    <v name="QSPIRAL">      0.00000000      0.00000000      0.00000000</v>
    <i type="logical" name="LZEROZ"> F  </i>
   </separator>
   <separator name="electronic exchange-correlation" >
    <i type="logical" name="LASPH"> F  </i>
    <i type="logical" name="LMETAGGA"> F  </i>
   </separator>
   <separator name="electronic convergence" >
    <i type="int" name="NELM">   100</i>
    <i type="int" name="NELMDL">    -5</i>
    <i type="int" name="NELMIN">     2</i>
    <i name="ENINI">    450.00000000</i>
    <separator name="electronic convergence detail" >
     <i type="logical" name="LDIAG"> T  </i>
     <i type="logical" name="LSUBROT"> F  </i>
     <i name="WEIMIN">      0.00000000</i>
     <i name="EBREAK">      0.00000005</i>
     <i name="DEPER">      0.30000000</i>
     <i type="int" name="NRMM">     4</i>
     <i name="TIME">      0.40000000</i>
    </separator>
   </separator>
   <separator name="electronic mixer" >
    <i name="AMIX">      0.40000000</i>
    <i name="BMIX">      1.00000000</i>
    <i name="AMIN">      0.10000000</i>
    <i name="AMIX_MAG">      1.60000000</i>
    <i name="BMIX_MAG">      1.00000000</i>
    <separator name="electronic mixer details" >
     <i type="int" name="IMIX">     4</i>
     <i type="logical" name="MIXFIRST"> F  </i>
     <i type="int" name="MAXMIX">   -45</i>
     <i name="WC">    100.00000000</i>
     <i type="int" name="INIMIX">     1</i>
     <i type="int" name="MIXPRE">     1</i>
     <i type="int" name="MREMOVE">     5</i>
    </separator>
   </separator>
   <separator name="electronic dipolcorrection" >
    <i type="logical" name="LDIPOL"> F  </i>
    <i type="logical" name="LMONO"> F  </i>
    <i type="int" name="IDIPOL">     0</i>
    <i name="EPSILON">      1.00000000</i>
    <v name="DIPOL">   -100.00000000   -100.00000000   -100.00000000</v>
    <i name="EFIELD">      0.00000000</i>
   </separator>
  </separator>
  <separator name="grids" >
   <i type="int" name="NGX">    54</i>
   <i type="int" name="NGY">    54</i>
   <i type="int" name="NGZ">   108</i>
   <i type="int" name="NGXF">   108</i>
   <i type="int" name="NGYF">   108</i>
   <i type="int" name="NGZF">   216</i>
   <i type="logical" name="ADDGRID"> F  </i>
  </separator>
  <separator name="ionic" >
   <i type="int" name="NSW">     0</i>
   <i type="int" name="IBRION">    -1</i>
   <i type="int" name="MDALGO">     0</i>
   <i type="int" name="ISIF">     2</i>
   <i name="PSTRESS">      0.00000000</i>
   <i name="EDIFFG">      0.00100000</i>
   <i type="int" name="NFREE">     0</i>
   <i name="POTIM">      0.50000000</i>
   <i name="SMASS">     -3.00000000</i>
   <i name="SCALEE">      1.00000000</i>
  </separator>
  <separator name="ionic md" >
   <i name="TEBEG">      0.00010000</i>
   <i name="TEEND">      0.00010000</i>
   <i type="int" name="NBLOCK">     1</i>
   <i type="int" name="KBLOCK">     1</i>
   <i type="int" name="NPACO">   256</i>
   <i name="APACO">     16.00000000</i>
  </separator>
  <separator name="symmetry" >
   <i type="int" name="ISYM">     2</i>
   <i name="SYMPREC">      0.00001000</i>
  </separator>
  <separator name="dos" >
   <i type="int" name="LORBIT">     0</i>
   <v name="RWIGS">     -1.00000000     -1.00000000</v>
   <i type="int" name="NEDOS">   301</i>
   <i name="EMIN">     10.00000000</i>
   <i name="EMAX">    -10.00000000</i>
   <i name="EFERMI">      0.00000000</i>
  </separator>
  <separator name="writing" >
   <i type="int" name="NWRITE">     2</i>
   <i type="logical" name="LWAVE"> F  </i>
   <i type="logical" name="LDOWNSAMPLE"> F  </i>
   <i type="logical" name="LCHARG"> F  </i>
   <i type="logical" name="LPARD"> F  </i>
   <i type="logical" name="LVTOT"> F  </i>
   <i type="logical" name="LVHAR"> F  </i>
   <i type="logical" name="LELF"> F  </i>
   <i type="logical" name="LOPTICS"> F  </i>
   <v name="STM">      0.00000000      0.00000000      0.00000000      0.00000000      0.00000000      0.00000000      0.00000000</v>
  </separator>
  <separator name="performance" >
   <i type="int" name="NPAR">     2</i>
   <i type="int" name="NSIM">     4</i>
   <i type="int" name="NBLK">    -1</i>
   <i type="logical" name="LPLANE"> T  </i>
   <i type="logical" name="LSCALAPACK"> T  </i>
   <i type="logical" name="LSCAAWARE"> F  </i>
   <i type="logical" name="LSCALU"> F  </i>
   <i type="logical" name="LASYNC"> F  </i>
   <i type="logical" name="LORBITALREAL"> F  </i>
  </separator>
  <separator name="miscellaneous" >
   <i type="int" name="IDIOT">     3</i>
   <i type="int" name="ISPECIAL">     0</i>
   <i type="logical" name="LMUSIC"> F  </i>
   <v name="POMASS">     58.69000000     32.06600000</v>
   <v name="DARWINR">      0.00000000      0.00000000</v>
   <v name="DARWINV">      1.00000000      1.00000000</v>
   <i type="logical" name="LCORR"> T  </i>
  </separator>
  <i type="logical" name="GGA_COMPAT"> T  </i>
  <i type="logical" name="LBERRY"> F  </i>
  <i type="int" name="ICORELEVEL">     0</i>
  <i type="logical" name="LDAU"> F  </i>
  <i type="int" name="I_CONSTRAINED_M">     0</i>
  <separator name="electronic exchange-correlation" >
   <i type="string" name="GGA">--</i>
   <i type="int" name="VOSKOWN">     0</i>
   <i type="logical" name="LHFCALC"> F  </i>
   <i type="string" name="PRECFOCK"></i>
   <i type="logical" name="LSYMGRAD"> F  </i>
   <i type="logical" name="LHFONE"> F  </i>
   <i type="logical" name="LRHFCALC"> F  </i>
   <i type="logical" name="LTHOMAS"> F  </i>
   <i type="logical" name="LMODELHF"> F  </i>
   <i name="ENCUT4O">     -1.00000000</i>
   <i type="int" name="EXXOEP">     0</i>
   <i type="int" name="FOURORBIT">     0</i>
   <i name="AEXX">      0.00000000</i>
   <i name="HFALPHA">      0.00000000</i>
   <i name="MCALPHA">      0.00000000</i>
   <i name="ALDAX">      1.00000000</i>
   <i name="AGGAX">      1.00000000</i>
   <i name="ALDAC">      1.00000000</i>
   <i name="AGGAC">      1.00000000</i>
   <i type="int" name="NKREDX">     1</i>
   <i type="int" name="NKREDY">     1</i>
   <i type="int" name="NKREDZ">     1</i>
   <i type="logical" name="SHIFTRED"> F  </i>
   <i type="logical" name="ODDONLY"> F  </i>
   <i type="logical" name="EVENONLY"> F  </i>
   <i type="int" name="LMAXFOCK">     0</i>
   <i type="int" name="NMAXFOCKAE">     0</i>
   <i type="logical" name="LFOCKAEDFT"> F  </i>
   <i name="HFSCREEN">      0.00000000</i>
   <i name="HFSCREENC">      0.00000000</i>
   <i type="int" name="NBANDSGWLOW">     0</i>
  </separator>
  <separator name="vdW DFT" >
   <i type="logical" name="LUSE_VDW"> F  </i>
   <i name="Zab_VDW">     -0.84910000</i>
   <i name="PARAM1">      0.12340000</i>
   <i name="PARAM2">      1.00000000</i>
   <i name="PARAM3">      0.00000000</i>
  </separator>
  <separator name="model GW" >
   <i type="int" name="MODEL_GW">     0</i>
   <i name="MODEL_EPS0">     16.23762429</i>
   <i name="MODEL_ALPHA">      1.00000000</i>
  </separator>
  <separator name="linear response parameters" >
   <i type="logical" name="LEPSILON"> F  </i>
   <i type="logical" name="LRPA"> F  </i>
   <i type="logical" name="LNABLA"> F  </i>
   <i type="logical" name="LVEL"> F  </i>
   <i type="int" name="KINTER">     0</i>
   <i name="CSHIFT">      0.10000000</i>
   <i name="OMEGAMAX">     -1.00000000</i>
   <i name="DEG_THRESHOLD">      0.00200000</i>
   <i name="RTIME">     -0.10000000</i>
   <i name="WPLASMAI">      0.00000000</i>
   <v name="DFIELD">      0.00000000      0.00000000      0.00000000</v>
   <v name="WPLASMA">      0.00000000      0.00000000      0.00000000      0.00000000      0.00000000      0.00000000      0.00000000      0.00000000      0.00000000</v>
  </separator>
  <separator name="orbital magnetization" >
   <i type="logical" name="NUCIND"> F  </i>
   <v name="MAGPOS">      0.00000000      0.00000000      0.00000000</v>
   <i type="logical" name="LNICSALL"> T  </i>
   <i type="logical" name="ORBITALMAG"> F  </i>
   <i type="logical" name="LMAGBLOCH"> F  </i>
   <i type="logical" name="LCHIMAG"> F  </i>
   <i type="logical" name="LGAUGE"> T  </i>
   <i type="int" name="MAGATOM">     0</i>
   <v name="MAGDIPOL">      0.00000000      0.00000000      0.00000000</v>
   <v name="AVECCONST">      0.00000000      0.00000000      0.00000000</v>
  </separator>
  <separator name="response functions" >
   <i type="logical" name="LADDER"> F  </i>
   <i type="logical" name="LRPAFORCE"> F  </i>
   <i type="logical" name="LFXC"> F  </i>
   <i type="logical" name="LHARTREE"> T  </i>
   <i type="int" name="IBSE">     0</i>
   <v type="int" name="KPOINT">    -1     0     0     0</v>
   <i type="logical" name="LTCTE"> F  </i>
   <i type="logical" name="LTETE"> F  </i>
   <i type="logical" name="LTRIPLET"> F  </i>
   <i type="logical" name="LFXCEPS"> F  </i>
   <i type="logical" name="LFXHEG"> F  </i>
   <i type="int" name="NATURALO">     2</i>
   <i type="logical" name="L2ORDER"> F  </i>
   <i type="logical" name="LMP2LT"> F  </i>
   <i type="logical" name="LUSEW"> F  </i>
   <i name="ENCUTGW">     -2.00000000</i>
   <i name="ENCUTGWSOFT">     -2.00000000</i>
   <i name="ENCUTLF">     -1.00000000</i>
   <i type="int" name="LMAXMP2">    -1</i>
   <i name="SCISSOR">      0.00000000</i>
   <i type="int" name="NOMEGA">     0</i>
   <i type="int" name="NOMEGAR">     0</i>
   <i type="int" name="NBANDSGW">    -1</i>
   <i type="int" name="NBANDSO">    -1</i>
   <i type="int" name="NBANDSV">    -1</i>
   <i type="int" name="NELM">   100</i>
   <i type="int" name="NELMHF">     1</i>
   <i type="int" name="DIM">     3</i>
   <i type="int" name="ANTIRES">     0</i>
   <i name="OMEGAMAX">    -30.00000000</i>
   <i name="OMEGAMIN">    -30.00000000</i>
   <i name="OMEGATL">   -200.00000000</i>
   <i type="int" name="OMEGAGRID">   140</i>
   <i name="CSHIFT">     -0.10000000</i>
   <i type="logical" name="SELFENERGY"> F  </i>
   <i type="logical" name="LSPECTRAL"> F  </i>
   <i type="logical" name="LSPECTRALGW"> F  </i>
   <i type="logical" name="LSINGLES"> F  </i>
   <i type="logical" name="LFERMIGW"> F  </i>
   <i type="logical" name="ODDONLYGW"> F  </i>
   <i type="logical" name="EVENONLYGW"> F  </i>
   <i type="int" name="NKREDLFX">     1</i>
   <i type="int" name="NKREDLFY">     1</i>
   <i type="int" name="NKREDLFZ">     1</i>
   <i type="int" name="MAXMEM">  2800</i>
   <i type="int" name="TELESCOPE">     0</i>
   <i type="int" name="TAUPAR">     1</i>
   <i type="int" name="OMEGAPAR">    -1</i>
   <i name="LAMBDA">      1.00000000</i>
  </separator>
  <separator name="External order field" >
   <i name="OFIELD_KAPPA">      0.00000000</i>
   <v name="OFIELD_K">      0.00000000      0.00000000      0.00000000</v>
   <i name="OFIELD_Q6_NEAR">      0.00000000</i>
   <i name="OFIELD_Q6_FAR">      0.00000000</i>
   <i name="OFIELD_A">      0.00000000</i>
  </separator>
 </parameters>
 <atominfo>
  <atoms>      72 </atoms>
  <types>       2 </types>
  <array name="atoms" >
   <dimension dim="1">ion</dimension>
   <field type="string">element</field>
   <field type="int">atomtype</field>
   <set>
    <rc><c>Ni</c><c>   1</c></rc>
    <rc><c>Ni</c><c>   1</c></rc>
    <rc><c>Ni</c><c>   1</c></rc>
    <rc><c>Ni</c><c>   1</c></rc>
    <rc><c>Ni</c><c>   1</c></rc>
    <rc><c>Ni</c><c>   1</c></rc>
    <rc><c>Ni</c><c>   1</c></rc>
    <rc><c>Ni</c><c>   1</c></rc>
    <rc><c>Ni</c><c>   1</c></rc>
    <rc><c>Ni</c><c>   1</c></rc>
    <rc><c>Ni</c><c>   1</c></rc>
    <rc><c>Ni</c><c>   1</c></rc>
    <rc><c>Ni</c><c>   1</c></rc>
    <rc><c>Ni</c><c>   1</c></rc>
    <rc><c>Ni</c><c>   1</c></rc>
    <rc><c>Ni</c><c>   1</c></rc>
    <rc><c>Ni</c><c>   1</c></rc>
    <rc><c>Ni</c><c>   1</c></rc>
    <rc><c>Ni</c><c>   1</c></rc>
    <rc><c>Ni</c><c>   1</c></rc>
    <rc><c>Ni</c><c>   1</c></rc>
    <rc><c>Ni</c><c>   1</c></rc>
    <rc><c>Ni</c><c>   1</c></rc>
    <rc><c>Ni</c><c>   1</c></rc>
    <rc><c>Ni</c><c>   1</c></rc>
    <rc><c>Ni</c><c>   1</c></rc>
    <rc><c>Ni</c><c>   1</c></rc>
    <rc><c>Ni</c><c>   1</c></rc>
    <rc><c>Ni</c><c>   1</c></rc>
    <rc><c>Ni</c><c>   1</c></rc>
    <rc><c>Ni</c><c>   1</c></rc>
    <rc><c>Ni</c><c>   1</c></rc>
    <rc><c>Ni</c><c>   1</c></rc>
    <rc><c>Ni</c><c>   1</c></rc>
    <rc><c>Ni</c><c>   1</c></rc>
    <rc><c>Ni</c><c>   1</c></rc>
    <rc><c>S </c><c>   2</c></rc>
    <rc><c>S </c><c>   2</c></rc>
    <rc><c>S </c><c>   2</c></rc>
    <rc><c>S </c><c>   2</c></rc>
    <rc><c>S </c><c>   2</c></rc>
    <rc><c>S </c><c>   2</c></rc>
    <rc><c>S </c><c>   2</c></rc>
    <rc><c>S </c><c>   2</c></rc>
    <rc><c>S </c><c>   2</c></rc>
    <rc><c>S </c><c>   2</c></rc>
    <rc><c>S </c><c>   2</c></rc>
    <rc><c>S </c><c>   2</c></rc>
    <rc><c>S </c><c>   2</c></rc>
    <rc><c>S </c><c>   2</c></rc>
    <rc><c>S </c><c>   2</c></rc>
    <rc><c>S </c><c>   2</c></rc>
    <rc><c>S </c><c>   2</c></rc>
    <rc><c>S </c><c>   2</c></rc>
    <rc><c>S </c><c>   2</c></rc>
    <rc><c>S </c><c>   2</c></rc>
    <rc><c>S </c><c>   2</c></rc>
    <rc><c>S </c><c>   2</c></rc>
    <rc><c>S </c><c>   2</c></rc>
    <rc><c>S </c><c>   2</c></rc>
    <rc><c>S </c><c>   2</c></rc>
    <rc><c>S </c><c>   2</c></rc>
    <rc><c>S </c><c>   2</c></rc>
    <rc><c>S </c><c>   2</c></rc>
    <rc><c>S </c><c>   2</c></rc>
    <rc><c>S </c><c>   2</c></rc>
    <rc><c>S </c><c>   2</c></rc>
    <rc><c>S </c><c>   2</c></rc>
    <rc><c>S </c><c>   2</c></rc>
    <rc><c>S </c><c>   2</c></rc>
    <rc><c>S </c><c>   2</c></rc>
    <rc><c>S </c><c>   2</c></rc>
   </set>
  </array>
  <array name="atomtypes" >
   <dimension dim="1">type</dimension>
   <field type="int">atomspertype</field>
   <field type="string">element</field>
   <field>mass</field>
   <field>valence</field>
   <field type="string">pseudopotential</field>
   <set>
    <rc><c>  36</c><c>Ni</c><c>     58.69000000</c><c>     16.00000000</c><c>  PAW_PBE Ni_pv 06Sep2000               </c></rc>
    <rc><c>  36</c><c>S </c><c>     32.06600000</c><c>      6.00000000</c><c>  PAW_PBE S 06Sep2000                   </c></rc>
   </set>
  </array>
 </atominfo>
 <structure name="initialpos" >
  <crystal>
   <varray name="basis" >
    <v>      10.07973298       0.00000000       0.00000000 </v>
    <v>       3.57329804       9.42510255       0.00000000 </v>
    <v>       0.00000000       0.00000000      20.51013988 </v>
   </varray>
   <i name="volume">   1948.51491473 </i>
   <varray name="rec_basis" >
    <v>       0.09920898      -0.03761267       0.00000000 </v>
    <v>       0.00000000       0.10609964       0.00000000 </v>
    <v>       0.00000000       0.00000000       0.04875637 </v>
   </varray>
  </crystal>
  <varray name="positions" >
   <v>       0.37433215       0.75136220       0.09511235 </v>
   <v>       0.52460066       0.60109368       0.22312232 </v>
   <v>       0.67486918       0.45082517       0.35113229 </v>
   <v>       0.78405068       0.32906624       0.46539180 </v>
   <v>       0.56227858       0.16569871       0.07308358 </v>
   <v>       0.75775499       0.03460603       0.13778234 </v>
   <v>       0.03557796       0.74637612       0.38123746 </v>
   <v>       0.90802350       0.88433751       0.26579231 </v>
   <v>       0.14117783       0.31784985       0.18045233 </v>
   <v>       0.29144634       0.16758134       0.30846230 </v>
   <v>       0.44468238       0.02176351       0.42147207 </v>
   <v>       0.98671371       0.46602004       0.08600554 </v>
   <v>       0.99449587       0.13038452       0.39624001 </v>
   <v>       0.57265438       0.56403918       0.04958043 </v>
   <v>       0.70940298       0.41629137       0.15548031 </v>
   <v>       0.85967149       0.26602286       0.28349028 </v>
   <v>       0.09282582       0.69953520       0.19815030 </v>
   <v>       0.24309433       0.54926669       0.32616027 </v>
   <v>       0.38308918       0.40838562       0.43432073 </v>
   <v>       0.94255730       0.84980371       0.07014033 </v>
   <v>       0.32598014       0.13304754       0.11281032 </v>
   <v>       0.47624865       0.98277903       0.24082029 </v>
   <v>       0.62651717       0.83251052       0.36883026 </v>
   <v>       0.77160987       0.70663040       0.45873670 </v>
   <v>       0.04623832       0.38592466       0.42300380 </v>
   <v>       0.62236006       0.79050588       0.08261090 </v>
   <v>       0.74910482       0.64079553       0.18930132 </v>
   <v>       0.89937333       0.49052701       0.31731128 </v>
   <v>       0.98225915       0.07430787       0.10396133 </v>
   <v>       0.13252766       0.92403936       0.23197130 </v>
   <v>       0.27024608       0.79334726       0.34399554 </v>
   <v>       0.59396474       0.58879588       0.44831418 </v>
   <v>       0.24902563       0.52363344       0.04550097 </v>
   <v>       0.36568198       0.35755170       0.14663132 </v>
   <v>       0.51595050       0.20728318       0.27464130 </v>
   <v>       0.66087269       0.07129228       0.38834432 </v>
   <v>       0.06382158       0.26208477       0.34135992 </v>
   <v>       0.76328455       0.56262179       0.08533998 </v>
   <v>       0.91355306       0.41235328       0.21334995 </v>
   <v>       0.14670739       0.84586562       0.12800997 </v>
   <v>       0.29697590       0.69559711       0.25601994 </v>
   <v>       0.44724441       0.54532860       0.38402991 </v>
   <v>       0.56740833       0.40781922       0.48562402 </v>
   <v>       0.97122955       0.00031667       0.01577195 </v>
   <v>       0.35428483       0.29369165       0.05183580 </v>
   <v>       0.53013023       0.12910945       0.17067996 </v>
   <v>       0.68039874       0.97884094       0.29868993 </v>
   <v>       0.81665061       0.86190023       0.40972927 </v>
   <v>       0.41214686       0.93409538       0.06541866 </v>
   <v>       0.52796422       0.79794212       0.17147277 </v>
   <v>       0.67823274       0.64767361       0.29948274 </v>
   <v>       0.82850125       0.49740510       0.42749271 </v>
   <v>       0.75137277       0.22558612       0.09874204 </v>
   <v>       0.91138706       0.08118595       0.21414276 </v>
   <v>       0.06165557       0.93091744       0.34215273 </v>
   <v>       0.14454139       0.51469829       0.12880278 </v>
   <v>       0.29480990       0.36442978       0.25681275 </v>
   <v>       0.44507841       0.21416127       0.38482272 </v>
   <v>       0.02575024       0.63846865       0.03271841 </v>
   <v>       0.36905228       0.63796514       0.01303599 </v>
   <v>       0.47740939       0.51206696       0.12840637 </v>
   <v>       0.62767790       0.36179845       0.25641634 </v>
   <v>       0.77794641       0.21152993       0.38442632 </v>
   <v>       0.00107888       0.23769211       0.48031428 </v>
   <v>       0.01110074       0.64504227       0.29908634 </v>
   <v>       0.16362635       0.52822535       0.41716854 </v>
   <v>       0.71002875       0.94644746       0.05479206 </v>
   <v>       0.86083223       0.79531079       0.17107636 </v>
   <v>       0.09103571       0.23160382       0.09728572 </v>
   <v>       0.24425506       0.07855462       0.21374635 </v>
   <v>       0.39452358       0.92828611       0.34175632 </v>
   <v>       0.55350699       0.81100289       0.46129443 </v>
  </varray>
 </structure>
 <calculation>
  <scstep>
   <time name="dav">    6.79    6.79</time>
   <time name="total">    7.06    7.07</time>
   <energy>
    <i name="alphaZ">   1909.09476555 </i>
    <i name="ewald"> 208784.95931059 </i>
    <i name="hartreedc">-331079.74905366 </i>
    <i name="XCdc">   3678.31387477 </i>
    <i name="pawpsdc"> 112729.53333415 </i>
    <i name="pawaedc">-117641.51188735 </i>
    <i name="eentropy">     -0.39613043 </i>
    <i name="bandstr">  -4384.52739204 </i>
    <i name="atom"> 136002.60505376 </i>
    <i name="e_fr_energy">   9998.32187535 </i>
    <i name="e_wo_entrp">   9998.71800578 </i>
    <i name="e_0_energy">   9998.51994057 </i>
   </energy>
  </scstep>
  <scstep>
   <time name="dav">    6.14    6.14</time>
   <time name="total">    6.14    6.14</time>
   <energy>
    <i name="e_fr_energy">    624.12820184 </i>
    <i name="e_wo_entrp">    624.90235849 </i>
    <i name="e_0_energy">    624.51528016 </i>
   </energy>
  </scstep>
  <scstep>
   <time name="dav">    6.41    6.41</time>
   <time name="total">    6.41    6.41</time>
   <energy>
    <i name="e_fr_energy">   -341.64375333 </i>
    <i name="e_wo_entrp">   -340.70273799 </i>
    <i name="e_0_energy">   -341.17324566 </i>
   </energy>
  </scstep>
  <scstep>
   <time name="dav">    6.69    6.70</time>
   <time name="total">    6.70    6.70</time>
   <energy>
    <i name="e_fr_energy">   -401.46314108 </i>
    <i name="e_wo_entrp">   -400.49401654 </i>
    <i name="e_0_energy">   -400.97857881 </i>
   </energy>
  </scstep>
  <scstep>
   <time name="dav">    7.13    7.13</time>
   <time name="total">    7.35    7.35</time>
   <energy>
    <i name="e_fr_energy">   -403.97220700 </i>
    <i name="e_wo_entrp">   -403.00236693 </i>
    <i name="e_0_energy">   -403.48728696 </i>
   </energy>
  </scstep>
  <scstep>
   <time name="dav">    6.86    6.87</time>
   <time name="total">    7.35    7.35</time>
   <energy>
    <i name="e_fr_energy">   -460.96258123 </i>
    <i name="e_wo_entrp">   -460.11882286 </i>
    <i name="e_0_energy">   -460.54070205 </i>
   </energy>
  </scstep>
  <scstep>
   <time name="dav">    6.70    6.70</time>
   <time name="total">    7.23    7.23</time>
   <energy>
    <i name="e_fr_energy">   -364.12102007 </i>
    <i name="e_wo_entrp">   -363.35306695 </i>
    <i name="e_0_energy">   -363.73704351 </i>
   </energy>
  </scstep>
  <scstep>
   <time name="dav">    7.52    7.52</time>
   <time name="total">    8.01    8.01</time>
   <energy>
    <i name="e_fr_energy">   -418.53659050 </i>
    <i name="e_wo_entrp">   -417.67806011 </i>
    <i name="e_0_energy">   -418.10732530 </i>
   </energy>
  </scstep>
  <scstep>
   <time name="dav">    7.06    7.06</time>
   <time name="total">    7.54    7.54</time>
   <energy>
    <i name="e_fr_energy">   -378.31218355 </i>
    <i name="e_wo_entrp">   -377.26081950 </i>
    <i name="e_0_energy">   -377.78650153 </i>
   </energy>
  </scstep>
  <scstep>
   <time name="dav">    8.00    8.01</time>
   <time name="total">    8.59    8.59</time>
   <energy>
    <i name="e_fr_energy">   -395.01909090 </i>
    <i name="e_wo_entrp">   -394.01548858 </i>
    <i name="e_0_energy">   -394.51728974 </i>
   </energy>
  </scstep>
  <scstep>
   <time name="dav">    7.63    7.63</time>
   <time name="total">    8.35    8.36</time>
   <energy>
    <i name="e_fr_energy">   -377.10851129 </i>
    <i name="e_wo_entrp">   -376.05404157 </i>
    <i name="e_0_energy">   -376.58127643 </i>
   </energy>
  </scstep>
  <scstep>
   <time name="dav">    7.45    7.45</time>
   <time name="total">    7.93    7.94</time>
   <energy>
    <i name="e_fr_energy">   -363.92089365 </i>
    <i name="e_wo_entrp">   -363.10479109 </i>
    <i name="e_0_energy">   -363.51284237 </i>
   </energy>
  </scstep>
  <scstep>
   <time name="dav">    7.29    7.29</time>
   <time name="total">    7.79    7.79</time>
   <energy>
    <i name="e_fr_energy">   -361.86901447 </i>
    <i name="e_wo_entrp">   -360.97406043 </i>
    <i name="e_0_energy">   -361.42153745 </i>
   </energy>
  </scstep>
  <scstep>
   <time name="dav">    7.39    7.39</time>
   <time name="total">    8.00    8.00</time>
   <energy>
    <i name="e_fr_energy">   -358.48934506 </i>
    <i name="e_wo_entrp">   -357.64995740 </i>
    <i name="e_0_energy">   -358.06965123 </i>
   </energy>
  </scstep>
  <scstep>
   <time name="dav">    7.37    7.37</time>
   <time name="total">    7.86    7.86</time>
   <energy>
    <i name="e_fr_energy">   -356.67217600 </i>
    <i name="e_wo_entrp">   -355.83799156 </i>
    <i name="e_0_energy">   -356.25508378 </i>
   </energy>
  </scstep>
  <scstep>
   <time name="dav">    7.64    7.64</time>
   <time name="total">    8.12    8.13</time>
   <energy>
    <i name="e_fr_energy">   -355.98343255 </i>
    <i name="e_wo_entrp">   -355.14512874 </i>
    <i name="e_0_energy">   -355.56428065 </i>
   </energy>
  </scstep>
  <scstep>
   <time name="dav">    6.94    6.94</time>
   <time name="total">    7.43    7.43</time>
   <energy>
    <i name="e_fr_energy">   -355.79894285 </i>
    <i name="e_wo_entrp">   -354.95008823 </i>
    <i name="e_0_energy">   -355.37451554 </i>
   </energy>
  </scstep>
  <scstep>
   <time name="dav">    7.65    7.65</time>
   <time name="total">    8.14    8.14</time>
   <energy>
    <i name="e_fr_energy">   -355.57905313 </i>
    <i name="e_wo_entrp">   -354.72714722 </i>
    <i name="e_0_energy">   -355.15310017 </i>
   </energy>
  </scstep>
  <scstep>
   <time name="dav">    7.32    7.32</time>
   <time name="total">    7.82    7.82</time>
   <energy>
    <i name="e_fr_energy">   -355.41440634 </i>
    <i name="e_wo_entrp">   -354.54843788 </i>
    <i name="e_0_energy">   -354.98142211 </i>
   </energy>
  </scstep>
  <scstep>
   <time name="dav">    7.83    7.84</time>
   <time name="total">    8.33    8.33</time>
   <energy>
    <i name="e_fr_energy">   -355.14673212 </i>
    <i name="e_wo_entrp">   -354.28082721 </i>
    <i name="e_0_energy">   -354.71377967 </i>
   </energy>
  </scstep>
  <scstep>
   <time name="dav">    7.39    7.40</time>
   <time name="total">    7.90    7.90</time>
   <energy>
    <i name="e_fr_energy">   -355.00053152 </i>
    <i name="e_wo_entrp">   -354.10704979 </i>
    <i name="e_0_energy">   -354.55379065 </i>
   </energy>
  </scstep>
  <scstep>
   <time name="dav">    7.19    7.19</time>
   <time name="total">    7.82    7.82</time>
   <energy>
    <i name="e_fr_energy">   -354.98518493 </i>
    <i name="e_wo_entrp">   -354.10369730 </i>
    <i name="e_0_energy">   -354.54444112 </i>
   </energy>
  </scstep>
  <scstep>
   <time name="dav">    7.11    7.11</time>
   <time name="total">    7.61    7.61</time>
   <energy>
    <i name="e_fr_energy">   -354.97612444 </i>
    <i name="e_wo_entrp">   -354.08473382 </i>
    <i name="e_0_energy">   -354.53042913 </i>
   </energy>
  </scstep>
  <scstep>
   <time name="dav">    6.40    6.40</time>
   <time name="total">    6.90    6.90</time>
   <energy>
    <i name="e_fr_energy">   -354.97266531 </i>
    <i name="e_wo_entrp">   -354.08771124 </i>
    <i name="e_0_energy">   -354.53018827 </i>
   </energy>
  </scstep>
  <scstep>
   <time name="dav">    7.28    7.28</time>
   <time name="total">    7.78    7.78</time>
   <energy>
    <i name="e_fr_energy">   -354.97192887 </i>
    <i name="e_wo_entrp">   -354.08430178 </i>
    <i name="e_0_energy">   -354.52811532 </i>
   </energy>
  </scstep>
  <scstep>
   <time name="dav">    7.69    7.69</time>
   <time name="total">    8.19    8.19</time>
   <energy>
    <i name="e_fr_energy">   -354.95968343 </i>
    <i name="e_wo_entrp">   -354.07161410 </i>
    <i name="e_0_energy">   -354.51564876 </i>
   </energy>
  </scstep>
  <scstep>
   <time name="dav">    7.46    7.46</time>
   <time name="total">    7.96    7.96</time>
   <energy>
    <i name="e_fr_energy">   -354.95301371 </i>
    <i name="e_wo_entrp">   -354.06898011 </i>
    <i name="e_0_energy">   -354.51099691 </i>
   </energy>
  </scstep>
  <scstep>
   <time name="dav">    7.10    7.10</time>
   <time name="total">    7.60    7.61</time>
   <energy>
    <i name="e_fr_energy">   -354.95405994 </i>
    <i name="e_wo_entrp">   -354.06930699 </i>
    <i name="e_0_energy">   -354.51168346 </i>
   </energy>
  </scstep>
  <scstep>
   <time name="dav">    6.92    6.92</time>
   <time name="total">    7.42    7.42</time>
   <energy>
    <i name="e_fr_energy">   -354.95300214 </i>
    <i name="e_wo_entrp">   -354.06983926 </i>
    <i name="e_0_energy">   -354.51142070 </i>
   </energy>
  </scstep>
  <scstep>
   <time name="dav">    6.96    6.96</time>
   <time name="total">    7.46    7.47</time>
   <energy>
    <i name="e_fr_energy">   -354.95323310 </i>
    <i name="e_wo_entrp">   -354.06991156 </i>
    <i name="e_0_energy">   -354.51157233 </i>
   </energy>
  </scstep>
  <scstep>
   <time name="dav">    6.27    6.28</time>
   <time name="total">    6.54    6.55</time>
   <energy>
    <i name="alphaZ">   1909.09476555 </i>
    <i name="ewald"> 208784.95931059 </i>
    <i name="hartreedc">-330297.03398867 </i>
    <i name="XCdc">   3648.12008823 </i>
    <i name="pawpsdc"> 138085.21732280 </i>
    <i name="pawaedc">-143072.00440929 </i>
    <i name="eentropy">     -0.88355333 </i>
    <i name="bandstr"> -15415.02783723 </i>
    <i name="atom"> 136002.60505376 </i>
    <i name="e_fr_energy">   -354.95324758 </i>
    <i name="e_wo_entrp">   -354.06969425 </i>
    <i name="e_0_energy">   -354.51147092 </i>
   </energy>
  </scstep>
  <structure>
   <crystal>
    <varray name="basis" >
     <v>      10.07973298       0.00000000       0.00000000 </v>
     <v>       3.57329804       9.42510255       0.00000000 </v>
     <v>       0.00000000       0.00000000      20.51013988 </v>
    </varray>
    <i name="volume">   1948.51491473 </i>
    <varray name="rec_basis" >
     <v>       0.09920898      -0.03761267       0.00000000 </v>
     <v>       0.00000000       0.10609964       0.00000000 </v>
     <v>       0.00000000       0.00000000       0.04875637 </v>
    </varray>
   </crystal>
   <varray name="positions" >
    <v>       0.37433215       0.75136220       0.09511235 </v>
    <v>       0.52460066       0.60109368       0.22312232 </v>
    <v>       0.67486918       0.45082517       0.35113229 </v>
    <v>       0.78405068       0.32906624       0.46539180 </v>
    <v>       0.56227858       0.16569871       0.07308358 </v>
    <v>       0.75775499       0.03460603       0.13778234 </v>
    <v>       0.03557796       0.74637612       0.38123746 </v>
    <v>       0.90802350       0.88433751       0.26579231 </v>
    <v>       0.14117783       0.31784985       0.18045233 </v>
    <v>       0.29144634       0.16758134       0.30846230 </v>
    <v>       0.44468238       0.02176351       0.42147207 </v>
    <v>       0.98671371       0.46602004       0.08600554 </v>
    <v>       0.99449587       0.13038452       0.39624001 </v>
    <v>       0.57265438       0.56403918       0.04958043 </v>
    <v>       0.70940298       0.41629137       0.15548031 </v>
    <v>       0.85967149       0.26602286       0.28349028 </v>
    <v>       0.09282582       0.69953520       0.19815030 </v>
    <v>       0.24309433       0.54926669       0.32616027 </v>
    <v>       0.38308918       0.40838562       0.43432073 </v>
    <v>       0.94255730       0.84980371       0.07014033 </v>
    <v>       0.32598014       0.13304754       0.11281032 </v>
    <v>       0.47624865       0.98277903       0.24082029 </v>
    <v>       0.62651717       0.83251052       0.36883026 </v>
    <v>       0.77160987       0.70663040       0.45873670 </v>
    <v>       0.04623832       0.38592466       0.42300380 </v>
    <v>       0.62236006       0.79050588       0.08261090 </v>
    <v>       0.74910482       0.64079553       0.18930132 </v>
    <v>       0.89937333       0.49052701       0.31731128 </v>
    <v>       0.98225915       0.07430787       0.10396133 </v>
    <v>       0.13252766       0.92403936       0.23197130 </v>
    <v>       0.27024608       0.79334726       0.34399554 </v>
    <v>       0.59396474       0.58879588       0.44831418 </v>
    <v>       0.24902563       0.52363344       0.04550097 </v>
    <v>       0.36568198       0.35755170       0.14663132 </v>
    <v>       0.51595050       0.20728318       0.27464130 </v>
    <v>       0.66087269       0.07129228       0.38834432 </v>
    <v>       0.06382158       0.26208477       0.34135992 </v>
    <v>       0.76328455       0.56262179       0.08533998 </v>
    <v>       0.91355306       0.41235328       0.21334995 </v>
    <v>       0.14670739       0.84586562       0.12800997 </v>
    <v>       0.29697590       0.69559711       0.25601994 </v>
    <v>       0.44724441       0.54532860       0.38402991 </v>
    <v>       0.56740833       0.40781922       0.48562402 </v>
    <v>       0.97122955       0.00031667       0.01577195 </v>
    <v>       0.35428483       0.29369165       0.05183580 </v>
    <v>       0.53013023       0.12910945       0.17067996 </v>
    <v>       0.68039874       0.97884094       0.29868993 </v>
    <v>       0.81665061       0.86190023       0.40972927 </v>
    <v>       0.41214686       0.93409538       0.06541866 </v>
    <v>       0.52796422       0.79794212       0.17147277 </v>
    <v>       0.67823274       0.64767361       0.29948274 </v>
    <v>       0.82850125       0.49740510       0.42749271 </v>
    <v>       0.75137277       0.22558612       0.09874204 </v>
    <v>       0.91138706       0.08118595       0.21414276 </v>
    <v>       0.06165557       0.93091744       0.34215273 </v>
    <v>       0.14454139       0.51469829       0.12880278 </v>
    <v>       0.29480990       0.36442978       0.25681275 </v>
    <v>       0.44507841       0.21416127       0.38482272 </v>
    <v>       0.02575024       0.63846865       0.03271841 </v>
    <v>       0.36905228       0.63796514       0.01303599 </v>
    <v>       0.47740939       0.51206696       0.12840637 </v>
    <v>       0.62767790       0.36179845       0.25641634 </v>
    <v>       0.77794641       0.21152993       0.38442632 </v>
    <v>       0.00107888       0.23769211       0.48031428 </v>
    <v>       0.01110074       0.64504227       0.29908634 </v>
    <v>       0.16362635       0.52822535       0.41716854 </v>
    <v>       0.71002875       0.94644746       0.05479206 </v>
    <v>       0.86083223       0.79531079       0.17107636 </v>
    <v>       0.09103571       0.23160382       0.09728572 </v>
    <v>       0.24425506       0.07855462       0.21374635 </v>
    <v>       0.39452358       0.92828611       0.34175632 </v>
    <v>       0.55350699       0.81100289       0.46129443 </v>
   </varray>
  </structure>
  <varray name="forces" >
   <v>      -0.32841526       0.91314011       2.02294341 </v>
   <v>       0.05829244      -0.08109006       0.22024581 </v>
   <v>       0.09792726      -0.61048191      -1.05871468 </v>
   <v>      -0.96426340      -0.25490789       1.12071318 </v>
   <v>       0.72341074       0.19628436      -1.05333025 </v>
   <v>       0.78732762      -0.99701935       2.98282449 </v>
   <v>       0.51166908       0.46268421       1.36217443 </v>
   <v>       0.30618988       0.00120549      -0.10279498 </v>
   <v>       0.48813174       0.02404151       1.57443660 </v>
   <v>      -0.09267067      -0.16908618       0.18261749 </v>
   <v>      -0.18291312       0.23541675       1.23567644 </v>
   <v>      -0.27482030      -0.28277651      -1.29813944 </v>
   <v>      -0.05743591      -2.02136940      -0.45888956 </v>
   <v>       0.57800900      -0.66654829      -1.20898841 </v>
   <v>      -0.21645381       0.00863581       0.54880373 </v>
   <v>       0.11441644       0.00498182      -0.12724669 </v>
   <v>      -0.07021118       0.11108095       0.25999346 </v>
   <v>       0.47153722       0.54220516      -1.40319487 </v>
   <v>      -0.57402053      -0.36808180       0.81806567 </v>
   <v>      -0.78877541      -1.40817908       1.58078671 </v>
   <v>      -0.67086809      -0.05223592       0.49659502 </v>
   <v>      -0.11806444      -0.15857133      -0.05546116 </v>
   <v>       0.26387254       0.22721892      -2.63390556 </v>
   <v>       0.15752454      -0.57400520       0.89782126 </v>
   <v>       1.61106108       0.66322266       0.58149584 </v>
   <v>       0.32911424      -0.36640149      -0.96794185 </v>
   <v>      -0.17921378      -0.08946602       0.07705328 </v>
   <v>       0.02825671       0.07544887      -0.19325055 </v>
   <v>       0.39877318       0.96684977       2.55954617 </v>
   <v>      -0.04973049      -0.02159854       0.08903749 </v>
   <v>       0.98195549      -0.20203350       1.30892119 </v>
   <v>       0.44548705       1.27338423       0.41796923 </v>
   <v>      -0.27957098      -0.78245708      -0.86286677 </v>
   <v>       0.11263810       0.20439249       1.48009131 </v>
   <v>       0.30524836       0.00713140       0.02362015 </v>
   <v>       0.44017900       0.63647341       1.22935017 </v>
   <v>       1.16006236       0.11443106      -2.46762501 </v>
   <v>       0.67821594       0.06288679      -0.40836283 </v>
   <v>      -0.30006075       0.32995073       0.40792565 </v>
   <v>       0.15031773       0.09591465       0.14724176 </v>
   <v>       0.11293550      -1.03997436      -1.94124378 </v>
   <v>       0.56333482       2.20708515      -1.49642477 </v>
   <v>      -1.69131528      -0.90350235       2.92072603 </v>
   <v>       0.75680736       0.79106993      -4.31662669 </v>
   <v>       0.18333673       0.12042559      -3.28206560 </v>
   <v>      -0.37898552      -0.19378801       1.81359741 </v>
   <v>      -0.46198372      -0.48527163      -2.71965292 </v>
   <v>       1.36652490      -0.29911475       1.67290942 </v>
   <v>      -0.31311302       0.78386961      -1.85560937 </v>
   <v>      -0.89118818      -0.26649469       2.53575384 </v>
   <v>       0.06846222      -0.11339933      -0.59941339 </v>
   <v>       0.73368288       2.23598062      -0.78711994 </v>
   <v>       0.70027964       1.71360505      -1.70697215 </v>
   <v>       0.21119329      -0.17843220       0.34297637 </v>
   <v>      -0.11949627       1.10408747      -0.05071270 </v>
   <v>       0.59395644       0.75482685       3.22288342 </v>
   <v>      -0.07089487       0.05327820      -0.05579482 </v>
   <v>      -0.56901396       0.08300830      -0.19760561 </v>
   <v>      -0.45174000       0.02071661      -1.44710333 </v>
   <v>      -0.20945021       0.13619445      -3.51538806 </v>
   <v>      -0.39970800      -0.14597941       2.05078309 </v>
   <v>       0.04178227       0.10459454       0.12080060 </v>
   <v>      -1.70049486      -0.31858643      -1.46245831 </v>
   <v>       1.16848650      -1.24163637       3.34560693 </v>
   <v>      -0.71796291      -0.86192848      -2.07696445 </v>
   <v>      -1.09028102      -0.22581729       2.18321889 </v>
   <v>      -0.55624829      -0.86975029      -2.73739950 </v>
   <v>       0.36982605      -0.25516551       0.46839676 </v>
   <v>      -1.28847181      -0.62725469      -1.93980632 </v>
   <v>       0.19039246      -0.31309125       0.47864358 </v>
   <v>      -0.82461763      -0.18869984      -1.20779129 </v>
   <v>      -1.37816515       0.36847289       2.91461931 </v>
  </varray>
  <varray name="stress" >
   <v>      58.67086162       6.22923609      -2.41253633 </v>
   <v>       6.22923597      53.42747838       3.23039844 </v>
   <v>      -2.41253628       3.23039880      80.93758736 </v>
  </varray>
  <energy>
   <i name="e_fr_energy">   -354.95324758 </i>
   <i name="e_wo_entrp">   -354.51147092 </i>
   <i name="e_0_energy">     -0.88355333 </i>
  </energy>
  <time name="totalsc">  241.62  241.70</time>
  <eigenvalues>
   <array>
    <dimension dim="1">band</dimension>
    <dimension dim="2">kpoint</dimension>
    <dimension dim="3">spin</dimension>
    <field>eigene</field>
    <field>occ</field>
    <set>
     <set comment="spin 1">
      <set comment="kpoint 1">
       <r>  -63.3301    1.0000 </r>
       <r>  -63.2944    1.0000 </r>
       <r>  -63.2843    1.0000 </r>
       <r>  -63.2505    1.0000 </r>
       <r>  -63.1256    1.0000 </r>
       <r>  -63.1124    1.0000 </r>
       <r>  -63.0795    1.0000 </r>
       <r>  -63.0443    1.0000 </r>
       <r>  -63.0428    1.0000 </r>
       <r>  -63.0308    1.0000 </r>
       <r>  -63.0239    1.0000 </r>
       <r>  -63.0138    1.0000 </r>
       <r>  -62.9972    1.0000 </r>
       <r>  -62.9923    1.0000 </r>
       <r>  -62.9791    1.0000 </r>
       <r>  -62.9698    1.0000 </r>
       <r>  -62.9549    1.0000 </r>
       <r>  -62.9471    1.0000 </r>
       <r>  -62.9401    1.0000 </r>
       <r>  -62.9398    1.0000 </r>
       <r>  -62.9255    1.0000 </r>
       <r>  -62.9207    1.0000 </r>
       <r>  -62.9152    1.0000 </r>
       <r>  -62.8913    1.0000 </r>
       <r>  -62.8872    1.0000 </r>
       <r>  -62.8830    1.0000 </r>
       <r>  -62.8737    1.0000 </r>
       <r>  -62.8710    1.0000 </r>
       <r>  -62.8606    1.0000 </r>
       <r>  -62.8599    1.0000 </r>
       <r>  -62.8548    1.0000 </r>
       <r>  -62.8398    1.0000 </r>
       <r>  -62.8346    1.0000 </r>
       <r>  -62.8346    1.0000 </r>
       <r>  -62.8321    1.0000 </r>
       <r>  -62.8141    1.0000 </r>
       <r>  -62.8048    1.0000 </r>
       <r>  -62.7928    1.0000 </r>
       <r>  -62.7903    1.0000 </r>
       <r>  -62.7659    1.0000 </r>
       <r>  -62.7614    1.0000 </r>
       <r>  -62.7485    1.0000 </r>
       <r>  -62.7301    1.0000 </r>
       <r>  -62.7276    1.0000 </r>
       <r>  -62.7241    1.0000 </r>
       <r>  -62.7235    1.0000 </r>
       <r>  -62.7209    1.0000 </r>
       <r>  -62.7128    1.0000 </r>
       <r>  -62.7115    1.0000 </r>
       <r>  -62.7041    1.0000 </r>
       <r>  -62.6998    1.0000 </r>
       <r>  -62.6952    1.0000 </r>
       <r>  -62.6929    1.0000 </r>
       <r>  -62.6900    1.0000 </r>
       <r>  -62.6807    1.0000 </r>
       <r>  -62.6738    1.0000 </r>
       <r>  -62.6596    1.0000 </r>
       <r>  -62.6565    1.0000 </r>
       <r>  -62.6516    1.0000 </r>
       <r>  -62.6493    1.0000 </r>
       <r>  -62.6461    1.0000 </r>
       <r>  -62.6378    1.0000 </r>
       <r>  -62.6371    1.0000 </r>
       <r>  -62.6273    1.0000 </r>
       <r>  -62.6235    1.0000 </r>
       <r>  -62.6221    1.0000 </r>
       <r>  -62.6218    1.0000 </r>
       <r>  -62.6087    1.0000 </r>
       <r>  -62.6069    1.0000 </r>
       <r>  -62.6041    1.0000 </r>
       <r>  -62.6002    1.0000 </r>
       <r>  -62.5936    1.0000 </r>
       <r>  -62.5921    1.0000 </r>
       <r>  -62.5914    1.0000 </r>
       <r>  -62.5893    1.0000 </r>
       <r>  -62.5826    1.0000 </r>
       <r>  -62.5788    1.0000 </r>
       <r>  -62.5727    1.0000 </r>
       <r>  -62.5672    1.0000 </r>
       <r>  -62.5602    1.0000 </r>
       <r>  -62.5575    1.0000 </r>
       <r>  -62.5441    1.0000 </r>
       <r>  -62.5381    1.0000 </r>
       <r>  -62.5348    1.0000 </r>
       <r>  -62.5332    1.0000 </r>
       <r>  -62.5323    1.0000 </r>
       <r>  -62.5232    1.0000 </r>
       <r>  -62.5224    1.0000 </r>
       <r>  -62.5013    1.0000 </r>
       <r>  -62.4881    1.0000 </r>
       <r>  -62.4792    1.0000 </r>
       <r>  -62.4679    1.0000 </r>
       <r>  -62.4442    1.0000 </r>
       <r>  -62.4437    1.0000 </r>
       <r>  -62.4391    1.0000 </r>
       <r>  -62.4320    1.0000 </r>
       <r>  -62.4224    1.0000 </r>
       <r>  -62.4041    1.0000 </r>
       <r>  -62.3937    1.0000 </r>
       <r>  -62.3871    1.0000 </r>
       <r>  -62.3766    1.0000 </r>
       <r>  -62.3747    1.0000 </r>
       <r>  -62.3399    1.0000 </r>
       <r>  -62.2877    1.0000 </r>
       <r>  -62.1315    1.0000 </r>
       <r>  -62.0747    1.0000 </r>
       <r>  -62.0323    1.0000 </r>
       <r>  -61.9703    1.0000 </r>
       <r>  -14.8189    1.0000 </r>
       <r>  -14.5865    1.0000 </r>
       <r>  -14.2049    1.0000 </r>
       <r>  -13.9517    1.0000 </r>
       <r>  -13.7943    1.0000 </r>
       <r>  -13.7017    1.0000 </r>
       <r>  -13.6389    1.0000 </r>
       <r>  -13.5210    1.0000 </r>
       <r>  -13.4261    1.0000 </r>
       <r>  -13.3894    1.0000 </r>
       <r>  -13.2665    1.0000 </r>
       <r>  -13.2153    1.0000 </r>
       <r>  -13.0688    1.0000 </r>
       <r>  -12.9858    1.0000 </r>
       <r>  -12.9216    1.0000 </r>
       <r>  -12.8554    1.0000 </r>
       <r>  -12.8080    1.0000 </r>
       <r>  -12.6715    1.0000 </r>
       <r>  -12.6379    1.0000 </r>
       <r>  -12.5520    1.0000 </r>
       <r>  -12.5097    1.0000 </r>
       <r>  -12.4965    1.0000 </r>
       <r>  -12.3809    1.0000 </r>
       <r>  -12.2905    1.0000 </r>
       <r>  -12.2096    1.0000 </r>
       <r>  -12.1802    1.0000 </r>
       <r>  -12.1271    1.0000 </r>
       <r>  -12.0622    1.0000 </r>
       <r>  -12.0247    1.0000 </r>
       <r>  -12.0050    1.0000 </r>
       <r>  -11.9074    1.0000 </r>
       <r>  -11.8175    1.0000 </r>
       <r>  -11.7056    1.0000 </r>
       <r>  -11.6020    1.0000 </r>
       <r>  -11.5819    1.0000 </r>
       <r>  -11.3779    1.0000 </r>
       <r>   -6.4713    1.0000 </r>
       <r>   -6.2675    1.0000 </r>
       <r>   -6.2188    1.0000 </r>
       <r>   -6.1301    1.0000 </r>
       <r>   -6.0242    1.0000 </r>
       <r>   -5.9582    1.0000 </r>
       <r>   -5.9206    1.0000 </r>
       <r>   -5.8996    1.0000 </r>
       <r>   -5.8154    1.0000 </r>
       <r>   -5.7767    1.0000 </r>
       <r>   -5.7539    1.0000 </r>
       <r>   -5.6770    1.0000 </r>
       <r>   -5.6274    1.0000 </r>
       <r>   -5.5993    1.0000 </r>
       <r>   -5.5515    1.0000 </r>
       <r>   -5.5288    1.0000 </r>
       <r>   -5.4752    1.0000 </r>
       <r>   -5.4234    1.0000 </r>
       <r>   -5.3600    1.0000 </r>
       <r>   -5.2974    1.0000 </r>
       <r>   -5.2818    1.0000 </r>
       <r>   -5.2632    1.0000 </r>
       <r>   -5.1839    1.0000 </r>
       <r>   -5.1519    1.0000 </r>
       <r>   -5.0750    1.0000 </r>
       <r>   -5.0585    1.0000 </r>
       <r>   -5.0146    1.0000 </r>
       <r>   -4.9838    1.0000 </r>
       <r>   -4.9423    1.0000 </r>
       <r>   -4.8725    1.0000 </r>
       <r>   -4.8244    1.0000 </r>
       <r>   -4.7738    1.0000 </r>
       <r>   -4.7462    1.0000 </r>
       <r>   -4.6839    1.0000 </r>
       <r>   -4.5884    1.0000 </r>
       <r>   -4.5874    1.0000 </r>
       <r>   -4.5340    1.0000 </r>
       <r>   -4.5011    1.0000 </r>
       <r>   -4.4024    1.0000 </r>
       <r>   -4.3888    1.0000 </r>
       <r>   -4.3086    1.0000 </r>
       <r>   -4.2391    1.0000 </r>
       <r>   -4.1858    1.0000 </r>
       <r>   -4.1290    1.0000 </r>
       <r>   -4.0869    1.0000 </r>
       <r>   -4.0472    1.0000 </r>
       <r>   -3.9942    1.0000 </r>
       <r>   -3.9567    1.0000 </r>
       <r>   -3.9366    1.0000 </r>
       <r>   -3.8886    1.0000 </r>
       <r>   -3.8763    1.0000 </r>
       <r>   -3.8160    1.0000 </r>
       <r>   -3.7886    1.0000 </r>
       <r>   -3.7564    1.0000 </r>
       <r>   -3.7268    1.0000 </r>
       <r>   -3.7004    1.0000 </r>
       <r>   -3.6552    1.0000 </r>
       <r>   -3.6376    1.0000 </r>
       <r>   -3.6233    1.0000 </r>
       <r>   -3.5996    1.0000 </r>
       <r>   -3.5702    1.0000 </r>
       <r>   -3.5404    1.0000 </r>
       <r>   -3.5087    1.0000 </r>
       <r>   -3.4751    1.0000 </r>
       <r>   -3.4459    1.0000 </r>
       <r>   -3.4105    1.0000 </r>
       <r>   -3.3780    1.0000 </r>
       <r>   -3.3637    1.0000 </r>
       <r>   -3.3223    1.0000 </r>
       <r>   -3.2939    1.0000 </r>
       <r>   -3.2667    1.0000 </r>
       <r>   -3.2533    1.0000 </r>
       <r>   -3.2363    1.0000 </r>
       <r>   -3.1902    1.0000 </r>
       <r>   -3.1546    1.0000 </r>
       <r>   -3.1129    1.0000 </r>
       <r>   -3.1008    1.0000 </r>
       <r>   -3.0694    1.0000 </r>
       <r>   -3.0607    1.0000 </r>
       <r>   -3.0293    1.0000 </r>
       <r>   -2.9707    1.0000 </r>
       <r>   -2.9526    1.0000 </r>
       <r>   -2.9427    1.0000 </r>
       <r>   -2.8934    1.0000 </r>
       <r>   -2.8770    1.0000 </r>
       <r>   -2.8254    1.0000 </r>
       <r>   -2.8137    1.0000 </r>
       <r>   -2.7642    1.0000 </r>
       <r>   -2.7459    1.0000 </r>
       <r>   -2.7342    1.0000 </r>
       <r>   -2.6965    1.0000 </r>
       <r>   -2.6466    1.0000 </r>
       <r>   -2.6400    1.0000 </r>
       <r>   -2.6081    1.0000 </r>
       <r>   -2.5208    1.0000 </r>
       <r>   -2.4881    1.0000 </r>
       <r>   -2.4201    1.0000 </r>
       <r>   -2.3575    1.0000 </r>
       <r>   -2.3443    1.0000 </r>
       <r>   -2.3014    1.0000 </r>
       <r>   -2.2479    1.0000 </r>
       <r>   -2.1965    1.0000 </r>
       <r>   -2.1233    1.0000 </r>
       <r>   -2.0209    1.0000 </r>
       <r>   -1.9709    1.0000 </r>
       <r>   -1.9450    1.0000 </r>
       <r>   -1.9161    1.0000 </r>
       <r>   -1.8644    1.0000 </r>
       <r>   -1.8407    1.0000 </r>
       <r>   -1.7627    1.0000 </r>
       <r>   -1.7200    1.0000 </r>
       <r>   -1.6841    1.0000 </r>
       <r>   -1.6370    1.0000 </r>
       <r>   -1.5902    1.0000 </r>
       <r>   -1.5717    1.0000 </r>
       <r>   -1.5364    1.0000 </r>
       <r>   -1.5298    1.0000 </r>
       <r>   -1.4902    1.0000 </r>
       <r>   -1.4516    1.0000 </r>
       <r>   -1.4390    1.0000 </r>
       <r>   -1.4065    1.0000 </r>
       <r>   -1.3880    1.0000 </r>
       <r>   -1.3510    1.0000 </r>
       <r>   -1.3383    1.0000 </r>
       <r>   -1.3325    1.0000 </r>
       <r>   -1.3103    1.0000 </r>
       <r>   -1.2723    1.0000 </r>
       <r>   -1.2526    1.0000 </r>
       <r>   -1.2291    1.0000 </r>
       <r>   -1.2090    1.0000 </r>
       <r>   -1.1970    1.0000 </r>
       <r>   -1.1722    1.0000 </r>
       <r>   -1.1602    1.0000 </r>
       <r>   -1.1517    1.0000 </r>
       <r>   -1.1310    1.0000 </r>
       <r>   -1.1138    1.0000 </r>
       <r>   -1.0924    1.0000 </r>
       <r>   -1.0730    1.0000 </r>
       <r>   -1.0440    1.0000 </r>
       <r>   -1.0347    1.0000 </r>
       <r>   -1.0246    1.0000 </r>
       <r>   -0.9879    1.0000 </r>
       <r>   -0.9673    1.0000 </r>
       <r>   -0.9437    1.0000 </r>
       <r>   -0.9326    1.0000 </r>
       <r>   -0.9042    1.0000 </r>
       <r>   -0.8913    1.0000 </r>
       <r>   -0.8896    1.0000 </r>
       <r>   -0.8807    1.0000 </r>
       <r>   -0.8585    1.0000 </r>
       <r>   -0.8302    1.0000 </r>
       <r>   -0.8187    1.0000 </r>
       <r>   -0.8088    1.0000 </r>
       <r>   -0.7926    1.0000 </r>
       <r>   -0.7735    1.0000 </r>
       <r>   -0.7541    1.0000 </r>
       <r>   -0.7478    1.0000 </r>
       <r>   -0.7205    1.0000 </r>
       <r>   -0.6977    1.0000 </r>
       <r>   -0.6856    1.0000 </r>
       <r>   -0.6703    1.0000 </r>
       <r>   -0.6436    1.0000 </r>
       <r>   -0.6388    1.0000 </r>
       <r>   -0.6251    1.0000 </r>
       <r>   -0.6164    1.0000 </r>
       <r>   -0.5913    1.0000 </r>
       <r>   -0.5710    1.0000 </r>
       <r>   -0.5585    1.0000 </r>
       <r>   -0.5430    1.0000 </r>
       <r>   -0.5266    1.0000 </r>
       <r>   -0.5127    1.0000 </r>
       <r>   -0.4985    1.0000 </r>
       <r>   -0.4857    1.0000 </r>
       <r>   -0.4823    1.0000 </r>
       <r>   -0.4556    1.0000 </r>
       <r>   -0.4483    1.0000 </r>
       <r>   -0.4300    1.0000 </r>
       <r>   -0.4165    1.0000 </r>
       <r>   -0.4097    1.0000 </r>
       <r>   -0.3913    1.0000 </r>
       <r>   -0.3718    1.0000 </r>
       <r>   -0.3621    1.0000 </r>
       <r>   -0.3386    1.0000 </r>
       <r>   -0.3257    1.0000 </r>
       <r>   -0.3225    1.0000 </r>
       <r>   -0.3142    1.0000 </r>
       <r>   -0.3059    1.0000 </r>
       <r>   -0.2952    1.0000 </r>
       <r>   -0.2859    1.0000 </r>
       <r>   -0.2574    1.0000 </r>
       <r>   -0.2450    1.0000 </r>
       <r>   -0.2306    1.0000 </r>
       <r>   -0.2185    1.0000 </r>
       <r>   -0.2120    1.0000 </r>
       <r>   -0.1955    1.0000 </r>
       <r>   -0.1886    1.0000 </r>
       <r>   -0.1742    1.0000 </r>
       <r>   -0.1637    1.0000 </r>
       <r>   -0.1448    1.0000 </r>
       <r>   -0.1376    1.0000 </r>
       <r>   -0.1191    1.0000 </r>
       <r>   -0.1073    1.0000 </r>
       <r>   -0.0896    1.0000 </r>
       <r>   -0.0723    1.0000 </r>
       <r>   -0.0699    1.0000 </r>
       <r>   -0.0545    1.0000 </r>
       <r>   -0.0408    1.0000 </r>
       <r>   -0.0176    1.0000 </r>
       <r>   -0.0003    1.0000 </r>
       <r>    0.0240    1.0000 </r>
       <r>    0.0291    1.0000 </r>
       <r>    0.0440    1.0000 </r>
       <r>    0.0585    1.0000 </r>
       <r>    0.0748    1.0000 </r>
       <r>    0.1087    1.0000 </r>
       <r>    0.1250    1.0000 </r>
       <r>    0.1476    1.0000 </r>
       <r>    0.1651    1.0000 </r>
       <r>    0.1920    1.0000 </r>
       <r>    0.2295    1.0000 </r>
       <r>    0.2476    1.0000 </r>
       <r>    0.2878    1.0000 </r>
       <r>    0.2996    1.0000 </r>
       <r>    0.3824    1.0000 </r>
       <r>    0.3976    1.0000 </r>
       <r>    0.4254    1.0000 </r>
       <r>    0.4561    1.0000 </r>
       <r>    0.4978    1.0000 </r>
       <r>    0.5639    1.0000 </r>
       <r>    0.5704    1.0000 </r>
       <r>    0.5804    1.0000 </r>
       <r>    0.6290    1.0000 </r>
       <r>    0.6420    1.0000 </r>
       <r>    0.6867    1.0000 </r>
       <r>    0.7078    1.0000 </r>
       <r>    0.7673    1.0000 </r>
       <r>    0.7734    1.0000 </r>
       <r>    0.8256    1.0000 </r>
       <r>    0.8721    1.0000 </r>
       <r>    0.9274    0.9999 </r>
       <r>    0.9555    0.9999 </r>
       <r>    0.9705    0.9998 </r>
       <r>    1.0221    0.9992 </r>
       <r>    1.0580    0.9981 </r>
       <r>    1.1151    0.9936 </r>
       <r>    1.1644    0.9838 </r>
       <r>    1.2183    0.9606 </r>
       <r>    1.2422    0.9440 </r>
       <r>    1.3364    0.8221 </r>
       <r>    1.3626    0.7697 </r>
       <r>    1.4089    0.6593 </r>
       <r>    1.4156    0.6417 </r>
       <r>    1.4936    0.4253 </r>
       <r>    1.5273    0.3347 </r>
       <r>    1.5774    0.2174 </r>
       <r>    1.6444    0.1048 </r>
       <r>    1.6768    0.0689 </r>
       <r>    1.7248    0.0341 </r>
       <r>    1.7578    0.0199 </r>
       <r>    1.7734    0.0151 </r>
       <r>    1.8338    0.0047 </r>
       <r>    1.8757    0.0019 </r>
       <r>    1.9212    0.0007 </r>
       <r>    1.9322    0.0005 </r>
       <r>    1.9491    0.0003 </r>
       <r>    1.9908    0.0001 </r>
       <r>    2.0351    0.0000 </r>
       <r>    2.1022    0.0000 </r>
       <r>    2.1481    0.0000 </r>
       <r>    2.1738    0.0000 </r>
       <r>    2.2020    0.0000 </r>
       <r>    2.2290    0.0000 </r>
       <r>    2.2376    0.0000 </r>
       <r>    2.2774    0.0000 </r>
       <r>    2.3586    0.0000 </r>
       <r>    2.4022    0.0000 </r>
       <r>    2.4615    0.0000 </r>
       <r>    2.4827    0.0000 </r>
       <r>    2.5190    0.0000 </r>
       <r>    2.5560    0.0000 </r>
       <r>    2.5851    0.0000 </r>
       <r>    2.6229    0.0000 </r>
       <r>    2.6607    0.0000 </r>
       <r>    2.7353    0.0000 </r>
       <r>    2.7969    0.0000 </r>
       <r>    2.8096    0.0000 </r>
       <r>    2.8730    0.0000 </r>
       <r>    2.9496    0.0000 </r>
       <r>    4.4127    0.0000 </r>
       <r>    4.5476    0.0000 </r>
       <r>    4.6896    0.0000 </r>
       <r>    4.8069    0.0000 </r>
       <r>    5.0748    0.0000 </r>
       <r>    5.1425    0.0000 </r>
       <r>    5.2474    0.0000 </r>
       <r>    5.3545    0.0000 </r>
       <r>    5.4091    0.0000 </r>
       <r>    5.5973    0.0000 </r>
       <r>    5.6937    0.0000 </r>
       <r>    5.7757    0.0000 </r>
       <r>    5.8008    0.0000 </r>
       <r>    5.8595    0.0000 </r>
       <r>    5.9360    0.0000 </r>
       <r>    5.9684    0.0000 </r>
       <r>    6.0589    0.0000 </r>
       <r>    6.1566    0.0000 </r>
       <r>    6.2039    0.0000 </r>
       <r>    6.3171    0.0000 </r>
       <r>    6.3601    0.0000 </r>
       <r>    6.4063    0.0000 </r>
       <r>    6.4978    0.0000 </r>
       <r>    6.5322    0.0000 </r>
       <r>    6.5989    0.0000 </r>
       <r>    6.7522    0.0000 </r>
       <r>    6.8213    0.0000 </r>
       <r>    6.8612    0.0000 </r>
       <r>    6.8912    0.0000 </r>
       <r>    6.9425    0.0000 </r>
       <r>    6.9811    0.0000 </r>
       <r>    7.0215    0.0000 </r>
       <r>    7.0838    0.0000 </r>
       <r>    7.1233    0.0000 </r>
       <r>    7.2033    0.0000 </r>
       <r>    7.2333    0.0000 </r>
       <r>    7.2587    0.0000 </r>
       <r>    7.2730    0.0000 </r>
       <r>    7.2969    0.0000 </r>
       <r>    7.3746    0.0000 </r>
       <r>    7.3959    0.0000 </r>
       <r>    7.4378    0.0000 </r>
       <r>    7.4714    0.0000 </r>
       <r>    7.5520    0.0000 </r>
      </set>
     </set>
    </set>
   </array>
  </eigenvalues>
  <separator name="orbital magnetization" >
   <v name="MAGDIPOLOUT">      0.00000000      0.00000000      0.00000000</v>
  </separator>
  <dos>
   <i name="efermi">      1.46695371 </i>
   <total>
    <array>
     <dimension dim="1">gridpoints</dimension>
     <dimension dim="2">spin</dimension>
     <field>energy</field>
     <field>total</field>
     <field>integrated</field>
     <set>
      <set comment="spin 1">
       <r>   -66.8743     0.0000     0.0000 </r>
       <r>   -66.6144     0.0000     0.0000 </r>
       <r>   -66.3545     0.0000     0.0000 </r>
       <r>   -66.0946     0.0000     0.0000 </r>
       <r>   -65.8347     0.0000     0.0000 </r>
       <r>   -65.5748     0.0000     0.0000 </r>
       <r>   -65.3149     0.0000     0.0000 </r>
       <r>   -65.0549     0.0000     0.0000 </r>
       <r>   -64.7950     0.0000     0.0000 </r>
       <r>   -64.5351     0.0000     0.0000 </r>
       <r>   -64.2752     0.0000     0.0000 </r>
       <r>   -64.0153     0.0000     0.0000 </r>
       <r>   -63.7554     0.0192     0.0050 </r>
       <r>   -63.4955     2.4503     0.6418 </r>
       <r>   -63.2356    27.0494     7.6720 </r>
       <r>   -62.9757   110.1909    36.3108 </r>
       <r>   -62.7158   250.6712   101.4606 </r>
       <r>   -62.4559   287.7220   176.2399 </r>
       <r>   -62.1960   117.6961   206.8293 </r>
       <r>   -61.9361    28.2541   214.1726 </r>
       <r>   -61.6762     6.8175   215.9445 </r>
       <r>   -61.4163     0.2133   215.9999 </r>
       <r>   -61.1564     0.0004   216.0000 </r>
       <r>   -60.8965     0.0000   216.0000 </r>
       <r>   -60.6366     0.0000   216.0000 </r>
       <r>   -60.3767     0.0000   216.0000 </r>
       <r>   -60.1168     0.0000   216.0000 </r>
       <r>   -59.8569     0.0000   216.0000 </r>
       <r>   -59.5970     0.0000   216.0000 </r>
       <r>   -59.3371     0.0000   216.0000 </r>
       <r>   -59.0772     0.0000   216.0000 </r>
       <r>   -58.8173     0.0000   216.0000 </r>
       <r>   -58.5574     0.0000   216.0000 </r>
       <r>   -58.2975     0.0000   216.0000 </r>
       <r>   -58.0376     0.0000   216.0000 </r>
       <r>   -57.7777     0.0000   216.0000 </r>
       <r>   -57.5178     0.0000   216.0000 </r>
       <r>   -57.2579     0.0000   216.0000 </r>
       <r>   -56.9980     0.0000   216.0000 </r>
       <r>   -56.7381     0.0000   216.0000 </r>
       <r>   -56.4782     0.0000   216.0000 </r>
       <r>   -56.2183     0.0000   216.0000 </r>
       <r>   -55.9584     0.0000   216.0000 </r>
       <r>   -55.6985     0.0000   216.0000 </r>
       <r>   -55.4386     0.0000   216.0000 </r>
       <r>   -55.1787     0.0000   216.0000 </r>
       <r>   -54.9188     0.0000   216.0000 </r>
       <r>   -54.6589     0.0000   216.0000 </r>
       <r>   -54.3990     0.0000   216.0000 </r>
       <r>   -54.1391     0.0000   216.0000 </r>
       <r>   -53.8792     0.0000   216.0000 </r>
       <r>   -53.6193     0.0000   216.0000 </r>
       <r>   -53.3594     0.0000   216.0000 </r>
       <r>   -53.0995     0.0000   216.0000 </r>
       <r>   -52.8396     0.0000   216.0000 </r>
       <r>   -52.5797     0.0000   216.0000 </r>
       <r>   -52.3198     0.0000   216.0000 </r>
       <r>   -52.0599     0.0000   216.0000 </r>
       <r>   -51.8000     0.0000   216.0000 </r>
       <r>   -51.5401     0.0000   216.0000 </r>
       <r>   -51.2802     0.0000   216.0000 </r>
       <r>   -51.0203     0.0000   216.0000 </r>
       <r>   -50.7604     0.0000   216.0000 </r>
       <r>   -50.5005     0.0000   216.0000 </r>
       <r>   -50.2406     0.0000   216.0000 </r>
       <r>   -49.9807     0.0000   216.0000 </r>
       <r>   -49.7208     0.0000   216.0000 </r>
       <r>   -49.4609     0.0000   216.0000 </r>
       <r>   -49.2010     0.0000   216.0000 </r>
       <r>   -48.9411     0.0000   216.0000 </r>
       <r>   -48.6812     0.0000   216.0000 </r>
       <r>   -48.4213     0.0000   216.0000 </r>
       <r>   -48.1614     0.0000   216.0000 </r>
       <r>   -47.9015     0.0000   216.0000 </r>
       <r>   -47.6416     0.0000   216.0000 </r>
       <r>   -47.3817     0.0000   216.0000 </r>
       <r>   -47.1218     0.0000   216.0000 </r>
       <r>   -46.8619     0.0000   216.0000 </r>
       <r>   -46.6020     0.0000   216.0000 </r>
       <r>   -46.3420     0.0000   216.0000 </r>
       <r>   -46.0821     0.0000   216.0000 </r>
       <r>   -45.8222     0.0000   216.0000 </r>
       <r>   -45.5623     0.0000   216.0000 </r>
       <r>   -45.3024     0.0000   216.0000 </r>
       <r>   -45.0425     0.0000   216.0000 </r>
       <r>   -44.7826     0.0000   216.0000 </r>
       <r>   -44.5227     0.0000   216.0000 </r>
       <r>   -44.2628     0.0000   216.0000 </r>
       <r>   -44.0029     0.0000   216.0000 </r>
       <r>   -43.7430     0.0000   216.0000 </r>
       <r>   -43.4831     0.0000   216.0000 </r>
       <r>   -43.2232     0.0000   216.0000 </r>
       <r>   -42.9633     0.0000   216.0000 </r>
       <r>   -42.7034     0.0000   216.0000 </r>
       <r>   -42.4435     0.0000   216.0000 </r>
       <r>   -42.1836     0.0000   216.0000 </r>
       <r>   -41.9237     0.0000   216.0000 </r>
       <r>   -41.6638     0.0000   216.0000 </r>
       <r>   -41.4039     0.0000   216.0000 </r>
       <r>   -41.1440     0.0000   216.0000 </r>
       <r>   -40.8841     0.0000   216.0000 </r>
       <r>   -40.6242     0.0000   216.0000 </r>
       <r>   -40.3643     0.0000   216.0000 </r>
       <r>   -40.1044     0.0000   216.0000 </r>
       <r>   -39.8445     0.0000   216.0000 </r>
       <r>   -39.5846     0.0000   216.0000 </r>
       <r>   -39.3247     0.0000   216.0000 </r>
       <r>   -39.0648     0.0000   216.0000 </r>
       <r>   -38.8049     0.0000   216.0000 </r>
       <r>   -38.5450     0.0000   216.0000 </r>
       <r>   -38.2851     0.0000   216.0000 </r>
       <r>   -38.0252     0.0000   216.0000 </r>
       <r>   -37.7653     0.0000   216.0000 </r>
       <r>   -37.5054     0.0000   216.0000 </r>
       <r>   -37.2455     0.0000   216.0000 </r>
       <r>   -36.9856     0.0000   216.0000 </r>
       <r>   -36.7257     0.0000   216.0000 </r>
       <r>   -36.4658     0.0000   216.0000 </r>
       <r>   -36.2059     0.0000   216.0000 </r>
       <r>   -35.9460     0.0000   216.0000 </r>
       <r>   -35.6861     0.0000   216.0000 </r>
       <r>   -35.4262     0.0000   216.0000 </r>
       <r>   -35.1663     0.0000   216.0000 </r>
       <r>   -34.9064     0.0000   216.0000 </r>
       <r>   -34.6465     0.0000   216.0000 </r>
       <r>   -34.3866     0.0000   216.0000 </r>
       <r>   -34.1267     0.0000   216.0000 </r>
       <r>   -33.8668     0.0000   216.0000 </r>
       <r>   -33.6069     0.0000   216.0000 </r>
       <r>   -33.3470     0.0000   216.0000 </r>
       <r>   -33.0871     0.0000   216.0000 </r>
       <r>   -32.8272     0.0000   216.0000 </r>
       <r>   -32.5673     0.0000   216.0000 </r>
       <r>   -32.3074     0.0000   216.0000 </r>
       <r>   -32.0475     0.0000   216.0000 </r>
       <r>   -31.7876     0.0000   216.0000 </r>
       <r>   -31.5277     0.0000   216.0000 </r>
       <r>   -31.2678     0.0000   216.0000 </r>
       <r>   -31.0079     0.0000   216.0000 </r>
       <r>   -30.7480     0.0000   216.0000 </r>
       <r>   -30.4881     0.0000   216.0000 </r>
       <r>   -30.2282     0.0000   216.0000 </r>
       <r>   -29.9683     0.0000   216.0000 </r>
       <r>   -29.7084     0.0000   216.0000 </r>
       <r>   -29.4485     0.0000   216.0000 </r>
       <r>   -29.1886     0.0000   216.0000 </r>
       <r>   -28.9287     0.0000   216.0000 </r>
       <r>   -28.6688     0.0000   216.0000 </r>
       <r>   -28.4089     0.0000   216.0000 </r>
       <r>   -28.1490     0.0000   216.0000 </r>
       <r>   -27.8890     0.0000   216.0000 </r>
       <r>   -27.6291     0.0000   216.0000 </r>
       <r>   -27.3692     0.0000   216.0000 </r>
       <r>   -27.1093     0.0000   216.0000 </r>
       <r>   -26.8494     0.0000   216.0000 </r>
       <r>   -26.5895     0.0000   216.0000 </r>
       <r>   -26.3296     0.0000   216.0000 </r>
       <r>   -26.0697     0.0000   216.0000 </r>
       <r>   -25.8098     0.0000   216.0000 </r>
       <r>   -25.5499     0.0000   216.0000 </r>
       <r>   -25.2900     0.0000   216.0000 </r>
       <r>   -25.0301     0.0000   216.0000 </r>
       <r>   -24.7702     0.0000   216.0000 </r>
       <r>   -24.5103     0.0000   216.0000 </r>
       <r>   -24.2504     0.0000   216.0000 </r>
       <r>   -23.9905     0.0000   216.0000 </r>
       <r>   -23.7306     0.0000   216.0000 </r>
       <r>   -23.4707     0.0000   216.0000 </r>
       <r>   -23.2108     0.0000   216.0000 </r>
       <r>   -22.9509     0.0000   216.0000 </r>
       <r>   -22.6910     0.0000   216.0000 </r>
       <r>   -22.4311     0.0000   216.0000 </r>
       <r>   -22.1712     0.0000   216.0000 </r>
       <r>   -21.9113     0.0000   216.0000 </r>
       <r>   -21.6514     0.0000   216.0000 </r>
       <r>   -21.3915     0.0000   216.0000 </r>
       <r>   -21.1316     0.0000   216.0000 </r>
       <r>   -20.8717     0.0000   216.0000 </r>
       <r>   -20.6118     0.0000   216.0000 </r>
       <r>   -20.3519     0.0000   216.0000 </r>
       <r>   -20.0920     0.0000   216.0000 </r>
       <r>   -19.8321     0.0000   216.0000 </r>
       <r>   -19.5722     0.0000   216.0000 </r>
       <r>   -19.3123     0.0000   216.0000 </r>
       <r>   -19.0524     0.0000   216.0000 </r>
       <r>   -18.7925     0.0000   216.0000 </r>
       <r>   -18.5326     0.0000   216.0000 </r>
       <r>   -18.2727     0.0000   216.0000 </r>
       <r>   -18.0128     0.0000   216.0000 </r>
       <r>   -17.7529     0.0000   216.0000 </r>
       <r>   -17.4930     0.0000   216.0000 </r>
       <r>   -17.2331     0.0000   216.0000 </r>
       <r>   -16.9732     0.0000   216.0000 </r>
       <r>   -16.7133     0.0000   216.0000 </r>
       <r>   -16.4534     0.0000   216.0000 </r>
       <r>   -16.1935     0.0000   216.0000 </r>
       <r>   -15.9336     0.0000   216.0000 </r>
       <r>   -15.6737     0.0000   216.0000 </r>
       <r>   -15.4138     0.0001   216.0000 </r>
       <r>   -15.1539     0.0688   216.0179 </r>
       <r>   -14.8940     2.3363   216.6251 </r>
       <r>   -14.6341     7.3965   218.5475 </r>
       <r>   -14.3742     5.9705   220.0992 </r>
       <r>   -14.1143     6.3738   221.7558 </r>
       <r>   -13.8544    10.9290   224.5962 </r>
       <r>   -13.5945    19.4113   229.6413 </r>
       <r>   -13.3346    23.1673   235.6625 </r>
       <r>   -13.0747    22.1802   241.4271 </r>
       <r>   -12.8148    25.5799   248.0754 </r>
       <r>   -12.5549    29.0805   255.6335 </r>
       <r>   -12.2950    30.1044   263.4576 </r>
       <r>   -12.0351    34.0779   272.3145 </r>
       <r>   -11.7752    28.2713   279.6623 </r>
       <r>   -11.5153    20.2936   284.9366 </r>
       <r>   -11.2554    10.1590   287.5770 </r>
       <r>   -10.9955     1.6010   287.9931 </r>
       <r>   -10.7356     0.0265   288.0000 </r>
       <r>   -10.4757     0.0000   288.0000 </r>
       <r>   -10.2158     0.0000   288.0000 </r>
       <r>    -9.9559     0.0000   288.0000 </r>
       <r>    -9.6960     0.0000   288.0000 </r>
       <r>    -9.4361     0.0000   288.0000 </r>
       <r>    -9.1761     0.0000   288.0000 </r>
       <r>    -8.9162     0.0000   288.0000 </r>
       <r>    -8.6563     0.0000   288.0000 </r>
       <r>    -8.3964     0.0000   288.0000 </r>
       <r>    -8.1365     0.0000   288.0000 </r>
       <r>    -7.8766     0.0000   288.0000 </r>
       <r>    -7.6167     0.0000   288.0000 </r>
       <r>    -7.3568     0.0000   288.0000 </r>
       <r>    -7.0969     0.0000   288.0000 </r>
       <r>    -6.8370     0.0375   288.0098 </r>
       <r>    -6.5771     1.8692   288.4956 </r>
       <r>    -6.3172    10.3261   291.1793 </r>
       <r>    -6.0573    22.6752   297.0727 </r>
       <r>    -5.7974    36.1189   306.4600 </r>
       <r>    -5.5375    43.4500   317.7527 </r>
       <r>    -5.2776    43.7989   329.1361 </r>
       <r>    -5.0177    44.7647   340.7706 </r>
       <r>    -4.7578    42.4233   351.7964 </r>
       <r>    -4.4979    39.4473   362.0489 </r>
       <r>    -4.2380    36.5090   371.5376 </r>
       <r>    -3.9781    43.6797   382.8900 </r>
       <r>    -3.7182    59.0637   398.2408 </r>
       <r>    -3.4583    68.8103   416.1247 </r>
       <r>    -3.1984    69.6732   434.2328 </r>
       <r>    -2.9385    69.0621   452.1822 </r>
       <r>    -2.6786    64.3203   468.8991 </r>
       <r>    -2.4187    48.2718   481.4450 </r>
       <r>    -2.1588    38.7732   491.5222 </r>
       <r>    -1.8989    38.3251   501.4829 </r>
       <r>    -1.6390    48.7536   514.1541 </r>
       <r>    -1.3791    71.2547   532.6733 </r>
       <r>    -1.1192    96.7756   557.8254 </r>
       <r>    -0.8593   110.8629   586.6388 </r>
       <r>    -0.5994   123.3301   618.6924 </r>
       <r>    -0.3395   140.5199   655.2137 </r>
       <r>    -0.0796   146.1315   693.1935 </r>
       <r>     0.1803   110.2591   721.8500 </r>
       <r>     0.4402    68.5139   739.6569 </r>
       <r>     0.7001    60.5649   755.3978 </r>
       <r>     0.9600    53.9489   769.4192 </r>
       <r>     1.2199    45.6553   781.2851 </r>
       <r>     1.4798    43.4129   792.5681 </r>
       <r>     1.7397    46.3000   804.6016 </r>
       <r>     1.9996    53.1083   818.4045 </r>
       <r>     2.2595    53.1778   832.2255 </r>
       <r>     2.5194    49.4924   845.0886 </r>
       <r>     2.7793    44.3697   856.6204 </r>
       <r>     3.0392    24.5397   862.9983 </r>
       <r>     3.2991     3.7888   863.9830 </r>
       <r>     3.5590     0.0655   864.0000 </r>
       <r>     3.8189     0.0002   864.0000 </r>
       <r>     4.0788     0.0736   864.0192 </r>
       <r>     4.3387     2.8296   864.7546 </r>
       <r>     4.5986    11.5434   867.7547 </r>
       <r>     4.8585    13.2570   871.2002 </r>
       <r>     5.1184    12.9810   874.5740 </r>
       <r>     5.3783    19.4745   879.6355 </r>
       <r>     5.6382    18.8076   884.5236 </r>
       <r>     5.8981    28.4627   891.9211 </r>
       <r>     6.1580    28.9258   899.4389 </r>
       <r>     6.4179    28.7706   906.9164 </r>
       <r>     6.6778    27.9322   914.1761 </r>
       <r>     6.9377    33.8630   922.9771 </r>
       <r>     7.1976    44.5338   934.5515 </r>
       <r>     7.4575    45.9512   946.4943 </r>
       <r>     7.7174    19.5789   951.5829 </r>
       <r>     7.9773     1.5928   951.9968 </r>
       <r>     8.2372     0.0122   952.0000 </r>
       <r>     8.4971     0.0000   952.0000 </r>
       <r>     8.7570     0.0000   952.0000 </r>
       <r>     9.0169     0.0000   952.0000 </r>
       <r>     9.2768     0.0000   952.0000 </r>
       <r>     9.5368     0.0000   952.0000 </r>
       <r>     9.7967     0.0000   952.0000 </r>
       <r>    10.0566     0.0000   952.0000 </r>
       <r>    10.3165     0.0000   952.0000 </r>
       <r>    10.5764     0.0000   952.0000 </r>
       <r>    10.8363     0.0000   952.0000 </r>
       <r>    11.0962     0.0000   952.0000 </r>
      </set>
     </set>
    </array>
   </total>
  </dos>
 </calculation>
 <structure name="finalpos" >
  <crystal>
   <varray name="basis" >
    <v>      10.07973298       0.00000000       0.00000000 </v>
    <v>       3.57329804       9.42510255       0.00000000 </v>
    <v>       0.00000000       0.00000000      20.51013988 </v>
   </varray>
   <i name="volume">   1948.51491473 </i>
   <varray name="rec_basis" >
    <v>       0.09920898      -0.03761267       0.00000000 </v>
    <v>       0.00000000       0.10609964       0.00000000 </v>
    <v>       0.00000000       0.00000000       0.04875637 </v>
   </varray>
  </crystal>
  <varray name="positions" >
   <v>       0.37433215       0.75136220       0.09511235 </v>
   <v>       0.52460066       0.60109368       0.22312232 </v>
   <v>       0.67486918       0.45082517       0.35113229 </v>
   <v>       0.78405068       0.32906624       0.46539180 </v>
   <v>       0.56227858       0.16569871       0.07308358 </v>
   <v>       0.75775499       0.03460603       0.13778234 </v>
   <v>       0.03557796       0.74637612       0.38123746 </v>
   <v>       0.90802350       0.88433751       0.26579231 </v>
   <v>       0.14117783       0.31784985       0.18045233 </v>
   <v>       0.29144634       0.16758134       0.30846230 </v>
   <v>       0.44468238       0.02176351       0.42147207 </v>
   <v>       0.98671371       0.46602004       0.08600554 </v>
   <v>       0.99449587       0.13038452       0.39624001 </v>
   <v>       0.57265438       0.56403918       0.04958043 </v>
   <v>       0.70940298       0.41629137       0.15548031 </v>
   <v>       0.85967149       0.26602286       0.28349028 </v>
   <v>       0.09282582       0.69953520       0.19815030 </v>
   <v>       0.24309433       0.54926669       0.32616027 </v>
   <v>       0.38308918       0.40838562       0.43432073 </v>
   <v>       0.94255730       0.84980371       0.07014033 </v>
   <v>       0.32598014       0.13304754       0.11281032 </v>
   <v>       0.47624865       0.98277903       0.24082029 </v>
   <v>       0.62651717       0.83251052       0.36883026 </v>
   <v>       0.77160987       0.70663040       0.45873670 </v>
   <v>       0.04623832       0.38592466       0.42300380 </v>
   <v>       0.62236006       0.79050588       0.08261090 </v>
   <v>       0.74910482       0.64079553       0.18930132 </v>
   <v>       0.89937333       0.49052701       0.31731128 </v>
   <v>       0.98225915       0.07430787       0.10396133 </v>
   <v>       0.13252766       0.92403936       0.23197130 </v>
   <v>       0.27024608       0.79334726       0.34399554 </v>
   <v>       0.59396474       0.58879588       0.44831418 </v>
   <v>       0.24902563       0.52363344       0.04550097 </v>
   <v>       0.36568198       0.35755170       0.14663132 </v>
   <v>       0.51595050       0.20728318       0.27464130 </v>
   <v>       0.66087269       0.07129228       0.38834432 </v>
   <v>       0.06382158       0.26208477       0.34135992 </v>
   <v>       0.76328455       0.56262179       0.08533998 </v>
   <v>       0.91355306       0.41235328       0.21334995 </v>
   <v>       0.14670739       0.84586562       0.12800997 </v>
   <v>       0.29697590       0.69559711       0.25601994 </v>
   <v>       0.44724441       0.54532860       0.38402991 </v>
   <v>       0.56740833       0.40781922       0.48562402 </v>
   <v>       0.97122955       0.00031667       0.01577195 </v>
   <v>       0.35428483       0.29369165       0.05183580 </v>
   <v>       0.53013023       0.12910945       0.17067996 </v>
   <v>       0.68039874       0.97884094       0.29868993 </v>
   <v>       0.81665061       0.86190023       0.40972927 </v>
   <v>       0.41214686       0.93409538       0.06541866 </v>
   <v>       0.52796422       0.79794212       0.17147277 </v>
   <v>       0.67823274       0.64767361       0.29948274 </v>
   <v>       0.82850125       0.49740510       0.42749271 </v>
   <v>       0.75137277       0.22558612       0.09874204 </v>
   <v>       0.91138706       0.08118595       0.21414276 </v>
   <v>       0.06165557       0.93091744       0.34215273 </v>
   <v>       0.14454139       0.51469829       0.12880278 </v>
   <v>       0.29480990       0.36442978       0.25681275 </v>
   <v>       0.44507841       0.21416127       0.38482272 </v>
   <v>       0.02575024       0.63846865       0.03271841 </v>
   <v>       0.36905228       0.63796514       0.01303599 </v>
   <v>       0.47740939       0.51206696       0.12840637 </v>
   <v>       0.62767790       0.36179845       0.25641634 </v>
   <v>       0.77794641       0.21152993       0.38442632 </v>
   <v>       0.00107888       0.23769211       0.48031428 </v>
   <v>       0.01110074       0.64504227       0.29908634 </v>
   <v>       0.16362635       0.52822535       0.41716854 </v>
   <v>       0.71002875       0.94644746       0.05479206 </v>
   <v>       0.86083223       0.79531079       0.17107636 </v>
   <v>       0.09103571       0.23160382       0.09728572 </v>
   <v>       0.24425506       0.07855462       0.21374635 </v>
   <v>       0.39452358       0.92828611       0.34175632 </v>
   <v>       0.55350699       0.81100289       0.46129443 </v>
  </varray>
 </structure>
</modeling>
