       N       E                     dE             d eps       ncg     rms          rms(c)
DAV:   1     0.132013854446E+05    0.13201E+05   -0.67788E+05  1568   0.165E+03
DAV:   2     0.869727947326E+03   -0.12332E+05   -0.11912E+05  1336   0.529E+02
DAV:   3    -0.449552865404E+03   -0.13193E+04   -0.12366E+04  1472   0.184E+02
DAV:   4    -0.538278847794E+03   -0.88726E+02   -0.87630E+02  1504   0.421E+01
DAV:   5    -0.541606380596E+03   -0.33275E+01   -0.33238E+01  1696   0.864E+00    0.957E+01
DAV:   6    -0.657470192882E+03   -0.11586E+03   -0.12886E+03  1552   0.118E+02    0.192E+02
DAV:   7    -0.537122756007E+03    0.12035E+03   -0.24294E+02  1520   0.656E+01    0.107E+02
DAV:   8    -0.606869320360E+03   -0.69747E+02   -0.16147E+02  1576   0.944E+01    0.162E+02
DAV:   9    -0.513724893160E+03    0.93144E+02   -0.12429E+02  1776   0.624E+01    0.863E+01
DAV:  10    -0.537846879358E+03   -0.24122E+02   -0.12984E+02  1800   0.526E+01    0.145E+02
DAV:  11    -0.522207312874E+03    0.15640E+02   -0.94608E+01  1648   0.387E+01    0.645E+01
DAV:  12    -0.530391456286E+03   -0.81841E+01   -0.56497E+01  1832   0.500E+01    0.113E+02
DAV:  13    -0.512813446022E+03    0.17578E+02   -0.44978E+01  1776   0.313E+01    0.880E+01
DAV:  14    -0.507279332310E+03    0.55341E+01   -0.27601E+01  1808   0.315E+01    0.526E+01
DAV:  15    -0.495738413201E+03    0.11541E+02   -0.18779E+01  1752   0.219E+01    0.473E+01
DAV:  16    -0.489484306778E+03    0.62541E+01   -0.12118E+01  1752   0.189E+01    0.435E+01
DAV:  17    -0.486368024996E+03    0.31163E+01   -0.71035E+00  1728   0.152E+01    0.365E+01
DAV:  18    -0.483480267721E+03    0.28878E+01   -0.25862E+00  1752   0.891E+00    0.327E+01
DAV:  19    -0.482115362816E+03    0.13649E+01   -0.19891E+00  1760   0.869E+00    0.300E+01
DAV:  20    -0.479827514206E+03    0.22878E+01   -0.14360E+00  1792   0.627E+00    0.251E+01
DAV:  21    -0.478026200398E+03    0.18013E+01   -0.10152E+00  1776   0.576E+00    0.213E+01
DAV:  22    -0.475837335283E+03    0.21889E+01   -0.23501E+00  1904   0.937E+00    0.150E+01
DAV:  23    -0.475338419326E+03    0.49892E+00   -0.14028E+00  1688   0.410E+00    0.122E+01
DAV:  24    -0.475068731306E+03    0.26969E+00   -0.47380E-01  1736   0.348E+00    0.138E+01
DAV:  25    -0.474898933009E+03    0.16980E+00   -0.27897E-01  1648   0.159E+00    0.112E+01
DAV:  26    -0.474708311458E+03    0.19062E+00   -0.30590E-01  1872   0.301E+00    0.119E+01
DAV:  27    -0.474368453247E+03    0.33986E+00   -0.47611E-01  1832   0.343E+00    0.776E+00
DAV:  28    -0.474244126313E+03    0.12433E+00   -0.28530E-01  1808   0.342E+00    0.618E+00
DAV:  29    -0.474144847584E+03    0.99279E-01   -0.24887E-01  1752   0.294E+00    0.441E+00
DAV:  30    -0.474220382215E+03   -0.75535E-01   -0.25812E-01  1744   0.286E+00    0.623E+00
DAV:  31    -0.474153879225E+03    0.66503E-01   -0.26108E-01  1592   0.250E+00    0.471E+00
DAV:  32    -0.474184519116E+03   -0.30640E-01   -0.19298E-01  1744   0.234E+00    0.542E+00
DAV:  33    -0.474140080196E+03    0.44439E-01   -0.24358E-01  1728   0.187E+00    0.398E+00
DAV:  34    -0.474118107378E+03    0.21973E-01   -0.55770E-02  1712   0.133E+00    0.290E+00
DAV:  35    -0.474116327050E+03    0.17803E-02   -0.37726E-02  1672   0.958E-01    0.253E+00
DAV:  36    -0.474113315846E+03    0.30112E-02   -0.12605E-02  1728   0.704E-01    0.224E+00
DAV:  37    -0.474107089567E+03    0.62263E-02   -0.95821E-03  1704   0.556E-01    0.181E+00
DAV:  38    -0.474104328634E+03    0.27609E-02   -0.47313E-03  1632   0.395E-01    0.156E+00
DAV:  39    -0.474102054056E+03    0.22746E-02   -0.90898E-03  1696   0.430E-01    0.155E+00
DAV:  40    -0.474098455579E+03    0.35985E-02   -0.84977E-03  1648   0.434E-01    0.113E+00
DAV:  41    -0.474097140628E+03    0.13150E-02   -0.49689E-03  1776   0.333E-01    0.718E-01
DAV:  42    -0.474097446311E+03   -0.30568E-03   -0.20637E-03  1544   0.232E-01    0.729E-01
DAV:  43    -0.474096190084E+03    0.12562E-02   -0.20761E-03  1456   0.204E-01    0.312E-01
DAV:  44    -0.474096856590E+03   -0.66651E-03   -0.83743E-04  1344   0.185E-01    0.295E-01
DAV:  45    -0.474097686509E+03   -0.82992E-03   -0.11416E-03  1200   0.176E-01    0.346E-01
DAV:  46    -0.474097970751E+03   -0.28424E-03   -0.41507E-04   984   0.110E-01    0.288E-01
DAV:  47    -0.474098209135E+03   -0.23838E-03   -0.30805E-04   896   0.983E-02    0.163E-01
DAV:  48    -0.474098557173E+03   -0.34804E-03   -0.93381E-05   824   0.581E-02    0.140E-01
DAV:  49    -0.474099024733E+03   -0.46756E-03   -0.85783E-05   816   0.541E-02    0.116E-01
DAV:  50    -0.474099524956E+03   -0.50022E-03   -0.85570E-05   848   0.513E-02    0.647E-02
DAV:  51    -0.474099556341E+03   -0.31384E-04   -0.66519E-05   808   0.477E-02
   1 F= -.47409956E+03 E0= -.47345618E+03  d E =-.128676E+01
