 vasp.6.1.0 28Jan20 (build Mar 31 2020 17:42:31) gamma-only                     
  
 executed on             LinuxIFC date 2020.04.12  20:19:06
 running on   48 total cores
 distrk:  each k-point on   48 cores,    1 groups
 distr:  one band on NCORE=   6 cores,    8 groups


--------------------------------------------------------------------------------------------------------


 INCAR:
 POTCAR:    PAW_PBE Ni_pv 06Sep2000               
 POTCAR:    PAW_PBE S 06Sep2000                   
 POTCAR:    PAW_PBE Ni_pv 06Sep2000               
   VRHFIN =Ni:                                                                                      
   LEXCH  = PE                                                                                      
   EATOM  =  3501.1230 eV,  257.3253 Ry                                                             
                                                                                                    
   TITEL  = PAW_PBE Ni_pv 06Sep2000                                                                 
   LULTRA =        F    use ultrasoft PP ?                                                          
   IUNSCR =        1    unscreen: 0-lin 1-nonlin 2-no                                               
   RPACOR =    1.500    partial core radius                                                         
   POMASS =   58.690; ZVAL   =   16.000    mass and valenz                                          
   RCORE  =    2.000    outmost cutoff radius                                                       
   RWIGS  =    2.000; RWIGS  =    1.058    wigner-seitz radius (au A)                               
   ENMAX  =  367.986; ENMIN  =  275.989 eV                                                          
   RCLOC  =    1.301    cutoff for local pot                                                        
   LCOR   =        T    correct aug charges                                                         
   LPAW   =        T    paw PP                                                                      
   EAUG   =  703.443                                                                                
   DEXC   =    0.000                                                                                
   RMAX   =    2.041    core radius for proj-oper                                                   
   RAUG   =    1.300    factor for augmentation sphere                                              
   RDEP   =    2.103    radius for radial grids                                                     
   RDEPT  =    1.618    core radius for aug-charge                                                  
                                                                                                    
   Atomic configuration                                                                             
    8 entries                                                                                       
     n  l   j            E        occ.                                                              
     1  0  0.50     -8206.4253   2.0000                                                             
     2  0  0.50      -976.1748   2.0000                                                             
     2  1  1.50      -839.0571   6.0000                                                             
     3  0  0.50      -105.9991   2.0000                                                             
     3  1  1.50       -66.4603   6.0000                                                             
     3  2  2.50        -4.6458   9.0000                                                             
     4  0  0.50        -4.4926   1.0000                                                             
     4  3  2.50        -1.3606   0.0000                                                             
   Description                                                                                      
     l       E           TYP  RCUT    TYP  RCUT                                                     
     1    -66.4602962     23  1.700                                                                 
     1     -1.3605826     23  1.700                                                                 
     2     -4.6457867     23  2.000                                                                 
     2     -6.0063693     23  2.000                                                                 
     0     -4.4925576     23  1.900                                                                 
     0     16.3626226     23  1.900                                                                 
  local pseudopotential read in
  partial core-charges read in
  partial kinetic energy density read in
  atomic valenz-charges read in
  non local Contribution for L=           1  read in
    real space projection operators read in
  non local Contribution for L=           1  read in
    real space projection operators read in
  non local Contribution for L=           2  read in
    real space projection operators read in
  non local Contribution for L=           2  read in
    real space projection operators read in
  non local Contribution for L=           0  read in
    real space projection operators read in
  non local Contribution for L=           0  read in
    real space projection operators read in
    PAW grid and wavefunctions read in
 
   number of l-projection  operators is LMAX  =           6
   number of lm-projection operators is LMMAX =          18
 
 POTCAR:    PAW_PBE S 06Sep2000                   
   VRHFIN =S : s2p4                                                                                 
   LEXCH  = PE                                                                                      
   EATOM  =   276.8230 eV,   20.3459 Ry                                                             
                                                                                                    
   TITEL  = PAW_PBE S 06Sep2000                                                                     
   LULTRA =        F    use ultrasoft PP ?                                                          
   IUNSCR =        1    unscreen: 0-lin 1-nonlin 2-no                                               
   RPACOR =    1.500    partial core radius                                                         
   POMASS =   32.066; ZVAL   =    6.000    mass and valenz                                          
   RCORE  =    1.900    outmost cutoff radius                                                       
   RWIGS  =    2.200; RWIGS  =    1.164    wigner-seitz radius (au A)                               
   ENMAX  =  258.689; ENMIN  =  194.016 eV                                                          
   ICORE  =        2    local potential                                                             
   LCOR   =        T    correct aug charges                                                         
   LPAW   =        T    paw PP                                                                      
   EAUG   =  335.092                                                                                
   DEXC   =    0.000                                                                                
   RMAX   =    1.942    core radius for proj-oper                                                   
   RAUG   =    1.300    factor for augmentation sphere                                              
   RDEP   =    1.954    radius for radial grids                                                     
   RDEPT  =    1.744    core radius for aug-charge                                                  
                                                                                                    
   Atomic configuration                                                                             
    6 entries                                                                                       
     n  l   j            E        occ.                                                              
     1  0  0.50     -2405.8406   2.0000                                                             
     2  0  0.50      -211.7007   2.0000                                                             
     2  1  1.50      -156.4958   6.0000                                                             
     3  0  0.50       -17.2562   2.0000                                                             
     3  1  0.50        -7.0085   4.0000                                                             
     3  2  1.50        -6.8029   0.0000                                                             
   Description                                                                                      
     l       E           TYP  RCUT    TYP  RCUT                                                     
     0    -17.2561641     23  1.900                                                                 
     0    -15.8743224     23  1.900                                                                 
     1     -7.0085400     23  1.900                                                                 
     1     -2.7779785     23  1.900                                                                 
     2     -6.8029130     23  1.900                                                                 
  local pseudopotential read in
  partial core-charges read in
  partial kinetic energy density read in
  atomic valenz-charges read in
  non local Contribution for L=           0  read in
    real space projection operators read in
  non local Contribution for L=           0  read in
    real space projection operators read in
  non local Contribution for L=           1  read in
    real space projection operators read in
  non local Contribution for L=           1  read in
    real space projection operators read in
    PAW grid and wavefunctions read in
 
   number of l-projection  operators is LMAX  =           4
   number of lm-projection operators is LMMAX =           8
 
 Optimization of the real space projectors (new method)

 maximal supplied QI-value         = 18.90
 optimisation between [QCUT,QGAM] = [ 10.77, 21.73] = [ 32.49,132.25] Ry 
 Optimized for a Real-space Cutoff    1.38 Angstroem

   l    n(q)    QCUT    max X(q) W(low)/X(q) W(high)/X(q)  e(spline) 
   1      8    10.771     2.836    0.40E-04    0.29E-04    0.12E-06
   1      8    10.771     4.023    0.10E-03    0.48E-04    0.29E-06
   2      8    10.771    73.368    0.42E-03    0.97E-04    0.44E-06
   2      8    10.771    69.010    0.42E-03    0.99E-04    0.45E-06
   0      9    10.771    54.797    0.10E-03    0.56E-04    0.74E-07
   0      9    10.771    24.266    0.89E-04    0.49E-04    0.67E-07
 Optimization of the real space projectors (new method)

 maximal supplied QI-value         = 19.84
 optimisation between [QCUT,QGAM] = [ 10.71, 21.63] = [ 32.15,130.99] Ry 
 Optimized for a Real-space Cutoff    1.19 Angstroem

   l    n(q)    QCUT    max X(q) W(low)/X(q) W(high)/X(q)  e(spline) 
   0      8    10.715   187.594    0.41E-03    0.53E-04    0.66E-07
   0      8    10.715   164.243    0.41E-03    0.53E-04    0.65E-07
   1      7    10.715    67.533    0.19E-03    0.59E-03    0.68E-07
   1      7    10.715    50.729    0.19E-03    0.58E-03    0.67E-07
  PAW_PBE Ni_pv 06Sep2000               :
 energy of atom  1       EATOM=-3501.1230
 kinetic energy error for atom=    0.0925 (will be added to EATOM!!)
  PAW_PBE S 06Sep2000                   :
 energy of atom  2       EATOM= -276.8230
 kinetic energy error for atom=    0.0033 (will be added to EATOM!!)
 
 
 POSCAR: Structure 2 made from 0-21-10.xsd file
  positions in direct lattice
  No initial velocities read in
 exchange correlation table for  LEXCH =        8
   RHO(1)=    0.500       N(1)  =     2000
   RHO(2)=  100.500       N(2)  =     4000
 


--------------------------------------------------------------------------------------------------------


 ion  position               nearest neighbor table
   1  0.638  0.429  0.080-  46 2.25  66 2.26  67 2.36  55 2.36  28 2.53  14 2.53
   2  0.729  0.611  0.200-  47 2.25  55 2.26  67 2.26  68 2.36  56 2.36  15 2.53  29 2.53
   3  0.820  0.793  0.320-  48 2.25  56 2.26  68 2.26  69 2.36  54 2.36  26 2.53  16 2.53
   4  0.911  0.975  0.440-  44 2.25  54 2.26  69 2.26  53 2.36  17 2.53  27 2.53
   5  0.456  0.066  0.280-  49 2.25  74 2.26  57 2.26  70 2.36  58 2.36  30 2.53  21 2.53
   6  0.547  0.248  0.400-  50 2.25  70 2.26  58 2.26  71 2.36  59 2.36  18 2.53  31 2.53
   7  0.274  0.702  0.040-  72 2.26  73 2.36  60 2.36  33 2.53  19 2.53
   8  0.365  0.884  0.160-  52 2.25  60 2.26  73 2.26  74 2.36  57 2.36  20 2.53  34 2.53
   9  0.002  0.156  0.120-  42 2.25  61 2.26  78 2.26  77 2.36  62 2.36  24 2.53  35 2.53
  10  0.093  0.339  0.240-  43 2.25  62 2.26  77 2.26  75 2.36  63 2.36  36 2.53  22 2.53
  11  0.184  0.521  0.360-  40 2.25  75 2.26  63 2.26  76 2.36  64 2.36  23 2.53  37 2.53
  12  0.275  0.703  0.480-  41 2.25  76 2.26  64 2.26  65 2.36  38 2.53
  13  0.911  0.974  0.000-  78 2.36  61 2.36  25 2.53  39 2.53
  14  0.686  0.261  0.143-  57 2.25  42 2.26  66 2.26  67 2.36  43 2.36  28 2.53   1 2.53
  15  0.777  0.443  0.264-  58 2.25  67 2.26  43 2.26  68 2.36  40 2.36   2 2.53  29 2.53
  16  0.868  0.625  0.384-  59 2.25  40 2.26  68 2.26  69 2.36  41 2.36  26 2.53   3 2.53
  17  0.959  0.807  0.504-  69 2.26  41 2.26   4 2.53  27 2.53
  18  0.596  0.080  0.464-  65 2.25  70 2.26  44 2.26  71 2.36  45 2.36   6 2.53  31 2.53
  19  0.322  0.534  0.103-  62 2.25  46 2.26  72 2.26  47 2.36  73 2.36  33 2.53   7 2.53
  20  0.413  0.716  0.224-  63 2.25  47 2.26  73 2.26  74 2.36  48 2.36   8 2.53  34 2.53
  21  0.504  0.898  0.344-  64 2.25  48 2.26  74 2.26  70 2.36  44 2.36  30 2.53   5 2.53
  22  0.141  0.171  0.304-  54 2.25  49 2.26  77 2.26  50 2.36  75 2.36  36 2.53  10 2.53
  23  0.232  0.353  0.424-  53 2.25  50 2.26  75 2.26  76 2.36  51 2.36  11 2.53  37 2.53
  24  0.050  0.988  0.184-  56 2.25  52 2.26  78 2.26  77 2.36  49 2.36   9 2.53  35 2.53
  25  0.959  0.806  0.063-  55 2.25  78 2.36  52 2.36  13 2.53  39 2.53
  26  0.084  0.793  0.320-  74 2.25  56 2.26  40 2.26  54 2.36  41 2.36  16 2.53   3 2.53
  27  0.175  0.975  0.440-  70 2.25  54 2.26  41 2.26  53 2.36   4 2.53  17 2.53
  28  0.902  0.429  0.080-  72 2.25  42 2.26  43 2.36  55 2.36  14 2.53   1 2.53
  29  0.993  0.611  0.200-  73 2.25  55 2.26  43 2.26  40 2.36  56 2.36   2 2.53  15 2.53
  30  0.721  0.066  0.280-  77 2.25  48 2.26  57 2.26  44 2.36  58 2.36  21 2.53   5 2.53
  31  0.812  0.248  0.400-  75 2.25  44 2.26  58 2.26  45 2.36  59 2.36   6 2.53  18 2.53
  32  0.903  0.430  0.520-  76 2.25  59 2.26  45 2.26
  33  0.538  0.702  0.040-  46 2.26  47 2.36  60 2.36  19 2.53   7 2.53
  34  0.630  0.884  0.160-  78 2.25  47 2.26  60 2.26  48 2.36  57 2.36   8 2.53  20 2.53
  35  0.266  0.156  0.120-  66 2.25  61 2.26  52 2.26  49 2.36  62 2.36   9 2.53  24 2.53
  36  0.357  0.339  0.240-  67 2.25  62 2.26  49 2.26  50 2.36  63 2.36  22 2.53  10 2.53
  37  0.448  0.521  0.360-  68 2.25  50 2.26  63 2.26  51 2.36  64 2.36  11 2.53  23 2.53
  38  0.539  0.703  0.480-  69 2.25  51 2.26  64 2.26  65 2.36  12 2.53
  39  0.175  0.974  0.000-  52 2.36  61 2.36  13 2.53  25 2.53
  40  0.013  0.579  0.311-  11 2.25  16 2.26  26 2.26  29 2.36  15 2.36
  41  0.104  0.761  0.431-  12 2.25  27 2.26  17 2.26  26 2.36  16 2.36
  42  0.831  0.215  0.071-   9 2.25  28 2.26  14 2.26
  43  0.922  0.397  0.191-  10 2.25  29 2.26  15 2.26  28 2.36  14 2.36
  44  0.741  0.034  0.391-   4 2.25  31 2.26  18 2.26  30 2.36  21 2.36
  45  0.832  0.216  0.511-  32 2.26  31 2.36  18 2.36
  46  0.468  0.488  0.031-   1 2.25  33 2.26  19 2.26
  47  0.559  0.670  0.151-   2 2.25  34 2.26  20 2.26  33 2.36  19 2.36
  48  0.650  0.852  0.271-   3 2.25  30 2.26  21 2.26  34 2.36  20 2.36
  49  0.286  0.125  0.231-   5 2.25  22 2.26  36 2.26  35 2.36  24 2.36
  50  0.377  0.307  0.351-   6 2.25  37 2.26  23 2.26  36 2.36  22 2.36
  51  0.468  0.489  0.471-  38 2.26  37 2.36  23 2.36
  52  0.195  0.942  0.111-   8 2.25  24 2.26  35 2.26  39 2.36  25 2.36
  53  0.134  0.157  0.471-  23 2.25  27 2.36   4 2.36
  54  0.043  0.975  0.350-  22 2.25  27 2.26   4 2.26  26 2.36   3 2.36
  55  0.861  0.611  0.110-  25 2.25  29 2.26   2 2.26  28 2.36   1 2.36
  56  0.952  0.793  0.230-  24 2.25  26 2.26   3 2.26  29 2.36   2 2.36
  57  0.588  0.066  0.190-  14 2.25   5 2.26  30 2.26   8 2.36  34 2.36
  58  0.680  0.248  0.310-  15 2.25   6 2.26  31 2.26   5 2.36  30 2.36
  59  0.771  0.430  0.430-  16 2.25  32 2.26   6 2.36  31 2.36
  60  0.497  0.884  0.070-   8 2.26  34 2.26   7 2.36  33 2.36
  61  0.134  0.156  0.030-   9 2.26  35 2.26  39 2.36  13 2.36
  62  0.225  0.339  0.150-  19 2.25  36 2.26  10 2.26  35 2.36   9 2.36
  63  0.316  0.521  0.270-  20 2.25  11 2.26  37 2.26  36 2.36  10 2.36
  64  0.407  0.703  0.390-  21 2.25  12 2.26  38 2.26  11 2.36  37 2.36
  65  0.498  0.885  0.511-  18 2.25  12 2.36  38 2.36
  66  0.495  0.215  0.071-  35 2.25   1 2.26  14 2.26
  67  0.586  0.397  0.191-  36 2.25  15 2.26   2 2.26   1 2.36  14 2.36
  68  0.677  0.579  0.311-  37 2.25  16 2.26   3 2.26  15 2.36   2 2.36
  69  0.768  0.761  0.431-  38 2.25  17 2.26   4 2.26  16 2.36   3 2.36
  70  0.404  0.034  0.391-  27 2.25   6 2.26  18 2.26   5 2.36  21 2.36
  71  0.495  0.216  0.511-   6 2.36  18 2.36
  72  0.131  0.488  0.031-  28 2.25   7 2.26  19 2.26
  73  0.222  0.670  0.151-  29 2.25   8 2.26  20 2.26   7 2.36  19 2.36
  74  0.313  0.852  0.271-  26 2.25   5 2.26  21 2.26   8 2.36  20 2.36
  75  0.041  0.307  0.351-  31 2.25  11 2.26  23 2.26  10 2.36  22 2.36
  76  0.132  0.489  0.471-  32 2.25  12 2.26  11 2.36  23 2.36
  77  0.950  0.125  0.231-  30 2.25  22 2.26  10 2.26  24 2.36   9 2.36
  78  0.859  0.942  0.111-  34 2.25  24 2.26   9 2.26  25 2.36  13 2.36
 
  LATTYP: Found a base centered orthorhombic cell.
 ALAT       =     9.5784100000
 B/A-ratio  =     2.1722506660
 C/A-ratio  =     2.1764395278
  
  Lattice vectors:
  
 A1 = (   8.7007307979,   7.4473846003,   0.0000000000)
 A2 = (   0.0000000000, -11.4527836704,   0.0000000000)
 A3 = (   0.0000000000,   0.0000000000, -20.8468301371)


Analysis of symmetry for initial positions (statically):
=====================================================================
 Subroutine PRICEL returns:
 Original cell was already a primitive cell.
 

 Routine SETGRP: Setting up the symmetry group for a 
 base centered orthorhombic supercell.


 Subroutine GETGRP returns: Found  1 space group operations
 (whereof  1 operations were pure point group operations)
 out of a pool of  8 trial point group operations.


The static configuration has the point symmetry C_1 .


Analysis of symmetry for dynamics (positions and initial velocities):
=====================================================================
 Subroutine PRICEL returns:
 Original cell was already a primitive cell.
 

 Routine SETGRP: Setting up the symmetry group for a 
 base centered orthorhombic supercell.


 Subroutine GETGRP returns: Found  1 space group operations
 (whereof  1 operations were pure point group operations)
 out of a pool of  8 trial point group operations.


The dynamic configuration has the point symmetry C_1 .


 Subroutine INISYM returns: Found  1 space group operations
 (whereof  1 operations are pure point group operations),
 and found     1 'primitive' translations


----------------------------------------------------------------------------------------

                                     Primitive cell                                     

  volume of cell :    2077.3363

  direct lattice vectors                    reciprocal lattice vectors
     8.700730798 -4.005399070  0.000000000     0.114932874  0.000000000  0.000000000
     0.000000000 11.452783670  0.000000000     0.040195645  0.087315017  0.000000000
     0.000000000  0.000000000 20.846830137     0.000000000  0.000000000  0.047968923

  length of vectors
     9.578410000 11.452783670 20.846830137     0.114932874  0.096122849  0.047968923

  position of ions in fractional coordinates (direct lattice)
     0.637935914  0.429045576  0.080047810
     0.728992922  0.611159592  0.200119525
     0.820049929  0.793273607  0.320191240
     0.911106937  0.975387622  0.440262955
     0.456364260  0.065902268  0.280167335
     0.547421268  0.248016283  0.400239050
     0.274250245  0.701674238  0.040023905
     0.365307253  0.883788253  0.160095620
     0.001621584  0.156416915  0.120071715
     0.092678591  0.338530930  0.240143430
     0.183735599  0.520644945  0.360215145
     0.274792606  0.702758960  0.480286860
     0.910564576  0.974302900  0.000000000
     0.686051530  0.261070807  0.143495145
     0.777108537  0.443184823  0.263566860
     0.868165545  0.625298838  0.383638575
     0.959222552  0.807412853  0.503710290
     0.595536883  0.080041514  0.463686385
     0.322365861  0.533699469  0.103471240
     0.413422868  0.715813484  0.223542955
     0.504479876  0.897927499  0.343614670
     0.140794207  0.170556161  0.303590765
     0.231851214  0.352670176  0.423662480
     0.049737199  0.988442146  0.183519050
     0.958680191  0.806328131  0.063447335
     0.084255929  0.793273607  0.320191240
     0.175312937  0.975387622  0.440262955
     0.902141914  0.429045576  0.080047810
     0.993198922  0.611159592  0.200119525
     0.720570260  0.065902268  0.280167335
     0.811627268  0.248016283  0.400239050
     0.902684275  0.430130299  0.520310765
     0.538456245  0.701674238  0.040023905
     0.629513253  0.883788253  0.160095620
     0.265827584  0.156416915  0.120071715
     0.356884591  0.338530930  0.240143430
     0.447941599  0.520644945  0.360215145
     0.538998606  0.702758960  0.480286860
     0.174770576  0.974302900  0.000000000
     0.013407097  0.579351942  0.311152161
     0.104464105  0.761465957  0.431223876
     0.831293082  0.215123912  0.071008731
     0.922350090  0.397237927  0.191080446
     0.740778436  0.034094619  0.391199971
     0.831835443  0.216208634  0.511271686
     0.467607413  0.487752574  0.030984826
     0.558664420  0.669866589  0.151056541
     0.649721428  0.851980604  0.271128256
     0.286035759  0.124609265  0.231104351
     0.377092766  0.306723281  0.351176066
     0.468149774  0.488837296  0.471247781
     0.194978751  0.942495250  0.111032636
     0.134252494  0.157472736  0.470504137
     0.043195487  0.975358721  0.350432422
     0.861081472  0.611130691  0.110288992
     0.952138479  0.793244706  0.230360707
     0.588452810  0.065873368  0.190336802
     0.679509817  0.247987383  0.310408517
     0.770566825  0.430101398  0.430480232
     0.497395802  0.883759353  0.070265087
     0.133710133  0.156388014  0.030241182
     0.224767141  0.338502029  0.150312897
     0.315824148  0.520616044  0.270384612
     0.406881156  0.702730060  0.390456327
     0.497938163  0.884844075  0.510528042
     0.494863082  0.215123912  0.071008731
     0.585920090  0.397237927  0.191080446
     0.676977097  0.579351942  0.311152161
     0.768034105  0.761465957  0.431223876
     0.404348436  0.034094619  0.391199971
     0.495405443  0.216208634  0.511271686
     0.131177413  0.487752574  0.030984826
     0.222234420  0.669866589  0.151056541
     0.313291428  0.851980604  0.271128256
     0.040662766  0.306723281  0.351176066
     0.131719774  0.488837296  0.471247781
     0.949605759  0.124609265  0.231104351
     0.858548751  0.942495250  0.111032636

  ion indices of the primitive-cell ions
   primitive index   ion index
                 1           1
                 2           2
                 3           3
                 4           4
                 5           5
                 6           6
                 7           7
                 8           8
                 9           9
                10          10
                11          11
                12          12
                13          13
                14          14
                15          15
                16          16
                17          17
                18          18
                19          19
                20          20
                21          21
                22          22
                23          23
                24          24
                25          25
                26          26
                27          27
                28          28
                29          29
                30          30
                31          31
                32          32
                33          33
                34          34
                35          35
                36          36
                37          37
                38          38
                39          39
                40          40
                41          41
                42          42
                43          43
                44          44
                45          45
                46          46
                47          47
                48          48
                49          49
                50          50
                51          51
                52          52
                53          53
                54          54
                55          55
                56          56
                57          57
                58          58
                59          59
                60          60
                61          61
                62          62
                63          63
                64          64
                65          65
                66          66
                67          67
                68          68
                69          69
                70          70
                71          71
                72          72
                73          73
                74          74
                75          75
                76          76
                77          77
                78          78

----------------------------------------------------------------------------------------

 
 
 KPOINTS: gamma-point-only calculation. no periodi

Automatic generation of k-mesh.
Space group operators:
 irot       det(A)        alpha          n_x          n_y          n_z        tau_x        tau_y        tau_z
    1     1.000000     0.000000     1.000000     0.000000     0.000000     0.000000     0.000000     0.000000
 
 Subroutine IBZKPT returns following result:
 ===========================================
 
 Found      1 irreducible k-points:
 
 Following reciprocal coordinates:
            Coordinates               Weight
  0.000000  0.000000  0.000000      1.000000
 
 Following cartesian coordinates:
            Coordinates               Weight
  0.000000  0.000000  0.000000      1.000000
 


--------------------------------------------------------------------------------------------------------




 Dimension of arrays:
   k-points           NKPTS =      1   k-points in BZ     NKDIM =      1   number of bands    NBANDS=    520
   number of dos      NEDOS =    301   number of ions     NIONS =     78
   non local maximal  LDIM  =      6   non local SUM 2l+1 LMDIM =     18
   total plane-waves  NPLWV = 324000
   max r-space proj   IRMAX =   1770   max aug-charges    IRDMAX=   5113
   dimension x,y,z NGX =    50 NGY =   60 NGZ =  108
   dimension x,y,z NGXF=   100 NGYF=  120 NGZF=  216
   support grid    NGXF=   100 NGYF=  120 NGZF=  216
   ions per type =              39  39
   NGX,Y,Z   is equivalent  to a cutoff of   8.68,  8.71,  8.61 a.u.
   NGXF,Y,Z  is equivalent  to a cutoff of  17.36, 17.42, 17.23 a.u.

 SYSTEM =  "Millerite NiS"                         
 POSCAR =  Structure 2 made from 0-21-10.xsd file  

 Startparameter for this run:
   NWRITE =      2    write-flag & timer
   PREC   = normal    normal or accurate (medium, high low for compatibility)
   ISTART =      0    job   : 0-new  1-cont  2-samecut
   ICHARG =      2    charge: 1-file 2-atom 10-const
   ISPIN  =      1    spin polarized calculation?
   LNONCOLLINEAR =      F non collinear calculations
   LSORBIT =      F    spin-orbit coupling
   INIWAV =      1    electr: 0-lowe 1-rand  2-diag
   LASPH  =      F    aspherical Exc in radial PAW
   METAGGA=      F    non-selfconsistent MetaGGA calc.

 Electronic Relaxation 1
   ENCUT  =  450.0 eV  33.07 Ry    5.75 a.u.  16.57 19.81 36.06*2*pi/ulx,y,z
   ENINI  =  450.0     initial cutoff
   ENAUG  =  703.4 eV  augmentation charge cutoff
   NELM   =    100;   NELMIN=  2; NELMDL= -5     # of ELM steps 
   EDIFF  = 0.1E-03   stopping-criterion for ELM
   LREAL  =      T    real-space projection
   NLSPLINE    = F    spline interpolate recip. space projectors
   LCOMPAT=      F    compatible to vasp.4.4
   GGA_COMPAT  = T    GGA compatible to vasp.4.4-vasp.4.6
   LMAXPAW     = -100 max onsite density
   LMAXMIX     =    2 max onsite mixed and CHGCAR
   VOSKOWN=      0    Vosko Wilk Nusair interpolation
   ROPT   =   -0.00050  -0.00050
 Ionic relaxation
   EDIFFG = 0.1E-02   stopping-criterion for IOM
   NSW    =      0    number of steps for IOM
   NBLOCK =      1;   KBLOCK =      1    inner block; outer block 
   IBRION =     -1    ionic relax: 0-MD 1-quasi-New 2-CG
   NFREE  =      0    steps in history (QN), initial steepest desc. (CG)
   ISIF   =      2    stress and relaxation
   IWAVPR =     10    prediction:  0-non 1-charg 2-wave 3-comb
   ISYM   =      2    0-nonsym 1-usesym 2-fastsym
   LCORR  =      T    Harris-Foulkes like correction to forces

   POTIM  = 0.5000    time-step for ionic-motion
   TEIN   =    0.0    initial temperature
   TEBEG  =    0.0;   TEEND  =   0.0 temperature during run
   SMASS  =  -3.00    Nose mass-parameter (am)
   estimated Nose-frequenzy (Omega)   =  0.10E-29 period in steps = 0.13E+47 mass=  -0.210E-26a.u.
   SCALEE = 1.0000    scale energy and forces
   NPACO  =    256;   APACO  = 16.0  distance and # of slots for P.C.
   PSTRESS=    0.0 pullay stress

  Mass of Ions in am
   POMASS =  58.69 32.07
  Ionic Valenz
   ZVAL   =  16.00  6.00
  Atomic Wigner-Seitz radii
   RWIGS  =  -1.00 -1.00
  virtual crystal weights 
   VCA    =   1.00  1.00
   NELECT =     858.0000    total number of electrons
   NUPDOWN=      -1.0000    fix difference up-down

 DOS related values:
   EMIN   =  10.00;   EMAX   =-10.00  energy-range for DOS
   EFERMI =   0.00
   ISMEAR =     0;   SIGMA  =   0.20  broadening in eV -4-tet -1-fermi 0-gaus

 Electronic relaxation 2 (details)
   IALGO  =     38    algorithm
   LDIAG  =      T    sub-space diagonalisation (order eigenvalues)
   LSUBROT=      F    optimize rotation matrix (better conditioning)
   TURBO    =      0    0=normal 1=particle mesh
   IRESTART =      0    0=no restart 2=restart with 2 vectors
   NREBOOT  =      0    no. of reboots
   NMIN     =      0    reboot dimension
   EREF     =   0.00    reference energy to select bands
   IMIX   =      4    mixing-type and parameters
     AMIX     =   0.40;   BMIX     =  1.00
     AMIX_MAG =   1.60;   BMIX_MAG =  1.00
     AMIN     =   0.10
     WC   =   100.;   INIMIX=   1;  MIXPRE=   1;  MAXMIX= -45

 Intra band minimization:
   WEIMIN = 0.0000     energy-eigenvalue tresh-hold
   EBREAK =  0.48E-07  absolut break condition
   DEPER  =   0.30     relativ break condition  

   TIME   =   0.40     timestep for ELM

  volume/ion in A,a.u.               =      26.63       179.73
  Fermi-wavevector in a.u.,A,eV,Ry     =   1.219181  2.303919 20.223744  1.486403
  Thomas-Fermi vector in A             =   2.354442
 
 Write flags
   LWAVE        =      F    write WAVECAR
   LDOWNSAMPLE  =      F    k-point downsampling of WAVECAR
   LCHARG       =      F    write CHGCAR
   LVTOT        =      F    write LOCPOT, total local potential
   LVHAR        =      F    write LOCPOT, Hartree potential only
   LELF         =      F    write electronic localiz. function (ELF)
   LORBIT       =      0    0 simple, 1 ext, 2 COOP (PROOUT), +10 PAW based schemes


 Dipole corrections
   LMONO  =      F    monopole corrections only (constant potential shift)
   LDIPOL =      F    correct potential (dipole corrections)
   IDIPOL =      0    1-x, 2-y, 3-z, 4-all directions 
   EPSILON=  1.0000000 bulk dielectric constant

 Exchange correlation treatment:
   GGA     =    --    GGA type
   LEXCH   =     8    internal setting for exchange type
   VOSKOWN=      0    Vosko Wilk Nusair interpolation
   LHFCALC =     F    Hartree Fock is set to
   LHFONE  =     F    Hartree Fock one center treatment
   AEXX    =    0.0000 exact exchange contribution

 Linear response parameters
   LEPSILON=     F    determine dielectric tensor
   LRPA    =     F    only Hartree local field effects (RPA)
   LNABLA  =     F    use nabla operator in PAW spheres
   LVEL    =     F    velocity operator in full k-point grid
   LINTERFAST=   F  fast interpolation
   KINTER  =     0    interpolate to denser k-point grid
   CSHIFT  =0.1000    complex shift for real part using Kramers Kronig
   OMEGAMAX=  -1.0    maximum frequency
   DEG_THRESHOLD= 0.2000000E-02 threshold for treating states as degnerate
   RTIME   =   -0.100 relaxation time in fs
  (WPLASMAI=    0.000 imaginary part of plasma frequency in eV, 0.658/RTIME)
   DFIELD  = 0.0000000 0.0000000 0.0000000 field for delta impulse in time
 
 Orbital magnetization related:
   ORBITALMAG=     F  switch on orbital magnetization
   LCHIMAG   =     F  perturbation theory with respect to B field
   DQ        =  0.001000  dq finite difference perturbation B field
   LLRAUG    =     F  two centre corrections for induced B field



--------------------------------------------------------------------------------------------------------


 Static calculation
 charge density and potential will be updated during run
 non-spin polarized calculation
 Variant of blocked Davidson
 Davidson routine will perform the subspace rotation
 perform sub-space diagonalisation
    after iterative eigenvector-optimisation
 modified Broyden-mixing scheme, WC =      100.0
 initial mixing is a Kerker type mixing with AMIX =  0.4000 and BMIX =      1.0000
 Hartree-type preconditioning will be used
 using additional bands           91
 real space projection scheme for non local part
 use partial core corrections
 calculate Harris-corrections to forces 
   (improved forces if not selfconsistent)
 use gradient corrections 
 use of overlap-Matrix (Vanderbilt PP)
 Gauss-broadening in eV      SIGMA  =   0.20


--------------------------------------------------------------------------------------------------------


  energy-cutoff  :      450.00
  volume of cell :     2077.34
      direct lattice vectors                 reciprocal lattice vectors
     8.700730798 -4.005399070  0.000000000     0.114932874  0.000000000  0.000000000
     0.000000000 11.452783670  0.000000000     0.040195645  0.087315017  0.000000000
     0.000000000  0.000000000 20.846830137     0.000000000  0.000000000  0.047968923

  length of vectors
     9.578410000 11.452783670 20.846830137     0.114932874  0.096122849  0.047968923


 
 k-points in units of 2pi/SCALE and weight: gamma-point-only calculation. no periodi
   0.00000000  0.00000000  0.00000000       1.000
 
 k-points in reciprocal lattice and weights: gamma-point-only calculation. no periodi
   0.00000000  0.00000000  0.00000000       1.000
 
 position of ions in fractional coordinates (direct lattice) 
   0.63793591  0.42904558  0.08004781
   0.72899292  0.61115959  0.20011952
   0.82004993  0.79327361  0.32019124
   0.91110694  0.97538762  0.44026296
   0.45636426  0.06590227  0.28016734
   0.54742127  0.24801628  0.40023905
   0.27425024  0.70167424  0.04002390
   0.36530725  0.88378825  0.16009562
   0.00162158  0.15641692  0.12007172
   0.09267859  0.33853093  0.24014343
   0.18373560  0.52064495  0.36021514
   0.27479261  0.70275896  0.48028686
   0.91056458  0.97430290  0.00000000
   0.68605153  0.26107081  0.14349515
   0.77710854  0.44318482  0.26356686
   0.86816554  0.62529884  0.38363857
   0.95922255  0.80741285  0.50371029
   0.59553688  0.08004151  0.46368639
   0.32236586  0.53369947  0.10347124
   0.41342287  0.71581348  0.22354295
   0.50447988  0.89792750  0.34361467
   0.14079421  0.17055616  0.30359077
   0.23185121  0.35267018  0.42366248
   0.04973720  0.98844215  0.18351905
   0.95868019  0.80632813  0.06344733
   0.08425593  0.79327361  0.32019124
   0.17531294  0.97538762  0.44026296
   0.90214191  0.42904558  0.08004781
   0.99319892  0.61115959  0.20011952
   0.72057026  0.06590227  0.28016734
   0.81162727  0.24801628  0.40023905
   0.90268427  0.43013030  0.52031076
   0.53845624  0.70167424  0.04002390
   0.62951325  0.88378825  0.16009562
   0.26582758  0.15641692  0.12007172
   0.35688459  0.33853093  0.24014343
   0.44794160  0.52064495  0.36021514
   0.53899861  0.70275896  0.48028686
   0.17477058  0.97430290  0.00000000
   0.01340710  0.57935194  0.31115216
   0.10446410  0.76146596  0.43122388
   0.83129308  0.21512391  0.07100873
   0.92235009  0.39723793  0.19108045
   0.74077844  0.03409462  0.39119997
   0.83183544  0.21620863  0.51127169
   0.46760741  0.48775257  0.03098483
   0.55866442  0.66986659  0.15105654
   0.64972143  0.85198060  0.27112826
   0.28603576  0.12460926  0.23110435
   0.37709277  0.30672328  0.35117607
   0.46814977  0.48883730  0.47124778
   0.19497875  0.94249525  0.11103264
   0.13425249  0.15747274  0.47050414
   0.04319549  0.97535872  0.35043242
   0.86108147  0.61113069  0.11028899
   0.95213848  0.79324471  0.23036071
   0.58845281  0.06587337  0.19033680
   0.67950982  0.24798738  0.31040852
   0.77056683  0.43010140  0.43048023
   0.49739580  0.88375935  0.07026509
   0.13371013  0.15638801  0.03024118
   0.22476714  0.33850203  0.15031290
   0.31582415  0.52061604  0.27038461
   0.40688116  0.70273006  0.39045633
   0.49793816  0.88484407  0.51052804
   0.49486308  0.21512391  0.07100873
   0.58592009  0.39723793  0.19108045
   0.67697710  0.57935194  0.31115216
   0.76803410  0.76146596  0.43122388
   0.40434844  0.03409462  0.39119997
   0.49540544  0.21620863  0.51127169
   0.13117741  0.48775257  0.03098483
   0.22223442  0.66986659  0.15105654
   0.31329143  0.85198060  0.27112826
   0.04066277  0.30672328  0.35117607
   0.13171977  0.48883730  0.47124778
   0.94960576  0.12460926  0.23110435
   0.85854875  0.94249525  0.11103264
 
 position of ions in cartesian coordinates  (Angst):
   5.55050865  2.35857825  1.66874310
   6.34277117  4.07957102  4.17185774
   7.13503367  5.80056379  6.67497239
   7.92729619  7.52155655  9.17808704
   3.97070257 -1.07315656  5.84060084
   4.76296509  0.64783620  8.34371549
   2.38617755  6.93764158  0.83437155
   3.17844007  8.65863434  3.33748620
   0.01410897  1.78491400  2.50311465
   0.80637147  3.50590676  5.00622929
   1.59863398  5.22689953  7.50934394
   2.39089649  6.94789229 10.01245859
   7.92257725  7.51130584  0.00000000
   5.96914968  0.24207731  2.99141891
   6.76141218  1.96307009  5.49453356
   7.55367470  3.68406285  7.99764821
   8.34593720  5.40505562 10.50076285
   5.18160610 -1.46866473  9.66639130
   2.80481857  4.82114064  2.15704736
   3.59708108  6.54213341  4.66016201
   4.38934359  8.26312617  7.16327666
   1.22501249  1.38940583  6.32890511
   2.01727500  3.11039860  8.83201976
   0.43274998 11.12119674  3.82579046
   8.34121826  5.39480491  1.32267582
   0.73308816  8.74771239  6.67497239
   1.52535067 10.46870515  9.17808704
   7.84929394  1.30032778  1.66874310
   8.64155645  3.02132056  4.17185774
   6.26948785 -2.13140703  5.84060084
   7.06175037 -0.41041427  8.34371549
   7.85401287  1.31057851 10.84683014
   4.68496283  5.87939111  0.83437155
   5.47722535  7.60038387  3.33748620
   2.31289425  0.72666353  2.50311465
   3.10515675  2.44765630  5.00622929
   3.89741927  4.16864906  7.50934394
   4.68968177  5.88964183 10.01245859
   1.52063173 10.45845444  0.00000000
   0.11665154  6.58149169  6.48653625
   0.90891406  8.30248445  8.98965089
   7.23285732 -0.86589291  1.48030695
   8.02511983  0.85509985  3.98342160
   6.44531375 -2.57663496  8.15527935
   7.23757626 -0.85564220 10.65839399
   4.06852622  3.71317042  0.64593540
   4.86078872  5.43416318  3.14905005
   5.65305124  7.15515595  5.65216470
   2.48872014  0.28143559  4.81779315
   3.28098264  2.00242837  7.32090780
   4.07324516  3.72342113  9.82402244
   1.69645762 10.01322650  2.31467850
   1.16809481  1.26576636  9.80851982
   0.37583230 10.99755727  7.30540518
   7.49203808  3.55017267  2.29917588
   8.28430059  5.27116544  4.80229053
   5.11996949 -1.60255490  3.96791898
   5.91223199  0.11843786  6.47103363
   6.70449451  1.83943062  8.97414827
   4.32770697  8.12923600  1.46480433
   1.16337587  1.25551565  0.63043278
   1.95563839  2.97650841  3.13354743
   2.74790089  4.69750118  5.63666208
   3.54016341  6.41849395  8.13977672
   4.33242591  8.13948672 10.64289137
   4.30567046  0.48164350  1.48030695
   5.09793297  2.20263626  3.98342160
   5.89019548  3.92362903  6.48653625
   6.68245799  5.64462179  8.98965089
   3.51812689 -1.22909855  8.15527935
   4.31038940  0.49189421 10.65839399
   1.14133936  5.06070683  0.64593540
   1.93360186  6.78169959  3.14905005
   2.72586438  8.50269235  5.65216470
   0.35379578  3.34996478  7.32090780
   1.14605829  5.07095754  9.82402244
   8.26226407 -2.37642707  4.81779315
   7.47000156  7.35536384  2.31467850
 


--------------------------------------------------------------------------------------------------------


 use parallel FFT for orbitals z direction half grid
 k-point   1 :   0.0000 0.0000 0.0000  plane waves:   22514

 maximum and minimum number of plane-waves per node :      3754     3751

 maximum number of plane-waves:     22514
 maximum index in each direction: 
   IXMAX=   16   IYMAX=   19   IZMAX=   36
   IXMIN=  -16   IYMIN=  -19   IZMIN=    0


 real space projection operators:
  total allocation   :      11766.89 KBytes
  max/ min on nodes  :       2128.56       1875.06


 parallel 3D FFT for wavefunctions:
    minimum data exchange during FFTs selected (reduces bandwidth)
 parallel 3D FFT for charge:
    minimum data exchange during FFTs selected (reduces bandwidth)


 total amount of memory used by VASP MPI-rank0    47161. kBytes
=======================================================================

   base      :      30000. kBytes
   nonlr-proj:       2615. kBytes
   fftplans  :       3720. kBytes
   grid      :       6724. kBytes
   one-center:        101. kBytes
   wavefun   :       4001. kBytes
 
     INWAV:  cpu time    0.0000: real time    0.0000
 Broyden mixing: mesh for mixing (old mesh)
   NGX = 33   NGY = 39   NGZ = 73
  (NGX  =100   NGY  =120   NGZ  =216)
  gives a total of  93951 points

 initial charge density was supplied:
 charge density of overlapping atoms calculated
 number of electron     858.0000000 magnetization 
 keeping initial charge density in first step


--------------------------------------------------------------------------------------------------------


 Maximum index for non-local projection operator          388
 Maximum index for augmentation-charges          579 (set IRDMAX)


--------------------------------------------------------------------------------------------------------


 First call to EWALD:  gamma=   0.139
 Maximum number of real-space cells 4x 3x 2
 Maximum number of reciprocal cells 2x 3x 4

    FEWALD:  cpu time    0.0038: real time    0.0038


--------------------------------------- Iteration      1(   1)  ---------------------------------------


    POTLOK:  cpu time    0.0471: real time    0.0496
    SETDIJ:  cpu time    0.0053: real time    0.0071
     EDDAV:  cpu time    2.4528: real time    2.4614
       DOS:  cpu time    0.0056: real time    0.0056
    --------------------------------------------
      LOOP:  cpu time    2.5107: real time    2.5237

 eigenvalue-minimisations  :  1256
 total energy-change (2. order) : 0.1068023E+05  (-0.5506516E+05)
 number of electron     858.0000000 magnetization 
 augmentation part      858.0000000 magnetization 

 Free energy of the ion-electron system (eV)
  ---------------------------------------------------
  alpha Z        PSCENC =      2101.59301765
  Ewald energy   TEWEN  =    181425.44607343
  -Hartree energ DENC   =   -314397.63609477
  -exchange      EXHF   =         0.00000000
  -V(xc)+E(xc)   XCENC  =      3957.45788358
  PAW double counting   =    122123.66111200  -127444.97121129
  entropy T*S    EENTRO =        -0.48560165
  eigenvalues    EBANDS =     -4420.98604114
  atomic energy  EATOM  =    147336.15547490
  Solvation  Ediel_sol  =         0.00000000
  ---------------------------------------------------
  free energy    TOTEN  =     10680.23461271 eV

  energy without entropy =    10680.72021436  energy(sigma->0) =    10680.47741354


--------------------------------------------------------------------------------------------------------




--------------------------------------- Iteration      1(   2)  ---------------------------------------


     EDDAV:  cpu time    2.1602: real time    2.1696
       DOS:  cpu time    0.0007: real time    0.0007
    --------------------------------------------
      LOOP:  cpu time    2.1609: real time    2.1703

 eigenvalue-minimisations  :  1096
 total energy-change (2. order) :-0.9995550E+04  (-0.9649677E+04)
 number of electron     858.0000000 magnetization 
 augmentation part      858.0000000 magnetization 

 Free energy of the ion-electron system (eV)
  ---------------------------------------------------
  alpha Z        PSCENC =      2101.59301765
  Ewald energy   TEWEN  =    181425.44607343
  -Hartree energ DENC   =   -314397.63609477
  -exchange      EXHF   =         0.00000000
  -V(xc)+E(xc)   XCENC  =      3957.45788358
  PAW double counting   =    122123.66111200  -127444.97121129
  entropy T*S    EENTRO =        -0.79403539
  eigenvalues    EBANDS =    -14416.22755950
  atomic energy  EATOM  =    147336.15547490
  Solvation  Ediel_sol  =         0.00000000
  ---------------------------------------------------
  free energy    TOTEN  =       684.68466061 eV

  energy without entropy =      685.47869600  energy(sigma->0) =      685.08167830


--------------------------------------------------------------------------------------------------------




--------------------------------------- Iteration      1(   3)  ---------------------------------------


     EDDAV:  cpu time    2.2806: real time    2.2864
       DOS:  cpu time    0.0009: real time    0.0009
    --------------------------------------------
      LOOP:  cpu time    2.2815: real time    2.2872

 eigenvalue-minimisations  :  1168
 total energy-change (2. order) :-0.1051864E+04  (-0.9862530E+03)
 number of electron     858.0000000 magnetization 
 augmentation part      858.0000000 magnetization 

 Free energy of the ion-electron system (eV)
  ---------------------------------------------------
  alpha Z        PSCENC =      2101.59301765
  Ewald energy   TEWEN  =    181425.44607343
  -Hartree energ DENC   =   -314397.63609477
  -exchange      EXHF   =         0.00000000
  -V(xc)+E(xc)   XCENC  =      3957.45788358
  PAW double counting   =    122123.66111200  -127444.97121129
  entropy T*S    EENTRO =        -1.30463520
  eigenvalues    EBANDS =    -15467.58071489
  atomic energy  EATOM  =    147336.15547490
  Solvation  Ediel_sol  =         0.00000000
  ---------------------------------------------------
  free energy    TOTEN  =      -367.17909459 eV

  energy without entropy =     -365.87445939  energy(sigma->0) =     -366.52677699


--------------------------------------------------------------------------------------------------------




--------------------------------------- Iteration      1(   4)  ---------------------------------------


     EDDAV:  cpu time    2.3700: real time    2.3782
       DOS:  cpu time    0.0012: real time    0.0012
    --------------------------------------------
      LOOP:  cpu time    2.3712: real time    2.3794

 eigenvalue-minimisations  :  1216
 total energy-change (2. order) :-0.7073490E+02  (-0.6981430E+02)
 number of electron     858.0000000 magnetization 
 augmentation part      858.0000000 magnetization 

 Free energy of the ion-electron system (eV)
  ---------------------------------------------------
  alpha Z        PSCENC =      2101.59301765
  Ewald energy   TEWEN  =    181425.44607343
  -Hartree energ DENC   =   -314397.63609477
  -exchange      EXHF   =         0.00000000
  -V(xc)+E(xc)   XCENC  =      3957.45788358
  PAW double counting   =    122123.66111200  -127444.97121129
  entropy T*S    EENTRO =        -1.41958594
  eigenvalues    EBANDS =    -15538.20066291
  atomic energy  EATOM  =    147336.15547490
  Solvation  Ediel_sol  =         0.00000000
  ---------------------------------------------------
  free energy    TOTEN  =      -437.91399335 eV

  energy without entropy =     -436.49440742  energy(sigma->0) =     -437.20420038


--------------------------------------------------------------------------------------------------------




--------------------------------------- Iteration      1(   5)  ---------------------------------------


     EDDAV:  cpu time    2.5904: real time    2.5972
       DOS:  cpu time    0.0014: real time    0.0014
    CHARGE:  cpu time    0.0468: real time    0.0470
    MIXING:  cpu time    0.0025: real time    0.0028
    --------------------------------------------
      LOOP:  cpu time    2.6412: real time    2.6484

 eigenvalue-minimisations  :  1376
 total energy-change (2. order) :-0.2749298E+01  (-0.2745693E+01)
 number of electron     857.9999893 magnetization 
 augmentation part      309.9207767 magnetization 

 Broyden mixing:
  rms(total) = 0.86235E+01    rms(broyden)= 0.86073E+01
  rms(prec ) = 0.90509E+01
  weight for this iteration     100.00

 Free energy of the ion-electron system (eV)
  ---------------------------------------------------
  alpha Z        PSCENC =      2101.59301765
  Ewald energy   TEWEN  =    181425.44607343
  -Hartree energ DENC   =   -314397.63609477
  -exchange      EXHF   =         0.00000000
  -V(xc)+E(xc)   XCENC  =      3957.45788358
  PAW double counting   =    122123.66111200  -127444.97121129
  entropy T*S    EENTRO =        -1.42081861
  eigenvalues    EBANDS =    -15540.94872853
  atomic energy  EATOM  =    147336.15547490
  Solvation  Ediel_sol  =         0.00000000
  ---------------------------------------------------
  free energy    TOTEN  =      -440.66329164 eV

  energy without entropy =     -439.24247303  energy(sigma->0) =     -439.95288234


--------------------------------------------------------------------------------------------------------




--------------------------------------- Iteration      1(   6)  ---------------------------------------


    POTLOK:  cpu time    0.0470: real time    0.0471
    SETDIJ:  cpu time    0.0047: real time    0.0066
     EDDAV:  cpu time    2.4185: real time    2.4244
       DOS:  cpu time    0.0008: real time    0.0008
    CHARGE:  cpu time    0.0442: real time    0.0443
    MIXING:  cpu time    0.0020: real time    0.0021
    --------------------------------------------
      LOOP:  cpu time    2.5174: real time    2.5254

 eigenvalue-minimisations  :  1256
 total energy-change (2. order) :-0.9313422E+02  (-0.1060224E+03)
 number of electron     857.9999830 magnetization 
 augmentation part      381.8214403 magnetization 

 Broyden mixing:
  rms(total) = 0.16604E+02    rms(broyden)= 0.16600E+02
  rms(prec ) = 0.17287E+02
  weight for this iteration     100.00

 eigenvalues of (default mixing * dielectric matrix)
  average eigenvalue GAMMA=   0.2240
  0.2240

 Free energy of the ion-electron system (eV)
  ---------------------------------------------------
  alpha Z        PSCENC =      2101.59301765
  Ewald energy   TEWEN  =    181425.44607343
  -Hartree energ DENC   =   -311372.57851280
  -exchange      EXHF   =         0.00000000
  -V(xc)+E(xc)   XCENC  =      3873.71170820
  PAW double counting   =    124115.50463930  -129175.69668105
  entropy T*S    EENTRO =        -0.94888509
  eigenvalues    EBANDS =    -18836.98435065
  atomic energy  EATOM  =    147336.15547490
  Solvation  Ediel_sol  =         0.00000000
  ---------------------------------------------------
  free energy    TOTEN  =      -533.79751612 eV

  energy without entropy =     -532.84863102  energy(sigma->0) =     -533.32307357


--------------------------------------------------------------------------------------------------------




--------------------------------------- Iteration      1(   7)  ---------------------------------------


    POTLOK:  cpu time    0.0455: real time    0.0456
    SETDIJ:  cpu time    0.0051: real time    0.0051
     EDDAV:  cpu time    2.4144: real time    2.4231
       DOS:  cpu time    0.0009: real time    0.0009
    CHARGE:  cpu time    0.0455: real time    0.0456
    MIXING:  cpu time    0.0018: real time    0.0018
    --------------------------------------------
      LOOP:  cpu time    2.5133: real time    2.5222

 eigenvalue-minimisations  :  1224
 total energy-change (2. order) : 0.1249878E+03  (-0.1917609E+02)
 number of electron     857.9999849 magnetization 
 augmentation part      360.4985594 magnetization 

 Broyden mixing:
  rms(total) = 0.66280E+01    rms(broyden)= 0.66265E+01
  rms(prec ) = 0.69519E+01
  weight for this iteration     100.00

 eigenvalues of (default mixing * dielectric matrix)
  average eigenvalue GAMMA=   0.5026
  0.5026  0.5026

 Free energy of the ion-electron system (eV)
  ---------------------------------------------------
  alpha Z        PSCENC =      2101.59301765
  Ewald energy   TEWEN  =    181425.44607343
  -Hartree energ DENC   =   -312732.59893798
  -exchange      EXHF   =         0.00000000
  -V(xc)+E(xc)   XCENC  =      3904.62869050
  PAW double counting   =    128507.57196472  -133722.36092698
  entropy T*S    EENTRO =        -0.95132829
  eigenvalues    EBANDS =    -17228.29371192
  atomic energy  EATOM  =    147336.15547490
  Solvation  Ediel_sol  =         0.00000000
  ---------------------------------------------------
  free energy    TOTEN  =      -408.80968397 eV

  energy without entropy =     -407.85835568  energy(sigma->0) =     -408.33401982


--------------------------------------------------------------------------------------------------------




--------------------------------------- Iteration      1(   8)  ---------------------------------------


    POTLOK:  cpu time    0.0470: real time    0.0482
    SETDIJ:  cpu time    0.0047: real time    0.0064
     EDDAV:  cpu time    2.7860: real time    2.7926
       DOS:  cpu time    0.0010: real time    0.0010
    CHARGE:  cpu time    0.0435: real time    0.0436
    MIXING:  cpu time    0.0018: real time    0.0018
    --------------------------------------------
      LOOP:  cpu time    2.8841: real time    2.8938

 eigenvalue-minimisations  :  1488
 total energy-change (2. order) :-0.1049987E+03  (-0.1816502E+02)
 number of electron     857.9999884 magnetization 
 augmentation part      328.9550725 magnetization 

 Broyden mixing:
  rms(total) = 0.17668E+02    rms(broyden)= 0.17666E+02
  rms(prec ) = 0.21940E+02
  weight for this iteration     100.00

 eigenvalues of (default mixing * dielectric matrix)
  average eigenvalue GAMMA=   0.4059
  0.6421  0.4784  0.0973

 Free energy of the ion-electron system (eV)
  ---------------------------------------------------
  alpha Z        PSCENC =      2101.59301765
  Ewald energy   TEWEN  =    181425.44607343
  -Hartree energ DENC   =   -313268.90056922
  -exchange      EXHF   =         0.00000000
  -V(xc)+E(xc)   XCENC  =      3930.08242226
  PAW double counting   =    134301.60827251  -139640.27391489
  entropy T*S    EENTRO =        -1.05008584
  eigenvalues    EBANDS =    -16698.46905434
  atomic energy  EATOM  =    147336.15547490
  Solvation  Ediel_sol  =         0.00000000
  ---------------------------------------------------
  free energy    TOTEN  =      -513.80836355 eV

  energy without entropy =     -512.75827771  energy(sigma->0) =     -513.28332063


--------------------------------------------------------------------------------------------------------




--------------------------------------- Iteration      1(   9)  ---------------------------------------


    POTLOK:  cpu time    0.0458: real time    0.0459
    SETDIJ:  cpu time    0.0052: real time    0.0052
     EDDAV:  cpu time    2.5218: real time    2.5278
       DOS:  cpu time    0.0019: real time    0.0019
    CHARGE:  cpu time    0.0446: real time    0.0447
    MIXING:  cpu time    0.0019: real time    0.0019
    --------------------------------------------
      LOOP:  cpu time    2.6213: real time    2.6274

 eigenvalue-minimisations  :  1312
 total energy-change (2. order) : 0.9467978E+02  (-0.1635713E+02)
 number of electron     857.9999783 magnetization 
 augmentation part      331.2430404 magnetization 

 Broyden mixing:
  rms(total) = 0.10214E+02    rms(broyden)= 0.10209E+02
  rms(prec ) = 0.12437E+02
  weight for this iteration     100.00

 eigenvalues of (default mixing * dielectric matrix)
  average eigenvalue GAMMA=   0.3602
  0.8053  0.4158  0.1515  0.0681

 Free energy of the ion-electron system (eV)
  ---------------------------------------------------
  alpha Z        PSCENC =      2101.59301765
  Ewald energy   TEWEN  =    181425.44607343
  -Hartree energ DENC   =   -313405.50340711
  -exchange      EXHF   =         0.00000000
  -V(xc)+E(xc)   XCENC  =      3929.43416643
  PAW double counting   =    135710.10950545  -141059.38089142
  entropy T*S    EENTRO =        -1.52845883
  eigenvalues    EBANDS =    -16455.45406493
  atomic energy  EATOM  =    147336.15547490
  Solvation  Ediel_sol  =         0.00000000
  ---------------------------------------------------
  free energy    TOTEN  =      -419.12858442 eV

  energy without entropy =     -417.60012559  energy(sigma->0) =     -418.36435500


--------------------------------------------------------------------------------------------------------




--------------------------------------- Iteration      1(  10)  ---------------------------------------


    POTLOK:  cpu time    0.0453: real time    0.0454
    SETDIJ:  cpu time    0.0053: real time    0.0053
     EDDAV:  cpu time    2.7076: real time    2.7140
       DOS:  cpu time    0.0012: real time    0.0012
    CHARGE:  cpu time    0.0448: real time    0.0449
    MIXING:  cpu time    0.0020: real time    0.0020
    --------------------------------------------
      LOOP:  cpu time    2.8062: real time    2.8128

 eigenvalue-minimisations  :  1432
 total energy-change (2. order) : 0.1302798E+02  (-0.7284637E+01)
 number of electron     857.9999870 magnetization 
 augmentation part      332.8585984 magnetization 

 Broyden mixing:
  rms(total) = 0.54458E+01    rms(broyden)= 0.54383E+01
  rms(prec ) = 0.61429E+01
  weight for this iteration     100.00

 eigenvalues of (default mixing * dielectric matrix)
  average eigenvalue GAMMA=   0.4870
  1.4866  0.3921  0.3921  0.0822  0.0822

 Free energy of the ion-electron system (eV)
  ---------------------------------------------------
  alpha Z        PSCENC =      2101.59301765
  Ewald energy   TEWEN  =    181425.44607343
  -Hartree energ DENC   =   -313538.89094499
  -exchange      EXHF   =         0.00000000
  -V(xc)+E(xc)   XCENC  =      3928.80017997
  PAW double counting   =    136883.39585823  -142242.98319250
  entropy T*S    EENTRO =        -1.13969199
  eigenvalues    EBANDS =    -16298.47738269
  atomic energy  EATOM  =    147336.15547490
  Solvation  Ediel_sol  =         0.00000000
  ---------------------------------------------------
  free energy    TOTEN  =      -406.10060798 eV

  energy without entropy =     -404.96091600  energy(sigma->0) =     -405.53076199


--------------------------------------------------------------------------------------------------------




--------------------------------------- Iteration      1(  11)  ---------------------------------------


    POTLOK:  cpu time    0.0453: real time    0.0454
    SETDIJ:  cpu time    0.0053: real time    0.0053
     EDDAV:  cpu time    2.6943: real time    2.7007
       DOS:  cpu time    0.0006: real time    0.0006
    CHARGE:  cpu time    0.0450: real time    0.0451
    MIXING:  cpu time    0.0022: real time    0.0022
    --------------------------------------------
      LOOP:  cpu time    2.7927: real time    2.7993

 eigenvalue-minimisations  :  1424
 total energy-change (2. order) :-0.9296571E+01  (-0.4340085E+01)
 number of electron     857.9999940 magnetization 
 augmentation part      332.0351452 magnetization 

 Broyden mixing:
  rms(total) = 0.87637E+01    rms(broyden)= 0.87591E+01
  rms(prec ) = 0.10582E+02
  weight for this iteration     100.00

 eigenvalues of (default mixing * dielectric matrix)
  average eigenvalue GAMMA=   0.5024
  1.9105  0.4070  0.4070  0.1120  0.1120  0.0659

 Free energy of the ion-electron system (eV)
  ---------------------------------------------------
  alpha Z        PSCENC =      2101.59301765
  Ewald energy   TEWEN  =    181425.44607343
  -Hartree energ DENC   =   -313499.80945307
  -exchange      EXHF   =         0.00000000
  -V(xc)+E(xc)   XCENC  =      3926.76590668
  PAW double counting   =    140450.94369551  -145838.56138510
  entropy T*S    EENTRO =        -1.27518347
  eigenvalues    EBANDS =    -16316.65532507
  atomic energy  EATOM  =    147336.15547490
  Solvation  Ediel_sol  =         0.00000000
  ---------------------------------------------------
  free energy    TOTEN  =      -415.39717854 eV

  energy without entropy =     -414.12199507  energy(sigma->0) =     -414.75958681


--------------------------------------------------------------------------------------------------------




--------------------------------------- Iteration      1(  12)  ---------------------------------------


    POTLOK:  cpu time    0.0454: real time    0.0456
    SETDIJ:  cpu time    0.0051: real time    0.0051
     EDDAV:  cpu time    2.7015: real time    2.7094
       DOS:  cpu time    0.0006: real time    0.0006
    CHARGE:  cpu time    0.0458: real time    0.0460
    MIXING:  cpu time    0.0022: real time    0.0022
    --------------------------------------------
      LOOP:  cpu time    2.8008: real time    2.8089

 eigenvalue-minimisations  :  1408
 total energy-change (2. order) : 0.1577904E+02  (-0.4488827E+01)
 number of electron     857.9999842 magnetization 
 augmentation part      338.5697439 magnetization 

 Broyden mixing:
  rms(total) = 0.41813E+01    rms(broyden)= 0.41782E+01
  rms(prec ) = 0.47958E+01
  weight for this iteration     100.00

 eigenvalues of (default mixing * dielectric matrix)
  average eigenvalue GAMMA=   0.4953
  2.1267  0.4140  0.4140  0.2113  0.1286  0.1048  0.0674

 Free energy of the ion-electron system (eV)
  ---------------------------------------------------
  alpha Z        PSCENC =      2101.59301765
  Ewald energy   TEWEN  =    181425.44607343
  -Hartree energ DENC   =   -313442.28899239
  -exchange      EXHF   =         0.00000000
  -V(xc)+E(xc)   XCENC  =      3923.60519717
  PAW double counting   =    142539.82970883  -147937.29425433
  entropy T*S    EENTRO =        -0.99548235
  eigenvalues    EBANDS =    -16345.66887884
  atomic energy  EATOM  =    147336.15547490
  Solvation  Ediel_sol  =         0.00000000
  ---------------------------------------------------
  free energy    TOTEN  =      -399.61813594 eV

  energy without entropy =     -398.62265358  energy(sigma->0) =     -399.12039476


--------------------------------------------------------------------------------------------------------




--------------------------------------- Iteration      1(  13)  ---------------------------------------


    POTLOK:  cpu time    0.0462: real time    0.0473
    SETDIJ:  cpu time    0.0047: real time    0.0066
     EDDAV:  cpu time    2.6418: real time    2.6482
       DOS:  cpu time    0.0007: real time    0.0007
    CHARGE:  cpu time    0.0451: real time    0.0453
    MIXING:  cpu time    0.0023: real time    0.0023
    --------------------------------------------
      LOOP:  cpu time    2.7407: real time    2.7503

 eigenvalue-minimisations  :  1392
 total energy-change (2. order) : 0.5578480E+01  (-0.1955995E+01)
 number of electron     857.9999860 magnetization 
 augmentation part      339.8250459 magnetization 

 Broyden mixing:
  rms(total) = 0.32101E+01    rms(broyden)= 0.32067E+01
  rms(prec ) = 0.36277E+01
  weight for this iteration     100.00

 eigenvalues of (default mixing * dielectric matrix)
  average eigenvalue GAMMA=   0.4790
  2.1401  0.4109  0.4109  0.4045  0.1578  0.1200  0.1200  0.0673

 Free energy of the ion-electron system (eV)
  ---------------------------------------------------
  alpha Z        PSCENC =      2101.59301765
  Ewald energy   TEWEN  =    181425.44607343
  -Hartree energ DENC   =   -313418.43862981
  -exchange      EXHF   =         0.00000000
  -V(xc)+E(xc)   XCENC  =      3923.10491972
  PAW double counting   =    143638.57671946  -149045.32213147
  entropy T*S    EENTRO =        -1.03453341
  eigenvalues    EBANDS =    -16354.12056657
  atomic energy  EATOM  =    147336.15547490
  Solvation  Ediel_sol  =         0.00000000
  ---------------------------------------------------
  free energy    TOTEN  =      -394.03965610 eV

  energy without entropy =     -393.00512269  energy(sigma->0) =     -393.52238939


--------------------------------------------------------------------------------------------------------




--------------------------------------- Iteration      1(  14)  ---------------------------------------


    POTLOK:  cpu time    0.0453: real time    0.0454
    SETDIJ:  cpu time    0.0052: real time    0.0052
     EDDAV:  cpu time    2.7168: real time    2.7233
       DOS:  cpu time    0.0006: real time    0.0006
    CHARGE:  cpu time    0.0450: real time    0.0451
    MIXING:  cpu time    0.0023: real time    0.0023
    --------------------------------------------
      LOOP:  cpu time    2.8153: real time    2.8220

 eigenvalue-minimisations  :  1440
 total energy-change (2. order) : 0.2286491E+01  (-0.1306725E+01)
 number of electron     857.9999840 magnetization 
 augmentation part      339.9410053 magnetization 

 Broyden mixing:
  rms(total) = 0.28903E+01    rms(broyden)= 0.28881E+01
  rms(prec ) = 0.32986E+01
  weight for this iteration     100.00

 eigenvalues of (default mixing * dielectric matrix)
  average eigenvalue GAMMA=   0.4653
  2.0444  0.5325  0.4593  0.4593  0.2489  0.1345  0.1210  0.1210  0.0673

 Free energy of the ion-electron system (eV)
  ---------------------------------------------------
  alpha Z        PSCENC =      2101.59301765
  Ewald energy   TEWEN  =    181425.44607343
  -Hartree energ DENC   =   -313427.33441379
  -exchange      EXHF   =         0.00000000
  -V(xc)+E(xc)   XCENC  =      3923.52792615
  PAW double counting   =    143712.90971732  -149122.04099722
  entropy T*S    EENTRO =        -0.97263958
  eigenvalues    EBANDS =    -16341.03732376
  atomic energy  EATOM  =    147336.15547490
  Solvation  Ediel_sol  =         0.00000000
  ---------------------------------------------------
  free energy    TOTEN  =      -391.75316489 eV

  energy without entropy =     -390.78052532  energy(sigma->0) =     -391.26684510


--------------------------------------------------------------------------------------------------------




--------------------------------------- Iteration      1(  15)  ---------------------------------------


    POTLOK:  cpu time    0.0456: real time    0.0457
    SETDIJ:  cpu time    0.0051: real time    0.0051
     EDDAV:  cpu time    2.5563: real time    2.5625
       DOS:  cpu time    0.0007: real time    0.0007
    CHARGE:  cpu time    0.0457: real time    0.0459
    MIXING:  cpu time    0.0026: real time    0.0026
    --------------------------------------------
      LOOP:  cpu time    2.6560: real time    2.6624

 eigenvalue-minimisations  :  1336
 total energy-change (2. order) : 0.3128222E+01  (-0.4388334E+00)
 number of electron     857.9999848 magnetization 
 augmentation part      339.3464514 magnetization 

 Broyden mixing:
  rms(total) = 0.19804E+01    rms(broyden)= 0.19789E+01
  rms(prec ) = 0.22663E+01
  weight for this iteration     100.00

 eigenvalues of (default mixing * dielectric matrix)
  average eigenvalue GAMMA=   0.4557
  2.0334  0.5497  0.5497  0.3920  0.3920  0.1939  0.1403  0.1194  0.1194  0.0673

 Free energy of the ion-electron system (eV)
  ---------------------------------------------------
  alpha Z        PSCENC =      2101.59301765
  Ewald energy   TEWEN  =    181425.44607343
  -Hartree energ DENC   =   -313446.34828056
  -exchange      EXHF   =         0.00000000
  -V(xc)+E(xc)   XCENC  =      3924.52482267
  PAW double counting   =    143379.88986184  -148789.03651615
  entropy T*S    EENTRO =        -1.02683591
  eigenvalues    EBANDS =    -16319.82256034
  atomic energy  EATOM  =    147336.15547490
  Solvation  Ediel_sol  =         0.00000000
  ---------------------------------------------------
  free energy    TOTEN  =      -388.62494246 eV

  energy without entropy =     -387.59810654  energy(sigma->0) =     -388.11152450


--------------------------------------------------------------------------------------------------------




--------------------------------------- Iteration      1(  16)  ---------------------------------------


    POTLOK:  cpu time    0.0456: real time    0.0457
    SETDIJ:  cpu time    0.0052: real time    0.0052
     EDDAV:  cpu time    2.6695: real time    2.6759
       DOS:  cpu time    0.0006: real time    0.0006
    CHARGE:  cpu time    0.0448: real time    0.0449
    MIXING:  cpu time    0.0026: real time    0.0026
    --------------------------------------------
      LOOP:  cpu time    2.7682: real time    2.7749

 eigenvalue-minimisations  :  1416
 total energy-change (2. order) : 0.5058791E+00  (-0.2117400E+00)
 number of electron     857.9999854 magnetization 
 augmentation part      339.1412089 magnetization 

 Broyden mixing:
  rms(total) = 0.18095E+01    rms(broyden)= 0.18086E+01
  rms(prec ) = 0.20818E+01
  weight for this iteration     100.00

 eigenvalues of (default mixing * dielectric matrix)
  average eigenvalue GAMMA=   0.4603
  1.9988  0.7302  0.7302  0.4081  0.4081  0.2055  0.0673  0.1611  0.1205  0.1205
  0.1135

 Free energy of the ion-electron system (eV)
  ---------------------------------------------------
  alpha Z        PSCENC =      2101.59301765
  Ewald energy   TEWEN  =    181425.44607343
  -Hartree energ DENC   =   -313454.85241816
  -exchange      EXHF   =         0.00000000
  -V(xc)+E(xc)   XCENC  =      3924.67763921
  PAW double counting   =    143248.50455058  -148656.04126520
  entropy T*S    EENTRO =        -1.00580329
  eigenvalues    EBANDS =    -16312.59633246
  atomic energy  EATOM  =    147336.15547490
  Solvation  Ediel_sol  =         0.00000000
  ---------------------------------------------------
  free energy    TOTEN  =      -388.11906334 eV

  energy without entropy =     -387.11326005  energy(sigma->0) =     -387.61616170


--------------------------------------------------------------------------------------------------------




--------------------------------------- Iteration      1(  17)  ---------------------------------------


    POTLOK:  cpu time    0.0447: real time    0.0449
    SETDIJ:  cpu time    0.0052: real time    0.0052
     EDDAV:  cpu time    2.6639: real time    2.6703
       DOS:  cpu time    0.0006: real time    0.0006
    CHARGE:  cpu time    0.0451: real time    0.0452
    MIXING:  cpu time    0.0026: real time    0.0026
    --------------------------------------------
      LOOP:  cpu time    2.7621: real time    2.7687

 eigenvalue-minimisations  :  1416
 total energy-change (2. order) : 0.1062526E+01  (-0.9705116E-01)
 number of electron     857.9999853 magnetization 
 augmentation part      338.8204139 magnetization 

 Broyden mixing:
  rms(total) = 0.14328E+01    rms(broyden)= 0.14323E+01
  rms(prec ) = 0.16606E+01
  weight for this iteration     100.00

 eigenvalues of (default mixing * dielectric matrix)
  average eigenvalue GAMMA=   0.4653
  2.0183  0.8573  0.8573  0.4092  0.4092  0.2374  0.2110  0.0673  0.1481  0.1193
  0.1193  0.1296

 Free energy of the ion-electron system (eV)
  ---------------------------------------------------
  alpha Z        PSCENC =      2101.59301765
  Ewald energy   TEWEN  =    181425.44607343
  -Hartree energ DENC   =   -313467.38723034
  -exchange      EXHF   =         0.00000000
  -V(xc)+E(xc)   XCENC  =      3925.04868797
  PAW double counting   =    143015.53026995  -148420.84229788
  entropy T*S    EENTRO =        -1.07510941
  eigenvalues    EBANDS =    -16301.52542356
  atomic energy  EATOM  =    147336.15547490
  Solvation  Ediel_sol  =         0.00000000
  ---------------------------------------------------
  free energy    TOTEN  =      -387.05653728 eV

  energy without entropy =     -385.98142788  energy(sigma->0) =     -386.51898258


--------------------------------------------------------------------------------------------------------




--------------------------------------- Iteration      1(  18)  ---------------------------------------


    POTLOK:  cpu time    0.0452: real time    0.0453
    SETDIJ:  cpu time    0.0052: real time    0.0052
     EDDAV:  cpu time    2.6381: real time    2.6443
       DOS:  cpu time    0.0008: real time    0.0008
    CHARGE:  cpu time    0.0451: real time    0.0452
    MIXING:  cpu time    0.0027: real time    0.0028
    --------------------------------------------
      LOOP:  cpu time    2.7371: real time    2.7436

 eigenvalue-minimisations  :  1400
 total energy-change (2. order) : 0.2424497E+00  (-0.1116280E+00)
 number of electron     857.9999859 magnetization 
 augmentation part      338.6201871 magnetization 

 Broyden mixing:
  rms(total) = 0.13194E+01    rms(broyden)= 0.13186E+01
  rms(prec ) = 0.15259E+01
  weight for this iteration     100.00

 eigenvalues of (default mixing * dielectric matrix)
  average eigenvalue GAMMA=   0.5041
  2.0228  1.1213  1.1213  0.4974  0.4317  0.4317  0.2075  0.0673  0.1674  0.1395
  0.1187  0.1187  0.1076

 Free energy of the ion-electron system (eV)
  ---------------------------------------------------
  alpha Z        PSCENC =      2101.59301765
  Ewald energy   TEWEN  =    181425.44607343
  -Hartree energ DENC   =   -313477.30197926
  -exchange      EXHF   =         0.00000000
  -V(xc)+E(xc)   XCENC  =      3925.09613577
  PAW double counting   =    142888.68041696  -148291.69071655
  entropy T*S    EENTRO =        -1.03591228
  eigenvalues    EBANDS =    -16293.75659819
  atomic energy  EATOM  =    147336.15547490
  Solvation  Ediel_sol  =         0.00000000
  ---------------------------------------------------
  free energy    TOTEN  =      -386.81408757 eV

  energy without entropy =     -385.77817529  energy(sigma->0) =     -386.29613143


--------------------------------------------------------------------------------------------------------




--------------------------------------- Iteration      1(  19)  ---------------------------------------


    POTLOK:  cpu time    0.0451: real time    0.0452
    SETDIJ:  cpu time    0.0051: real time    0.0051
     EDDAV:  cpu time    2.6464: real time    2.6540
       DOS:  cpu time    0.0014: real time    0.0014
    CHARGE:  cpu time    0.0497: real time    0.0505
    MIXING:  cpu time    0.0031: real time    0.0031
    --------------------------------------------
      LOOP:  cpu time    2.7508: real time    2.7594

 eigenvalue-minimisations  :  1392
 total energy-change (2. order) : 0.5271388E+00  (-0.4338710E-01)
 number of electron     857.9999861 magnetization 
 augmentation part      338.4295565 magnetization 

 Broyden mixing:
  rms(total) = 0.97424E+00    rms(broyden)= 0.97390E+00
  rms(prec ) = 0.11124E+01
  weight for this iteration     100.00

 eigenvalues of (default mixing * dielectric matrix)
  average eigenvalue GAMMA=   0.4999
  2.0133  1.2329  1.2329  0.5055  0.4391  0.4391  0.2139  0.2139  0.0673  0.1539
  0.1196  0.1196  0.1325  0.1156

 Free energy of the ion-electron system (eV)
  ---------------------------------------------------
  alpha Z        PSCENC =      2101.59301765
  Ewald energy   TEWEN  =    181425.44607343
  -Hartree energ DENC   =   -313495.93422075
  -exchange      EXHF   =         0.00000000
  -V(xc)+E(xc)   XCENC  =      3925.18760082
  PAW double counting   =    142611.34319226  -148010.08359554
  entropy T*S    EENTRO =        -1.08603001
  eigenvalues    EBANDS =    -16278.90846155
  atomic energy  EATOM  =    147336.15547490
  Solvation  Ediel_sol  =         0.00000000
  ---------------------------------------------------
  free energy    TOTEN  =      -386.28694878 eV

  energy without entropy =     -385.20091877  energy(sigma->0) =     -385.74393378


--------------------------------------------------------------------------------------------------------




--------------------------------------- Iteration      1(  20)  ---------------------------------------


    POTLOK:  cpu time    0.0475: real time    0.0489
    SETDIJ:  cpu time    0.0052: real time    0.0075
     EDDAV:  cpu time    2.7112: real time    2.7177
       DOS:  cpu time    0.0008: real time    0.0008
    CHARGE:  cpu time    0.0452: real time    0.0453
    MIXING:  cpu time    0.0029: real time    0.0029
    --------------------------------------------
      LOOP:  cpu time    2.8127: real time    2.8231

 eigenvalue-minimisations  :  1448
 total energy-change (2. order) : 0.1893258E+00  (-0.2589048E-01)
 number of electron     857.9999864 magnetization 
 augmentation part      338.3092412 magnetization 

 Broyden mixing:
  rms(total) = 0.81046E+00    rms(broyden)= 0.81020E+00
  rms(prec ) = 0.92075E+00
  weight for this iteration     100.00

 eigenvalues of (default mixing * dielectric matrix)
  average eigenvalue GAMMA=   0.5345
  2.0210  1.4254  1.4254  0.6093  0.6093  0.4193  0.4193  0.1963  0.1897  0.0673
  0.1431  0.1431  0.1189  0.1189  0.1105

 Free energy of the ion-electron system (eV)
  ---------------------------------------------------
  alpha Z        PSCENC =      2101.59301765
  Ewald energy   TEWEN  =    181425.44607343
  -Hartree energ DENC   =   -313504.01682527
  -exchange      EXHF   =         0.00000000
  -V(xc)+E(xc)   XCENC  =      3925.23048116
  PAW double counting   =    142448.29421566  -147844.56335915
  entropy T*S    EENTRO =        -1.10819045
  eigenvalues    EBANDS =    -16273.12851092
  atomic energy  EATOM  =    147336.15547490
  Solvation  Ediel_sol  =         0.00000000
  ---------------------------------------------------
  free energy    TOTEN  =      -386.09762299 eV

  energy without entropy =     -384.98943254  energy(sigma->0) =     -385.54352776


--------------------------------------------------------------------------------------------------------




--------------------------------------- Iteration      1(  21)  ---------------------------------------


    POTLOK:  cpu time    0.0452: real time    0.0453
    SETDIJ:  cpu time    0.0050: real time    0.0050
     EDDAV:  cpu time    2.6257: real time    2.6319
       DOS:  cpu time    0.0009: real time    0.0009
    CHARGE:  cpu time    0.0452: real time    0.0454
    MIXING:  cpu time    0.0030: real time    0.0030
    --------------------------------------------
      LOOP:  cpu time    2.7251: real time    2.7315

 eigenvalue-minimisations  :  1368
 total energy-change (2. order) : 0.1238992E+00  (-0.2140363E-01)
 number of electron     857.9999864 magnetization 
 augmentation part      338.4044307 magnetization 

 Broyden mixing:
[...]
  in kB     -20.60889   -26.85819   -19.44472    -4.08141    -9.66308    -3.64337
  external pressure =      -22.30 kB  Pullay stress =        0.00 kB


 VOLUME and BASIS-vectors are now :
 -----------------------------------------------------------------------------
  energy-cutoff  :      450.00
  volume of cell :     2077.34
      direct lattice vectors                 reciprocal lattice vectors
     8.700730798 -4.005399070  0.000000000     0.114932874  0.000000000  0.000000000
     0.000000000 11.452783670  0.000000000     0.040195645  0.087315017  0.000000000
     0.000000000  0.000000000 20.846830137     0.000000000  0.000000000  0.047968923

  length of vectors
     9.578410000 11.452783670 20.846830137     0.114932874  0.096122849  0.047968923


 FORCES acting on ions
    electron-ion (+dipol)            ewald-force                    non-local-force                 convergence-correction
 -----------------------------------------------------------------------------------------------
   0.250E+03 -.105E+03 0.438E+04   -.255E+03 0.105E+03 -.438E+04   0.343E+01 -.150E+00 0.187E+01   0.236E-02 0.192E-02 0.287E-01
   0.326E+03 -.349E+03 0.157E+04   -.327E+03 0.348E+03 -.157E+04   0.116E+01 0.399E-01 0.110E+01   0.543E-02 0.747E-02 0.306E-01
   0.321E+03 -.385E+03 -.115E+04   -.321E+03 0.386E+03 0.115E+04   0.573E+00 -.157E+00 0.138E+01   0.104E-02 -.698E-02 -.303E-01
   0.197E+03 -.510E+03 -.395E+04   -.194E+03 0.510E+03 0.395E+04   -.189E+01 -.786E-01 0.735E+00   0.610E-02 0.380E-01 -.553E-01
   0.286E+03 -.430E+03 -.207E+03   -.287E+03 0.430E+03 0.206E+03   0.811E+00 -.204E+00 0.857E+00   0.107E-01 -.168E-01 0.154E-01
   0.300E+03 -.563E+03 -.308E+04   -.301E+03 0.564E+03 0.309E+04   0.120E+01 -.106E+01 -.315E+01   0.801E-02 -.152E-01 -.192E-01
   0.356E+03 -.358E+03 0.480E+04   -.354E+03 0.351E+03 -.480E+04   -.155E+01 0.676E+01 -.266E+01   -.361E-02 0.216E-02 0.303E-01
   0.198E+03 -.477E+03 0.251E+04   -.198E+03 0.477E+03 -.252E+04   0.670E+00 -.154E+00 0.147E+01   0.796E-02 -.258E-02 0.509E-01
   0.374E+03 -.556E+03 0.333E+04   -.376E+03 0.558E+03 -.334E+04   0.203E+01 -.225E+01 0.231E+01   -.433E-02 -.717E-02 0.385E-01
   0.320E+03 -.390E+03 0.680E+03   -.321E+03 0.390E+03 -.681E+03   0.988E+00 0.225E+00 0.904E+00   -.764E-02 0.101E-01 0.231E-01
   0.282E+03 -.340E+03 -.207E+04   -.283E+03 0.340E+03 0.207E+04   0.130E+01 -.225E+00 0.386E-01   -.676E-03 0.584E-02 -.254E-01
   0.190E+03 -.140E+03 -.460E+04   -.188E+03 0.140E+03 0.459E+04   -.188E+01 0.174E+00 0.221E+01   0.770E-02 -.457E-02 -.436E-01
   0.614E+03 -.452E+03 0.490E+04   -.604E+03 0.447E+03 -.489E+04   -.966E+01 0.518E+01 -.836E+01   -.479E-02 -.448E-02 0.285E-01
   0.219E+03 0.470E+03 0.268E+04   -.220E+03 -.472E+03 -.268E+04   0.986E+00 0.211E+01 0.305E+01   -.602E-02 -.472E-02 0.383E-01
   0.190E+03 0.377E+03 -.325E+03   -.191E+03 -.378E+03 0.325E+03   0.756E+00 0.170E+01 0.446E+00   0.105E-02 0.151E-02 0.205E-01
   0.268E+03 0.413E+03 -.308E+04   -.269E+03 -.415E+03 0.308E+04   0.958E+00 0.223E+01 -.517E+00   -.445E-03 -.186E-01 -.567E-01
   0.149E+03 0.223E+03 -.517E+04   -.148E+03 -.220E+03 0.515E+04   -.167E+01 -.353E+01 0.137E+02   0.159E-01 -.576E-03 -.455E-01
   0.153E+03 0.218E+03 -.462E+04   -.154E+03 -.218E+03 0.462E+04   0.104E+01 -.234E+00 -.409E+01   -.296E-02 0.214E-01 -.389E-01
   0.228E+03 0.498E+03 0.330E+04   -.229E+03 -.501E+03 -.331E+04   0.123E+01 0.269E+01 0.295E+01   0.252E-02 0.835E-03 0.396E-01
   0.156E+03 0.349E+03 0.570E+03   -.157E+03 -.350E+03 -.570E+03   0.683E+00 0.148E+01 0.296E+00   0.762E-02 0.171E-01 0.281E-01
   0.155E+03 0.341E+03 -.211E+04   -.155E+03 -.342E+03 0.211E+04   0.534E+00 0.125E+01 0.607E-01   -.607E-03 0.145E-01 -.304E-01
   0.138E+03 0.333E+03 -.127E+04   -.139E+03 -.334E+03 0.127E+04   0.618E+00 0.132E+01 -.175E+00   -.647E-03 -.817E-02 0.195E-02
   0.672E+02 0.399E+03 -.408E+04   -.667E+02 -.401E+03 0.408E+04   -.307E+00 0.186E+01 -.273E+01   -.246E-03 0.336E-02 -.292E-01
   0.146E+03 0.319E+03 0.142E+04   -.147E+03 -.320E+03 -.142E+04   0.447E+00 0.904E+00 -.365E+00   -.394E-02 -.107E-01 0.288E-01
   0.271E+03 0.589E+03 0.404E+04   -.271E+03 -.588E+03 -.404E+04   -.304E+00 -.597E+00 -.477E+00   -.732E-02 -.121E-01 0.441E-01
   -.497E+03 -.278E+02 -.114E+04   0.498E+03 0.277E+02 0.113E+04   -.455E+00 0.326E+00 0.132E+01   0.534E-02 -.462E-02 -.202E-01
   -.545E+03 -.216E+03 -.396E+04   0.543E+03 0.218E+03 0.395E+04   0.126E+01 -.135E+01 0.855E+00   0.533E-01 0.168E-01 -.524E-01
   -.242E+03 0.121E+03 0.438E+04   0.245E+03 -.124E+03 -.438E+04   -.235E+01 0.254E+01 0.188E+01   -.499E-02 0.579E-02 0.280E-01
   -.473E+03 0.166E+02 0.157E+04   0.473E+03 -.177E+02 -.158E+04   -.683E+00 0.905E+00 0.119E+01   0.133E-02 0.117E-01 0.355E-01
   -.502E+03 -.565E+02 -.198E+03   0.502E+03 0.560E+02 0.197E+03   -.578E+00 0.562E+00 0.966E+00   -.215E-01 0.309E-03 0.101E-01
   -.485E+03 -.737E+02 -.294E+04   0.486E+03 0.741E+02 0.294E+04   -.123E+01 -.212E+00 -.165E+01   -.175E-01 0.599E-02 -.245E-01
   0.492E+02 -.194E+03 -.482E+04   -.509E+02 0.186E+03 0.481E+04   0.174E+01 0.672E+01 0.101E+02   -.135E-01 -.233E-01 -.294E-01
   -.504E+03 0.383E+02 0.480E+04   0.497E+03 -.417E+02 -.480E+04   0.607E+01 0.320E+01 -.268E+01   0.418E-02 -.244E-02 0.318E-01
   -.490E+03 -.158E+03 0.251E+04   0.491E+03 0.157E+03 -.252E+04   -.517E+00 0.426E+00 0.155E+01   -.574E-02 0.348E-02 0.503E-01
   -.667E+03 -.777E+02 0.333E+04   0.670E+03 0.776E+02 -.334E+04   -.304E+01 0.927E-01 0.231E+01   0.115E-02 -.674E-02 0.389E-01
   -.517E+03 -.798E+01 0.666E+03   0.518E+03 0.706E+01 -.667E+03   -.478E+00 0.882E+00 0.943E+00   0.129E-01 -.116E-02 0.191E-01
   -.506E+03 0.477E+02 -.215E+04   0.507E+03 -.488E+02 0.215E+04   -.125E+01 0.102E+01 -.140E+01   -.380E-02 0.504E-02 -.255E-01
   -.292E+03 0.204E+03 -.463E+04   0.290E+03 -.204E+03 0.462E+04   0.167E+01 0.122E+00 0.225E+01   -.137E-01 0.169E-02 -.378E-01
   -.744E+03 0.172E+03 0.490E+04   0.733E+03 -.167E+03 -.489E+04   0.102E+02 -.399E+01 -.835E+01   -.157E-02 -.500E-02 0.292E-01
   -.833E+02 0.152E+03 -.416E+03   0.844E+02 -.154E+03 0.417E+03   -.116E+01 0.216E+01 -.781E+00   0.202E-02 0.203E-02 0.571E-03
   -.902E+02 0.133E+03 -.138E+04   0.916E+02 -.135E+03 0.138E+04   -.145E+01 0.281E+01 0.606E+00   0.897E-02 -.186E-02 -.331E-01
   0.120E+03 0.106E+03 0.175E+04   -.122E+03 -.107E+03 -.176E+04   0.202E+01 0.240E+01 0.334E+01   -.158E-02 -.115E-02 0.119E-01
   -.714E+02 0.157E+03 0.626E+03   0.727E+02 -.160E+03 -.625E+03   -.160E+01 0.244E+01 -.223E+00   -.309E-02 0.215E-02 0.131E-01
   -.113E+03 0.136E+03 -.108E+04   0.114E+03 -.138E+03 0.108E+04   -.142E+01 0.242E+01 -.862E+00   -.102E-01 0.127E-01 -.172E-01
   -.121E+03 0.161E+03 -.191E+04   0.124E+03 -.164E+03 0.191E+04   -.308E+01 0.380E+01 -.321E+01   -.461E-02 0.411E-02 -.118E-01
   0.434E+02 0.219E+03 0.189E+04   -.453E+02 -.221E+03 -.190E+04   0.273E+01 0.250E+01 0.371E+01   0.939E-03 -.366E-02 0.734E-02
   -.903E+02 0.151E+03 0.925E+03   0.915E+02 -.153E+03 -.925E+03   -.144E+01 0.269E+01 -.467E+00   0.216E-02 0.440E-02 0.185E-01
   -.927E+02 0.137E+03 -.731E+02   0.940E+02 -.139E+03 0.734E+02   -.139E+01 0.226E+01 -.259E+00   -.459E-02 0.546E-02 0.129E-02
   -.111E+03 0.136E+03 0.265E+03   0.113E+03 -.138E+03 -.265E+03   -.128E+01 0.243E+01 -.280E+00   0.276E-02 -.885E-02 0.582E-02
   -.104E+03 0.138E+03 -.795E+03   0.106E+03 -.141E+03 0.796E+03   -.143E+01 0.250E+01 -.683E+00   0.785E-02 -.390E-02 -.751E-03
   -.109E+03 0.209E+03 -.183E+04   0.112E+03 -.213E+03 0.183E+04   -.311E+01 0.438E+01 -.335E+01   -.204E-02 -.828E-02 -.127E-01
   -.150E+03 0.149E+03 0.123E+04   0.151E+03 -.150E+03 -.123E+04   -.152E+01 0.145E+01 -.170E+01   -.198E-02 -.181E-02 0.198E-01
   -.713E+02 -.980E+02 -.179E+04   0.714E+02 0.984E+02 0.179E+04   -.552E+00 -.152E+01 -.410E+01   0.840E-02 0.128E-02 -.936E-02
   -.551E+02 -.116E+03 -.611E+03   0.557E+02 0.118E+03 0.609E+03   -.625E+00 -.144E+01 0.185E+01   0.590E-02 -.722E-02 -.120E-01
   -.272E+02 -.602E+02 0.145E+04   0.278E+02 0.615E+02 -.145E+04   -.667E+00 -.135E+01 0.188E+00   0.737E-03 0.557E-02 0.115E-01
   -.430E+02 -.961E+02 0.412E+03   0.435E+02 0.971E+02 -.414E+03   -.525E+00 -.114E+01 0.193E+01   0.114E-02 0.899E-04 0.962E-02
   -.557E+02 -.123E+03 0.833E+03   0.562E+02 0.124E+03 -.834E+03   -.510E+00 -.988E+00 0.132E+01   -.185E-02 -.551E-02 0.175E-01
   -.406E+02 -.110E+03 -.259E+03   0.416E+02 0.112E+03 0.258E+03   -.105E+01 -.166E+01 0.143E+01   -.215E-02 -.558E-02 0.540E-02
   0.861E+02 -.149E+03 -.139E+04   -.874E+02 0.151E+03 0.140E+04   0.156E+01 -.174E+01 -.111E+01   -.407E-02 -.949E-02 -.153E-01
   -.146E+03 -.317E+03 0.176E+04   0.148E+03 0.322E+03 -.176E+04   -.274E+01 -.591E+01 0.240E+01   0.178E-02 0.319E-02 0.189E-01
   -.148E+03 -.321E+03 0.189E+04   0.151E+03 0.327E+03 -.189E+04   -.290E+01 -.637E+01 0.243E+01   0.250E-02 0.471E-02 0.123E-01
   -.475E+02 -.101E+03 0.113E+04   0.480E+02 0.102E+03 -.113E+04   -.468E+00 -.976E+00 0.803E+00   0.577E-03 -.157E-02 0.833E-02
   -.458E+02 -.871E+02 0.732E+02   0.463E+02 0.883E+02 -.748E+02   -.493E+00 -.107E+01 0.177E+01   0.221E-02 0.894E-02 0.873E-02
   -.437E+02 -.636E+02 -.944E+03   0.441E+02 0.647E+02 0.942E+03   -.407E+00 -.123E+01 0.275E+01   -.153E-02 0.183E-02 -.232E-01
   -.360E+02 -.699E+02 -.188E+04   0.360E+02 0.700E+02 0.189E+04   -.649E+00 -.165E+01 -.400E+01   0.319E-02 0.120E-01 -.910E-02
   0.240E+01 0.160E+03 0.175E+04   -.237E+01 -.162E+03 -.176E+04   0.505E+00 0.309E+01 0.332E+01   0.130E-03 0.117E-03 0.126E-01
   0.167E+03 0.471E+02 0.622E+03   -.170E+03 -.476E+02 -.622E+03   0.291E+01 0.446E+00 -.173E+00   0.338E-02 -.195E-03 0.110E-01
   0.180E+03 0.387E+02 -.435E+03   -.182E+03 -.392E+02 0.436E+03   0.264E+01 0.442E+00 -.926E+00   0.218E-02 0.129E-03 -.240E-02
   0.185E+03 0.453E+02 -.140E+04   -.188E+03 -.457E+02 0.140E+04   0.289E+01 0.536E+00 0.687E+00   -.115E-01 -.399E-02 -.310E-01
   0.174E+03 -.147E+02 -.109E+04   -.177E+03 0.143E+02 0.109E+04   0.260E+01 0.448E+00 -.124E+01   0.453E-02 0.154E-02 -.105E-01
   0.139E+03 -.177E+03 -.192E+04   -.140E+03 0.178E+03 0.193E+04   0.209E+01 -.252E+01 -.431E+01   0.214E-02 -.234E-02 -.124E-01
   0.138E+03 0.176E+03 0.189E+04   -.138E+03 -.178E+03 -.190E+04   0.116E+00 0.370E+01 0.373E+01   -.111E-02 -.133E-02 0.630E-02
   0.172E+03 0.292E+02 0.926E+03   -.175E+03 -.299E+02 -.926E+03   0.300E+01 0.716E+00 -.585E+00   0.308E-02 0.423E-02 0.183E-01
   0.162E+03 0.157E+02 -.715E+02   -.164E+03 -.163E+02 0.717E+02   0.275E+01 0.522E+00 -.193E+00   0.411E-02 -.183E-05 0.485E-02
   0.159E+03 0.295E+02 -.765E+03   -.162E+03 -.299E+02 0.766E+03   0.265E+01 0.272E+00 -.101E+01   -.625E-02 0.756E-02 -.125E-02
   0.262E+02 0.808E+02 -.172E+04   -.271E+02 -.813E+02 0.173E+04   0.869E+00 0.112E+01 -.164E+01   -.482E-02 -.670E-02 -.160E-01
   0.175E+03 0.620E+01 0.268E+03   -.178E+03 -.682E+01 -.267E+03   0.271E+01 0.561E+00 -.282E+00   -.920E-02 -.373E-02 0.611E-02
   0.210E+03 -.167E+02 0.123E+04   -.213E+03 0.165E+02 -.123E+04   0.211E+01 -.198E+00 -.170E+01   -.112E-02 -.339E-02 0.194E-01
 -----------------------------------------------------------------------------------------------
   -.162E+02 -.469E+02 -.196E+02   -.966E-12 0.117E-11 -.189E-10   0.162E+02 0.469E+02 0.194E+02   0.283E-01 0.204E-01 0.157E+00
 
 
 POSITION                                       TOTAL-FORCE (eV/Angst)
 -----------------------------------------------------------------------------------
      5.55051      2.35858      1.66874        -0.810147      0.033116      0.423395
      6.34277      4.07957      4.17186        -0.102588     -0.093899     -0.058146
      7.13503      5.80056      6.67497         0.156306      0.087422     -0.003910
      7.92730      7.52156      9.17809         0.677001      0.273751     -0.629440
      3.97070     -1.07316      5.84060         0.170596     -0.081072     -0.031357
      4.76297      0.64784      8.34372         0.060110      0.119992      0.591198
      2.38618      6.93764      0.83437         0.012946     -0.302111      1.107482
      3.17844      8.65863      3.33749        -0.055160     -0.265504     -0.166964
      0.01411      1.78491      2.50311        -0.163017      0.076345     -0.303226
      0.80637      3.50591      5.00623        -0.037802     -0.013370     -0.127849
      1.59863      5.22690      7.50934        -0.109956     -0.012822      0.067128
      2.39090      6.94789     10.01246         0.586817      0.086912     -0.807377
      7.92258      7.51131      0.00000         1.032334      0.229665      1.798976
      5.96915      0.24208      2.99142        -0.010903     -0.048947     -0.563483
      6.76141      1.96307      5.49453         0.056209      0.180112     -0.085037
      7.55367      3.68406      7.99765        -0.024611     -0.032339      0.249927
      8.34594      5.40506     10.50076        -0.128593     -0.334016     -1.714582
      5.18161     -1.46866      9.66639        -0.054801      0.382246      0.729494
      2.80482      4.82114      2.15705        -0.089725     -0.234930     -0.190280
      3.59708      6.54213      4.66016         0.073004      0.102093      0.042630
      4.38934      8.26313      7.16328        -0.001731      0.100351     -0.060469
      1.22501      1.38941      6.32891         0.084986      0.192231     -0.188429
      2.01727      3.11040      8.83202         0.195028      0.233989      0.595634
      0.43275     11.12120      3.82579        -0.081235     -0.164591     -0.231158
      8.34122      5.39480      1.32268         0.180345      0.418644      0.707645
      0.73309      8.74771      6.67497        -0.026388      0.205039     -0.030121
      1.52535     10.46871      9.17809        -0.180594      0.781224     -0.620095
      7.84929      1.30033      1.66874         0.559232     -0.588687      0.426897
      8.64156      3.02132      4.17186         0.004490     -0.121457     -0.037755
      6.26949     -2.13141      5.84060        -0.130618      0.064005     -0.107030
      7.06175     -0.41041      8.34372         0.045775      0.232082      0.271797
      7.85401      1.31058     10.84683         0.016353     -1.242473     -2.061952
      4.68496      5.87939      0.83437        -0.249818     -0.185817      1.090514
      5.47723      7.60038      3.33749        -0.174066     -0.196728     -0.152953
      2.31289      0.72666      2.50311         0.164676     -0.062147     -0.311157
      3.10516      2.44766      5.00623         0.043835     -0.039117     -0.102026
      3.89742      4.16865      7.50934        -0.058443     -0.058028      0.327004
      4.68968      5.88964     10.01246        -0.436121      0.505184     -0.886936
      1.52063     10.45845      0.00000        -0.493241      0.937394      1.800223
      0.11665      6.58149      6.48654        -0.102579      0.068483      0.118995
      0.90891      8.30248      8.98965        -0.131756      0.467183      1.321483
      7.23286     -0.86589      1.48031         0.094475      0.798269      0.095878
      8.02512      0.85510      3.98342        -0.251872      0.128423      0.173111
      6.44531     -2.57663      8.15528         0.009694      0.144300      0.375369
      7.23758     -0.85564     10.65839        -0.394793      0.487298     -0.585983
      4.06853      3.71317      0.64594         0.823471      0.737620     -0.004161
      4.86079      5.43416      3.14905        -0.181585      0.155504     -0.007303
      5.65305      7.15516      5.65216        -0.055856     -0.046936      0.059464
      2.48872      0.28144      4.81779        -0.063189     -0.013241      0.157149
      3.28098      2.00243      7.32091        -0.193930      0.109291      0.148658
      4.07325      3.72342      9.82402        -0.119048      0.458432     -0.704039
      1.69646     10.01323      2.31468        -0.272111     -0.313888     -0.906072
      1.16809      1.26577      9.80852        -0.489546     -1.139560      0.542451
      0.37583     10.99756      7.30541        -0.078327     -0.203755      0.148465
      7.49204      3.55017      2.29918        -0.031936     -0.069493     -1.629648
      8.28430      5.27117      4.80229        -0.022395     -0.054549      0.015162
      5.11997     -1.60255      3.96792        -0.055487     -0.073421     -0.135308
      5.91223      0.11844      6.47103        -0.058113     -0.024058      0.217694
      6.70449      1.83943      8.97415         0.226804     -0.146676      1.037722
      4.32771      8.12924      1.46480        -0.352522     -0.753014     -1.454200
      1.16338      1.25552      0.63043        -0.500704     -1.116938     -1.181222
      1.95564      2.97651      3.13355         0.004856      0.053715     -0.123207
      2.74790      4.69750      5.63666         0.056448      0.126217      0.176788
      3.54016      6.41849      8.13978        -0.028507     -0.133285      0.456190
      4.33243      8.13949     10.64289        -0.694160     -1.576152      0.289139
      4.30567      0.48164      1.48031         0.539549      0.589135      0.089486
      5.09793      2.20264      3.98342         0.260036     -0.081119      0.173835
      5.89020      3.92363      6.48654         0.115807     -0.043205      0.109225
      6.68246      5.64462      8.98965         0.358446      0.114753      1.351545
      3.51813     -1.22910      8.15528         0.125431      0.052452      0.242561
      4.31039      0.49189     10.65839         0.305615     -0.924731     -1.313010
      1.14134      5.06071      0.64594         0.017823      1.107718     -0.009112
      1.93360      6.78170      3.14905         0.245095     -0.027956     -0.012113
      2.72586      8.50269      5.65216        -0.012293     -0.064515      0.052274
      0.35380      3.34996      7.32091         0.177336     -0.127714      0.109680
      1.14606      5.07096      9.82402         0.039076      0.655534      0.596803
      8.26226     -2.37643      4.81779         0.034105     -0.059440      0.160658
      7.47000      7.35536      2.31468        -0.043844     -0.424423     -0.912622
 -----------------------------------------------------------------------------------
    total drift:                                0.015162     -0.030663     -0.046867


--------------------------------------------------------------------------------------------------------



  FREE ENERGIE OF THE ION-ELECTRON SYSTEM (eV)
  ---------------------------------------------------
  free  energy   TOTEN  =      -385.74987628 eV

  energy  without entropy=     -384.57569842  energy(sigma->0) =     -385.16278735
 


--------------------------------------------------------------------------------------------------------


    POTLOK:  cpu time    0.0496: real time    0.0508


--------------------------------------------------------------------------------------------------------


     LOOP+:  cpu time  111.9815: real time  112.3324
    4ORBIT:  cpu time    0.0000: real time    0.0000

 total amount of memory used by VASP MPI-rank0    47161. kBytes
=======================================================================

   base      :      30000. kBytes
   nonlr-proj:       2615. kBytes
   fftplans  :       3720. kBytes
   grid      :       6724. kBytes
   one-center:        101. kBytes
   wavefun   :       4001. kBytes
 
  
  
 General timing and accounting informations for this job:
 ========================================================
  
                  Total CPU time used (sec):      114.090
                            User time (sec):      113.344
                          System time (sec):        0.746
                         Elapsed time (sec):      115.106
  
                   Maximum memory used (kb):      243548.
                   Average memory used (kb):           0.
  
                          Minor page faults:       103973
                          Major page faults:            0
                 Voluntary context switches:          905
