  72  72   0   0
  0.3541843E+02  0.1182574E-08  0.1182574E-08  0.1919359E-08  0.5000000E-15
  1.000000000000000E-004
  CAR 
 "Millerite NiS"                         
      9.24409285    -68.22420651  301     -0.53202695      1.00000000
    -68.224  0.0000E+00  0.0000E+00
    -67.966  0.0000E+00  0.0000E+00
    -67.708  0.0000E+00  0.0000E+00
    -67.450  0.0000E+00  0.0000E+00
    -67.191  0.0000E+00  0.0000E+00
    -66.933  0.0000E+00  0.0000E+00
    -66.675  0.0000E+00  0.0000E+00
    -66.417  0.0000E+00  0.0000E+00
    -66.158  0.0000E+00  0.0000E+00
    -65.900  0.0000E+00  0.0000E+00
    -65.642  0.1306E-09  0.3371E-10
    -65.384  0.6803E-05  0.1757E-05
    -65.125  0.1650E-01  0.4264E-02
    -64.867  0.2541E+01  0.6605E+00
    -64.609  0.4224E+02  0.1157E+02
    -64.351  0.1548E+03  0.5154E+02
    -64.093  0.2703E+03  0.1213E+03
    -63.834  0.1795E+03  0.1677E+03
    -63.576  0.1132E+03  0.1969E+03
    -63.318  0.5771E+02  0.2118E+03
    -63.060  0.1505E+02  0.2157E+03
    -62.801  0.1072E+01  0.2160E+03
    -62.543  0.7038E-02  0.2160E+03
    -62.285  0.2460E-05  0.2160E+03
    -62.027  0.3666E-10  0.2160E+03
    -61.769  0.0000E+00  0.2160E+03
    -61.510  0.0000E+00  0.2160E+03
    -61.252  0.0000E+00  0.2160E+03
    -60.994  0.0000E+00  0.2160E+03
    -60.736  0.0000E+00  0.2160E+03
    -60.477  0.0000E+00  0.2160E+03
    -60.219  0.0000E+00  0.2160E+03
    -59.961  0.0000E+00  0.2160E+03
    -59.703  0.0000E+00  0.2160E+03
    -59.444  0.0000E+00  0.2160E+03
    -59.186  0.0000E+00  0.2160E+03
    -58.928  0.0000E+00  0.2160E+03
    -58.670  0.0000E+00  0.2160E+03
    -58.412  0.0000E+00  0.2160E+03
    -58.153  0.0000E+00  0.2160E+03
    -57.895  0.0000E+00  0.2160E+03
    -57.637  0.0000E+00  0.2160E+03
    -57.379  0.0000E+00  0.2160E+03
    -57.120  0.0000E+00  0.2160E+03
    -56.862  0.0000E+00  0.2160E+03
    -56.604  0.0000E+00  0.2160E+03
    -56.346  0.0000E+00  0.2160E+03
    -56.088  0.0000E+00  0.2160E+03
    -55.829  0.0000E+00  0.2160E+03
    -55.571  0.0000E+00  0.2160E+03
    -55.313  0.0000E+00  0.2160E+03
    -55.055  0.0000E+00  0.2160E+03
    -54.796  0.0000E+00  0.2160E+03
    -54.538  0.0000E+00  0.2160E+03
    -54.280  0.0000E+00  0.2160E+03
    -54.022  0.0000E+00  0.2160E+03
    -53.763  0.0000E+00  0.2160E+03
    -53.505  0.0000E+00  0.2160E+03
    -53.247  0.0000E+00  0.2160E+03
    -52.989  0.0000E+00  0.2160E+03
    -52.731  0.0000E+00  0.2160E+03
    -52.472  0.0000E+00  0.2160E+03
    -52.214  0.0000E+00  0.2160E+03
    -51.956  0.0000E+00  0.2160E+03
    -51.698  0.0000E+00  0.2160E+03
    -51.439  0.0000E+00  0.2160E+03
    -51.181  0.0000E+00  0.2160E+03
    -50.923  0.0000E+00  0.2160E+03
    -50.665  0.0000E+00  0.2160E+03
    -50.406  0.0000E+00  0.2160E+03
    -50.148  0.0000E+00  0.2160E+03
    -49.890  0.0000E+00  0.2160E+03
    -49.632  0.0000E+00  0.2160E+03
    -49.374  0.0000E+00  0.2160E+03
    -49.115  0.0000E+00  0.2160E+03
    -48.857  0.0000E+00  0.2160E+03
    -48.599  0.0000E+00  0.2160E+03
    -48.341  0.0000E+00  0.2160E+03
    -48.082  0.0000E+00  0.2160E+03
    -47.824  0.0000E+00  0.2160E+03
    -47.566  0.0000E+00  0.2160E+03
    -47.308  0.0000E+00  0.2160E+03
    -47.050  0.0000E+00  0.2160E+03
    -46.791  0.0000E+00  0.2160E+03
    -46.533  0.0000E+00  0.2160E+03
    -46.275  0.0000E+00  0.2160E+03
    -46.017  0.0000E+00  0.2160E+03
    -45.758  0.0000E+00  0.2160E+03
    -45.500  0.0000E+00  0.2160E+03
    -45.242  0.0000E+00  0.2160E+03
    -44.984  0.0000E+00  0.2160E+03
    -44.725  0.0000E+00  0.2160E+03
    -44.467  0.0000E+00  0.2160E+03
    -44.209  0.0000E+00  0.2160E+03
    -43.951  0.0000E+00  0.2160E+03
    -43.693  0.0000E+00  0.2160E+03
    -43.434  0.0000E+00  0.2160E+03
    -43.176  0.0000E+00  0.2160E+03
    -42.918  0.0000E+00  0.2160E+03
    -42.660  0.0000E+00  0.2160E+03
    -42.401  0.0000E+00  0.2160E+03
    -42.143  0.0000E+00  0.2160E+03
    -41.885  0.0000E+00  0.2160E+03
    -41.627  0.0000E+00  0.2160E+03
    -41.369  0.0000E+00  0.2160E+03
    -41.110  0.0000E+00  0.2160E+03
    -40.852  0.0000E+00  0.2160E+03
    -40.594  0.0000E+00  0.2160E+03
    -40.336  0.0000E+00  0.2160E+03
    -40.077  0.0000E+00  0.2160E+03
    -39.819  0.0000E+00  0.2160E+03
    -39.561  0.0000E+00  0.2160E+03
    -39.303  0.0000E+00  0.2160E+03
    -39.044  0.0000E+00  0.2160E+03
    -38.786  0.0000E+00  0.2160E+03
    -38.528  0.0000E+00  0.2160E+03
    -38.270  0.0000E+00  0.2160E+03
    -38.012  0.0000E+00  0.2160E+03
    -37.753  0.0000E+00  0.2160E+03
    -37.495  0.0000E+00  0.2160E+03
    -37.237  0.0000E+00  0.2160E+03
    -36.979  0.0000E+00  0.2160E+03
    -36.720  0.0000E+00  0.2160E+03
    -36.462  0.0000E+00  0.2160E+03
    -36.204  0.0000E+00  0.2160E+03
    -35.946  0.0000E+00  0.2160E+03
    -35.688  0.0000E+00  0.2160E+03
    -35.429  0.0000E+00  0.2160E+03
    -35.171  0.0000E+00  0.2160E+03
    -34.913  0.0000E+00  0.2160E+03
    -34.655  0.0000E+00  0.2160E+03
    -34.396  0.0000E+00  0.2160E+03
    -34.138  0.0000E+00  0.2160E+03
    -33.880  0.0000E+00  0.2160E+03
    -33.622  0.0000E+00  0.2160E+03
    -33.363  0.0000E+00  0.2160E+03
    -33.105  0.0000E+00  0.2160E+03
    -32.847  0.0000E+00  0.2160E+03
    -32.589  0.0000E+00  0.2160E+03
    -32.331  0.0000E+00  0.2160E+03
    -32.072  0.0000E+00  0.2160E+03
    -31.814  0.0000E+00  0.2160E+03
    -31.556  0.0000E+00  0.2160E+03
    -31.298  0.0000E+00  0.2160E+03
    -31.039  0.0000E+00  0.2160E+03
    -30.781  0.0000E+00  0.2160E+03
    -30.523  0.0000E+00  0.2160E+03
    -30.265  0.0000E+00  0.2160E+03
    -30.007  0.0000E+00  0.2160E+03
    -29.748  0.0000E+00  0.2160E+03
    -29.490  0.0000E+00  0.2160E+03
    -29.232  0.0000E+00  0.2160E+03
    -28.974  0.0000E+00  0.2160E+03
    -28.715  0.0000E+00  0.2160E+03
    -28.457  0.0000E+00  0.2160E+03
    -28.199  0.0000E+00  0.2160E+03
    -27.941  0.0000E+00  0.2160E+03
    -27.682  0.0000E+00  0.2160E+03
    -27.424  0.0000E+00  0.2160E+03
    -27.166  0.0000E+00  0.2160E+03
    -26.908  0.0000E+00  0.2160E+03
    -26.650  0.0000E+00  0.2160E+03
    -26.391  0.0000E+00  0.2160E+03
    -26.133  0.0000E+00  0.2160E+03
    -25.875  0.0000E+00  0.2160E+03
    -25.617  0.0000E+00  0.2160E+03
    -25.358  0.0000E+00  0.2160E+03
    -25.100  0.0000E+00  0.2160E+03
    -24.842  0.0000E+00  0.2160E+03
    -24.584  0.0000E+00  0.2160E+03
    -24.326  0.0000E+00  0.2160E+03
    -24.067  0.0000E+00  0.2160E+03
    -23.809  0.0000E+00  0.2160E+03
    -23.551  0.0000E+00  0.2160E+03
    -23.293  0.0000E+00  0.2160E+03
    -23.034  0.0000E+00  0.2160E+03
    -22.776  0.0000E+00  0.2160E+03
    -22.518  0.0000E+00  0.2160E+03
    -22.260  0.0000E+00  0.2160E+03
    -22.001  0.0000E+00  0.2160E+03
    -21.743  0.0000E+00  0.2160E+03
    -21.485  0.0000E+00  0.2160E+03
    -21.227  0.0000E+00  0.2160E+03
    -20.969  0.0000E+00  0.2160E+03
    -20.710  0.0000E+00  0.2160E+03
    -20.452  0.0000E+00  0.2160E+03
    -20.194  0.0000E+00  0.2160E+03
    -19.936  0.0000E+00  0.2160E+03
    -19.677  0.0000E+00  0.2160E+03
    -19.419  0.0000E+00  0.2160E+03
    -19.161  0.0000E+00  0.2160E+03
    -18.903  0.0000E+00  0.2160E+03
    -18.644  0.0000E+00  0.2160E+03
    -18.386  0.0000E+00  0.2160E+03
    -18.128  0.0000E+00  0.2160E+03
    -17.870  0.0000E+00  0.2160E+03
    -17.612  0.0000E+00  0.2160E+03
    -17.353  0.0000E+00  0.2160E+03
    -17.095  0.0000E+00  0.2160E+03
    -16.837  0.0000E+00  0.2160E+03
    -16.579  0.2460E-11  0.2160E+03
    -16.320  0.3104E-06  0.2160E+03
    -16.062  0.1544E-02  0.2160E+03
    -15.804  0.3329E+00  0.2161E+03
    -15.546  0.3887E+01  0.2171E+03
    -15.288  0.4327E+01  0.2182E+03
    -15.029  0.1055E+02  0.2209E+03
    -14.771  0.2076E+02  0.2263E+03
    -14.513  0.1887E+02  0.2312E+03
    -14.255  0.1838E+02  0.2359E+03
    -13.996  0.3355E+02  0.2446E+03
    -13.738  0.3857E+02  0.2545E+03
    -13.480  0.1694E+02  0.2589E+03
    -13.222  0.5983E+01  0.2605E+03
    -12.963  0.1130E+02  0.2634E+03
    -12.705  0.2668E+02  0.2703E+03
    -12.447  0.2708E+02  0.2773E+03
    -12.189  0.1609E+02  0.2814E+03
    -11.931  0.1928E+02  0.2864E+03
    -11.672  0.6024E+01  0.2879E+03
    -11.414  0.2239E+00  0.2880E+03
    -11.156  0.4857E-03  0.2880E+03
    -10.898  0.4650E-07  0.2880E+03
    -10.639  0.1789E-12  0.2880E+03
    -10.381  0.0000E+00  0.2880E+03
    -10.123  0.0000E+00  0.2880E+03
     -9.865  0.0000E+00  0.2880E+03
     -9.607  0.0000E+00  0.2880E+03
     -9.348  0.0000E+00  0.2880E+03
     -9.090  0.0000E+00  0.2880E+03
     -8.832  0.0000E+00  0.2880E+03
     -8.574  0.1290E-14  0.2880E+03
     -8.315  0.9935E-09  0.2880E+03
     -8.057  0.2807E-04  0.2880E+03
     -7.799  0.3522E-01  0.2880E+03
     -7.541  0.2517E+01  0.2887E+03
     -7.282  0.1649E+02  0.2929E+03
     -7.024  0.2413E+02  0.2991E+03
     -6.766  0.2576E+02  0.3058E+03
     -6.508  0.3647E+02  0.3152E+03
     -6.250  0.3413E+02  0.3240E+03
     -5.991  0.2977E+02  0.3317E+03
     -5.733  0.3849E+02  0.3417E+03
     -5.475  0.4809E+02  0.3541E+03
     -5.217  0.4432E+02  0.3655E+03
     -4.958  0.5279E+02  0.3792E+03
     -4.700  0.6322E+02  0.3955E+03
     -4.442  0.5775E+02  0.4104E+03
     -4.184  0.5700E+02  0.4251E+03
     -3.926  0.4776E+02  0.4374E+03
     -3.667  0.4700E+02  0.4496E+03
     -3.409  0.5823E+02  0.4646E+03
     -3.151  0.7118E+02  0.4830E+03
     -2.893  0.8328E+02  0.5045E+03
     -2.634  0.9164E+02  0.5282E+03
     -2.376  0.1162E+03  0.5582E+03
     -2.118  0.1423E+03  0.5949E+03
     -1.860  0.1613E+03  0.6365E+03
     -1.601  0.1660E+03  0.6794E+03
     -1.343  0.1421E+03  0.7161E+03
     -1.085  0.1123E+03  0.7451E+03
     -0.827  0.9059E+02  0.7685E+03
     -0.569  0.8039E+02  0.7893E+03
     -0.310  0.7000E+02  0.8073E+03
     -0.052  0.5873E+02  0.8225E+03
      0.206  0.4867E+02  0.8351E+03
      0.464  0.4614E+02  0.8470E+03
      0.723  0.4347E+02  0.8582E+03
      0.981  0.2970E+02  0.8659E+03
      1.239  0.7888E+01  0.8679E+03
      1.497  0.4031E+00  0.8680E+03
      1.755  0.2421E+01  0.8686E+03
      2.014  0.1080E+02  0.8714E+03
      2.272  0.1427E+02  0.8751E+03
      2.530  0.1064E+02  0.8779E+03
      2.788  0.1261E+02  0.8811E+03
      3.047  0.2109E+02  0.8866E+03
      3.305  0.2093E+02  0.8920E+03
      3.563  0.2137E+02  0.8975E+03
      3.821  0.1891E+02  0.9024E+03
      4.080  0.2074E+02  0.9077E+03
      4.338  0.1974E+02  0.9128E+03
      4.596  0.2268E+02  0.9187E+03
      4.854  0.2909E+02  0.9262E+03
      5.112  0.3047E+02  0.9341E+03
      5.371  0.3833E+02  0.9440E+03
      5.629  0.3938E+02  0.9541E+03
      5.887  0.2087E+02  0.9595E+03
      6.145  0.1866E+01  0.9600E+03
      6.404  0.1438E-01  0.9600E+03
      6.662  0.6358E-05  0.9600E+03
      6.920  0.1263E-09  0.9600E+03
      7.178  0.0000E+00  0.9600E+03
      7.436  0.0000E+00  0.9600E+03
      7.695  0.0000E+00  0.9600E+03
      7.953  0.0000E+00  0.9600E+03
      8.211  0.0000E+00  0.9600E+03
      8.469  0.0000E+00  0.9600E+03
      8.728  0.0000E+00  0.9600E+03
      8.986  0.0000E+00  0.9600E+03
      9.244  0.0000E+00  0.9600E+03
