 vasp.5.4.4.18Apr17-6-g9f103f2a35 (build Aug 13 2019 17:33:20) gamma-only       
  
 executed on             LinuxIFC date 2020.05.10  12:13:31
 running on   12 total cores
 distrk:  each k-point on   12 cores,    1 groups
 distr:  one band on NCORES_PER_BAND=   6 cores,    2 groups


--------------------------------------------------------------------------------------------------------


 INCAR:
 POTCAR:    PAW_PBE Ni_pv 06Sep2000               
 POTCAR:    PAW_PBE S 06Sep2000                   
 POTCAR:    PAW_PBE Ni_pv 06Sep2000               
   VRHFIN =Ni:                                                                  
   LEXCH  = PE                                                                  
   EATOM  =  3501.1230 eV,  257.3253 Ry                                         
                                                                                
   TITEL  = PAW_PBE Ni_pv 06Sep2000                                             
   LULTRA =        F    use ultrasoft PP ?                                      
   IUNSCR =        1    unscreen: 0-lin 1-nonlin 2-no                           
   RPACOR =    1.500    partial core radius                                     
   POMASS =   58.690; ZVAL   =   16.000    mass and valenz                      
   RCORE  =    2.000    outmost cutoff radius                                   
   RWIGS  =    2.000; RWIGS  =    1.058    wigner-seitz radius (au A)           
   ENMAX  =  367.986; ENMIN  =  275.989 eV                                      
   RCLOC  =    1.301    cutoff for local pot                                    
   LCOR   =        T    correct aug charges                                     
   LPAW   =        T    paw PP                                                  
   EAUG   =  703.443                                                            
   DEXC   =    0.000                                                            
   RMAX   =    2.041    core radius for proj-oper                               
   RAUG   =    1.300    factor for augmentation sphere                          
   RDEP   =    2.103    radius for radial grids                                 
   RDEPT  =    1.618    core radius for aug-charge                              
                                                                                
   Atomic configuration                                                         
    8 entries                                                                   
     n  l   j            E        occ.                                          
     1  0  0.50     -8206.4253   2.0000                                         
     2  0  0.50      -976.1748   2.0000                                         
     2  1  1.50      -839.0571   6.0000                                         
     3  0  0.50      -105.9991   2.0000                                         
     3  1  1.50       -66.4603   6.0000                                         
     3  2  2.50        -4.6458   9.0000                                         
     4  0  0.50        -4.4926   1.0000                                         
     4  3  2.50        -1.3606   0.0000                                         
   Description                                                                  
     l       E           TYP  RCUT    TYP  RCUT                                 
     1    -66.4602962     23  1.700                                             
     1     -1.3605826     23  1.700                                             
     2     -4.6457867     23  2.000                                             
     2     -6.0063693     23  2.000                                             
     0     -4.4925576     23  1.900                                             
     0     16.3626226     23  1.900                                             
  local pseudopotential read in
  partial core-charges read in
  partial kinetic energy density read in
  atomic valenz-charges read in
  non local Contribution for L=           1  read in
    real space projection operators read in
  non local Contribution for L=           1  read in
    real space projection operators read in
  non local Contribution for L=           2  read in
    real space projection operators read in
  non local Contribution for L=           2  read in
    real space projection operators read in
  non local Contribution for L=           0  read in
    real space projection operators read in
  non local Contribution for L=           0  read in
    real space projection operators read in
    PAW grid and wavefunctions read in
 
   number of l-projection  operators is LMAX  =           6
   number of lm-projection operators is LMMAX =          18
 
 POTCAR:    PAW_PBE S 06Sep2000                   
   VRHFIN =S : s2p4                                                             
   LEXCH  = PE                                                                  
   EATOM  =   276.8230 eV,   20.3459 Ry                                         
                                                                                
   TITEL  = PAW_PBE S 06Sep2000                                                 
   LULTRA =        F    use ultrasoft PP ?                                      
   IUNSCR =        1    unscreen: 0-lin 1-nonlin 2-no                           
   RPACOR =    1.500    partial core radius                                     
   POMASS =   32.066; ZVAL   =    6.000    mass and valenz                      
   RCORE  =    1.900    outmost cutoff radius                                   
   RWIGS  =    2.200; RWIGS  =    1.164    wigner-seitz radius (au A)           
   ENMAX  =  258.689; ENMIN  =  194.016 eV                                      
   ICORE  =        2    local potential                                         
   LCOR   =        T    correct aug charges                                     
   LPAW   =        T    paw PP                                                  
   EAUG   =  335.092                                                            
   DEXC   =    0.000                                                            
   RMAX   =    1.942    core radius for proj-oper                               
   RAUG   =    1.300    factor for augmentation sphere                          
   RDEP   =    1.954    radius for radial grids                                 
   RDEPT  =    1.744    core radius for aug-charge                              
                                                                                
   Atomic configuration                                                         
    6 entries                                                                   
     n  l   j            E        occ.                                          
     1  0  0.50     -2405.8406   2.0000                                         
     2  0  0.50      -211.7007   2.0000                                         
     2  1  1.50      -156.4958   6.0000                                         
     3  0  0.50       -17.2562   2.0000                                         
     3  1  0.50        -7.0085   4.0000                                         
     3  2  1.50        -6.8029   0.0000                                         
   Description                                                                  
     l       E           TYP  RCUT    TYP  RCUT                                 
     0    -17.2561641     23  1.900                                             
     0    -15.8743224     23  1.900                                             
     1     -7.0085400     23  1.900                                             
     1     -2.7779785     23  1.900                                             
     2     -6.8029130     23  1.900                                             
  local pseudopotential read in
  partial core-charges read in
  partial kinetic energy density read in
  atomic valenz-charges read in
  non local Contribution for L=           0  read in
    real space projection operators read in
  non local Contribution for L=           0  read in
    real space projection operators read in
  non local Contribution for L=           1  read in
    real space projection operators read in
  non local Contribution for L=           1  read in
    real space projection operators read in
    PAW grid and wavefunctions read in
 
   number of l-projection  operators is LMAX  =           4
   number of lm-projection operators is LMMAX =           8
 
 Optimization of the real space projectors (new method)

 maximal supplied QI-value         = 18.90
 optimisation between [QCUT,QGAM] = [ 10.77, 21.73] = [ 32.49,132.25] Ry 
 Optimized for a Real-space Cutoff    1.38 Angstroem

   l    n(q)    QCUT    max X(q) W(low)/X(q) W(high)/X(q)  e(spline) 
   1      8    10.771     2.836    0.40E-04    0.29E-04    0.12E-06
   1      8    10.771     4.023    0.10E-03    0.48E-04    0.29E-06
   2      8    10.771    73.368    0.42E-03    0.97E-04    0.44E-06
   2      8    10.771    69.010    0.42E-03    0.99E-04    0.45E-06
   0      9    10.771    54.797    0.10E-03    0.56E-04    0.74E-07
   0      9    10.771    24.266    0.89E-04    0.49E-04    0.67E-07
 Optimization of the real space projectors (new method)

 maximal supplied QI-value         = 19.84
 optimisation between [QCUT,QGAM] = [ 10.71, 21.63] = [ 32.15,130.99] Ry 
 Optimized for a Real-space Cutoff    1.19 Angstroem

   l    n(q)    QCUT    max X(q) W(low)/X(q) W(high)/X(q)  e(spline) 
   0      8    10.715   187.594    0.41E-03    0.53E-04    0.66E-07
   0      8    10.715   164.243    0.41E-03    0.53E-04    0.65E-07
   1      7    10.715    67.533    0.19E-03    0.59E-03    0.68E-07
   1      7    10.715    50.729    0.19E-03    0.58E-03    0.67E-07
  PAW_PBE Ni_pv 06Sep2000               :
 energy of atom  1       EATOM=-3501.1230
 kinetic energy error for atom=    0.0925 (will be added to EATOM!!)
  PAW_PBE S 06Sep2000                   :
 energy of atom  2       EATOM= -276.8230
 kinetic energy error for atom=    0.0033 (will be added to EATOM!!)
 
 
 POSCAR: Type_026 Type_126                       
  positions in cartesian coordinates
  No initial velocities read in
 exchange correlation table for  LEXCH =        8
   RHO(1)=    0.500       N(1)  =     2000
   RHO(2)=  100.500       N(2)  =     4000
 


--------------------------------------------------------------------------------------------------------


 ion  position               nearest neighbor table
   1  0.439  0.464  0.163-  44 2.07  35 2.08  30 2.25  36 2.36  45 2.36   5 2.53  22 2.53
   2  0.488  0.461  0.324-  46 2.00  45 2.05  36 2.06   6 2.47  23 2.51
   3  0.159  0.971  0.095-  37 2.06  27 2.08  38 2.11  34 2.21   4 2.50
   4  0.209  0.979  0.237-  34 2.08  28 2.08  39 2.08  38 2.17  26 2.39  12 2.44   3 2.50
   5  0.439  0.200  0.163-  40 2.07  35 2.08  34 2.25  36 2.36  41 2.36   1 2.53  22 2.53
   6  0.488  0.203  0.324-  42 2.00  41 2.05  36 2.06   2 2.47  23 2.51
   7  0.159  0.693  0.095-  37 2.06  31 2.08  38 2.11  30 2.21   8 2.50
   8  0.209  0.684  0.237-  30 2.08  32 2.08  39 2.08  38 2.17  26 2.39  12 2.44   7 2.50
   9  0.131  0.332  0.139-  27 2.07  31 2.07  35 2.11  28 2.36  32 2.36  18 2.53  14 2.53
  10  0.182  0.332  0.319-  29 2.03  33 2.03  36 2.25  28 2.26  32 2.26  15 2.51  19 2.51
  11  0.449  0.832  0.097-  50 2.04  51 2.14  30 2.24  34 2.24  12 2.38
  12  0.385  0.832  0.229-  39 2.15  34 2.19  30 2.19  11 2.38   4 2.44   8 2.44  51 2.48  13 2.48

  13  0.573  0.832  0.304-  52 2.07  51 2.16  21 2.39  17 2.39  12 2.48
  14  0.939  0.464  0.163-  31 2.07  48 2.08  43 2.25  49 2.36  32 2.36  18 2.53   9 2.53
  15  0.988  0.461  0.324-  33 2.00  32 2.05  49 2.06  19 2.47  10 2.51
  16  0.659  0.971  0.095-  50 2.06  40 2.08  51 2.11  47 2.21  17 2.50
  17  0.709  0.979  0.237-  47 2.08  41 2.08  52 2.08  51 2.17  13 2.39  25 2.44  16 2.50
  18  0.939  0.200  0.163-  27 2.07  48 2.08  47 2.25  49 2.36  28 2.36  14 2.53   9 2.53
  19  0.988  0.203  0.324-  29 2.00  28 2.05  49 2.06  15 2.47  10 2.51
  20  0.659  0.693  0.095-  50 2.06  44 2.08  51 2.11  43 2.21  21 2.50
  21  0.709  0.684  0.237-  43 2.08  45 2.08  52 2.08  51 2.17  13 2.39  25 2.44  20 2.50
  22  0.631  0.332  0.139-  40 2.07  44 2.07  48 2.11  41 2.36  45 2.36   5 2.53   1 2.53
  23  0.682  0.332  0.319-  42 2.03  46 2.03  49 2.25  41 2.26  45 2.26   2 2.51   6 2.51
  24  0.949  0.832  0.097-  37 2.04  38 2.14  43 2.24  47 2.24  25 2.38
  25  0.885  0.832  0.229-  52 2.15  47 2.19  43 2.19  24 2.38  17 2.44  21 2.44  38 2.48  26 2.48

  26  0.073  0.832  0.304-  39 2.07  38 2.16   8 2.39   4 2.39  25 2.48
  27  0.068  0.158  0.080-   9 2.07  18 2.07   3 2.08  28 2.78
  28  0.111  0.164  0.239-  19 2.05   4 2.08  10 2.26   9 2.36  18 2.36  27 2.78  29 2.79
  29  0.122  0.196  0.400-  19 2.00  10 2.03  33 2.60  28 2.79
  30  0.336  0.664  0.149-   8 2.08  12 2.19   7 2.21  11 2.24   1 2.25
  31  0.068  0.505  0.080-   9 2.07  14 2.07   7 2.08  32 2.78
  32  0.111  0.500  0.239-  15 2.05   8 2.08  10 2.26   9 2.36  14 2.36  31 2.78  33 2.79
  33  0.122  0.467  0.400-  15 2.00  10 2.03  29 2.60  32 2.79
  34  0.336  1.000  0.149-   4 2.08  12 2.19   3 2.21  11 2.24   5 2.25
  35  0.314  0.332  0.113-   1 2.08   5 2.08   9 2.11  36 2.75
  36  0.368  0.332  0.269-   2 2.06   6 2.06  10 2.25   1 2.36   5 2.36  35 2.75
  37  0.084  0.832  0.018-  24 2.04   3 2.06   7 2.06  38 2.78
  38  0.092  0.832  0.179-   3 2.11   7 2.11  24 2.14  26 2.16   8 2.17   4 2.17  25 2.48  37 2.78

  39  0.255  0.832  0.320-  26 2.07   4 2.08   8 2.08  12 2.15
  40  0.568  0.158  0.080-  22 2.07   5 2.07  16 2.08  41 2.78
  41  0.611  0.164  0.239-   6 2.05  17 2.08  23 2.26  22 2.36   5 2.36  40 2.78  42 2.79
  42  0.622  0.196  0.400-   6 2.00  23 2.03  46 2.60  41 2.79
  43  0.836  0.664  0.149-  21 2.08  25 2.19  20 2.21  24 2.24  14 2.25
  44  0.568  0.505  0.080-  22 2.07   1 2.07  20 2.08  45 2.78
  45  0.611  0.500  0.239-   2 2.05  21 2.08  23 2.26  22 2.36   1 2.36  44 2.78  46 2.79
  46  0.622  0.467  0.400-   2 2.00  23 2.03  42 2.60  45 2.79
  47  0.836  1.000  0.149-  17 2.08  25 2.19  16 2.21  24 2.24  18 2.25
  48  0.814  0.332  0.113-  14 2.08  18 2.08  22 2.11  49 2.75
  49  0.868  0.332  0.269-  15 2.06  19 2.06  23 2.25  14 2.36  18 2.36  48 2.75
  50  0.584  0.832  0.018-  11 2.04  16 2.06  20 2.06  51 2.78
  51  0.592  0.832  0.179-  16 2.11  20 2.11  11 2.14  13 2.16  21 2.17  17 2.17  12 2.48  50 2.78

  52  0.755  0.832  0.320-  13 2.07  17 2.08  21 2.08  25 2.15
 
  LATTYP: Found a simple orthorhombic cell.
 ALAT       =     9.5784100000
 B/A-ratio  =     1.1751911892
 C/A-ratio  =     1.7949213288
  
  Lattice vectors:
  
 A1 = (   0.0000000000,  -9.5784100000,   0.0000000000)
 A2 = ( -11.2564630382,   0.0000000000,   0.0000000000)
 A3 = (   0.0000000000,   0.0000000000, -17.1924924047)


Analysis of symmetry for initial positions (statically):
=====================================================================
 Subroutine PRICEL returns following result:
 
  LATTYP: Found a simple orthorhombic cell.
 ALAT       =     5.6282315191
 B/A-ratio  =     1.7018507443
 C/A-ratio  =     3.0546881994
  
  Lattice vectors:
  
 A1 = (   5.6282315191,   0.0000000000,   0.0000000000)
 A2 = (   0.0000000000,   9.5784100000,   0.0000000000)
 A3 = (   0.0000000000,   0.0000000000,  17.1924924047)
 
   2 primitive cells build up your supercell.
 

 Routine SETGRP: Setting up the symmetry group for a 
 simple orthorhombic supercell.


 Subroutine GETGRP returns: Found  2 space group operations
 (whereof  1 operations were pure point group operations)
 out of a pool of  8 trial point group operations.


The static configuration has the point symmetry C_1 .
 The point group associated with its full space group is C_1h.


Analysis of symmetry for dynamics (positions and initial velocities):
=====================================================================
 Subroutine PRICEL returns following result:
 
  LATTYP: Found a simple orthorhombic cell.
 ALAT       =     5.6282315191
 B/A-ratio  =     1.7018507443
 C/A-ratio  =     3.0546881994
  
  Lattice vectors:
  
 A1 = (   5.6282315191,   0.0000000000,   0.0000000000)
 A2 = (   0.0000000000,   9.5784100000,   0.0000000000)
 A3 = (   0.0000000000,   0.0000000000,  17.1924924047)
 
   2 primitive cells build up your supercell.
 

 Routine SETGRP: Setting up the symmetry group for a 
 simple orthorhombic supercell.


 Subroutine GETGRP returns: Found  2 space group operations
 (whereof  1 operations were pure point group operations)
 out of a pool of  8 trial point group operations.


The dynamic configuration has the point symmetry C_1 .
 The point group associated with its full space group is C_1h.


 Subroutine INISYM returns: Found  2 space group operations
 (whereof  1 operations are pure point group operations),
 and found     2 'primitive' translations

 
 
 KPOINTS: gamma-point-only calculation. no periodi

Automatic generation of k-mesh.
Space group operators:
 irot       det(A)        alpha          n_x          n_y          n_z        tau_x        tau_y        tau_z
    1     1.000000     0.000000     1.000000     0.000000     0.000000     0.000000     0.000000     0.000000
    2    -1.000000   180.000000     0.000000     1.000000     0.000000     0.000000     0.663570     0.000000
 
 Subroutine IBZKPT returns following result:
 ===========================================
 
 Found      1 irreducible k-points:
 
 Following reciprocal coordinates:
            Coordinates               Weight
  0.000000  0.000000  0.000000      1.000000
 
 Following cartesian coordinates:
            Coordinates               Weight
  0.000000  0.000000  0.000000      1.000000
 


--------------------------------------------------------------------------------------------------------




 Dimension of arrays:
   k-points           NKPTS =      1   k-points in BZ     NKDIM =      1   number of bands    NBANDS=    344
   number of dos      NEDOS =    301   number of ions     NIONS =     52
   non local maximal  LDIM  =      6   non local SUM 2l+1 LMDIM =     18
   total plane-waves  NPLWV = 270000
   max r-space proj   IRMAX =   1656   max aug-charges    IRDMAX=   4788
   dimension x,y,z NGX =    60 NGY =   50 NGZ =   90
   dimension x,y,z NGXF=   120 NGYF=  100 NGZF=  180
   support grid    NGXF=   120 NGYF=  100 NGZF=  180
   ions per type =              26  26
   NGX,Y,Z   is equivalent  to a cutoff of   8.86,  8.68,  8.70 a.u.
   NGXF,Y,Z  is equivalent  to a cutoff of  17.72, 17.36, 17.41 a.u.

 SYSTEM =  "Millerite NiS"                         
 POSCAR =  Type_026 Type_126                       

 Startparameter for this run:
   NWRITE =      2    write-flag & timer
   PREC   = normal    normal or accurate (medium, high low for compatibility)
   ISTART =      0    job   : 0-new  1-cont  2-samecut
   ICHARG =      2    charge: 1-file 2-atom 10-const
   ISPIN  =      1    spin polarized calculation?
   LNONCOLLINEAR =      F non collinear calculations
   LSORBIT =      F    spin-orbit coupling
   INIWAV =      1    electr: 0-lowe 1-rand  2-diag
   LASPH  =      F    aspherical Exc in radial PAW
   METAGGA=      F    non-selfconsistent MetaGGA calc.

 Electronic Relaxation 1
   ENCUT  =  450.0 eV  33.07 Ry    5.75 a.u.  19.47 16.57 29.74*2*pi/ulx,y,z
   ENINI  =  450.0     initial cutoff
   ENAUG  =  703.4 eV  augmentation charge cutoff
   NELM   =    100;   NELMIN=  2; NELMDL= -5     # of ELM steps 
   EDIFF  = 0.1E-03   stopping-criterion for ELM
   LREAL  =      T    real-space projection
   NLSPLINE    = F    spline interpolate recip. space projectors
   LCOMPAT=      F    compatible to vasp.4.4
   GGA_COMPAT  = T    GGA compatible to vasp.4.4-vasp.4.6
   LMAXPAW     = -100 max onsite density
   LMAXMIX     =    2 max onsite mixed and CHGCAR
   VOSKOWN=      0    Vosko Wilk Nusair interpolation
   ROPT   =   -0.00050  -0.00050
 Ionic relaxation
   EDIFFG = 0.1E-02   stopping-criterion for IOM
   NSW    =      0    number of steps for IOM
   NBLOCK =      1;   KBLOCK =      1    inner block; outer block 
   IBRION =     -1    ionic relax: 0-MD 1-quasi-New 2-CG
   NFREE  =      0    steps in history (QN), initial steepest desc. (CG)
   ISIF   =      2    stress and relaxation
   IWAVPR =     10    prediction:  0-non 1-charg 2-wave 3-comb
   ISYM   =      2    0-nonsym 1-usesym 2-fastsym
   LCORR  =      T    Harris-Foulkes like correction to forces

   POTIM  = 0.5000    time-step for ionic-motion
   TEIN   =    0.0    initial temperature
   TEBEG  =    0.0;   TEEND  =   0.0 temperature during run
   SMASS  =  -3.00    Nose mass-parameter (am)
   estimated Nose-frequenzy (Omega)   =  0.10E-29 period in steps =****** mass=  -0.290E-26a.u.
   SCALEE = 1.0000    scale energy and forces
   NPACO  =    256;   APACO  = 16.0  distance and # of slots for P.C.
   PSTRESS=    0.0 pullay stress

  Mass of Ions in am
   POMASS =  58.69 32.07
  Ionic Valenz
   ZVAL   =  16.00  6.00
  Atomic Wigner-Seitz radii
   RWIGS  =  -1.00 -1.00
  virtual crystal weights 
   VCA    =   1.00  1.00
   NELECT =     572.0000    total number of electrons
   NUPDOWN=      -1.0000    fix difference up-down

 DOS related values:
   EMIN   =  10.00;   EMAX   =-10.00  energy-range for DOS
   EFERMI =   0.00
   ISMEAR =     0;   SIGMA  =   0.20  broadening in eV -4-tet -1-fermi 0-gaus

 Electronic relaxation 2 (details)
   IALGO  =     38    algorithm
   LDIAG  =      T    sub-space diagonalisation (order eigenvalues)
   LSUBROT=      F    optimize rotation matrix (better conditioning)
   TURBO    =      0    0=normal 1=particle mesh
   IRESTART =      0    0=no restart 2=restart with 2 vectors
   NREBOOT  =      0    no. of reboots
   NMIN     =      0    reboot dimension
   EREF     =   0.00    reference energy to select bands
   IMIX   =      4    mixing-type and parameters
     AMIX     =   0.40;   BMIX     =  1.00
     AMIX_MAG =   1.60;   BMIX_MAG =  1.00
     AMIN     =   0.10
     WC   =   100.;   INIMIX=   1;  MIXPRE=   1;  MAXMIX= -45

 Intra band minimization:
   WEIMIN = 0.0000     energy-eigenvalue tresh-hold
   EBREAK =  0.73E-07  absolut break condition
   DEPER  =   0.30     relativ break condition  

   TIME   =   0.40     timestep for ELM

  volume/ion in A,a.u.               =      35.65       240.56
  Fermi-wavevector in a.u.,A,eV,Ry     =   1.106272  2.090552 16.651337  1.223839
  Thomas-Fermi vector in A             =   2.242771
 
 Write flags
   LWAVE        =      F    write WAVECAR
   LDOWNSAMPLE  =      F    k-point downsampling of WAVECAR
   LCHARG       =      F    write CHGCAR
   LVTOT        =      F    write LOCPOT, total local potential
   LVHAR        =      F    write LOCPOT, Hartree potential only
   LELF         =      F    write electronic localiz. function (ELF)
   LORBIT       =      0    0 simple, 1 ext, 2 COOP (PROOUT), +10 PAW based schemes


 Dipole corrections
   LMONO  =      F    monopole corrections only (constant potential shift)
   LDIPOL =      F    correct potential (dipole corrections)
   IDIPOL =      0    1-x, 2-y, 3-z, 4-all directions 
   EPSILON=  1.0000000 bulk dielectric constant

 Exchange correlation treatment:
   GGA     =    --    GGA type
   LEXCH   =     8    internal setting for exchange type
   VOSKOWN=      0    Vosko Wilk Nusair interpolation
   LHFCALC =     F    Hartree Fock is set to
   LHFONE  =     F    Hartree Fock one center treatment
   AEXX    =    0.0000 exact exchange contribution

 Linear response parameters
   LEPSILON=     F    determine dielectric tensor
   LRPA    =     F    only Hartree local field effects (RPA)
   LNABLA  =     F    use nabla operator in PAW spheres
   LVEL    =     F    velocity operator in full k-point grid
   LINTERFAST=   F  fast interpolation
   KINTER  =     0    interpolate to denser k-point grid
   CSHIFT  =0.1000    complex shift for real part using Kramers Kronig
   OMEGAMAX=  -1.0    maximum frequency
   DEG_THRESHOLD= 0.2000000E-02 threshold for treating states as degnerate
   RTIME   =   -0.100 relaxation time in fs
  (WPLASMAI=    0.000 imaginary part of plasma frequency in eV, 0.658/RTIME)
   DFIELD  = 0.0000000 0.0000000 0.0000000 field for delta impulse in time
 
 Orbital magnetization related:
   ORBITALMAG=     F  switch on orbital magnetization
   LCHIMAG   =     F  perturbation theory with respect to B field
   DQ        =  0.001000  dq finite difference perturbation B field
   LLRAUG    =     F  two centre corrections for induced B field



--------------------------------------------------------------------------------------------------------


 Static calculation
 charge density and potential will be updated during run
 non-spin polarized calculation
 Variant of blocked Davidson
 Davidson routine will perform the subspace rotation
 perform sub-space diagonalisation
    after iterative eigenvector-optimisation
 modified Broyden-mixing scheme, WC =      100.0
 initial mixing is a Kerker type mixing with AMIX =  0.4000 and BMIX =      1.0000
 Hartree-type preconditioning will be used
 using additional bands           58
 real space projection scheme for non local part
 use partial core corrections
 calculate Harris-corrections to forces 
   (improved forces if not selfconsistent)
 use gradient corrections 
 use of overlap-Matrix (Vanderbilt PP)
 Gauss-broadening in eV      SIGMA  =   0.20


--------------------------------------------------------------------------------------------------------


  energy-cutoff  :      450.00
  volume of cell :     1853.68
      direct lattice vectors                 reciprocal lattice vectors
    11.256463038  0.000000000  0.000000000     0.088837852  0.000000000  0.000000000
     0.000000000  9.578410000  0.000000000     0.000000000  0.104401461  0.000000000
     0.000000000  0.000000000 17.192492405     0.000000000  0.000000000  0.058164923

  length of vectors
    11.256463038  9.578410000 17.192492405     0.088837852  0.104401461  0.058164923


 
 k-points in units of 2pi/SCALE and weight: gamma-point-only calculation. no periodi
   0.00000000  0.00000000  0.00000000       1.000
 
 k-points in reciprocal lattice and weights: gamma-point-only calculation. no periodi
   0.00000000  0.00000000  0.00000000       1.000
 
 position of ions in fractional coordinates (direct lattice) 
   0.43933499  0.46388800  0.16283377
   0.48831442  0.46088993  0.32379675
   0.15936228  0.97080098  0.09484658
   0.20921187  0.97944609  0.23664822
   0.43933499  0.19968200  0.16283377
   0.48831442  0.20268007  0.32379675
   0.15936228  0.69276901  0.09484658
   0.20921187  0.68412390  0.23664822
   0.13063970  0.33178500  0.13913288
   0.18249164  0.33178500  0.31854512
   0.44930386  0.83178500  0.09713306
   0.38491044  0.83178500  0.22877073
   0.57263171  0.83178500  0.30433069
   0.93933499  0.46388800  0.16283377
   0.98831442  0.46088993  0.32379675
   0.65936228  0.97080098  0.09484658
   0.70921187  0.97944609  0.23664822
   0.93933499  0.19968200  0.16283377
   0.98831442  0.20268007  0.32379675
   0.65936228  0.69276901  0.09484658
   0.70921187  0.68412390  0.23664822
   0.63063970  0.33178500  0.13913288
   0.68249164  0.33178500  0.31854512
   0.94930386  0.83178500  0.09713306
   0.88491044  0.83178500  0.22877073
   0.07263171  0.83178500  0.30433069
   0.06823223  0.15841183  0.08001338
   0.11148904  0.16357000  0.23893853
   0.12210081  0.19613821  0.39983451
   0.33556306  0.66357000  0.14923241
   0.06823223  0.50515816  0.08001338
   0.11148904  0.50000000  0.23893853
   0.12210081  0.46743178  0.39983451
   0.33556306  1.00000000  0.14923241
   0.31420450  0.33178500  0.11319390
   0.36788880  0.33178500  0.26911836
   0.08437131  0.83178500  0.01806967
   0.09196284  0.83178500  0.17941224
   0.25494525  0.83178500  0.32024384
   0.56823223  0.15841183  0.08001338
   0.61148904  0.16357000  0.23893853
   0.62210081  0.19613821  0.39983451
   0.83556306  0.66357000  0.14923241
   0.56823223  0.50515816  0.08001338
   0.61148904  0.50000000  0.23893853
   0.62210081  0.46743178  0.39983451
   0.83556306  1.00000000  0.14923241
   0.81420450  0.33178500  0.11319390
   0.86788880  0.33178500  0.26911836
   0.58437131  0.83178500  0.01806967
   0.59196284  0.83178500  0.17941224
   0.75494525  0.83178500  0.32024384
 
 position of ions in cartesian coordinates  (Angst):
   4.94535808  4.44330943  2.79951837
   5.49669319  4.41459269  5.56687314
   1.79385559  9.29872982  1.63064905
   2.35498573  9.38153622  4.06857273
   4.94535808  1.91263604  2.79951837
   5.49669319  1.94135278  5.56687314
   1.79385559  6.63562565  1.63064905
   2.35498573  6.55281924  4.06857273
   1.47054099  3.17797273  2.39204091
   2.05421037  3.17797273  5.47658447
   5.05757235  7.96717773  1.66995936
   4.33273016  7.96717773  3.93313901
   6.44580772  7.96717773  5.23220304
  10.57358960  4.44330943  2.79951837
  11.12492471  4.41459269  5.56687314
   7.42208711  9.29872982  1.63064905
   7.98321725  9.38153622  4.06857273
  10.57358960  1.91263604  2.79951837
  11.12492471  1.94135278  5.56687314
   7.42208711  6.63562565  1.63064905
   7.98321725  6.55281924  4.06857273
   7.09877251  3.17797273  2.39204091
   7.68244189  3.17797273  5.47658447
  10.68580387  7.96717773  1.66995936
   9.96096168  7.96717773  3.93313901
   0.81757620  7.96717773  5.23220304
   0.76805358  1.51733348  1.37562936
   1.25497224  1.56674049  4.10794885
   1.37442321  1.87869219  6.87415185
   3.77725322  6.35594549  2.56567706
   0.76805358  4.83861198  1.37562936
   1.25497224  4.78920497  4.10794885
   1.37442321  4.47725328  6.87415185
   3.77725322  9.57840997  2.56567706
   3.53683134  3.17797273  1.94608527
   4.14112671  3.17797273  4.62681534
   0.94972259  7.96717773  0.31066264
   1.03517635  7.96717773  3.08454356
   2.86978176  7.96717773  5.50578973
   6.39628510  1.51733348  1.37562936
   6.88320375  1.56674049  4.10794885
   7.00265472  1.87869219  6.87415185
   9.40548473  6.35594549  2.56567706
   6.39628510  4.83861198  1.37562936
   6.88320375  4.78920497  4.10794885
   7.00265472  4.47725328  6.87415185
   9.40548473  9.57840997  2.56567706
   9.16506286  3.17797273  1.94608527
   9.76935823  3.17797273  4.62681534
   6.57795411  7.96717773  0.31066264
   6.66340787  7.96717773  3.08454356
   8.49801328  7.96717773  5.50578973
 


--------------------------------------------------------------------------------------------------------


 use parallel FFT for orbitals z direction half grid
 k-point  1 :   0.0000 0.0000 0.0000  plane waves:   20117

 maximum and minimum number of plane-waves per node :      3359     3348

 maximum number of plane-waves:     20117
 maximum index in each direction: 
   IXMAX=   19   IYMAX=   16   IZMAX=   29
   IXMIN=  -19   IYMIN=  -16   IZMIN=    0


 real space projection operators:
  total allocation   :       7328.28 KBytes
  max/ min on nodes  :       1228.47       1213.97


 parallel 3D FFT for wavefunctions:
    minimum data exchange during FFTs selected (reduces bandwidth)
 parallel 3D FFT for charge:
    minimum data exchange during FFTs selected (reduces bandwidth)


 total amount of memory used by VASP MPI-rank0    60040. kBytes
=======================================================================

   base      :      30000. kBytes
   nonlr-proj:       1505. kBytes
   fftplans  :       7078. kBytes
   grid      :      11974. kBytes
   one-center:         69. kBytes
   wavefun   :       9414. kBytes
 
     INWAV:  cpu time    0.0000: real time    0.0000
 Broyden mixing: mesh for mixing (old mesh)
   NGX = 39   NGY = 33   NGZ = 59
  (NGX  =120   NGY  =100   NGZ  =180)
  gives a total of  75933 points

 initial charge density was supplied:
 charge density of overlapping atoms calculated
 number of electron     572.0000000 magnetization 
 keeping initial charge density in first step


--------------------------------------------------------------------------------------------------------


 Maximum index for non-local projection operator          268
 Maximum index for augmentation-charges          427 (set IRDMAX)


--------------------------------------------------------------------------------------------------------


 First call to EWALD:  gamma=   0.144
 Maximum number of real-space cells 3x 3x 2
 Maximum number of reciprocal cells 3x 2x 4

    FEWALD:  cpu time    0.0038: real time    0.0038


--------------------------------------- Iteration      1(   1)  ---------------------------------------


    POTLOK:  cpu time    0.2140: real time    0.2140
    SETDIJ:  cpu time    0.0142: real time    0.0143
     EDDAV:  cpu time    4.0788: real time    4.0807
       DOS:  cpu time    0.0009: real time    0.0009
    --------------------------------------------
      LOOP:  cpu time    4.3080: real time    4.3099

 eigenvalue-minimisations  :   848
 total energy-change (2. order) : 0.6459055E+04  (-0.3657311E+05)
 number of electron     572.0000000 magnetization 
 augmentation part      572.0000000 magnetization 

 Free energy of the ion-electron system (eV)
  ---------------------------------------------------
  alpha Z        PSCENC =      1046.73971423
  Ewald energy   TEWEN  =    121072.24306672
  -Hartree energ DENC   =   -208046.21969393
  -exchange      EXHF   =         0.00000000
  -V(xc)+E(xc)   XCENC  =      2656.53008498
  PAW double counting   =     81415.77407466   -84963.31414086
  entropy T*S    EENTRO =        -0.27865110
  eigenvalues    EBANDS =     -4946.52356454
  atomic energy  EATOM  =     98224.10364994
  Solvation  Ediel_sol  =         0.00000000
  ---------------------------------------------------
  free energy    TOTEN  =      6459.05454010 eV

  energy without entropy =     6459.33319120  energy(sigma->0) =     6459.19386565


--------------------------------------------------------------------------------------------------------




--------------------------------------- Iteration      1(   2)  ---------------------------------------


     EDDAV:  cpu time    3.6674: real time    3.6689
       DOS:  cpu time    0.0010: real time    0.0010
    --------------------------------------------
      LOOP:  cpu time    3.6684: real time    3.6699

 eigenvalue-minimisations  :   736
 total energy-change (2. order) :-0.6110786E+04  (-0.5896921E+04)
 number of electron     572.0000000 magnetization 
 augmentation part      572.0000000 magnetization 

 Free energy of the ion-electron system (eV)
  ---------------------------------------------------
  alpha Z        PSCENC =      1046.73971423
  Ewald energy   TEWEN  =    121072.24306672
  -Hartree energ DENC   =   -208046.21969393
  -exchange      EXHF   =         0.00000000
  -V(xc)+E(xc)   XCENC  =      2656.53008498
  PAW double counting   =     81415.77407466   -84963.31414086
  entropy T*S    EENTRO =        -0.59894076
  eigenvalues    EBANDS =    -11056.98926856
  atomic energy  EATOM  =     98224.10364994
  Solvation  Ediel_sol  =         0.00000000
  ---------------------------------------------------
  free energy    TOTEN  =       348.26854642 eV

  energy without entropy =      348.86748718  energy(sigma->0) =      348.56801680


--------------------------------------------------------------------------------------------------------




--------------------------------------- Iteration      1(   3)  ---------------------------------------


     EDDAV:  cpu time    3.6939: real time    3.6944
       DOS:  cpu time    0.0009: real time    0.0009
    --------------------------------------------
      LOOP:  cpu time    3.6947: real time    3.6953

 eigenvalue-minimisations  :   808
 total energy-change (2. order) :-0.6018778E+03  (-0.5785174E+03)
 number of electron     572.0000000 magnetization 
 augmentation part      572.0000000 magnetization 

 Free energy of the ion-electron system (eV)
  ---------------------------------------------------
  alpha Z        PSCENC =      1046.73971423
  Ewald energy   TEWEN  =    121072.24306672
  -Hartree energ DENC   =   -208046.21969393
  -exchange      EXHF   =         0.00000000
  -V(xc)+E(xc)   XCENC  =      2656.53008498
  PAW double counting   =     81415.77407466   -84963.31414086
  entropy T*S    EENTRO =        -0.83234085
  eigenvalues    EBANDS =    -11658.63364515
  atomic energy  EATOM  =     98224.10364994
  Solvation  Ediel_sol  =         0.00000000
  ---------------------------------------------------
  free energy    TOTEN  =      -253.60923025 eV

  energy without entropy =     -252.77688940  energy(sigma->0) =     -253.19305983


--------------------------------------------------------------------------------------------------------




--------------------------------------- Iteration      1(   4)  ---------------------------------------


     EDDAV:  cpu time    3.8461: real time    3.8469
       DOS:  cpu time    0.0009: real time    0.0009
    --------------------------------------------
      LOOP:  cpu time    3.8471: real time    3.8478

 eigenvalue-minimisations  :   776
 total energy-change (2. order) :-0.2987272E+02  (-0.2954062E+02)
 number of electron     572.0000000 magnetization 
 augmentation part      572.0000000 magnetization 

 Free energy of the ion-electron system (eV)
  ---------------------------------------------------
  alpha Z        PSCENC =      1046.73971423
  Ewald energy   TEWEN  =    121072.24306672
  -Hartree energ DENC   =   -208046.21969393
  -exchange      EXHF   =         0.00000000
  -V(xc)+E(xc)   XCENC  =      2656.53008498
  PAW double counting   =     81415.77407466   -84963.31414086
  entropy T*S    EENTRO =        -0.81348643
  eigenvalues    EBANDS =    -11688.52522262
  atomic energy  EATOM  =     98224.10364994
  Solvation  Ediel_sol  =         0.00000000
  ---------------------------------------------------
  free energy    TOTEN  =      -283.48195331 eV

  energy without entropy =     -282.66846688  energy(sigma->0) =     -283.07521010


--------------------------------------------------------------------------------------------------------




--------------------------------------- Iteration      1(   5)  ---------------------------------------


     EDDAV:  cpu time    4.1809: real time    4.1818
       DOS:  cpu time    0.0011: real time    0.0010
    CHARGE:  cpu time    0.1892: real time    0.1892
    MIXING:  cpu time    0.0070: real time    0.0070
    --------------------------------------------
      LOOP:  cpu time    4.3782: real time    4.3791

 eigenvalue-minimisations  :   888
 total energy-change (2. order) :-0.1133544E+01  (-0.1132362E+01)
 number of electron     572.0000445 magnetization 
 augmentation part      206.0538567 magnetization 

 Broyden mixing:
  rms(total) = 0.84553E+01    rms(broyden)= 0.84481E+01
  rms(prec ) = 0.89108E+01
  weight for this iteration     100.00

 Free energy of the ion-electron system (eV)
  ---------------------------------------------------
  alpha Z        PSCENC =      1046.73971423
  Ewald energy   TEWEN  =    121072.24306672
  -Hartree energ DENC   =   -208046.21969393
  -exchange      EXHF   =         0.00000000
  -V(xc)+E(xc)   XCENC  =      2656.53008498
  PAW double counting   =     81415.77407466   -84963.31414086
  entropy T*S    EENTRO =        -0.81912823
  eigenvalues    EBANDS =    -11689.65312433
  atomic energy  EATOM  =     98224.10364994
  Solvation  Ediel_sol  =         0.00000000
  ---------------------------------------------------
  free energy    TOTEN  =      -284.61549682 eV

  energy without entropy =     -283.79636859  energy(sigma->0) =     -284.20593270


--------------------------------------------------------------------------------------------------------




--------------------------------------- Iteration      1(   6)  ---------------------------------------


    POTLOK:  cpu time    0.2014: real time    0.2015
    SETDIJ:  cpu time    0.0160: real time    0.0160
     EDDAV:  cpu time    4.1691: real time    4.1696
       DOS:  cpu time    0.0011: real time    0.0011
    CHARGE:  cpu time    0.1876: real time    0.1876
    MIXING:  cpu time    0.0070: real time    0.0070
    --------------------------------------------
      LOOP:  cpu time    4.5821: real time    4.5828

 eigenvalue-minimisations  :   872
 total energy-change (2. order) :-0.5700572E+02  (-0.7512766E+02)
 number of electron     572.0000521 magnetization 
 augmentation part      251.8345514 magnetization 

 Broyden mixing:
  rms(total) = 0.14301E+02    rms(broyden)= 0.14299E+02
  rms(prec ) = 0.14981E+02
  weight for this iteration     100.00

 eigenvalues of (default mixing * dielectric matrix)
  average eigenvalue GAMMA=   0.2245
  0.2245

 Free energy of the ion-electron system (eV)
  ---------------------------------------------------
  alpha Z        PSCENC =      1046.73971423
  Ewald energy   TEWEN  =    121072.24306672
  -Hartree energ DENC   =   -206003.43909333
  -exchange      EXHF   =         0.00000000
  -V(xc)+E(xc)   XCENC  =      2601.83285445
  PAW double counting   =     84935.65125613   -88311.36763866
  entropy T*S    EENTRO =        -0.69918418
  eigenvalues    EBANDS =    -13906.68583897
  atomic energy  EATOM  =     98224.10364994
  Solvation  Ediel_sol  =         0.00000000
  ---------------------------------------------------
  free energy    TOTEN  =      -341.62121367 eV

  energy without entropy =     -340.92202950  energy(sigma->0) =     -341.27162158


--------------------------------------------------------------------------------------------------------




--------------------------------------- Iteration      1(   7)  ---------------------------------------


    POTLOK:  cpu time    0.2029: real time    0.2029
    SETDIJ:  cpu time    0.0155: real time    0.0155
     EDDAV:  cpu time    3.7329: real time    3.7335
       DOS:  cpu time    0.0010: real time    0.0010
    CHARGE:  cpu time    0.1947: real time    0.1947
    MIXING:  cpu time    0.0077: real time    0.0077
    --------------------------------------------
      LOOP:  cpu time    4.1546: real time    4.1552

 eigenvalue-minimisations  :   816
 total energy-change (2. order) : 0.7811535E+02  (-0.1477933E+02)
 number of electron     572.0000483 magnetization 
 augmentation part      240.0647761 magnetization 

 Broyden mixing:
  rms(total) = 0.62045E+01    rms(broyden)= 0.62039E+01
  rms(prec ) = 0.65360E+01
  weight for this iteration     100.00

 eigenvalues of (default mixing * dielectric matrix)
  average eigenvalue GAMMA=   0.5438
  0.5438  0.5438

 Free energy of the ion-electron system (eV)
  ---------------------------------------------------
  alpha Z        PSCENC =      1046.73971423
  Ewald energy   TEWEN  =    121072.24306672
  -Hartree energ DENC   =   -206818.33252651
  -exchange      EXHF   =         0.00000000
  -V(xc)+E(xc)   XCENC  =      2621.26483967
  PAW double counting   =     88296.81929461   -91777.10591709
  entropy T*S    EENTRO =        -0.73189387
  eigenvalues    EBANDS =    -12928.50608976
  atomic energy  EATOM  =     98224.10364994
  Solvation  Ediel_sol  =         0.00000000
  ---------------------------------------------------
  free energy    TOTEN  =      -263.50586207 eV

  energy without entropy =     -262.77396821  energy(sigma->0) =     -263.13991514


--------------------------------------------------------------------------------------------------------




--------------------------------------- Iteration      1(   8)  ---------------------------------------


    POTLOK:  cpu time    0.2030: real time    0.2033
    SETDIJ:  cpu time    0.0159: real time    0.0159
     EDDAV:  cpu time    4.4594: real time    4.4599
       DOS:  cpu time    0.0009: real time    0.0009
    CHARGE:  cpu time    0.1814: real time    0.1814
    MIXING:  cpu time    0.0071: real time    0.0071
    --------------------------------------------
      LOOP:  cpu time    4.8678: real time    4.8686

 eigenvalue-minimisations  :   960
 total energy-change (2. order) :-0.1234559E+02  (-0.1779475E+02)
 number of electron     572.0000522 magnetization 
 augmentation part      218.7650158 magnetization 

 Broyden mixing:
  rms(total) = 0.93747E+01    rms(broyden)= 0.93728E+01
  rms(prec ) = 0.11261E+02
  weight for this iteration     100.00

 eigenvalues of (default mixing * dielectric matrix)
  average eigenvalue GAMMA=   0.4899
  0.8584  0.4160  0.1952

 Free energy of the ion-electron system (eV)
  ---------------------------------------------------
  alpha Z        PSCENC =      1046.73971423
  Ewald energy   TEWEN  =    121072.24306672
  -Hartree energ DENC   =   -207592.85750677
  -exchange      EXHF   =         0.00000000
  -V(xc)+E(xc)   XCENC  =      2641.49082219
  PAW double counting   =     94413.78745462   -98000.77735477
  entropy T*S    EENTRO =        -0.95725133
  eigenvalues    EBANDS =    -12079.62404241
  atomic energy  EATOM  =     98224.10364994
  Solvation  Ediel_sol  =         0.00000000
  ---------------------------------------------------
  free energy    TOTEN  =      -275.85144757 eV

  energy without entropy =     -274.89419624  energy(sigma->0) =     -275.37282190


--------------------------------------------------------------------------------------------------------




--------------------------------------- Iteration      1(   9)  ---------------------------------------


    POTLOK:  cpu time    0.2007: real time    0.2007
    SETDIJ:  cpu time    0.0152: real time    0.0152
     EDDAV:  cpu time    4.2677: real time    4.2694
       DOS:  cpu time    0.0010: real time    0.0010
    CHARGE:  cpu time    0.1973: real time    0.1973
    MIXING:  cpu time    0.0082: real time    0.0082
    --------------------------------------------
      LOOP:  cpu time    4.6900: real time    4.6918

 eigenvalue-minimisations  :   904
 total energy-change (2. order) : 0.1172476E+02  (-0.1418061E+02)
 number of electron     572.0000454 magnetization 
 augmentation part      218.9417072 magnetization 

 Broyden mixing:
  rms(total) = 0.50616E+01    rms(broyden)= 0.50572E+01
  rms(prec ) = 0.58072E+01
  weight for this iteration     100.00

 eigenvalues of (default mixing * dielectric matrix)
  average eigenvalue GAMMA=   0.7720
  2.1055  0.4283  0.4283  0.1259

 Free energy of the ion-electron system (eV)
  ---------------------------------------------------
  alpha Z        PSCENC =      1046.73971423
  Ewald energy   TEWEN  =    121072.24306672
  -Hartree energ DENC   =   -207574.37617406
  -exchange      EXHF   =         0.00000000
  -V(xc)+E(xc)   XCENC  =      2640.38473383
  PAW double counting   =     96243.14594697   -99838.09884640
  entropy T*S    EENTRO =        -0.66549568
  eigenvalues    EBANDS =    -12077.60328133
  atomic energy  EATOM  =     98224.10364994
  Solvation  Ediel_sol  =         0.00000000
  ---------------------------------------------------
  free energy    TOTEN  =      -264.12668578 eV

  energy without entropy =     -263.46119010  energy(sigma->0) =     -263.79393794


--------------------------------------------------------------------------------------------------------




--------------------------------------- Iteration      1(  10)  ---------------------------------------


    POTLOK:  cpu time    0.1964: real time    0.2008
    SETDIJ:  cpu time    0.0156: real time    0.0156
     EDDAV:  cpu time    4.4102: real time    4.4108
       DOS:  cpu time    0.0011: real time    0.0011
    CHARGE:  cpu time    0.1859: real time    0.1859
    MIXING:  cpu time    0.0082: real time    0.0082
    --------------------------------------------
      LOOP:  cpu time    4.8173: real time    4.8224

 eigenvalue-minimisations  :   952
 total energy-change (2. order) :-0.1251114E+02  (-0.6570799E+01)
 number of electron     572.0000289 magnetization 
 augmentation part      218.6520284 magnetization 

 Broyden mixing:
  rms(total) = 0.88426E+01    rms(broyden)= 0.88399E+01
  rms(prec ) = 0.10482E+02
  weight for this iteration     100.00

 eigenvalues of (default mixing * dielectric matrix)
  average eigenvalue GAMMA=   0.7099
  2.4199  0.4281  0.4281  0.1367  0.1367

 Free energy of the ion-electron system (eV)
  ---------------------------------------------------
  alpha Z        PSCENC =      1046.73971423
  Ewald energy   TEWEN  =    121072.24306672
  -Hartree energ DENC   =   -207441.66421701
  -exchange      EXHF   =         0.00000000
  -V(xc)+E(xc)   XCENC  =      2637.06089749
  PAW double counting   =    102826.74736185  -106455.89854428
  entropy T*S    EENTRO =        -0.98822523
  eigenvalues    EBANDS =    -12184.98152929
  atomic energy  EATOM  =     98224.10364994
  Solvation  Ediel_sol  =         0.00000000
  ---------------------------------------------------
  free energy    TOTEN  =      -276.63782559 eV

  energy without entropy =     -275.64960036  energy(sigma->0) =     -276.14371297


--------------------------------------------------------------------------------------------------------




--------------------------------------- Iteration      1(  11)  ---------------------------------------


    POTLOK:  cpu time    0.2004: real time    0.2005
    SETDIJ:  cpu time    0.0160: real time    0.0160
     EDDAV:  cpu time    4.3849: real time    4.3856
       DOS:  cpu time    0.0011: real time    0.0011
    CHARGE:  cpu time    0.1834: real time    0.1834
    MIXING:  cpu time    0.0083: real time    0.0083
    --------------------------------------------
      LOOP:  cpu time    4.7940: real time    4.7947

 eigenvalue-minimisations  :   936
 total energy-change (2. order) : 0.2039918E+02  (-0.4657556E+01)
 number of electron     572.0000451 magnetization 
 augmentation part      225.6659634 magnetization 

 Broyden mixing:
  rms(total) = 0.33810E+01    rms(broyden)= 0.33775E+01
  rms(prec ) = 0.39294E+01
  weight for this iteration     100.00

 eigenvalues of (default mixing * dielectric matrix)
  average eigenvalue GAMMA=   0.6468
  2.3769  0.4227  0.4227  0.4109  0.1237  0.1237

 Free energy of the ion-electron system (eV)
  ---------------------------------------------------
  alpha Z        PSCENC =      1046.73971423
  Ewald energy   TEWEN  =    121072.24306672
  -Hartree energ DENC   =   -207319.43807541
  -exchange      EXHF   =         0.00000000
  -V(xc)+E(xc)   XCENC  =      2634.08627276
  PAW double counting   =    104762.87441166  -108394.33848430
  entropy T*S    EENTRO =        -0.58921497
  eigenvalues    EBANDS =    -12281.91998755
  atomic energy  EATOM  =     98224.10364994
  Solvation  Ediel_sol  =         0.00000000
  ---------------------------------------------------
  free energy    TOTEN  =      -256.23864693 eV

  energy without entropy =     -255.64943196  energy(sigma->0) =     -255.94403944


--------------------------------------------------------------------------------------------------------




--------------------------------------- Iteration      1(  12)  ---------------------------------------


    POTLOK:  cpu time    0.1989: real time    0.1989
    SETDIJ:  cpu time    0.0160: real time    0.0160
     EDDAV:  cpu time    4.4101: real time    4.4819
       DOS:  cpu time    0.0011: real time    0.0011
    CHARGE:  cpu time    0.1848: real time    0.1849
    MIXING:  cpu time    0.0083: real time    0.0083
    --------------------------------------------
      LOOP:  cpu time    4.8192: real time    4.8911

 eigenvalue-minimisations  :   952
 total energy-change (2. order) : 0.2746951E+01  (-0.1675389E+01)
 number of electron     572.0000497 magnetization 
 augmentation part      226.3801469 magnetization 

 Broyden mixing:
  rms(total) = 0.28735E+01    rms(broyden)= 0.28716E+01
  rms(prec ) = 0.34283E+01
  weight for this iteration     100.00

 eigenvalues of (default mixing * dielectric matrix)
  average eigenvalue GAMMA=   0.6175
  2.2671  0.7413  0.4408  0.4408  0.1742  0.1291  0.1291

 Free energy of the ion-electron system (eV)
  ---------------------------------------------------
  alpha Z        PSCENC =      1046.73971423
  Ewald energy   TEWEN  =    121072.24306672
  -Hartree energ DENC   =   -207321.08683580
  -exchange      EXHF   =         0.00000000
  -V(xc)+E(xc)   XCENC  =      2633.99119791
  PAW double counting   =    104417.65524184  -108047.53830612
  entropy T*S    EENTRO =        -0.68006935
  eigenvalues    EBANDS =    -12278.91935550
  atomic energy  EATOM  =     98224.10364994
  Solvation  Ediel_sol  =         0.00000000
  ---------------------------------------------------
  free energy    TOTEN  =      -253.49169613 eV

  energy without entropy =     -252.81162678  energy(sigma->0) =     -253.15166145


--------------------------------------------------------------------------------------------------------




--------------------------------------- Iteration      1(  13)  ---------------------------------------


    POTLOK:  cpu time    0.2004: real time    0.2004
    SETDIJ:  cpu time    0.0163: real time    0.0163
     EDDAV:  cpu time    4.3748: real time    4.3756
       DOS:  cpu time    0.0012: real time    0.0011
    CHARGE:  cpu time    0.1870: real time    0.1870
    MIXING:  cpu time    0.0099: real time    0.0099
    --------------------------------------------
      LOOP:  cpu time    4.7896: real time    4.7904

 eigenvalue-minimisations  :   936
 total energy-change (2. order) : 0.4333790E+01  (-0.6893014E+00)
 number of electron     572.0000464 magnetization 
 augmentation part      226.0522858 magnetization 

 Broyden mixing:
  rms(total) = 0.18249E+01    rms(broyden)= 0.18240E+01
  rms(prec ) = 0.21301E+01
  weight for this iteration     100.00

 eigenvalues of (default mixing * dielectric matrix)
  average eigenvalue GAMMA=   0.5862
  2.2546  0.5701  0.5701  0.4345  0.4345  0.1669  0.1293  0.1293

 Free energy of the ion-electron system (eV)
  ---------------------------------------------------
  alpha Z        PSCENC =      1046.73971423
  Ewald energy   TEWEN  =    121072.24306672
  -Hartree energ DENC   =   -207373.31243726
  -exchange      EXHF   =         0.00000000
  -V(xc)+E(xc)   XCENC  =      2634.73567593
  PAW double counting   =    103729.20613039  -107358.38985366
  entropy T*S    EENTRO =        -0.77492829
  eigenvalues    EBANDS =    -12223.70892393
  atomic energy  EATOM  =     98224.10364994
  Solvation  Ediel_sol  =         0.00000000
  ---------------------------------------------------
  free energy    TOTEN  =      -249.15790594 eV

  energy without entropy =     -248.38297765  energy(sigma->0) =     -248.77044179


--------------------------------------------------------------------------------------------------------




--------------------------------------- Iteration      1(  14)  ---------------------------------------


    POTLOK:  cpu time    0.2049: real time    0.2049
    SETDIJ:  cpu time    0.0159: real time    0.0159
     EDDAV:  cpu time    4.4337: real time    4.4343
       DOS:  cpu time    0.0008: real time    0.0008
    CHARGE:  cpu time    0.1827: real time    0.1827
    MIXING:  cpu time    0.0095: real time    0.0095
    --------------------------------------------
      LOOP:  cpu time    4.8476: real time    4.9010

 eigenvalue-minimisations  :   960
 total energy-change (2. order) : 0.1239338E+00  (-0.3142466E+00)
 number of electron     572.0000479 magnetization 
 augmentation part      225.8104571 magnetization 

 Broyden mixing:
  rms(total) = 0.16547E+01    rms(broyden)= 0.16538E+01
  rms(prec ) = 0.19046E+01
  weight for this iteration     100.00

 eigenvalues of (default mixing * dielectric matrix)
  average eigenvalue GAMMA=   0.5940
  2.1997  0.8572  0.8572  0.4338  0.4338  0.1689  0.1276  0.1276  0.1397

 Free energy of the ion-electron system (eV)
  ---------------------------------------------------
  alpha Z        PSCENC =      1046.73971423
  Ewald energy   TEWEN  =    121072.24306672
  -Hartree energ DENC   =   -207384.31286665
  -exchange      EXHF   =         0.00000000
  -V(xc)+E(xc)   XCENC  =      2634.74131774
  PAW double counting   =    103533.41566249  -107160.39105599
  entropy T*S    EENTRO =        -0.85100072
  eigenvalues    EBANDS =    -12214.72245985
  atomic energy  EATOM  =     98224.10364994
  Solvation  Ediel_sol  =         0.00000000
  ---------------------------------------------------
  free energy    TOTEN  =      -249.03397209 eV

  energy without entropy =     -248.18297138  energy(sigma->0) =     -248.60847173


--------------------------------------------------------------------------------------------------------




--------------------------------------- Iteration      1(  15)  ---------------------------------------


    POTLOK:  cpu time    0.2002: real time    0.2530
    SETDIJ:  cpu time    0.0160: real time    0.0160
     EDDAV:  cpu time    4.0893: real time    4.0899
       DOS:  cpu time    0.0009: real time    0.0009
    CHARGE:  cpu time    0.1840: real time    0.1840
    MIXING:  cpu time    0.0099: real time    0.0099
    --------------------------------------------
      LOOP:  cpu time    4.5002: real time    4.5008

 eigenvalue-minimisations  :   920
 total energy-change (2. order) : 0.1120889E+01  (-0.9505478E-01)
 number of electron     572.0000467 magnetization 
 augmentation part      225.7074331 magnetization 

 Broyden mixing:
  rms(total) = 0.10690E+01    rms(broyden)= 0.10687E+01
  rms(prec ) = 0.12452E+01
  weight for this iteration     100.00

 eigenvalues of (default mixing * dielectric matrix)
  average eigenvalue GAMMA=   0.5590
  2.1874  0.8921  0.8921  0.4323  0.4323  0.1749  0.1310  0.1310  0.1583  0.1583

 Free energy of the ion-electron system (eV)
  ---------------------------------------------------
  alpha Z        PSCENC =      1046.73971423
  Ewald energy   TEWEN  =    121072.24306672
  -Hartree energ DENC   =   -207399.45298129
  -exchange      EXHF   =         0.00000000
  -V(xc)+E(xc)   XCENC  =      2635.02309513
  PAW double counting   =    103137.42629443  -106761.21877312
  entropy T*S    EENTRO =        -0.85620859
  eigenvalues    EBANDS =    -12201.92094042
  atomic energy  EATOM  =     98224.10364994
  Solvation  Ediel_sol  =         0.00000000
  ---------------------------------------------------
  free energy    TOTEN  =      -247.91308296 eV

  energy without entropy =     -247.05687438  energy(sigma->0) =     -247.48497867


--------------------------------------------------------------------------------------------------------




--------------------------------------- Iteration      1(  16)  ---------------------------------------


    POTLOK:  cpu time    0.2022: real time    0.2022
    SETDIJ:  cpu time    0.0158: real time    0.0158
     EDDAV:  cpu time    4.4490: real time    4.4496
       DOS:  cpu time    0.0009: real time    0.0009
    CHARGE:  cpu time    0.1829: real time    0.1830
    MIXING:  cpu time    0.0104: real time    0.0104
    --------------------------------------------
      LOOP:  cpu time    4.8611: real time    4.8618

 eigenvalue-minimisations  :   952
 total energy-change (2. order) : 0.1810799E+00  (-0.3463579E-01)
 number of electron     572.0000474 magnetization 
 augmentation part      225.4873110 magnetization 

 Broyden mixing:
  rms(total) = 0.95572E+00    rms(broyden)= 0.95561E+00
  rms(prec ) = 0.11096E+01
  weight for this iteration     100.00

 eigenvalues of (default mixing * dielectric matrix)
  average eigenvalue GAMMA=   0.5979
  2.1946  1.1303  1.1303  0.4339  0.4339  0.4416  0.2447  0.1297  0.1297  0.1614
  0.1470

 Free energy of the ion-electron system (eV)
  ---------------------------------------------------
  alpha Z        PSCENC =      1046.73971423
  Ewald energy   TEWEN  =    121072.24306672
  -Hartree energ DENC   =   -207408.86309870
  -exchange      EXHF   =         0.00000000
  -V(xc)+E(xc)   XCENC  =      2635.14036198
  PAW double counting   =    102987.69068408  -106610.19987653
  entropy T*S    EENTRO =        -0.86275021
  eigenvalues    EBANDS =    -12193.72375461
  atomic energy  EATOM  =     98224.10364994
  Solvation  Ediel_sol  =         0.00000000
  ---------------------------------------------------
  free energy    TOTEN  =      -247.73200309 eV

  energy without entropy =     -246.86925288  energy(sigma->0) =     -247.30062799


--------------------------------------------------------------------------------------------------------




--------------------------------------- Iteration      1(  17)  ---------------------------------------


    POTLOK:  cpu time    0.2031: real time    0.2031
    SETDIJ:  cpu time    0.0158: real time    0.0158
     EDDAV:  cpu time    4.4759: real time    4.4765
       DOS:  cpu time    0.0009: real time    0.0009
    CHARGE:  cpu time    0.1825: real time    0.1825
    MIXING:  cpu time    0.0113: real time    0.0113
    --------------------------------------------
      LOOP:  cpu time    4.8895: real time    4.8901

 eigenvalue-minimisations  :   960
 total energy-change (2. order) : 0.1939034E+00  (-0.2645703E-01)
 number of electron     572.0000468 magnetization 
 augmentation part      225.4020356 magnetization 

 Broyden mixing:
  rms(total) = 0.83094E+00    rms(broyden)= 0.83071E+00
  rms(prec ) = 0.97414E+00
  weight for this iteration     100.00

 eigenvalues of (default mixing * dielectric matrix)
  average eigenvalue GAMMA=   0.6067
  2.2134  1.2937  1.2937  0.4424  0.4424  0.4323  0.4323  0.1729  0.1304  0.1304
  0.1480  0.1480

 Free energy of the ion-electron system (eV)
  ---------------------------------------------------
  alpha Z        PSCENC =      1046.73971423
  Ewald energy   TEWEN  =    121072.24306672
  -Hartree energ DENC   =   -207426.22926323
  -exchange      EXHF   =         0.00000000
  -V(xc)+E(xc)   XCENC  =      2635.18517506
  PAW double counting   =    102637.47643202  -106255.75200363
  entropy T*S    EENTRO =        -0.86892893
  eigenvalues    EBANDS =    -12180.43594192
  atomic energy  EATOM  =     98224.10364994
  Solvation  Ediel_sol  =         0.00000000
  ---------------------------------------------------
  free energy    TOTEN  =      -247.53809974 eV

  energy without entropy =     -246.66917081  energy(sigma->0) =     -247.10363527


--------------------------------------------------------------------------------------------------------




--------------------------------------- Iteration      1(  18)  ---------------------------------------


    POTLOK:  cpu time    0.2056: real time    0.2059
    SETDIJ:  cpu time    0.0155: real time    0.0155
     EDDAV:  cpu time    4.2579: real time    4.2585
       DOS:  cpu time    0.0009: real time    0.0009
    CHARGE:  cpu time    0.1861: real time    0.1861
    MIXING:  cpu time    0.0130: real time    0.0130
    --------------------------------------------
      LOOP:  cpu time    4.6791: real time    4.6799

 eigenvalue-minimisations  :   904
 total energy-change (2. order) : 0.1040098E+00  (-0.1980848E-01)
 number of electron     572.0000467 magnetization 
 augmentation part      225.2909264 magnetization 

 Broyden mixing:
  rms(total) = 0.70913E+00    rms(broyden)= 0.70899E+00
  rms(prec ) = 0.81767E+00
  weight for this iteration     100.00

 eigenvalues of (default mixing * dielectric matrix)
  average eigenvalue GAMMA=   0.6976
  2.0836  1.7517  1.7517  0.8394  0.8394  0.4357  0.4357  0.2040  0.1302  0.1302
  0.1607  0.1607  0.1452

 Free energy of the ion-electron system (eV)
  ---------------------------------------------------
  alpha Z        PSCENC =      1046.73971423
  Ewald energy   TEWEN  =    121072.24306672
  -Hartree energ DENC   =   -207435.88904140
  -exchange      EXHF   =         0.00000000
  -V(xc)+E(xc)   XCENC  =      2635.21975845
  PAW double counting   =    102463.59951566  -106079.80219452
  entropy T*S    EENTRO =        -0.86549584
  eigenvalues    EBANDS =    -12172.78306315
  atomic energy  EATOM  =     98224.10364994
  Solvation  Ediel_sol  =         0.00000000
  ---------------------------------------------------
  free energy    TOTEN  =      -247.43408991 eV

  energy without entropy =     -246.56859407  energy(sigma->0) =     -247.00134199


--------------------------------------------------------------------------------------------------------




--------------------------------------- Iteration      1(  19)  ---------------------------------------


    POTLOK:  cpu time    0.2047: real time    0.2047
    SETDIJ:  cpu time    0.0152: real time    0.0152
     EDDAV:  cpu time    4.8275: real time    4.8749
       DOS:  cpu time    0.0010: real time    0.0010
    CHARGE:  cpu time    0.1827: real time    0.1828
    MIXING:  cpu time    0.0119: real time    0.0119
    --------------------------------------------
      LOOP:  cpu time    5.2430: real time    5.3923

 eigenvalue-minimisations  :  1064
 total energy-change (2. order) : 0.2939026E+00  (-0.3758354E-01)
 number of electron     572.0000470 magnetization 
 augmentation part      225.1229180 magnetization 

 Broyden mixing:
  rms(total) = 0.29056E+00    rms(broyden)= 0.28998E+00
  rms(prec ) = 0.33966E+00
  weight for this iteration     100.00

 eigenvalues of (default mixing * dielectric matrix)
  average eigenvalue GAMMA=   0.6865
  1.8439  1.7126  1.7126  1.0493  1.0493  0.4353  0.4353  0.4478  0.2022  0.1302
  0.1302  0.1648  0.1528  0.1443

 Free energy of the ion-electron system (eV)
  ---------------------------------------------------
  alpha Z        PSCENC =      1046.73971423
  Ewald energy   TEWEN  =    121072.24306672
  -Hartree energ DENC   =   -207478.43197666
  -exchange      EXHF   =         0.00000000
  -V(xc)+E(xc)   XCENC  =      2635.39896155
  PAW double counting   =    101584.43586871  -105191.96513899
  entropy T*S    EENTRO =        -0.88758509
  eigenvalues    EBANDS =    -12138.77674771
  atomic energy  EATOM  =     98224.10364994
  Solvation  Ediel_sol  =         0.00000000
  ---------------------------------------------------
  free energy    TOTEN  =      -247.14018730 eV

  energy without entropy =     -246.25260221  energy(sigma->0) =     -246.69639476


--------------------------------------------------------------------------------------------------------




--------------------------------------- Iteration      1(  20)  ---------------------------------------


    POTLOK:  cpu time    0.2059: real time    0.3077
    SETDIJ:  cpu time    0.0154: real time    0.0154
     EDDAV:  cpu time    4.3340: real time    4.3348
       DOS:  cpu time    0.0009: real time    0.0009
    CHARGE:  cpu time    0.1829: real time    0.1830
    MIXING:  cpu time    0.0125: real time    0.0125
    --------------------------------------------
      LOOP:  cpu time    4.7516: real time    4.7524

 eigenvalue-minimisations  :   936
 total energy-change (2. order) :-0.1180725E-01  (-0.2564308E-01)
 number of electron     572.0000470 magnetization 
 augmentation part      225.1111602 magnetization 

 Broyden mixing:
  rms(total) = 0.27204E+00    rms(broyden)= 0.27177E+00
  rms(prec ) = 0.30705E+00
  weight for this iteration     100.00

 eigenvalues of (default mixing * dielectric matrix)
  average eigenvalue GAMMA=   0.6551
  1.8593  1.8593  1.2927  1.2927  1.0921  0.4354  0.4354  0.4752  0.2025  0.1302
  0.1302  0.1696  0.1443  0.1542  0.1542

 Free energy of the ion-electron system (eV)
  ---------------------------------------------------
  alpha Z        PSCENC =      1046.73971423
  Ewald energy   TEWEN  =    121072.24306672
  -Hartree energ DENC   =   -207492.49565509
  -exchange      EXHF   =         0.00000000
  -V(xc)+E(xc)   XCENC  =      2635.44988113
  PAW double counting   =    101300.30227855  -104904.99614310
  entropy T*S    EENTRO =        -0.90749663
  eigenvalues    EBANDS =    -12127.59129030
  atomic energy  EATOM  =     98224.10364994
  Solvation  Ediel_sol  =         0.00000000
  ---------------------------------------------------
  free energy    TOTEN  =      -247.15199456 eV

  energy without entropy =     -246.24449793  energy(sigma->0) =     -246.69824624


--------------------------------------------------------------------------------------------------------




--------------------------------------- Iteration      1(  21)  ---------------------------------------


    POTLOK:  cpu time    0.2078: real time    0.2078
    SETDIJ:  cpu time    0.0141: real time    0.0141
     EDDAV:  cpu time    4.1731: real time    4.2212
       DOS:  cpu time    0.0010: real time    0.0010
    CHARGE:  cpu time    0.1856: real time    0.1856
    MIXING:  cpu time    0.0129: real time    0.0129
    --------------------------------------------
      LOOP:  cpu time    4.5945: real time    4.6426

 eigenvalue-minimisations  :   880
 total energy-change (2. order) : 0.1848796E-01  (-0.6750853E-02)
 number of electron     572.0000470 magnetization 
 augmentation part      225.1454391 magnetization 

 Broyden mixing:
  rms(total) = 0.21519E+00    rms(broyden)= 0.21510E+00
  rms(prec ) = 0.24569E+00
  weight for this iteration     100.00

 eigenvalues of (default mixing * dielectric matrix)
  average eigenvalue GAMMA=   0.6523
  1.9491  1.9491  1.2196  1.2196  1.0881  0.5176  0.5176  0.4364  0.4364  0.1302
  0.1302  0.2007  0.1444  0.1525  0.1638  0.1809

 Free energy of the ion-electron system (eV)
  ---------------------------------------------------
  alpha Z        PSCENC =      1046.73971423
  Ewald energy   TEWEN  =    121072.24306672
  -Hartree energ DENC   =   -207495.52374499
  -exchange      EXHF   =         0.00000000
  -V(xc)+E(xc)   XCENC  =      2635.45362227
  PAW double counting   =    101260.14489559  -104864.51980308
  entropy T*S    EENTRO =        -0.90136393
  eigenvalues    EBANDS =    -12124.87354335
  atomic energy  EATOM  =     98224.10364994
  Solvation  Ediel_sol  =         0.00000000
  ---------------------------------------------------
  free energy    TOTEN  =      -247.13350660 eV

  energy without entropy =     -246.23214267  energy(sigma->0) =     -246.68282463


--------------------------------------------------------------------------------------------------------




--------------------------------------- Iteration      1(  22)  ---------------------------------------


    POTLOK:  cpu time    0.2077: real time    0.2078
    SETDIJ:  cpu time    0.0139: real time    0.0139
     EDDAV:  cpu time    3.5308: real time    3.5315
       DOS:  cpu time    0.0010: real time    0.0009
    CHARGE:  cpu time    0.3183: real time    0.3183
    MIXING:  cpu time    0.0280: real time    0.0280
    --------------------------------------------
      LOOP:  cpu time    4.0997: real time    4.1004

 eigenvalue-minimisations  :   752
 total energy-change (2. order) : 0.8691937E-02  (-0.1338099E-02)
 number of electron     572.0000470 magnetization 
 augmentation part      225.1902666 magnetization 

 Broyden mixing:
  rms(total) = 0.17792E+00    rms(broyden)= 0.17791E+00
  rms(prec ) = 0.19997E+00
  weight for this iteration     100.00

 eigenvalues of (default mixing * dielectric matrix)
  average eigenvalue GAMMA=   0.7105
  2.1821  2.1821  1.2507  1.2507  0.9667  0.8771  0.8771  0.5266  0.4359  0.4359
  0.2016  0.1302  0.1302  0.1447  0.1535  0.1614  0.1728

 Free energy of the ion-electron system (eV)
  ---------------------------------------------------
  alpha Z        PSCENC =      1046.73971423
  Ewald energy   TEWEN  =    121072.24306672
  -Hartree energ DENC   =   -207497.06796250
  -exchange      EXHF   =         0.00000000
  -V(xc)+E(xc)   XCENC  =      2635.45616995
  PAW double counting   =    101262.16255711  -104866.74168115
  entropy T*S    EENTRO =        -0.90227851
  eigenvalues    EBANDS =    -12123.11805045
  atomic energy  EATOM  =     98224.10364994
  Solvation  Ediel_sol  =         0.00000000
  ---------------------------------------------------
  free energy    TOTEN  =      -247.12481466 eV

  energy without entropy =     -246.22253615  energy(sigma->0) =     -246.67367541


--------------------------------------------------------------------------------------------------------




--------------------------------------- Iteration      1(  23)  ---------------------------------------


    POTLOK:  cpu time    0.2399: real time    0.2400
    SETDIJ:  cpu time    0.0138: real time    0.0138
     EDDAV:  cpu time    4.1172: real time    4.1180
       DOS:  cpu time    0.0011: real time    0.0011
    CHARGE:  cpu time    0.1865: real time    0.1865
    MIXING:  cpu time    0.0139: real time    0.0139
    --------------------------------------------
      LOOP:  cpu time    4.5725: real time    4.5734

 eigenvalue-minimisations  :   936
 total energy-change (2. order) : 0.1254764E-02  (-0.2354073E-02)
 number of electron     572.0000468 magnetization 
 augmentation part      225.2588532 magnetization 

 Broyden mixing:
  rms(total) = 0.17851E+00    rms(broyden)= 0.17845E+00
  rms(prec ) = 0.20387E+00
  weight for this iteration     100.00

 eigenvalues of (default mixing * dielectric matrix)
  average eigenvalue GAMMA=   0.7289
  2.2662  2.2662  1.5037  1.5037  0.9399  0.9399  0.9347  0.5865  0.4361  0.4361
  0.2090  0.2032  0.1302  0.1302  0.1745  0.1447  0.1534  0.1616

 Free energy of the ion-electron system (eV)
  ---------------------------------------------------
  alpha Z        PSCENC =      1046.73971423
  Ewald energy   TEWEN  =    121072.24306672
  -Hartree energ DENC   =   -207498.77096780
  -exchange      EXHF   =         0.00000000
  -V(xc)+E(xc)   XCENC  =      2635.46572490
  PAW double counting   =    101311.25068587  -104916.95706643
  entropy T*S    EENTRO =        -0.89941122
  eigenvalues    EBANDS =    -12120.29895609
  atomic energy  EATOM  =     98224.10364994
  Solvation  Ediel_sol  =         0.00000000
  ---------------------------------------------------
  free energy    TOTEN  =      -247.12355990 eV

  energy without entropy =     -246.22414868  energy(sigma->0) =     -246.67385429


--------------------------------------------------------------------------------------------------------




--------------------------------------- Iteration      1(  24)  ---------------------------------------


    POTLOK:  cpu time    0.2070: real time    0.2071
    SETDIJ:  cpu time    0.0141: real time    0.0141
     EDDAV:  cpu time    4.3873: real time    4.3879
       DOS:  cpu time    0.0010: real time    0.0010
    CHARGE:  cpu time    0.1855: real time    0.1855
    MIXING:  cpu time    0.0149: real time    0.0149
    --------------------------------------------
      LOOP:  cpu time    4.8099: real time    4.8105

 eigenvalue-minimisations  :   952
 total energy-change (2. order) : 0.1293509E-01  (-0.2383470E-02)
 number of electron     572.0000471 magnetization 
 augmentation part      225.3370922 magnetization 

 Broyden mixing:
  rms(total) = 0.10853E+00    rms(broyden)= 0.10845E+00
  rms(prec ) = 0.12980E+00
  weight for this iteration     100.00

 eigenvalues of (default mixing * dielectric matrix)
  average eigenvalue GAMMA=   0.7660
  2.8314  1.7265  1.7265  1.7890  1.1118  1.1118  0.7563  0.6705  0.6705  0.4361
  0.4361  0.1302  0.1302  0.2015  0.1927  0.1447  0.1728  0.1536  0.1610

 Free energy of the ion-electron system (eV)
  ---------------------------------------------------
  alpha Z        PSCENC =      1046.73971423
  Ewald energy   TEWEN  =    121072.24306672
  -Hartree energ DENC   =   -207499.03488351
  -exchange      EXHF   =         0.00000000
  -V(xc)+E(xc)   XCENC  =      2635.46437695
  PAW double counting   =    101377.26522300  -104984.04855953
  entropy T*S    EENTRO =        -0.90199167
  eigenvalues    EBANDS =    -12118.94122092
  atomic energy  EATOM  =     98224.10364994
  Solvation  Ediel_sol  =         0.00000000
  ---------------------------------------------------
  free energy    TOTEN  =      -247.11062481 eV

  energy without entropy =     -246.20863313  energy(sigma->0) =     -246.65962897


--------------------------------------------------------------------------------------------------------




--------------------------------------- Iteration      1(  25)  ---------------------------------------


    POTLOK:  cpu time    0.2081: real time    0.2081
    SETDIJ:  cpu time    0.0138: real time    0.0138
     EDDAV:  cpu time    4.2945: real time    4.2951
       DOS:  cpu time    0.0011: real time    0.0011
    CHARGE:  cpu time    0.1849: real time    0.1849
    MIXING:  cpu time    0.0151: real time    0.0151
    --------------------------------------------
      LOOP:  cpu time    4.7174: real time    4.7180

 eigenvalue-minimisations  :   920
 total energy-change (2. order) : 0.5508716E-02  (-0.1429129E-02)
 number of electron     572.0000470 magnetization 
 augmentation part      225.3944501 magnetization 

 Broyden mixing:
  rms(total) = 0.22257E-01    rms(broyden)= 0.22015E-01
  rms(prec ) = 0.24386E-01
  weight for this iteration     100.00

 eigenvalues of (default mixing * dielectric matrix)
  average eigenvalue GAMMA=   0.7633
  2.7526  1.8723  1.7195  1.7195  1.1566  1.1566  0.7667  0.7093  0.7093  0.5457
  0.4361  0.4361  0.1302  0.1302  0.2018  0.1920  0.1447  0.1729  0.1536  0.1610

 Free energy of the ion-electron system (eV)
  ---------------------------------------------------
  alpha Z        PSCENC =      1046.73971423
  Ewald energy   TEWEN  =    121072.24306672
  -Hartree energ DENC   =   -207501.59153767
  -exchange      EXHF   =         0.00000000
  -V(xc)+E(xc)   XCENC  =      2635.44335283
  PAW double counting   =    101451.93447016  -105059.67466595
  entropy T*S    EENTRO =        -0.89920032
  eigenvalues    EBANDS =    -12115.40396601
  atomic energy  EATOM  =     98224.10364994
  Solvation  Ediel_sol  =         0.00000000
  ---------------------------------------------------
  free energy    TOTEN  =      -247.10511609 eV

  energy without entropy =     -246.20591577  energy(sigma->0) =     -246.65551593


--------------------------------------------------------------------------------------------------------




--------------------------------------- Iteration      1(  26)  ---------------------------------------


    POTLOK:  cpu time    0.2102: real time    0.2102
    SETDIJ:  cpu time    0.0138: real time    0.0138
     EDDAV:  cpu time    3.5787: real time    3.5792
       DOS:  cpu time    0.0009: real time    0.0009
    CHARGE:  cpu time    0.1844: real time    0.1844
    MIXING:  cpu time    0.0158: real time    0.0158
    --------------------------------------------
      LOOP:  cpu time    4.0039: real time    4.0044

 eigenvalue-minimisations  :   720
 total energy-change (2. order) :-0.5609843E-03  (-0.4113973E-03)
 number of electron     572.0000470 magnetization 
 augmentation part      225.4120145 magnetization 

 Broyden mixing:
  rms(total) = 0.17697E-01    rms(broyden)= 0.17692E-01
  rms(prec ) = 0.19784E-01
  weight for this iteration     100.00

 eigenvalues of (default mixing * dielectric matrix)
  average eigenvalue GAMMA=   0.7554
  2.7284  1.7138  1.7138  1.7519  1.1709  1.1709  0.7859  0.7859  0.8166  0.4361
  0.4361  0.5334  0.5334  0.1302  0.1302  0.2017  0.1919  0.1447  0.1730  0.1536
  0.1610

 Free energy of the ion-electron system (eV)
  ---------------------------------------------------
  alpha Z        PSCENC =      1046.73971423
  Ewald energy   TEWEN  =    121072.24306672
  -Hartree energ DENC   =   -207502.08722206
  -exchange      EXHF   =         0.00000000
  -V(xc)+E(xc)   XCENC  =      2635.42848803
  PAW double counting   =    101453.12004221  -105060.70681703
  entropy T*S    EENTRO =        -0.89890573
  eigenvalues    EBANDS =    -12115.04769337
  atomic energy  EATOM  =     98224.10364994
  Solvation  Ediel_sol  =         0.00000000
  ---------------------------------------------------
  free energy    TOTEN  =      -247.10567707 eV

  energy without entropy =     -246.20677134  energy(sigma->0) =     -246.65622421


--------------------------------------------------------------------------------------------------------




[...]
    344       5.7428      0.00000


--------------------------------------------------------------------------------------------------------


 soft charge-density along one line, spin component           1
         0         1         2         3         4         5         6         7         8         9
 total charge-density along one line
 
 pseudopotential strength for first ion, spin component:           1
-66.195   0.032  -0.073  12.429  -0.014   0.031  -0.015   0.006
  0.032 -66.186   0.011  -0.014  12.423  -0.005   0.013   0.015
 -0.073   0.011 -66.284   0.031  -0.005  12.468   0.021   0.013
 12.429  -0.014   0.031   4.818   0.004  -0.008   0.006  -0.005
 -0.014  12.423  -0.005   0.004   4.818   0.001  -0.003  -0.004
  0.031  -0.005  12.468  -0.008   0.001   4.808  -0.005  -0.003
 -0.015   0.013   0.021   0.006  -0.003  -0.005 -11.431  -0.010
  0.006   0.015   0.013  -0.005  -0.004  -0.003  -0.010 -11.337
 -0.011   0.013   0.005   0.003  -0.008  -0.002   0.024   0.027
  0.013  -0.021   0.018  -0.003   0.005  -0.007   0.009  -0.087
 -0.013   0.006  -0.015   0.003  -0.001   0.003  -0.029  -0.025
 -0.015   0.013   0.021   0.005  -0.003  -0.005 -11.971  -0.010
  0.006   0.015   0.013  -0.005  -0.004  -0.003  -0.010 -11.877
 -0.011   0.013   0.005   0.003  -0.007  -0.002   0.023   0.027
  0.013  -0.021   0.018  -0.003   0.005  -0.007   0.009  -0.086
 -0.012   0.006  -0.015   0.003  -0.001   0.003  -0.029  -0.025
 -0.006  -0.003   0.005  -0.001   0.003  -0.000   0.015  -0.007
 -0.014  -0.008   0.012  -0.003   0.008  -0.000   0.031  -0.016
 total augmentation occupancy for first ion, spin component:           1
  1.995   0.000  -0.000  -0.019   0.000   0.000   0.015   0.001  -0.004   0.006  -0.006  -0.013  -0.000   0.005  -0.006   0.006
  0.000   1.995  -0.000   0.000  -0.019  -0.000   0.006   0.008  -0.009  -0.010   0.006  -0.006  -0.008   0.009   0.010  -0.005
 -0.000  -0.000   1.995   0.000  -0.000  -0.019   0.009   0.006  -0.007   0.012  -0.012  -0.009  -0.006   0.007  -0.011   0.012
 -0.019   0.000   0.000   0.152  -0.004   0.019   0.289   0.117  -0.031   0.023  -0.040  -0.269  -0.125   0.032  -0.051   0.036
  0.000  -0.019  -0.000  -0.004   0.135  -0.006   0.061   0.107  -0.100  -0.166   0.067  -0.084  -0.103   0.067   0.171  -0.077
  0.000  -0.000  -0.019   0.019  -0.006   0.175   0.059   0.039  -0.119   0.239  -0.226  -0.073  -0.063   0.119  -0.264   0.210
  0.015   0.006   0.009   0.289   0.061   0.059   3.989  -0.247  -0.434  -0.074  -0.337  -2.563   0.049   0.185  -0.037  -0.017
  0.001   0.008   0.006   0.117   0.107   0.039  -0.247   3.804  -0.055   0.005   0.013   0.051  -1.910   0.232  -0.530  -0.082
 -0.004  -0.009  -0.007  -0.031  -0.100  -0.119  -0.434  -0.055   4.491   0.278  -0.193   0.207   0.234  -2.476   0.090   0.056
  0.006  -0.010   0.012   0.023  -0.166   0.239  -0.074   0.005   0.278   4.224   0.011  -0.034  -0.529   0.096  -2.921   0.063
 -0.006   0.006  -0.012  -0.040   0.067  -0.226  -0.337   0.013  -0.193   0.011   4.182  -0.017  -0.086   0.045   0.056  -2.327
 -0.013  -0.006  -0.009  -0.269  -0.084  -0.073  -2.563   0.051   0.207  -0.034  -0.017   2.814   0.088  -0.052   0.114   0.258
 -0.000  -0.008  -0.006  -0.125  -0.103  -0.063   0.049  -1.910   0.234  -0.529  -0.086   0.088   1.833  -0.347   0.883   0.123
  0.005   0.009   0.007   0.032   0.067   0.119   0.185   0.232  -2.476   0.096   0.045  -0.052  -0.347   2.289  -0.352   0.045
 -0.006   0.010  -0.011  -0.051   0.171  -0.264  -0.037  -0.530   0.090  -2.921   0.056   0.114   0.883  -0.352   3.240  -0.127
  0.006  -0.005   0.012   0.036  -0.077   0.210  -0.017  -0.082   0.056   0.063  -2.327   0.258   0.123   0.045  -0.127   2.277
  0.018  -0.006  -0.013  -0.030  -0.101   0.005  -0.580   0.220   0.502   0.267  -0.385   0.473  -0.131  -0.378  -0.228   0.297
 -0.008   0.004   0.006   0.004   0.003  -0.001   0.062  -0.030  -0.051  -0.015   0.038  -0.024   0.009   0.024   0.007  -0.013


------------------------ aborting loop because EDIFF is reached ----------------------------------------


    CHARGE:  cpu time    0.1793: real time    0.1793
    FORLOC:  cpu time    0.0657: real time    0.0657
    FORNL :  cpu time    0.9129: real time    0.9130
    STRESS:  cpu time    2.1659: real time    2.1662
    FORCOR:  cpu time    0.2659: real time    0.2659
    FORHAR:  cpu time    0.1102: real time    0.1102
    MIXING:  cpu time    0.0165: real time    0.0165
    OFIELD:  cpu time    0.0001: real time    0.0001

  FORCE on cell =-STRESS in cart. coord.  units (eV):
  Direction    XX          YY          ZZ          XY          YZ          ZX
  --------------------------------------------------------------------------------------
  Alpha Z  1046.73971  1046.73971  1046.73971
  Ewald  158315.55613154618.91262************     0.00000     0.00000  -290.06755
  Hartree182779.09260180156.07155************    -0.00186     0.00204  -223.40249
  E(xc)   -3648.08047 -3649.69057 -3651.38473    -0.00006    -0.00003     0.42198
  Local  ************************338179.58442     0.00442    -0.00400   501.75970
  n-local  -406.43731  -438.06922  -422.18070     0.00771    -0.02346     5.22300
  augment  4166.58781  4208.47569  4176.38138    -0.01655     0.00111     2.57003
  Kinetic  7994.63670  8023.29133  8044.58182    -0.00094     0.00037     8.10759
  Fock        0.00000     0.00000     0.00000     0.00000     0.00000     0.00000
  -------------------------------------------------------------------------------------
  Total      77.67471    74.90101   103.53445     0.00000     0.00000     4.61227
  in kB      67.13609    64.73871    89.48727     0.00000     0.00000     3.98650
  external pressure =       73.79 kB  Pullay stress =        0.00 kB


 VOLUME and BASIS-vectors are now :
 -----------------------------------------------------------------------------
  energy-cutoff  :      450.00
  volume of cell :     1853.68
      direct lattice vectors                 reciprocal lattice vectors
    11.256463038  0.000000000  0.000000000     0.088837852  0.000000000  0.000000000
     0.000000000  9.578410000  0.000000000     0.000000000  0.104401461  0.000000000
     0.000000000  0.000000000 17.192492405     0.000000000  0.000000000  0.058164923

  length of vectors
    11.256463038  9.578410000 17.192492405     0.088837852  0.104401461  0.058164923


 FORCES acting on ions
    electron-ion (+dipol)            ewald-force                    non-local-force                 convergence-correction
 -----------------------------------------------------------------------------------------------
   0.371E+03 -.284E+03 0.136E+04   -.373E+03 0.288E+03 -.137E+04   0.157E+01 -.259E+01 0.436E+01   -.138E-01 -.944E-01 -.110E-01
   0.543E+03 -.726E+03 -.309E+04   -.545E+03 0.727E+03 0.309E+04   0.673E-01 0.109E+00 -.295E+01   0.497E-02 -.181E+00 0.116E+00
   -.261E+03 -.611E+03 0.320E+04   0.262E+03 0.617E+03 -.321E+04   0.201E-01 -.586E+01 0.525E+01   0.154E-01 0.807E-01 -.153E+00
   -.173E+03 -.687E+03 -.126E+04   0.173E+03 0.692E+03 0.127E+04   -.189E+00 -.442E+01 -.421E+01   0.953E-02 0.166E+00 -.378E-01
   0.371E+03 0.284E+03 0.136E+04   -.373E+03 -.288E+03 -.137E+04   0.157E+01 0.259E+01 0.436E+01   -.138E-01 0.944E-01 -.110E-01
   0.543E+03 0.726E+03 -.309E+04   -.545E+03 -.727E+03 0.309E+04   0.673E-01 -.109E+00 -.295E+01   0.497E-02 0.181E+00 0.116E+00
   -.261E+03 0.611E+03 0.320E+04   0.262E+03 -.617E+03 -.321E+04   0.201E-01 0.586E+01 0.525E+01   0.154E-01 -.807E-01 -.153E+00
   -.173E+03 0.687E+03 -.126E+04   0.173E+03 -.692E+03 0.127E+04   -.189E+00 0.442E+01 -.421E+01   0.953E-02 -.167E+00 -.378E-01
   -.483E+03 0.403E-02 0.212E+04   0.488E+03 0.456E-08 -.213E+04   -.406E+01 -.108E-18 0.394E+01   0.566E-01 0.137E-04 -.154E-01
   -.733E+03 0.525E-02 -.266E+04   0.741E+03 0.397E-07 0.266E+04   -.480E+01 0.000E+00 -.148E+01   0.171E-01 -.217E-05 0.656E-01
   0.394E+03 0.534E-02 0.319E+04   -.396E+03 0.237E-09 -.320E+04   0.105E+01 0.434E-18 0.534E+01   -.240E-01 -.260E-04 -.147E+00
   -.300E+03 0.495E-02 -.119E+04   0.303E+03 -.152E-07 0.119E+04   -.215E+01 0.000E+00 -.412E+01   0.341E-02 -.240E-04 0.956E-02
   0.488E+03 0.453E-02 -.341E+04   -.489E+03 -.271E-07 0.341E+04   -.734E+00 0.000E+00 0.531E+01   -.329E-01 -.120E-04 0.136E+00
   0.371E+03 -.284E+03 0.136E+04   -.373E+03 0.288E+03 -.137E+04   0.157E+01 -.259E+01 0.436E+01   -.138E-01 -.944E-01 -.110E-01
   0.543E+03 -.726E+03 -.309E+04   -.545E+03 0.727E+03 0.309E+04   0.673E-01 0.109E+00 -.295E+01   0.497E-02 -.181E+00 0.116E+00
   -.261E+03 -.611E+03 0.320E+04   0.262E+03 0.617E+03 -.321E+04   0.201E-01 -.586E+01 0.525E+01   0.154E-01 0.807E-01 -.153E+00
   -.173E+03 -.687E+03 -.126E+04   0.173E+03 0.692E+03 0.127E+04   -.189E+00 -.442E+01 -.421E+01   0.953E-02 0.166E+00 -.378E-01
   0.371E+03 0.284E+03 0.136E+04   -.373E+03 -.288E+03 -.137E+04   0.157E+01 0.259E+01 0.436E+01   -.138E-01 0.944E-01 -.110E-01
   0.543E+03 0.726E+03 -.309E+04   -.545E+03 -.727E+03 0.309E+04   0.673E-01 -.109E+00 -.295E+01   0.497E-02 0.181E+00 0.116E+00
   -.261E+03 0.611E+03 0.320E+04   0.262E+03 -.617E+03 -.321E+04   0.201E-01 0.586E+01 0.525E+01   0.154E-01 -.807E-01 -.153E+00
   -.173E+03 0.687E+03 -.126E+04   0.173E+03 -.692E+03 0.127E+04   -.189E+00 0.442E+01 -.421E+01   0.953E-02 -.167E+00 -.378E-01
   -.483E+03 0.403E-02 0.212E+04   0.488E+03 0.456E-08 -.213E+04   -.406E+01 -.108E-18 0.394E+01   0.566E-01 0.137E-04 -.154E-01
   -.733E+03 0.525E-02 -.266E+04   0.741E+03 0.397E-07 0.266E+04   -.480E+01 0.000E+00 -.148E+01   0.171E-01 -.217E-05 0.656E-01
   0.394E+03 0.534E-02 0.319E+04   -.396E+03 0.240E-09 -.320E+04   0.105E+01 0.434E-18 0.534E+01   -.240E-01 -.260E-04 -.147E+00
   -.300E+03 0.495E-02 -.119E+04   0.303E+03 -.152E-07 0.119E+04   -.215E+01 0.000E+00 -.412E+01   0.341E-02 -.240E-04 0.956E-02
   0.488E+03 0.453E-02 -.341E+04   -.489E+03 -.271E-07 0.341E+04   -.734E+00 0.000E+00 0.531E+01   -.329E-01 -.120E-04 0.136E+00
   0.237E+02 -.591E+02 0.147E+04   -.243E+02 0.594E+02 -.148E+04   0.849E+00 -.611E+00 0.347E+01   0.154E-01 0.318E-01 -.462E-01
   -.105E+03 0.859E+02 -.265E+03   0.107E+03 -.878E+02 0.264E+03   -.187E+01 0.220E+01 0.543E+00   0.500E-02 0.862E-01 0.237E-01
   -.139E+03 0.279E+03 -.170E+04   0.140E+03 -.283E+03 0.171E+04   -.585E-01 0.254E+01 -.238E+00   0.101E-01 0.412E-01 0.410E-01
   -.940E+02 0.261E+03 0.712E+03   0.942E+02 -.262E+03 -.713E+03   0.985E+00 0.219E+00 0.326E+00   -.497E-02 -.515E-01 -.450E-01
   0.237E+02 0.591E+02 0.147E+04   -.243E+02 -.594E+02 -.148E+04   0.849E+00 0.611E+00 0.347E+01   0.154E-01 -.318E-01 -.462E-01
   -.105E+03 -.859E+02 -.265E+03   0.107E+03 0.878E+02 0.264E+03   -.187E+01 -.220E+01 0.543E+00   0.500E-02 -.862E-01 0.237E-01
   -.139E+03 -.279E+03 -.170E+04   0.140E+03 0.283E+03 0.171E+04   -.585E-01 -.254E+01 -.238E+00   0.101E-01 -.412E-01 0.410E-01
   -.940E+02 -.261E+03 0.712E+03   0.942E+02 0.262E+03 -.713E+03   0.985E+00 -.219E+00 0.326E+00   -.497E-02 0.515E-01 -.450E-01
   0.969E+02 -.658E-04 0.118E+04   -.970E+02 0.517E-08 -.119E+04   -.111E+01 0.000E+00 0.488E+01   -.256E-01 0.648E-05 -.129E-01
   0.262E+03 0.132E-04 -.569E+03   -.265E+03 -.145E-08 0.572E+03   0.760E+00 0.542E-19 -.275E+01   -.241E-01 0.264E-05 0.380E-01
   0.231E+02 -.154E-04 0.185E+04   -.236E+02 0.501E-08 -.186E+04   0.318E+00 0.000E+00 0.131E+01   0.233E-01 -.579E-05 -.104E+00
   0.150E+03 0.534E-04 0.187E+03   -.150E+03 0.168E-08 -.186E+03   -.296E+01 0.000E+00 0.809E+00   -.477E-03 -.736E-05 -.548E-01
   -.219E+03 0.143E-03 -.160E+04   0.221E+03 -.886E-08 0.160E+04   0.828E+00 0.000E+00 -.303E+01   0.362E-01 -.294E-05 0.103E+00
   0.237E+02 -.591E+02 0.147E+04   -.243E+02 0.594E+02 -.148E+04   0.849E+00 -.611E+00 0.347E+01   0.154E-01 0.318E-01 -.462E-01
   -.105E+03 0.859E+02 -.265E+03   0.107E+03 -.878E+02 0.264E+03   -.187E+01 0.220E+01 0.543E+00   0.500E-02 0.862E-01 0.237E-01
   -.139E+03 0.279E+03 -.170E+04   0.140E+03 -.283E+03 0.171E+04   -.585E-01 0.254E+01 -.238E+00   0.101E-01 0.412E-01 0.410E-01
   -.940E+02 0.261E+03 0.712E+03   0.942E+02 -.262E+03 -.713E+03   0.985E+00 0.219E+00 0.326E+00   -.497E-02 -.515E-01 -.450E-01
   0.237E+02 0.591E+02 0.147E+04   -.243E+02 -.594E+02 -.148E+04   0.849E+00 0.611E+00 0.347E+01   0.154E-01 -.318E-01 -.462E-01
   -.105E+03 -.859E+02 -.265E+03   0.107E+03 0.878E+02 0.264E+03   -.187E+01 -.220E+01 0.543E+00   0.500E-02 -.862E-01 0.237E-01
   -.139E+03 -.279E+03 -.170E+04   0.140E+03 0.283E+03 0.171E+04   -.585E-01 -.254E+01 -.238E+00   0.101E-01 -.412E-01 0.410E-01
   -.940E+02 -.261E+03 0.712E+03   0.942E+02 0.262E+03 -.713E+03   0.985E+00 -.219E+00 0.326E+00   -.497E-02 0.515E-01 -.450E-01
   0.969E+02 -.658E-04 0.118E+04   -.970E+02 0.517E-08 -.119E+04   -.111E+01 0.000E+00 0.488E+01   -.256E-01 0.648E-05 -.129E-01
   0.262E+03 0.132E-04 -.569E+03   -.265E+03 -.145E-08 0.572E+03   0.760E+00 0.542E-19 -.275E+01   -.241E-01 0.264E-05 0.380E-01
   0.231E+02 -.154E-04 0.185E+04   -.236E+02 0.501E-08 -.186E+04   0.318E+00 0.000E+00 0.131E+01   0.233E-01 -.579E-05 -.104E+00
   0.150E+03 0.534E-04 0.187E+03   -.150E+03 0.168E-08 -.186E+03   -.296E+01 0.000E+00 0.809E+00   -.477E-03 -.736E-05 -.548E-01
   -.219E+03 0.143E-03 -.160E+04   0.221E+03 -.886E-08 0.160E+04   0.828E+00 0.000E+00 -.303E+01   0.362E-01 -.294E-05 0.103E+00
 -----------------------------------------------------------------------------------------------
   0.201E+02 0.714E-01 -.462E+02   -.227E-12 0.142E-11 -.455E-11   -.202E+02 -.139E-15 0.466E+02   0.225E+00 -.107E-03 -.409E+00
 
 
 POSITION                                       TOTAL-FORCE (eV/Angst)
 -----------------------------------------------------------------------------------
      4.94536      4.44331      2.79952        -0.480151      0.838422      1.919424
      5.49669      4.41459      5.56687        -1.267846      0.832547     -0.034815
      1.79386      9.29873      1.63065         0.865877      0.371408     -0.109257
      2.35499      9.38154      4.06857        -0.137713      0.988292     -0.061454
      4.94536      1.91264      2.79952        -0.480151     -0.838422      1.919424
      5.49669      1.94135      5.56687        -1.267846     -0.832547     -0.034815
      1.79386      6.63563      1.63065         0.865877     -0.371408     -0.109257
      2.35499      6.55282      4.06857        -0.137713     -0.988292     -0.061454
      1.47054      3.17797      2.39204         0.695130      0.000000      1.436773
      2.05421      3.17797      5.47658         2.370276      0.000000     -2.747907
      5.05757      7.96718      1.66996        -1.055899      0.000000      0.468512
      4.33273      7.96718      3.93314         0.794715      0.000000      0.509998
      6.44581      7.96718      5.23220        -1.553992      0.000000      0.523329
     10.57359      4.44331      2.79952        -0.480151      0.838422      1.919424
     11.12492      4.41459      5.56687        -1.267846      0.832547     -0.034815
      7.42209      9.29873      1.63065         0.865877      0.371408     -0.109257
      7.98322      9.38154      4.06857        -0.137713      0.988292     -0.061454
     10.57359      1.91264      2.79952        -0.480151     -0.838422      1.919424
     11.12492      1.94135      5.56687        -1.267846     -0.832547     -0.034815
      7.42209      6.63563      1.63065         0.865877     -0.371408     -0.109257
      7.98322      6.55282      4.06857        -0.137713     -0.988292     -0.061454
      7.09877      3.17797      2.39204         0.695130      0.000000      1.436773
      7.68244      3.17797      5.47658         2.370276      0.000000     -2.747907
     10.68580      7.96718      1.66996        -1.055899      0.000000      0.468512
      9.96096      7.96718      3.93314         0.794715      0.000000      0.509998
      0.81758      7.96718      5.23220        -1.553992      0.000000      0.523329
      0.76805      1.51733      1.37563         0.266144     -0.298021     -2.778536
      1.25497      1.56674      4.10795         0.370185      0.361534     -0.580297
      1.37442      1.87869      6.87415         0.675967     -1.186033      3.447635
      3.77725      6.35595      2.56568         1.136839     -0.956848     -1.184779
      0.76805      4.83861      1.37563         0.266144      0.298021     -2.778536
      1.25497      4.78920      4.10795         0.370185     -0.361534     -0.580297
      1.37442      4.47725      6.87415         0.675967      1.186033      3.447635
      3.77725      9.57841      2.56568         1.136839      0.956848     -1.184779
      3.53683      3.17797      1.94609        -1.205536      0.000000     -2.617006
      4.14113      3.17797      4.62682        -2.530753      0.000000     -0.039381
      0.94972      7.96718      0.31066        -0.185241      0.000000     -4.455793
      1.03518      7.96718      3.08454        -2.416295      0.000000      2.005399
      2.86978      7.96718      5.50579         2.228991      0.000000      3.680234
      6.39629      1.51733      1.37563         0.266144     -0.298021     -2.778536
      6.88320      1.56674      4.10795         0.370185      0.361534     -0.580297
      7.00265      1.87869      6.87415         0.675967     -1.186033      3.447635
      9.40548      6.35595      2.56568         1.136839     -0.956848     -1.184779
      6.39629      4.83861      1.37563         0.266144      0.298021     -2.778536
      6.88320      4.78920      4.10795         0.370185     -0.361534     -0.580297
      7.00265      4.47725      6.87415         0.675967      1.186033      3.447635
      9.40548      9.57841      2.56568         1.136839      0.956848     -1.184779
      9.16506      3.17797      1.94609        -1.205536      0.000000     -2.617006
      9.76936      3.17797      4.62682        -2.530753      0.000000     -0.039381
      6.57795      7.96718      0.31066        -0.185241      0.000000     -4.455793
      6.66341      7.96718      3.08454        -2.416295      0.000000      2.005399
      8.49801      7.96718      5.50579         2.228991      0.000000      3.680234
 -----------------------------------------------------------------------------------
    total drift:                                0.086419      0.071273      0.025797


--------------------------------------------------------------------------------------------------------



  FREE ENERGIE OF THE ION-ELECTRON SYSTEM (eV)
  ---------------------------------------------------
  free  energy   TOTEN  =      -247.10573358 eV

  energy  without entropy=     -246.20680017  energy(sigma->0) =     -246.65626688
 


--------------------------------------------------------------------------------------------------------


    POTLOK:  cpu time    0.2206: real time    0.2207


--------------------------------------------------------------------------------------------------------


     LOOP+:  cpu time  124.6245: real time  124.9710
    4ORBIT:  cpu time    0.0000: real time    0.0000

 total amount of memory used by VASP MPI-rank0    60040. kBytes
=======================================================================

   base      :      30000. kBytes
   nonlr-proj:       1505. kBytes
   fftplans  :       7078. kBytes
   grid      :      11974. kBytes
   one-center:         69. kBytes
   wavefun   :       9414. kBytes
 
  
  
 General timing and accounting informations for this job:
 ========================================================
  
                  Total CPU time used (sec):      126.598
                            User time (sec):      126.323
                          System time (sec):        0.275
                         Elapsed time (sec):      127.191
  
                   Maximum memory used (kb):      160480.
                   Average memory used (kb):           0.
  
                          Minor page faults:        97838
                          Major page faults:            0
                 Voluntary context switches:          182
