LAMMPS (5 Jun 2019)
OMP_NUM_THREADS environment is not set. Defaulting to 1 thread. (../comm.cpp:88)
  using 1 OpenMP thread(s) per MPI task
Reading data file ...
  triclinic box = (0 0 0) to (10.0797 9.4251 20.6835) with tilt (3.5733 0 0)
  1 by 1 by 1 MPI processor grid
  reading atoms ...
  72 atoms
  read_data CPU = 0.000792824 secs
44 atoms in group bulk
WARNING: Using 'neigh_modify every 1 delay 0 check yes' setting during minimization (../min.cpp:168)
Neighbor list info ...
  update every 1 steps, delay 0 steps, check yes
  max neighbors/atom: 2000, page size: 100000
  master list distance cutoff = 8.5
  ghost atom cutoff = 8.5
  binsize = 4.25, bins = 4 3 5
  1 neighbor lists, perpetual/occasional/extra = 1 0 0
  (1) pair eam/alloy, perpetual
      attributes: half, newton on
      pair build: half/bin/newton/tri
      stencil: half/bin/3d/newton/tri
      bin: standard
Setting up cg style minimization ...
  Unit style    : metal
  Current step  : 0
Per MPI rank memory allocation (min/avg/max) = 4.114 | 4.114 | 4.114 Mbytes
Step Temp E_pair E_mol TotEng Press 
       0            0   -305.14023            0   -305.14023   -128842.36 
      52            0   -326.17901            0   -326.17901   -38857.229 
Loop time of 0.0363291 on 1 procs for 52 steps with 72 atoms

99.7% CPU use with 1 MPI tasks x 1 OpenMP threads

Minimization stats:
  Stopping criterion = energy tolerance
  Energy initial, next-to-last, final = 
        -305.140229014     -326.176896097     -326.179014333
  Force two-norm initial, final = 10.7057 0.185258
  Force max component initial, final = 2.8958 0.0615605
  Final line search alpha, max atom move = 0.787251 0.0484636
  Iterations, force evaluations = 52 78

MPI task timing breakdown:
Section |  min time  |  avg time  |  max time  |%varavg| %total
---------------------------------------------------------------
Pair    | 0.033369   | 0.033369   | 0.033369   |   0.0 | 91.85
Neigh   | 0.0015666  | 0.0015666  | 0.0015666  |   0.0 |  4.31
Comm    | 0.00076454 | 0.00076454 | 0.00076454 |   0.0 |  2.10
Output  | 0          | 0          | 0          |   0.0 |  0.00
Modify  | 5.5492e-05 | 5.5492e-05 | 5.5492e-05 |   0.0 |  0.15
Other   |            | 0.0005735  |            |       |  1.58

Nlocal:    72 ave 72 max 72 min
Histogram: 1 0 0 0 0 0 0 0 0 0
Nghost:    952 ave 952 max 952 min
Histogram: 1 0 0 0 0 0 0 0 0 0
Neighs:    4854 ave 4854 max 4854 min
Histogram: 1 0 0 0 0 0 0 0 0 0

Total # of neighbors = 4854
Ave neighs/atom = 67.4167
Neighbor list builds = 3
Dangerous builds = 0
System init for write_data ...
Total wall time: 0:00:00
