LAMMPS data file via write_data, version 5 Jun 2019, timestep = 75

74 atoms
2 atom types

0.0000000000000000e+00 1.6884694054200001e+01 xlo xhi
0.0000000000000000e+00 9.5784099999999999e+00 ylo yhi
0.0000000000000000e+00 1.6654645685100000e+01 zlo zhi
0.0000000000000000e+00 0.0000000000000000e+00 0.0000000000000000e+00 xy xz yz

Masses

1 58.71
2 32.06

Atoms # atomic

1 1 1.2981433646801296e+01 9.5722395889040024e-01 1.8856055312923763e+00 0 0 0
2 1 1.3601384870140189e+01 1.1282324165278073e+00 4.3795746736860970e+00 0 0 0
3 1 3.6413126985483748e+00 6.0104583422779365e+00 1.6477423764999963e+00 0 0 0
4 1 5.0203308784000003e+00 6.1809188259000001e+00 3.5986341463999998e+00 0 0 0
5 1 6.5284553870883331e+00 1.1457606154289697e+00 2.1430325857590091e+00 0 0 0
6 1 7.9317247696999997e+00 1.3917138258999999e+00 4.1127247530000002e+00 0 0 0
7 1 1.6082237116200002e+01 6.1809188259000001e+00 2.5704529665000000e+00 0 0 0
8 1 1.6479692523722640e+01 6.1816291592663486e+00 5.2807954026844666e+00 0 0 0
9 1 1.2284267298260814e+00 1.4526966798525454e+00 9.1927941380978773e-01 0 0 0
10 1 2.1089369701999998e+00 1.3917138258999999e+00 3.0845435563999999e+00 0 0 0
11 1 9.6290527088375537e+00 6.1637269243976798e+00 2.6900659611227828e+00 0 0 0
12 1 1.0843118677900000e+01 6.1809188259000001e+00 4.6268153428999996e+00 0 0 0
13 1 1.5889647974480052e+01 6.3711705580746833e-02 3.6983607750885290e+00 0 0 0
14 1 6.0435783072638447e+00 6.1638602811001348e+00 1.0414898455112866e+00 0 0 0
15 1 7.1737451382000001e+00 4.9155821296999997e+00 3.1911566886000000e+00 0 0 0
16 1 7.9262072544156075e+00 4.3828941747179897e+00 5.4069373440488215e+00 0 0 0
17 1 1.0654841673465844e+01 9.0208849628933940e+00 1.3808566633400687e+00 0 -1 0
18 1 1.0085139046400000e+01 1.2637712970000001e-01 3.7052472952000000e+00 0 0 0
19 1 1.3509573217999999e+00 4.9155821296999997e+00 2.1629755087000002e+00 0 0 0
20 1 1.9243130216135886e+00 4.7923311893874372e+00 4.8557548877191827e+00 0 0 0
21 1 4.2623512300000002e+00 1.2637712970000001e-01 2.6770660986000001e+00 0 0 0
22 1 4.8055781897214995e+00 9.3801671275433627e+00 5.0580807388627980e+00 0 -1 0
23 1 1.3056891214613865e+01 4.1332699151015557e+00 2.0183137883820903e+00 0 0 0
24 1 1.2996532937700001e+01 4.9155821296999997e+00 4.2193378850999999e+00 0 0 0
25 1 1.5229862390427483e+01 2.7794459508620277e+00 1.8554886380157862e+00 0 0 0
26 1 1.5984119160749128e+01 2.5927752938531481e+00 4.1836708980491313e+00 0 0 0
27 1 7.0803306373307962e+00 8.3909457937931382e+00 1.0497955503925820e+00 0 0 0
28 1 7.1737451382000001e+00 7.4462555221000031e+00 3.1911566886000000e+00 0 0 0
29 1 7.8024391668080373e+00 7.8503337201544925e+00 5.5322226386540514e+00 0 0 0
30 1 8.9364272699824330e+00 1.3922906381448232e+00 1.5406765059888832e+00 0 0 0
31 1 1.0085139046400000e+01 2.6570505221000000e+00 3.7052472952000000e+00 0 0 0
32 1 1.3509573217999999e+00 7.4462555221000031e+00 2.1629755087000002e+00 0 0 0
33 1 1.9118284919833093e+00 7.5482706048273771e+00 4.8670190821379213e+00 0 0 0
34 1 4.2623512300000002e+00 2.6570505221000000e+00 2.6770660986000001e+00 0 0 0
35 1 4.8718889248780863e+00 3.0487412568543100e+00 5.0148750906982578e+00 0 0 0
36 1 1.2818152291185129e+01 7.8714218386028989e+00 1.8091942556550415e+00 0 0 0
37 1 1.2996532937700001e+01 7.4462555221000031e+00 4.2193378850999999e+00 0 0 0
38 2 1.5381455187491598e+01 1.0699119311085019e+00 5.4038173527250875e+00 -1 0 0
39 2 1.6852089919758566e+01 1.5466230546859885e+00 2.5576640466856451e+00 0 0 0
40 2 8.0063373716000008e+00 6.1809188259000001e+00 1.5137397470000000e+00 0 0 0
41 2 8.5900067496000005e+00 6.1809188259000001e+00 4.5982833201000002e+00 0 0 0
42 2 1.0917731279800000e+01 1.3917138258999999e+00 2.0278303370000001e+00 0 0 0
43 2 1.1520516103501356e+01 1.3735519570575483e+00 4.6303521739641127e+00 0 0 0
44 2 1.8950618782835635e+00 6.1733488332282622e+00 6.3241393454071693e-01 0 0 0
45 2 2.7672189501000002e+00 6.1809188259000001e+00 3.5701021234999999e+00 0 0 0
46 2 1.3809690858925976e+00 6.1632075966680837e+00 6.2788276165050778e+00 0 0 0
47 2 4.7833769043676408e+00 1.3928523703010696e+00 1.1213638442175096e+00 0 0 0
48 2 5.6786128413999997e+00 1.3917138258999999e+00 4.0841927135000002e+00 0 0 0
49 2 1.3829125188000001e+01 6.1809188259000001e+00 2.5419209436000001e+00 0 0 0
50 2 1.4377891809819406e+01 6.1772437948569658e+00 5.2003994009145051e+00 0 0 0
51 2 1.3516387024267081e+01 2.6134201733054074e+00 7.5627567314766464e-01 0 0 0
52 2 1.3998442232200000e+01 3.0029460640000001e+00 3.5748780264000000e+00 0 0 0
53 2 5.2642605076000004e+00 7.7921510639999996e+00 2.0326062398999998e+00 0 0 0
54 2 5.8650167146263241e+00 7.6387410160956808e+00 4.9148780380365658e+00 0 0 0
55 2 8.1756544158000004e+00 3.0029460640000001e+00 2.5466968465000002e+00 0 0 0
56 2 8.9575376868607872e+00 2.6709351172767537e+00 5.4220311346324657e+00 0 0 0
57 2 2.5142086099999999e-02 7.7921510639999996e+00 4.0889686162999999e+00 0 0 0
58 2 1.6433176571886531e+01 7.6767550843970129e+00 1.2725695439061031e+00 0 0 0
59 2 2.3430531918906894e+00 3.0141349238543196e+00 1.6702814631742258e+00 0 0 0
60 2 2.9281963956743211e+00 2.9547773516112823e+00 4.3666932368724289e+00 0 0 0
61 2 1.1087048324000000e+01 7.7921510639999996e+00 3.0607874364000001e+00 0 0 0
62 2 1.1773724064551704e+01 7.5317226490421625e+00 5.8210724892283627e+00 0 0 0
63 2 5.2642605076000004e+00 4.5696865876999997e+00 2.0326062398999998e+00 0 0 0
64 2 5.9573842521872358e+00 4.7720281997274094e+00 4.9305882327705852e+00 0 0 0
65 2 1.2417633397656171e+01 9.2392177391791304e+00 3.5816422988127194e-01 0 0 0
66 2 1.3943911539718876e+01 9.0721238024776714e+00 3.1262279471811865e+00 0 0 0
67 2 2.5142086099999999e-02 4.5696865876999997e+00 4.0889686162999999e+00 0 0 0
68 2 1.6326534026396143e+01 4.4973594208826020e+00 1.3740667001999562e+00 0 0 0
69 2 8.1756544158000004e+00 9.3588915877000023e+00 2.5466968465000002e+00 0 0 0
70 2 8.8543986395609373e+00 9.5511902924344945e+00 5.3738461255131202e+00 0 0 0
71 2 1.1087048324000000e+01 4.5696865876999997e+00 3.0607874364000001e+00 0 0 0
72 2 1.1729218488387799e+01 4.7638825227927892e+00 5.7783443906318546e+00 0 0 0
73 2 2.2685759819075444e+00 9.4033887372829028e+00 1.6592084824177724e+00 0 0 0
74 2 2.8898505751153905e+00 9.3866036337983889e+00 4.3425883980933380e+00 0 0 0

Velocities

1 0.0000000000000000e+00 0.0000000000000000e+00 0.0000000000000000e+00
2 0.0000000000000000e+00 0.0000000000000000e+00 0.0000000000000000e+00
3 0.0000000000000000e+00 0.0000000000000000e+00 0.0000000000000000e+00
4 0.0000000000000000e+00 0.0000000000000000e+00 0.0000000000000000e+00
5 0.0000000000000000e+00 0.0000000000000000e+00 0.0000000000000000e+00
6 0.0000000000000000e+00 0.0000000000000000e+00 0.0000000000000000e+00
7 0.0000000000000000e+00 0.0000000000000000e+00 0.0000000000000000e+00
8 0.0000000000000000e+00 0.0000000000000000e+00 0.0000000000000000e+00
9 0.0000000000000000e+00 0.0000000000000000e+00 0.0000000000000000e+00
10 0.0000000000000000e+00 0.0000000000000000e+00 0.0000000000000000e+00
11 0.0000000000000000e+00 0.0000000000000000e+00 0.0000000000000000e+00
12 0.0000000000000000e+00 0.0000000000000000e+00 0.0000000000000000e+00
13 0.0000000000000000e+00 0.0000000000000000e+00 0.0000000000000000e+00
14 0.0000000000000000e+00 0.0000000000000000e+00 0.0000000000000000e+00
15 0.0000000000000000e+00 0.0000000000000000e+00 0.0000000000000000e+00
16 0.0000000000000000e+00 0.0000000000000000e+00 0.0000000000000000e+00
17 0.0000000000000000e+00 0.0000000000000000e+00 0.0000000000000000e+00
18 0.0000000000000000e+00 0.0000000000000000e+00 0.0000000000000000e+00
19 0.0000000000000000e+00 0.0000000000000000e+00 0.0000000000000000e+00
20 0.0000000000000000e+00 0.0000000000000000e+00 0.0000000000000000e+00
21 0.0000000000000000e+00 0.0000000000000000e+00 0.0000000000000000e+00
22 0.0000000000000000e+00 0.0000000000000000e+00 0.0000000000000000e+00
23 0.0000000000000000e+00 0.0000000000000000e+00 0.0000000000000000e+00
24 0.0000000000000000e+00 0.0000000000000000e+00 0.0000000000000000e+00
25 0.0000000000000000e+00 0.0000000000000000e+00 0.0000000000000000e+00
26 0.0000000000000000e+00 0.0000000000000000e+00 0.0000000000000000e+00
27 0.0000000000000000e+00 0.0000000000000000e+00 0.0000000000000000e+00
28 0.0000000000000000e+00 0.0000000000000000e+00 0.0000000000000000e+00
29 0.0000000000000000e+00 0.0000000000000000e+00 0.0000000000000000e+00
30 0.0000000000000000e+00 0.0000000000000000e+00 0.0000000000000000e+00
31 0.0000000000000000e+00 0.0000000000000000e+00 0.0000000000000000e+00
32 0.0000000000000000e+00 0.0000000000000000e+00 0.0000000000000000e+00
33 0.0000000000000000e+00 0.0000000000000000e+00 0.0000000000000000e+00
34 0.0000000000000000e+00 0.0000000000000000e+00 0.0000000000000000e+00
35 0.0000000000000000e+00 0.0000000000000000e+00 0.0000000000000000e+00
36 0.0000000000000000e+00 0.0000000000000000e+00 0.0000000000000000e+00
37 0.0000000000000000e+00 0.0000000000000000e+00 0.0000000000000000e+00
38 0.0000000000000000e+00 0.0000000000000000e+00 0.0000000000000000e+00
39 0.0000000000000000e+00 0.0000000000000000e+00 0.0000000000000000e+00
40 0.0000000000000000e+00 0.0000000000000000e+00 0.0000000000000000e+00
41 0.0000000000000000e+00 0.0000000000000000e+00 0.0000000000000000e+00
42 0.0000000000000000e+00 0.0000000000000000e+00 0.0000000000000000e+00
43 0.0000000000000000e+00 0.0000000000000000e+00 0.0000000000000000e+00
44 0.0000000000000000e+00 0.0000000000000000e+00 0.0000000000000000e+00
45 0.0000000000000000e+00 0.0000000000000000e+00 0.0000000000000000e+00
46 0.0000000000000000e+00 0.0000000000000000e+00 0.0000000000000000e+00
47 0.0000000000000000e+00 0.0000000000000000e+00 0.0000000000000000e+00
48 0.0000000000000000e+00 0.0000000000000000e+00 0.0000000000000000e+00
49 0.0000000000000000e+00 0.0000000000000000e+00 0.0000000000000000e+00
50 0.0000000000000000e+00 0.0000000000000000e+00 0.0000000000000000e+00
51 0.0000000000000000e+00 0.0000000000000000e+00 0.0000000000000000e+00
52 0.0000000000000000e+00 0.0000000000000000e+00 0.0000000000000000e+00
53 0.0000000000000000e+00 0.0000000000000000e+00 0.0000000000000000e+00
54 0.0000000000000000e+00 0.0000000000000000e+00 0.0000000000000000e+00
55 0.0000000000000000e+00 0.0000000000000000e+00 0.0000000000000000e+00
56 0.0000000000000000e+00 0.0000000000000000e+00 0.0000000000000000e+00
57 0.0000000000000000e+00 0.0000000000000000e+00 0.0000000000000000e+00
58 0.0000000000000000e+00 0.0000000000000000e+00 0.0000000000000000e+00
59 0.0000000000000000e+00 0.0000000000000000e+00 0.0000000000000000e+00
60 0.0000000000000000e+00 0.0000000000000000e+00 0.0000000000000000e+00
61 0.0000000000000000e+00 0.0000000000000000e+00 0.0000000000000000e+00
62 0.0000000000000000e+00 0.0000000000000000e+00 0.0000000000000000e+00
63 0.0000000000000000e+00 0.0000000000000000e+00 0.0000000000000000e+00
64 0.0000000000000000e+00 0.0000000000000000e+00 0.0000000000000000e+00
65 0.0000000000000000e+00 0.0000000000000000e+00 0.0000000000000000e+00
66 0.0000000000000000e+00 0.0000000000000000e+00 0.0000000000000000e+00
67 0.0000000000000000e+00 0.0000000000000000e+00 0.0000000000000000e+00
68 0.0000000000000000e+00 0.0000000000000000e+00 0.0000000000000000e+00
69 0.0000000000000000e+00 0.0000000000000000e+00 0.0000000000000000e+00
70 0.0000000000000000e+00 0.0000000000000000e+00 0.0000000000000000e+00
71 0.0000000000000000e+00 0.0000000000000000e+00 0.0000000000000000e+00
72 0.0000000000000000e+00 0.0000000000000000e+00 0.0000000000000000e+00
73 0.0000000000000000e+00 0.0000000000000000e+00 0.0000000000000000e+00
74 0.0000000000000000e+00 0.0000000000000000e+00 0.0000000000000000e+00
