<?xml version="1.0" encoding="ISO-8859-1"?>
<modeling>
 <generator>
  <i name="program" type="string">vasp </i>
  <i name="version" type="string">6.1.0  </i>
  <i name="subversion" type="string">28Jan20 (build Mar 31 2020 17:42:31) gamma-only                       parallel </i>
  <i name="platform" type="string">LinuxIFC </i>
  <i name="date" type="string">2020 04 12 </i>
  <i name="time" type="string">16:00:37 </i>
 </generator>
 <incar>
  <i type="string" name="SYSTEM">"Millerite NiS"</i>
  <i type="int" name="NSIM">     4</i>
  <i type="int" name="NELM">   100</i>
  <i name="ENCUT">    450.00000000</i>
  <i type="string" name="LREAL">A</i>
  <i type="int" name="ISMEAR">     0</i>
  <i type="int" name="NWRITE">     2</i>
  <i type="logical" name="LWAVE"> F  </i>
  <i type="logical" name="LCHARG"> F  </i>
  <i type="int" name="NCORE">     6</i>
  <i type="int" name="NELM">   100</i>
 </incar>
 <structure name="primitive_cell" >
  <crystal>
   <varray name="basis" >
    <v>       9.42510255       3.57329804       0.00000000 </v>
    <v>       0.00000000      10.07973298       0.00000000 </v>
    <v>       0.00000000       0.00000000      20.51013988 </v>
   </varray>
   <i name="volume">   1948.51491473 </i>
   <varray name="rec_basis" >
    <v>       0.10609964       0.00000000       0.00000000 </v>
    <v>      -0.03761267       0.09920898       0.00000000 </v>
    <v>       0.00000000       0.00000000       0.04875637 </v>
   </varray>
  </crystal>
  <varray name="positions" >
   <v>       0.37433215       0.75136220       0.09511235 </v>
   <v>       0.52460066       0.60109368       0.22312232 </v>
   <v>       0.67486918       0.45082517       0.35113229 </v>
   <v>       0.82513769       0.30055666       0.47914226 </v>
   <v>       0.60748648       0.18487454       0.00977237 </v>
   <v>       0.75775499       0.03460603       0.13778234 </v>
   <v>       0.05829201       0.73406900       0.39380228 </v>
   <v>       0.90802350       0.88433751       0.26579231 </v>
   <v>       0.14117783       0.31784985       0.18045233 </v>
   <v>       0.29144634       0.16758134       0.30846230 </v>
   <v>       0.44171485       0.01731283       0.43647227 </v>
   <v>       0.99090931       0.46811837       0.05244236 </v>
   <v>       0.00994000       0.11575434       0.41150025 </v>
   <v>       0.55913447       0.56655988       0.02747034 </v>
   <v>       0.70940298       0.41629137       0.15548031 </v>
   <v>       0.85967149       0.26602286       0.28349028 </v>
   <v>       0.09282582       0.69953520       0.19815030 </v>
   <v>       0.24309433       0.54926668       0.32616027 </v>
   <v>       0.39336284       0.39899817       0.45417024 </v>
   <v>       0.94255730       0.84980371       0.07014033 </v>
   <v>       0.32598014       0.13304754       0.11281032 </v>
   <v>       0.47624865       0.98277903       0.24082029 </v>
   <v>       0.62651717       0.83251052       0.36883026 </v>
   <v>       0.77678568       0.68224200       0.49684023 </v>
   <v>       0.04964185       0.34025850       0.44532126 </v>
   <v>       0.59883631       0.79106404       0.06129134 </v>
   <v>       0.74910482       0.64079553       0.18930132 </v>
   <v>       0.89937333       0.49052701       0.31731129 </v>
   <v>       0.98225915       0.07430787       0.10396133 </v>
   <v>       0.13252766       0.92403935       0.23197131 </v>
   <v>       0.28279617       0.77377084       0.35998128 </v>
   <v>       0.43306468       0.62350233       0.48799125 </v>
   <v>       0.21541347       0.50782021       0.01862135 </v>
   <v>       0.36568198       0.35755170       0.14663132 </v>
   <v>       0.51595050       0.20728318       0.27464130 </v>
   <v>       0.66621901       0.05701467       0.40265127 </v>
   <v>       0.06382158       0.26208477       0.34135992 </v>
   <v>       0.21409009       0.11181626       0.46936989 </v>
   <v>       0.76328455       0.56262179       0.08533998 </v>
   <v>       0.91355307       0.41235328       0.21334995 </v>
   <v>       0.14670739       0.84586562       0.12800997 </v>
   <v>       0.29697590       0.69559711       0.25601994 </v>
   <v>       0.44724442       0.54532860       0.38402991 </v>
   <v>       0.59751293       0.39506009       0.51203988 </v>
   <v>       0.99643888       0.99613414       0.00000000 </v>
   <v>       0.53013023       0.12910945       0.17067996 </v>
   <v>       0.68039874       0.97884094       0.29868993 </v>
   <v>       0.83066725       0.82857243       0.42669990 </v>
   <v>       0.37769571       0.94821064       0.04346280 </v>
   <v>       0.52796422       0.79794212       0.17147277 </v>
   <v>       0.67823274       0.64767361       0.29948274 </v>
   <v>       0.82850125       0.49740510       0.42749271 </v>
   <v>       0.76111855       0.23145446       0.08613279 </v>
   <v>       0.91138706       0.08118595       0.21414276 </v>
   <v>       0.06165557       0.93091744       0.34215273 </v>
   <v>       0.21192409       0.78064893       0.47016270 </v>
   <v>       0.14454139       0.51469829       0.12880278 </v>
   <v>       0.29480990       0.36442978       0.25681275 </v>
   <v>       0.44507841       0.21416127       0.38482272 </v>
   <v>       0.99427287       0.66496681       0.00079281 </v>
   <v>       0.32714088       0.66233547       0.00039640 </v>
   <v>       0.47740939       0.51206696       0.12840637 </v>
   <v>       0.62767790       0.36179845       0.25641634 </v>
   <v>       0.77794641       0.21152993       0.38442631 </v>
   <v>       0.92821492       0.06126142       0.51243628 </v>
   <v>       0.01110074       0.64504228       0.29908633 </v>
   <v>       0.16136925       0.49477376       0.42709630 </v>
   <v>       0.86083223       0.79531079       0.17107636 </v>
   <v>       0.09398655       0.22882313       0.08573638 </v>
   <v>       0.24425506       0.07855462       0.21374635 </v>
   <v>       0.39452358       0.92828610       0.34175632 </v>
   <v>       0.54479209       0.77801759       0.46976629 </v>
  </varray>
 </structure>
 <varray name="primitive_index" >
  <v type="int" >        1 </v>
  <v type="int" >        2 </v>
  <v type="int" >        3 </v>
  <v type="int" >        4 </v>
  <v type="int" >        5 </v>
  <v type="int" >        6 </v>
  <v type="int" >        7 </v>
  <v type="int" >        8 </v>
  <v type="int" >        9 </v>
  <v type="int" >       10 </v>
  <v type="int" >       11 </v>
  <v type="int" >       12 </v>
  <v type="int" >       13 </v>
  <v type="int" >       14 </v>
  <v type="int" >       15 </v>
  <v type="int" >       16 </v>
  <v type="int" >       17 </v>
  <v type="int" >       18 </v>
  <v type="int" >       19 </v>
  <v type="int" >       20 </v>
  <v type="int" >       21 </v>
  <v type="int" >       22 </v>
  <v type="int" >       23 </v>
  <v type="int" >       24 </v>
  <v type="int" >       25 </v>
  <v type="int" >       26 </v>
  <v type="int" >       27 </v>
  <v type="int" >       28 </v>
  <v type="int" >       29 </v>
  <v type="int" >       30 </v>
  <v type="int" >       31 </v>
  <v type="int" >       32 </v>
  <v type="int" >       33 </v>
  <v type="int" >       34 </v>
  <v type="int" >       35 </v>
  <v type="int" >       36 </v>
  <v type="int" >       37 </v>
  <v type="int" >       38 </v>
  <v type="int" >       39 </v>
  <v type="int" >       40 </v>
  <v type="int" >       41 </v>
  <v type="int" >       42 </v>
  <v type="int" >       43 </v>
  <v type="int" >       44 </v>
  <v type="int" >       45 </v>
  <v type="int" >       46 </v>
  <v type="int" >       47 </v>
  <v type="int" >       48 </v>
  <v type="int" >       49 </v>
  <v type="int" >       50 </v>
  <v type="int" >       51 </v>
  <v type="int" >       52 </v>
  <v type="int" >       53 </v>
  <v type="int" >       54 </v>
  <v type="int" >       55 </v>
  <v type="int" >       56 </v>
  <v type="int" >       57 </v>
  <v type="int" >       58 </v>
  <v type="int" >       59 </v>
  <v type="int" >       60 </v>
  <v type="int" >       61 </v>
  <v type="int" >       62 </v>
  <v type="int" >       63 </v>
  <v type="int" >       64 </v>
  <v type="int" >       65 </v>
  <v type="int" >       66 </v>
  <v type="int" >       67 </v>
  <v type="int" >       68 </v>
  <v type="int" >       69 </v>
  <v type="int" >       70 </v>
  <v type="int" >       71 </v>
  <v type="int" >       72 </v>
 </varray>
 <kpoints>
  <generation param="Gamma">
   <v type="int" name="divisions">       1        1        1 </v>
   <v name="usershift">      0.00000000       0.00000000       0.00000000 </v>
   <v name="genvec1">      1.00000000       0.00000000       0.00000000 </v>
   <v name="genvec2">     -0.00000000       1.00000000       0.00000000 </v>
   <v name="genvec3">      0.00000000       0.00000000       1.00000000 </v>
   <v name="shift">      0.00000000       0.00000000       0.00000000 </v>
  </generation>
  <varray name="kpointlist" >
   <v>       0.00000000       0.00000000       0.00000000 </v>
  </varray>
  <varray name="weights" >
   <v>       1.00000000 </v>
  </varray>
 </kpoints>
 <parameters>
  <separator name="general" >
   <i type="string" name="SYSTEM">"Millerite NiS"</i>
   <i type="logical" name="LCOMPAT"> F  </i>
  </separator>
  <separator name="electronic" >
   <i type="string" name="PREC">normal</i>
   <i name="ENMAX">    450.00000000</i>
   <i name="ENAUG">    703.44300000</i>
   <i name="EDIFF">      0.00010000</i>
   <i type="int" name="IALGO">    38</i>
   <i type="int" name="IWAVPR">    10</i>
   <i type="int" name="NBANDS">   480</i>
   <i type="int" name="NBANDSLOW">    -1</i>
   <i type="int" name="NBANDSHIGH">    -1</i>
   <i name="NELECT">    792.00000000</i>
   <i type="int" name="TURBO">     0</i>
   <i type="int" name="IRESTART">     0</i>
   <i type="int" name="NREBOOT">     0</i>
   <i type="int" name="NMIN">     0</i>
   <i name="EREF">      0.00000000</i>
   <separator name="electronic smearing" >
    <i type="int" name="ISMEAR">     0</i>
    <i name="SIGMA">      0.20000000</i>
    <i name="KSPACING">      0.50000000</i>
    <i type="logical" name="KGAMMA"> T  </i>
    <i type="logical" name="KBLOWUP"> T  </i>
   </separator>
   <separator name="electronic projectors" >
    <i type="logical" name="LREAL"> T  </i>
    <v name="ROPT">     -0.00050000     -0.00050000</v>
    <i type="int" name="LMAXPAW">  -100</i>
    <i type="int" name="LMAXMIX">     2</i>
    <i type="logical" name="NLSPLINE"> F  </i>
   </separator>
   <separator name="electronic startup" >
    <i type="int" name="ISTART">     0</i>
    <i type="int" name="ICHARG">     2</i>
    <i type="int" name="INIWAV">     1</i>
   </separator>
   <separator name="electronic spin" >
    <i type="int" name="ISPIN">     1</i>
    <i type="logical" name="LNONCOLLINEAR"> F  </i>
    <v name="MAGMOM">      1.00000000      1.00000000      1.00000000      1.00000000      1.00000000      1.00000000      1.00000000      1.00000000      1.00000000      1.00000000      1.00000000      1.00000000      1.00000000      1.00000000      1.00000000      1.00000000      1.00000000      1.00000000      1.00000000      1.00000000
      1.00000000      1.00000000      1.00000000      1.00000000      1.00000000      1.00000000      1.00000000      1.00000000      1.00000000      1.00000000      1.00000000      1.00000000      1.00000000      1.00000000      1.00000000      1.00000000      1.00000000      1.00000000      1.00000000      1.00000000
      1.00000000      1.00000000      1.00000000      1.00000000      1.00000000      1.00000000      1.00000000      1.00000000      1.00000000      1.00000000      1.00000000      1.00000000      1.00000000      1.00000000      1.00000000      1.00000000      1.00000000      1.00000000      1.00000000      1.00000000
      1.00000000      1.00000000      1.00000000      1.00000000      1.00000000      1.00000000      1.00000000      1.00000000      1.00000000      1.00000000      1.00000000      1.00000000</v>
    <i name="NUPDOWN">     -1.00000000</i>
    <i type="logical" name="LSORBIT"> F  </i>
    <v name="SAXIS">      0.00000000      0.00000000      1.00000000</v>
    <i type="logical" name="LSPIRAL"> F  </i>
    <v name="QSPIRAL">      0.00000000      0.00000000      0.00000000</v>
    <i type="logical" name="LZEROZ"> F  </i>
   </separator>
   <separator name="electronic exchange-correlation" >
    <i type="logical" name="LASPH"> F  </i>
    <i type="logical" name="LMETAGGA"> F  </i>
   </separator>
   <separator name="electronic convergence" >
    <i type="int" name="NELM">   100</i>
    <i type="int" name="NELMDL">    -5</i>
    <i type="int" name="NELMIN">     2</i>
    <i name="ENINI">    450.00000000</i>
    <separator name="electronic convergence detail" >
     <i type="logical" name="LDIAG"> T  </i>
     <i type="logical" name="LSUBROT"> F  </i>
     <i name="WEIMIN">      0.00000000</i>
     <i name="EBREAK">      0.00000005</i>
     <i name="DEPER">      0.30000000</i>
     <i type="int" name="NRMM">     4</i>
     <i name="TIME">      0.40000000</i>
    </separator>
   </separator>
   <separator name="electronic mixer" >
    <i name="AMIX">      0.40000000</i>
    <i name="BMIX">      1.00000000</i>
    <i name="AMIN">      0.10000000</i>
    <i name="AMIX_MAG">      1.60000000</i>
    <i name="BMIX_MAG">      1.00000000</i>
    <separator name="electronic mixer details" >
     <i type="int" name="IMIX">     4</i>
     <i type="logical" name="MIXFIRST"> F  </i>
     <i type="int" name="MAXMIX">   -45</i>
     <i name="WC">    100.00000000</i>
     <i type="int" name="INIMIX">     1</i>
     <i type="int" name="MIXPRE">     1</i>
     <i type="int" name="MREMOVE">     5</i>
    </separator>
   </separator>
   <separator name="electronic dipolcorrection" >
    <i type="logical" name="LDIPOL"> F  </i>
    <i type="logical" name="LMONO"> F  </i>
    <i type="int" name="IDIPOL">     0</i>
    <i name="EPSILON">      1.00000000</i>
    <v name="DIPOL">   -100.00000000   -100.00000000   -100.00000000</v>
    <i name="EFIELD">      0.00000000</i>
   </separator>
  </separator>
  <separator name="grids" >
   <i type="int" name="NGX">    54</i>
   <i type="int" name="NGY">    54</i>
   <i type="int" name="NGZ">   108</i>
   <i type="int" name="NGXF">   108</i>
   <i type="int" name="NGYF">   108</i>
   <i type="int" name="NGZF">   216</i>
   <i type="logical" name="ADDGRID"> F  </i>
  </separator>
  <separator name="ionic" >
   <i type="int" name="NSW">     0</i>
   <i type="int" name="IBRION">    -1</i>
   <i type="int" name="MDALGO">     0</i>
   <i type="int" name="ISIF">     2</i>
   <i name="PSTRESS">      0.00000000</i>
   <i name="EDIFFG">      0.00100000</i>
   <i type="int" name="NFREE">     0</i>
   <i name="POTIM">      0.50000000</i>
   <i name="SMASS">     -3.00000000</i>
   <i name="SCALEE">      1.00000000</i>
  </separator>
  <separator name="ionic md" >
   <i name="TEBEG">      0.00010000</i>
   <i name="TEEND">      0.00010000</i>
   <i type="int" name="NBLOCK">     1</i>
   <i type="int" name="KBLOCK">     1</i>
   <i type="int" name="NPACO">   256</i>
   <i name="APACO">     16.00000000</i>
  </separator>
  <separator name="symmetry" >
   <i type="int" name="ISYM">     2</i>
   <i name="SYMPREC">      0.00001000</i>
  </separator>
  <separator name="dos" >
   <i type="int" name="LORBIT">     0</i>
   <v name="RWIGS">     -1.00000000     -1.00000000</v>
   <i type="int" name="NEDOS">   301</i>
   <i name="EMIN">     10.00000000</i>
   <i name="EMAX">    -10.00000000</i>
   <i name="EFERMI">      0.00000000</i>
  </separator>
  <separator name="writing" >
   <i type="int" name="NWRITE">     2</i>
   <i type="logical" name="LWAVE"> F  </i>
   <i type="logical" name="LDOWNSAMPLE"> F  </i>
   <i type="logical" name="LCHARG"> F  </i>
   <i type="logical" name="LPARD"> F  </i>
   <i type="logical" name="LVTOT"> F  </i>
   <i type="logical" name="LVHAR"> F  </i>
   <i type="logical" name="LELF"> F  </i>
   <i type="logical" name="LOPTICS"> F  </i>
   <v name="STM">      0.00000000      0.00000000      0.00000000      0.00000000      0.00000000      0.00000000      0.00000000</v>
  </separator>
  <separator name="performance" >
   <i type="int" name="NPAR">     8</i>
   <i type="int" name="NSIM">     4</i>
   <i type="int" name="NBLK">    -1</i>
   <i type="logical" name="LPLANE"> T  </i>
   <i type="logical" name="LSCALAPACK"> T  </i>
   <i type="logical" name="LSCAAWARE"> F  </i>
   <i type="logical" name="LSCALU"> F  </i>
   <i type="logical" name="LASYNC"> F  </i>
   <i type="logical" name="LORBITALREAL"> F  </i>
  </separator>
  <separator name="miscellaneous" >
   <i type="int" name="IDIOT">     3</i>
   <i type="int" name="PHON_NSTRUCT">    -1</i>
   <i type="logical" name="LMUSIC"> F  </i>
   <v name="POMASS">     58.69000000     32.06600000</v>
   <v name="DARWINR">      0.00000000      0.00000000</v>
   <v name="DARWINV">      1.00000000      1.00000000</v>
   <i type="logical" name="LCORR"> T  </i>
  </separator>
  <i type="logical" name="GGA_COMPAT"> T  </i>
  <i type="logical" name="LBERRY"> F  </i>
  <i type="int" name="ICORELEVEL">     0</i>
  <i type="logical" name="LDAU"> F  </i>
  <i type="int" name="I_CONSTRAINED_M">     0</i>
  <separator name="electronic exchange-correlation" >
   <i type="string" name="GGA">--</i>
   <i type="int" name="VOSKOWN">     0</i>
   <i type="logical" name="LHFCALC"> F  </i>
   <i type="string" name="PRECFOCK"></i>
   <i type="logical" name="LSYMGRAD"> F  </i>
   <i type="logical" name="LHFONE"> F  </i>
   <i type="logical" name="LRHFCALC"> F  </i>
   <i type="logical" name="LTHOMAS"> F  </i>
   <i type="logical" name="LMODELHF"> F  </i>
   <i type="logical" name="LFOCKACE"> F  </i>
   <i name="ENCUT4O">     -1.00000000</i>
   <i type="int" name="EXXOEP">     0</i>
   <i type="int" name="FOURORBIT">     0</i>
   <i name="AEXX">      0.00000000</i>
   <i name="HFALPHA">      0.00000000</i>
   <i name="MCALPHA">      0.00000000</i>
   <i name="ALDAX">      1.00000000</i>
   <i name="AGGAX">      1.00000000</i>
   <i name="ALDAC">      1.00000000</i>
   <i name="AGGAC">      1.00000000</i>
   <i type="int" name="NKREDX">     1</i>
   <i type="int" name="NKREDY">     1</i>
   <i type="int" name="NKREDZ">     1</i>
   <i type="logical" name="SHIFTRED"> F  </i>
   <i type="logical" name="ODDONLY"> F  </i>
   <i type="logical" name="EVENONLY"> F  </i>
   <i type="int" name="LMAXFOCK">     0</i>
   <i type="int" name="NMAXFOCKAE">     0</i>
   <i type="logical" name="LFOCKAEDFT"> F  </i>
   <i name="HFSCREEN">      0.00000000</i>
   <i name="HFSCREENC">      0.00000000</i>
   <i type="int" name="NBANDSGWLOW">     0</i>
  </separator>
  <separator name="vdW DFT" >
   <i type="logical" name="LUSE_VDW"> F  </i>
   <i name="Zab_VDW">     -0.84910000</i>
   <i name="PARAM1">      0.12340000</i>
   <i name="PARAM2">      1.00000000</i>
   <i name="PARAM3">      0.00000000</i>
  </separator>
  <separator name="model GW" >
   <i type="int" name="MODEL_GW">     0</i>
   <i name="MODEL_EPS0">     16.23762429</i>
   <i name="MODEL_ALPHA">      1.00000000</i>
  </separator>
  <separator name="linear response parameters" >
   <i type="logical" name="LEPSILON"> F  </i>
   <i type="logical" name="LRPA"> F  </i>
   <i type="logical" name="LNABLA"> F  </i>
   <i type="logical" name="LVEL"> F  </i>
   <i type="int" name="KINTER">     0</i>
   <i name="CSHIFT">      0.10000000</i>
   <i name="OMEGAMAX">     -1.00000000</i>
   <i name="DEG_THRESHOLD">      0.00200000</i>
   <i name="RTIME">     -0.10000000</i>
   <i name="WPLASMAI">      0.00000000</i>
   <v name="DFIELD">      0.00000000      0.00000000      0.00000000</v>
   <v name="WPLASMA">      0.00000000      0.00000000      0.00000000      0.00000000      0.00000000      0.00000000      0.00000000      0.00000000      0.00000000</v>
  </separator>
  <separator name="orbital magnetization" >
   <i type="logical" name="NUCIND"> F  </i>
   <v name="MAGPOS">      0.00000000      0.00000000      0.00000000</v>
   <i type="logical" name="LNICSALL"> T  </i>
   <i type="logical" name="ORBITALMAG"> F  </i>
   <i type="logical" name="LMAGBLOCH"> F  </i>
   <i type="logical" name="LCHIMAG"> F  </i>
   <i type="logical" name="LGAUGE"> T  </i>
   <i type="int" name="MAGATOM">     0</i>
   <v name="MAGDIPOL">      0.00000000      0.00000000      0.00000000</v>
   <v name="AVECCONST">      0.00000000      0.00000000      0.00000000</v>
  </separator>
  <separator name="response functions" >
   <i type="logical" name="LFINITE_TEMPERATURE"> F  </i>
   <i type="logical" name="LADDER"> F  </i>
   <i type="logical" name="LRPAFORCE"> F  </i>
   <i type="logical" name="LFXC"> F  </i>
   <i type="logical" name="LHARTREE"> T  </i>
   <i type="int" name="IBSE">     0</i>
   <v type="int" name="KPOINT">    -1     0     0     0</v>
   <i type="logical" name="LTCTC"> F  </i>
   <i type="logical" name="LTCTE"> F  </i>
   <i type="logical" name="LTETE"> F  </i>
   <i type="logical" name="LTRIPLET"> F  </i>
   <i type="logical" name="LFXCEPS"> F  </i>
   <i type="logical" name="LFXHEG"> F  </i>
   <i type="int" name="NATURALO">     2</i>
   <i type="logical" name="LHOLEGF"> F  </i>
   <i type="logical" name="L2ORDER"> F  </i>
   <i type="logical" name="LDMP1"> F  </i>
   <i type="logical" name="LMP2LT"> F  </i>
   <i type="logical" name="LSMP2LT"> F  </i>
   <i type="logical" name="LGWLF"> F  </i>
   <i name="ENCUTGW">     -2.00000000</i>
   <i name="ENCUTGWSOFT">     -2.00000000</i>
   <i name="ENCUTLF">     -1.00000000</i>
   <i type="logical" name="LESF_SPLINES"> F  </i>
   <i type="int" name="LMAXMP2">    -1</i>
   <i name="SCISSOR">      0.00000000</i>
   <i type="int" name="NOMEGA">     0</i>
   <i type="int" name="NOMEGAR">     0</i>
   <i type="int" name="NBANDSGW">    -1</i>
   <i type="int" name="NBANDSO">    -1</i>
   <i type="int" name="NBANDSV">    -1</i>
   <i type="int" name="NELM">   100</i>
   <i type="int" name="NELMHF">     1</i>
   <i type="int" name="DIM">     3</i>
   <i type="int" name="IESPILON">     4</i>
   <i type="int" name="ANTIRES">     0</i>
   <i name="OMEGAMAX">    -30.00000000</i>
   <i name="OMEGAMIN">    -30.00000000</i>
   <i name="OMEGATL">   -200.00000000</i>
   <i type="int" name="OMEGAGRID">     0</i>
   <i name="CSHIFT">     -0.10000000</i>
   <i type="logical" name="LSELFENERGY"> F  </i>
   <i type="logical" name="LSPECTRAL"> F  </i>
   <i type="logical" name="LSPECTRALGW"> F  </i>
   <i type="logical" name="LSINGLES"> F  </i>
   <i type="logical" name="LFERMIGW"> F  </i>
   <i type="logical" name="ODDONLYGW"> F  </i>
   <i type="logical" name="EVENONLYGW"> F  </i>
   <i type="int" name="NKREDLFX">     1</i>
   <i type="int" name="NKREDLFY">     1</i>
   <i type="int" name="NKREDLFZ">     1</i>
   <i type="int" name="MAXMEM">  2800</i>
   <i type="int" name="TELESCOPE">     0</i>
   <i type="int" name="NTAUPAR">    -1</i>
   <i type="int" name="NOMEGAPAR">    -1</i>
   <i name="LAMBDA">      1.00000000</i>
  </separator>
  <separator name="External order field" >
   <i name="OFIELD_KAPPA">      0.00000000</i>
   <v name="OFIELD_K">      0.00000000      0.00000000      0.00000000</v>
   <i name="OFIELD_Q6_NEAR">      0.00000000</i>
   <i name="OFIELD_Q6_FAR">      0.00000000</i>
   <i name="OFIELD_A">      0.00000000</i>
  </separator>
 </parameters>
 <atominfo>
  <atoms>      72 </atoms>
  <types>       2 </types>
  <array name="atoms" >
   <dimension dim="1">ion</dimension>
   <field type="string">element</field>
   <field type="int">atomtype</field>
   <set>
    <rc><c>Ni</c><c>   1</c></rc>
    <rc><c>Ni</c><c>   1</c></rc>
    <rc><c>Ni</c><c>   1</c></rc>
    <rc><c>Ni</c><c>   1</c></rc>
    <rc><c>Ni</c><c>   1</c></rc>
    <rc><c>Ni</c><c>   1</c></rc>
    <rc><c>Ni</c><c>   1</c></rc>
    <rc><c>Ni</c><c>   1</c></rc>
    <rc><c>Ni</c><c>   1</c></rc>
    <rc><c>Ni</c><c>   1</c></rc>
    <rc><c>Ni</c><c>   1</c></rc>
    <rc><c>Ni</c><c>   1</c></rc>
    <rc><c>Ni</c><c>   1</c></rc>
    <rc><c>Ni</c><c>   1</c></rc>
    <rc><c>Ni</c><c>   1</c></rc>
    <rc><c>Ni</c><c>   1</c></rc>
    <rc><c>Ni</c><c>   1</c></rc>
    <rc><c>Ni</c><c>   1</c></rc>
    <rc><c>Ni</c><c>   1</c></rc>
    <rc><c>Ni</c><c>   1</c></rc>
    <rc><c>Ni</c><c>   1</c></rc>
    <rc><c>Ni</c><c>   1</c></rc>
    <rc><c>Ni</c><c>   1</c></rc>
    <rc><c>Ni</c><c>   1</c></rc>
    <rc><c>Ni</c><c>   1</c></rc>
    <rc><c>Ni</c><c>   1</c></rc>
    <rc><c>Ni</c><c>   1</c></rc>
    <rc><c>Ni</c><c>   1</c></rc>
    <rc><c>Ni</c><c>   1</c></rc>
    <rc><c>Ni</c><c>   1</c></rc>
    <rc><c>Ni</c><c>   1</c></rc>
    <rc><c>Ni</c><c>   1</c></rc>
    <rc><c>Ni</c><c>   1</c></rc>
    <rc><c>Ni</c><c>   1</c></rc>
    <rc><c>Ni</c><c>   1</c></rc>
    <rc><c>Ni</c><c>   1</c></rc>
    <rc><c>S </c><c>   2</c></rc>
    <rc><c>S </c><c>   2</c></rc>
    <rc><c>S </c><c>   2</c></rc>
    <rc><c>S </c><c>   2</c></rc>
    <rc><c>S </c><c>   2</c></rc>
    <rc><c>S </c><c>   2</c></rc>
    <rc><c>S </c><c>   2</c></rc>
    <rc><c>S </c><c>   2</c></rc>
    <rc><c>S </c><c>   2</c></rc>
    <rc><c>S </c><c>   2</c></rc>
    <rc><c>S </c><c>   2</c></rc>
    <rc><c>S </c><c>   2</c></rc>
    <rc><c>S </c><c>   2</c></rc>
    <rc><c>S </c><c>   2</c></rc>
    <rc><c>S </c><c>   2</c></rc>
    <rc><c>S </c><c>   2</c></rc>
    <rc><c>S </c><c>   2</c></rc>
    <rc><c>S </c><c>   2</c></rc>
    <rc><c>S </c><c>   2</c></rc>
    <rc><c>S </c><c>   2</c></rc>
    <rc><c>S </c><c>   2</c></rc>
    <rc><c>S </c><c>   2</c></rc>
    <rc><c>S </c><c>   2</c></rc>
    <rc><c>S </c><c>   2</c></rc>
    <rc><c>S </c><c>   2</c></rc>
    <rc><c>S </c><c>   2</c></rc>
    <rc><c>S </c><c>   2</c></rc>
    <rc><c>S </c><c>   2</c></rc>
    <rc><c>S </c><c>   2</c></rc>
    <rc><c>S </c><c>   2</c></rc>
    <rc><c>S </c><c>   2</c></rc>
    <rc><c>S </c><c>   2</c></rc>
    <rc><c>S </c><c>   2</c></rc>
    <rc><c>S </c><c>   2</c></rc>
    <rc><c>S </c><c>   2</c></rc>
    <rc><c>S </c><c>   2</c></rc>
   </set>
  </array>
  <array name="atomtypes" >
   <dimension dim="1">type</dimension>
   <field type="int">atomspertype</field>
   <field type="string">element</field>
   <field>mass</field>
   <field>valence</field>
   <field type="string">pseudopotential</field>
   <set>
    <rc><c>  36</c><c>Ni</c><c>     58.69000000</c><c>     16.00000000</c><c>  PAW_PBE Ni_pv 06Sep2000               </c></rc>
    <rc><c>  36</c><c>S </c><c>     32.06600000</c><c>      6.00000000</c><c>  PAW_PBE S 06Sep2000                   </c></rc>
   </set>
  </array>
 </atominfo>
 <structure name="initialpos" >
  <crystal>
   <varray name="basis" >
    <v>       9.42510255       3.57329804       0.00000000 </v>
    <v>       0.00000000      10.07973298       0.00000000 </v>
    <v>       0.00000000       0.00000000      20.51013988 </v>
   </varray>
   <i name="volume">   1948.51491473 </i>
   <varray name="rec_basis" >
    <v>       0.10609964       0.00000000       0.00000000 </v>
    <v>      -0.03761267       0.09920898       0.00000000 </v>
    <v>       0.00000000       0.00000000       0.04875637 </v>
   </varray>
  </crystal>
  <varray name="positions" >
   <v>       0.37433215       0.75136220       0.09511235 </v>
   <v>       0.52460066       0.60109368       0.22312232 </v>
   <v>       0.67486918       0.45082517       0.35113229 </v>
   <v>       0.82513769       0.30055666       0.47914226 </v>
   <v>       0.60748648       0.18487454       0.00977237 </v>
   <v>       0.75775499       0.03460603       0.13778234 </v>
   <v>       0.05829201       0.73406900       0.39380228 </v>
   <v>       0.90802350       0.88433751       0.26579231 </v>
   <v>       0.14117783       0.31784985       0.18045233 </v>
   <v>       0.29144634       0.16758134       0.30846230 </v>
   <v>       0.44171485       0.01731283       0.43647227 </v>
   <v>       0.99090931       0.46811837       0.05244236 </v>
   <v>       0.00994000       0.11575434       0.41150025 </v>
   <v>       0.55913447       0.56655988       0.02747034 </v>
   <v>       0.70940298       0.41629137       0.15548031 </v>
   <v>       0.85967149       0.26602286       0.28349028 </v>
   <v>       0.09282582       0.69953520       0.19815030 </v>
   <v>       0.24309433       0.54926668       0.32616027 </v>
   <v>       0.39336284       0.39899817       0.45417024 </v>
   <v>       0.94255730       0.84980371       0.07014033 </v>
   <v>       0.32598014       0.13304754       0.11281032 </v>
   <v>       0.47624865       0.98277903       0.24082029 </v>
   <v>       0.62651717       0.83251052       0.36883026 </v>
   <v>       0.77678568       0.68224200       0.49684023 </v>
   <v>       0.04964185       0.34025850       0.44532126 </v>
   <v>       0.59883631       0.79106404       0.06129134 </v>
   <v>       0.74910482       0.64079553       0.18930132 </v>
   <v>       0.89937333       0.49052701       0.31731129 </v>
   <v>       0.98225915       0.07430787       0.10396133 </v>
   <v>       0.13252766       0.92403935       0.23197131 </v>
   <v>       0.28279617       0.77377084       0.35998128 </v>
   <v>       0.43306468       0.62350233       0.48799125 </v>
   <v>       0.21541347       0.50782021       0.01862135 </v>
   <v>       0.36568198       0.35755170       0.14663132 </v>
   <v>       0.51595050       0.20728318       0.27464130 </v>
   <v>       0.66621901       0.05701467       0.40265127 </v>
   <v>       0.06382158       0.26208477       0.34135992 </v>
   <v>       0.21409009       0.11181626       0.46936989 </v>
   <v>       0.76328455       0.56262179       0.08533998 </v>
   <v>       0.91355307       0.41235328       0.21334995 </v>
   <v>       0.14670739       0.84586562       0.12800997 </v>
   <v>       0.29697590       0.69559711       0.25601994 </v>
   <v>       0.44724442       0.54532860       0.38402991 </v>
   <v>       0.59751293       0.39506009       0.51203988 </v>
   <v>       0.99643888       0.99613414       0.00000000 </v>
   <v>       0.53013023       0.12910945       0.17067996 </v>
   <v>       0.68039874       0.97884094       0.29868993 </v>
   <v>       0.83066725       0.82857243       0.42669990 </v>
   <v>       0.37769571       0.94821064       0.04346280 </v>
   <v>       0.52796422       0.79794212       0.17147277 </v>
   <v>       0.67823274       0.64767361       0.29948274 </v>
   <v>       0.82850125       0.49740510       0.42749271 </v>
   <v>       0.76111855       0.23145446       0.08613279 </v>
   <v>       0.91138706       0.08118595       0.21414276 </v>
   <v>       0.06165557       0.93091744       0.34215273 </v>
   <v>       0.21192409       0.78064893       0.47016270 </v>
   <v>       0.14454139       0.51469829       0.12880278 </v>
   <v>       0.29480990       0.36442978       0.25681275 </v>
   <v>       0.44507841       0.21416127       0.38482272 </v>
   <v>       0.99427287       0.66496681       0.00079281 </v>
   <v>       0.32714088       0.66233547       0.00039640 </v>
   <v>       0.47740939       0.51206696       0.12840637 </v>
   <v>       0.62767790       0.36179845       0.25641634 </v>
   <v>       0.77794641       0.21152993       0.38442631 </v>
   <v>       0.92821492       0.06126142       0.51243628 </v>
   <v>       0.01110074       0.64504228       0.29908633 </v>
   <v>       0.16136925       0.49477376       0.42709630 </v>
   <v>       0.86083223       0.79531079       0.17107636 </v>
   <v>       0.09398655       0.22882313       0.08573638 </v>
   <v>       0.24425506       0.07855462       0.21374635 </v>
   <v>       0.39452358       0.92828610       0.34175632 </v>
   <v>       0.54479209       0.77801759       0.46976629 </v>
  </varray>
 </structure>
 <calculation>
  <scstep>
   <time name="dav">    2.01    2.02</time>
   <time name="total">    2.06    2.08</time>
   <energy>
    <i name="alphaZ">   1909.09476555 </i>
    <i name="ewald"> 162991.18276363 </i>
    <i name="hartreedc">-285633.49762500 </i>
    <i name="XCdc">   3651.25816567 </i>
    <i name="pawpsdc"> 112729.53333415 </i>
    <i name="pawaedc">-117641.51188735 </i>
    <i name="eentropy">     -0.39208430 </i>
    <i name="bandstr">  -4193.29872620 </i>
    <i name="atom"> 136002.60505376 </i>
    <i name="e_fr_energy">   9814.97375991 </i>
    <i name="e_wo_entrp">   9815.36584421 </i>
    <i name="e_0_energy">   9815.16980206 </i>
   </energy>
  </scstep>
  <scstep>
   <time name="dav">    1.76    1.77</time>
   <time name="total">    1.76    1.77</time>
   <energy>
    <i name="e_fr_energy">    638.35927645 </i>
    <i name="e_wo_entrp">    639.14089784 </i>
    <i name="e_0_energy">    638.75008715 </i>
   </energy>
  </scstep>
  <scstep>
   <time name="dav">    1.88    1.89</time>
   <time name="total">    1.88    1.89</time>
   <energy>
    <i name="e_fr_energy">   -338.67261533 </i>
    <i name="e_wo_entrp">   -337.49418306 </i>
    <i name="e_0_energy">   -338.08339920 </i>
   </energy>
  </scstep>
  <scstep>
   <time name="dav">    1.89    1.90</time>
   <time name="total">    1.89    1.90</time>
   <energy>
    <i name="e_fr_energy">   -403.80492041 </i>
    <i name="e_wo_entrp">   -402.53123224 </i>
    <i name="e_0_energy">   -403.16807632 </i>
   </energy>
  </scstep>
  <scstep>
   <time name="dav">    2.06    2.07</time>
   <time name="total">    2.11    2.11</time>
   <energy>
    <i name="e_fr_energy">   -406.60877867 </i>
    <i name="e_wo_entrp">   -405.34639409 </i>
    <i name="e_0_energy">   -405.97758638 </i>
   </energy>
  </scstep>
  <scstep>
   <time name="dav">    1.95    1.96</time>
   <time name="total">    2.04    2.05</time>
   <energy>
    <i name="e_fr_energy">   -500.70836002 </i>
    <i name="e_wo_entrp">   -499.80032029 </i>
    <i name="e_0_energy">   -500.25434016 </i>
   </energy>
  </scstep>
  <scstep>
   <time name="dav">    1.95    1.95</time>
   <time name="total">    2.03    2.04</time>
   <energy>
    <i name="e_fr_energy">   -406.55183868 </i>
    <i name="e_wo_entrp">   -405.49633834 </i>
    <i name="e_0_energy">   -406.02408851 </i>
   </energy>
  </scstep>
  <scstep>
   <time name="dav">    2.21    2.22</time>
   <time name="total">    2.30    2.31</time>
   <energy>
    <i name="e_fr_energy">   -405.81599734 </i>
    <i name="e_wo_entrp">   -404.46821478 </i>
    <i name="e_0_energy">   -405.14210606 </i>
   </energy>
  </scstep>
  <scstep>
   <time name="dav">    1.96    1.97</time>
   <time name="total">    2.05    2.06</time>
   <energy>
    <i name="e_fr_energy">   -404.57351038 </i>
    <i name="e_wo_entrp">   -403.26720741 </i>
    <i name="e_0_energy">   -403.92035890 </i>
   </energy>
  </scstep>
  <scstep>
   <time name="dav">    2.10    2.10</time>
   <time name="total">    2.18    2.19</time>
   <energy>
    <i name="e_fr_energy">   -419.78777816 </i>
    <i name="e_wo_entrp">   -418.62440549 </i>
    <i name="e_0_energy">   -419.20609183 </i>
   </energy>
  </scstep>
  <scstep>
   <time name="dav">    2.11    2.12</time>
   <time name="total">    2.20    2.21</time>
   <energy>
    <i name="e_fr_energy">   -394.77570232 </i>
    <i name="e_wo_entrp">   -393.61640419 </i>
    <i name="e_0_energy">   -394.19605325 </i>
   </energy>
  </scstep>
  <scstep>
   <time name="dav">    2.24    2.25</time>
   <time name="total">    2.33    2.33</time>
   <energy>
    <i name="e_fr_energy">   -394.27558370 </i>
    <i name="e_wo_entrp">   -393.03289302 </i>
    <i name="e_0_energy">   -393.65423836 </i>
   </energy>
  </scstep>
  <scstep>
   <time name="dav">    2.16    2.17</time>
   <time name="total">    2.25    2.25</time>
   <energy>
    <i name="e_fr_energy">   -400.20078550 </i>
    <i name="e_wo_entrp">   -399.10989388 </i>
    <i name="e_0_energy">   -399.65533969 </i>
   </energy>
  </scstep>
  <scstep>
   <time name="dav">    2.14    2.15</time>
   <time name="total">    2.23    2.24</time>
   <energy>
    <i name="e_fr_energy">   -369.66211221 </i>
    <i name="e_wo_entrp">   -368.59750818 </i>
    <i name="e_0_energy">   -369.12981019 </i>
   </energy>
  </scstep>
  <scstep>
   <time name="dav">    2.17    2.18</time>
   <time name="total">    2.26    2.27</time>
   <energy>
    <i name="e_fr_energy">   -365.75319432 </i>
    <i name="e_wo_entrp">   -364.71098039 </i>
    <i name="e_0_energy">   -365.23208736 </i>
   </energy>
  </scstep>
  <scstep>
   <time name="dav">    2.11    2.12</time>
   <time name="total">    2.20    2.21</time>
   <energy>
    <i name="e_fr_energy">   -362.05518877 </i>
    <i name="e_wo_entrp">   -360.99472617 </i>
    <i name="e_0_energy">   -361.52495747 </i>
   </energy>
  </scstep>
  <scstep>
   <time name="dav">    2.13    2.13</time>
   <time name="total">    2.22    2.22</time>
   <energy>
    <i name="e_fr_energy">   -360.56659468 </i>
    <i name="e_wo_entrp">   -359.49230518 </i>
    <i name="e_0_energy">   -360.02944993 </i>
   </energy>
  </scstep>
  <scstep>
   <time name="dav">    2.07    2.07</time>
   <time name="total">    2.16    2.16</time>
   <energy>
    <i name="e_fr_energy">   -359.46681126 </i>
    <i name="e_wo_entrp">   -358.42928558 </i>
    <i name="e_0_energy">   -358.94804842 </i>
   </energy>
  </scstep>
  <scstep>
   <time name="dav">    2.09    2.09</time>
   <time name="total">    2.18    2.18</time>
   <energy>
    <i name="e_fr_energy">   -358.76987561 </i>
    <i name="e_wo_entrp">   -357.71731660 </i>
    <i name="e_0_energy">   -358.24359611 </i>
   </energy>
  </scstep>
  <scstep>
   <time name="dav">    2.41    2.42</time>
   <time name="total">    2.51    2.51</time>
   <energy>
    <i name="e_fr_energy">   -356.99126860 </i>
    <i name="e_wo_entrp">   -355.81562779 </i>
    <i name="e_0_energy">   -356.40344819 </i>
   </energy>
  </scstep>
  <scstep>
   <time name="dav">    2.16    2.17</time>
   <time name="total">    2.25    2.26</time>
   <energy>
    <i name="e_fr_energy">   -356.29767623 </i>
    <i name="e_wo_entrp">   -355.15993369 </i>
    <i name="e_0_energy">   -355.72880496 </i>
   </energy>
  </scstep>
  <scstep>
   <time name="dav">    2.13    2.14</time>
   <time name="total">    2.22    2.23</time>
   <energy>
    <i name="e_fr_energy">   -355.90827323 </i>
    <i name="e_wo_entrp">   -354.71875520 </i>
    <i name="e_0_energy">   -355.31351422 </i>
   </energy>
  </scstep>
  <scstep>
   <time name="dav">    2.11    2.12</time>
   <time name="total">    2.20    2.21</time>
   <energy>
    <i name="e_fr_energy">   -356.11862794 </i>
    <i name="e_wo_entrp">   -355.00057997 </i>
    <i name="e_0_energy">   -355.55960396 </i>
   </energy>
  </scstep>
  <scstep>
   <time name="dav">    2.03    2.04</time>
   <time name="total">    2.12    2.13</time>
   <energy>
    <i name="e_fr_energy">   -355.88065369 </i>
    <i name="e_wo_entrp">   -354.76867774 </i>
    <i name="e_0_energy">   -355.32466571 </i>
   </energy>
  </scstep>
  <scstep>
   <time name="dav">    2.17    2.17</time>
   <time name="total">    2.26    2.27</time>
   <energy>
    <i name="e_fr_energy">   -356.19538172 </i>
    <i name="e_wo_entrp">   -354.98218233 </i>
    <i name="e_0_energy">   -355.58878203 </i>
   </energy>
  </scstep>
  <scstep>
   <time name="dav">    2.17    2.18</time>
   <time name="total">    2.27    2.27</time>
   <energy>
    <i name="e_fr_energy">   -356.06964223 </i>
    <i name="e_wo_entrp">   -354.95439169 </i>
    <i name="e_0_energy">   -355.51201696 </i>
   </energy>
  </scstep>
  <scstep>
   <time name="dav">    2.16    2.17</time>
   <time name="total">    2.26    2.26</time>
   <energy>
    <i name="e_fr_energy">   -355.91948273 </i>
    <i name="e_wo_entrp">   -354.78664056 </i>
    <i name="e_0_energy">   -355.35306164 </i>
   </energy>
  </scstep>
  <scstep>
   <time name="dav">    2.10    2.11</time>
   <time name="total">    2.20    2.21</time>
   <energy>
    <i name="e_fr_energy">   -355.86546821 </i>
    <i name="e_wo_entrp">   -354.71416930 </i>
    <i name="e_0_energy">   -355.28981876 </i>
   </energy>
  </scstep>
  <scstep>
   <time name="dav">    2.12    2.13</time>
   <time name="total">    2.22    2.22</time>
   <energy>
    <i name="e_fr_energy">   -355.79570657 </i>
    <i name="e_wo_entrp">   -354.71506969 </i>
    <i name="e_0_energy">   -355.25538813 </i>
   </energy>
  </scstep>
  <scstep>
   <time name="dav">    2.11    2.11</time>
   <time name="total">    2.20    2.21</time>
   <energy>
    <i name="e_fr_energy">   -355.79475629 </i>
    <i name="e_wo_entrp">   -354.69797079 </i>
    <i name="e_0_energy">   -355.24636354 </i>
   </energy>
  </scstep>
  <scstep>
   <time name="dav">    2.16    2.16</time>
   <time name="total">    2.25    2.26</time>
   <energy>
    <i name="e_fr_energy">   -355.75217677 </i>
    <i name="e_wo_entrp">   -354.64688303 </i>
    <i name="e_0_energy">   -355.19952990 </i>
   </energy>
  </scstep>
  <scstep>
   <time name="dav">    2.11    2.11</time>
   <time name="total">    2.20    2.21</time>
   <energy>
    <i name="e_fr_energy">   -355.74586808 </i>
    <i name="e_wo_entrp">   -354.63554601 </i>
    <i name="e_0_energy">   -355.19070704 </i>
   </energy>
  </scstep>
  <scstep>
   <time name="dav">    2.19    2.20</time>
   <time name="total">    2.29    2.29</time>
   <energy>
    <i name="e_fr_energy">   -355.72651811 </i>
    <i name="e_wo_entrp">   -354.59947406 </i>
    <i name="e_0_energy">   -355.16299608 </i>
   </energy>
  </scstep>
  <scstep>
   <time name="dav">    2.14    2.15</time>
   <time name="total">    2.24    2.24</time>
   <energy>
    <i name="e_fr_energy">   -355.72679255 </i>
    <i name="e_wo_entrp">   -354.60589974 </i>
    <i name="e_0_energy">   -355.16634615 </i>
   </energy>
  </scstep>
  <scstep>
   <time name="dav">    2.14    2.15</time>
   <time name="total">    2.24    2.24</time>
   <energy>
    <i name="e_fr_energy">   -355.71985385 </i>
    <i name="e_wo_entrp">   -354.60297875 </i>
    <i name="e_0_energy">   -355.16141630 </i>
   </energy>
  </scstep>
  <scstep>
   <time name="dav">    2.16    2.16</time>
   <time name="total">    2.25    2.26</time>
   <energy>
    <i name="e_fr_energy">   -355.71770918 </i>
    <i name="e_wo_entrp">   -354.58403726 </i>
    <i name="e_0_energy">   -355.15087322 </i>
   </energy>
  </scstep>
  <scstep>
   <time name="dav">    1.98    1.98</time>
   <time name="total">    2.07    2.08</time>
   <energy>
    <i name="e_fr_energy">   -355.71758935 </i>
    <i name="e_wo_entrp">   -354.58465240 </i>
    <i name="e_0_energy">   -355.15112087 </i>
   </energy>
  </scstep>
  <scstep>
   <time name="dav">    1.69    1.69</time>
   <time name="total">    1.78    1.79</time>
   <energy>
    <i name="e_fr_energy">   -355.71720611 </i>
    <i name="e_wo_entrp">   -354.58362669 </i>
    <i name="e_0_energy">   -355.15041640 </i>
   </energy>
  </scstep>
  <scstep>
   <time name="dav">    1.49    1.49</time>
   <time name="total">    1.58    1.59</time>
   <energy>
    <i name="e_fr_energy">   -355.71756761 </i>
    <i name="e_wo_entrp">   -354.59045567 </i>
    <i name="e_0_energy">   -355.15401164 </i>
   </energy>
  </scstep>
  <scstep>
   <time name="dav">    1.32    1.33</time>
   <time name="total">    1.42    1.43</time>
   <energy>
    <i name="e_fr_energy">   -355.71732921 </i>
    <i name="e_wo_entrp">   -354.58726998 </i>
    <i name="e_0_energy">   -355.15229959 </i>
   </energy>
  </scstep>
  <scstep>
   <time name="dav">    1.38    1.39</time>
   <time name="total">    1.48    1.49</time>
   <energy>
    <i name="e_fr_energy">   -355.71743399 </i>
    <i name="e_wo_entrp">   -354.58827274 </i>
    <i name="e_0_energy">   -355.15285337 </i>
   </energy>
  </scstep>
  <scstep>
   <time name="dav">    1.38    1.39</time>
   <time name="total">    1.48    1.48</time>
   <energy>
    <i name="e_fr_energy">   -355.71772439 </i>
    <i name="e_wo_entrp">   -354.58699631 </i>
    <i name="e_0_energy">   -355.15236035 </i>
   </energy>
  </scstep>
  <scstep>
   <time name="dav">    1.37    1.38</time>
   <time name="total">    1.47    1.47</time>
   <energy>
    <i name="e_fr_energy">   -355.71789494 </i>
    <i name="e_wo_entrp">   -354.58699267 </i>
    <i name="e_0_energy">   -355.15244380 </i>
   </energy>
  </scstep>
  <scstep>
   <time name="dav">    1.29    1.29</time>
   <time name="total">    1.39    1.39</time>
   <energy>
    <i name="e_fr_energy">   -355.71821008 </i>
    <i name="e_wo_entrp">   -354.58793223 </i>
    <i name="e_0_energy">   -355.15307116 </i>
   </energy>
  </scstep>
  <scstep>
   <time name="dav">    1.26    1.27</time>
   <time name="total">    1.31    1.32</time>
   <energy>
    <i name="alphaZ">   1909.09476555 </i>
    <i name="ewald"> 162991.18276363 </i>
    <i name="hartreedc">-284806.63169309 </i>
    <i name="XCdc">   3621.56796158 </i>
    <i name="pawpsdc"> 130400.58543763 </i>
    <i name="pawaedc">-135370.75052941 </i>
    <i name="eentropy">     -1.13041049 </i>
    <i name="bandstr"> -15102.24165599 </i>
    <i name="atom"> 136002.60505376 </i>
    <i name="e_fr_energy">   -355.71830683 </i>
    <i name="e_wo_entrp">   -354.58789634 </i>
    <i name="e_0_energy">   -355.15310159 </i>
   </energy>
  </scstep>
  <structure>
   <crystal>
    <varray name="basis" >
     <v>       9.42510255       3.57329804       0.00000000 </v>
     <v>       0.00000000      10.07973298       0.00000000 </v>
     <v>       0.00000000       0.00000000      20.51013988 </v>
    </varray>
    <i name="volume">   1948.51491473 </i>
    <varray name="rec_basis" >
     <v>       0.10609964       0.00000000       0.00000000 </v>
     <v>      -0.03761267       0.09920898       0.00000000 </v>
     <v>       0.00000000       0.00000000       0.04875637 </v>
    </varray>
   </crystal>
   <varray name="positions" >
    <v>       0.37433215       0.75136220       0.09511235 </v>
    <v>       0.52460066       0.60109368       0.22312232 </v>
    <v>       0.67486918       0.45082517       0.35113229 </v>
    <v>       0.82513769       0.30055666       0.47914226 </v>
    <v>       0.60748648       0.18487454       0.00977237 </v>
    <v>       0.75775499       0.03460603       0.13778234 </v>
    <v>       0.05829201       0.73406900       0.39380228 </v>
    <v>       0.90802350       0.88433751       0.26579231 </v>
    <v>       0.14117783       0.31784985       0.18045233 </v>
    <v>       0.29144634       0.16758134       0.30846230 </v>
    <v>       0.44171485       0.01731283       0.43647227 </v>
    <v>       0.99090931       0.46811837       0.05244236 </v>
    <v>       0.00994000       0.11575434       0.41150025 </v>
    <v>       0.55913447       0.56655988       0.02747034 </v>
    <v>       0.70940298       0.41629137       0.15548031 </v>
    <v>       0.85967149       0.26602286       0.28349028 </v>
    <v>       0.09282582       0.69953520       0.19815030 </v>
    <v>       0.24309433       0.54926668       0.32616027 </v>
    <v>       0.39336284       0.39899817       0.45417024 </v>
    <v>       0.94255730       0.84980371       0.07014033 </v>
    <v>       0.32598014       0.13304754       0.11281032 </v>
    <v>       0.47624865       0.98277903       0.24082029 </v>
    <v>       0.62651717       0.83251052       0.36883026 </v>
    <v>       0.77678568       0.68224200       0.49684023 </v>
    <v>       0.04964185       0.34025850       0.44532126 </v>
    <v>       0.59883631       0.79106404       0.06129134 </v>
    <v>       0.74910482       0.64079553       0.18930132 </v>
    <v>       0.89937333       0.49052701       0.31731129 </v>
    <v>       0.98225915       0.07430787       0.10396133 </v>
    <v>       0.13252766       0.92403935       0.23197131 </v>
    <v>       0.28279617       0.77377084       0.35998128 </v>
    <v>       0.43306468       0.62350233       0.48799125 </v>
    <v>       0.21541347       0.50782021       0.01862135 </v>
    <v>       0.36568198       0.35755170       0.14663132 </v>
    <v>       0.51595050       0.20728318       0.27464130 </v>
    <v>       0.66621901       0.05701467       0.40265127 </v>
    <v>       0.06382158       0.26208477       0.34135992 </v>
    <v>       0.21409009       0.11181626       0.46936989 </v>
    <v>       0.76328455       0.56262179       0.08533998 </v>
    <v>       0.91355307       0.41235328       0.21334995 </v>
    <v>       0.14670739       0.84586562       0.12800997 </v>
    <v>       0.29697590       0.69559711       0.25601994 </v>
    <v>       0.44724442       0.54532860       0.38402991 </v>
    <v>       0.59751293       0.39506009       0.51203988 </v>
    <v>       0.99643888       0.99613414       0.00000000 </v>
    <v>       0.53013023       0.12910945       0.17067996 </v>
    <v>       0.68039874       0.97884094       0.29868993 </v>
    <v>       0.83066725       0.82857243       0.42669990 </v>
    <v>       0.37769571       0.94821064       0.04346280 </v>
    <v>       0.52796422       0.79794212       0.17147277 </v>
    <v>       0.67823274       0.64767361       0.29948274 </v>
    <v>       0.82850125       0.49740510       0.42749271 </v>
    <v>       0.76111855       0.23145446       0.08613279 </v>
    <v>       0.91138706       0.08118595       0.21414276 </v>
    <v>       0.06165557       0.93091744       0.34215273 </v>
    <v>       0.21192409       0.78064893       0.47016270 </v>
    <v>       0.14454139       0.51469829       0.12880278 </v>
    <v>       0.29480990       0.36442978       0.25681275 </v>
    <v>       0.44507841       0.21416127       0.38482272 </v>
    <v>       0.99427287       0.66496681       0.00079281 </v>
    <v>       0.32714088       0.66233547       0.00039640 </v>
    <v>       0.47740939       0.51206696       0.12840637 </v>
    <v>       0.62767790       0.36179845       0.25641634 </v>
    <v>       0.77794641       0.21152993       0.38442631 </v>
    <v>       0.92821492       0.06126142       0.51243628 </v>
    <v>       0.01110074       0.64504228       0.29908633 </v>
    <v>       0.16136925       0.49477376       0.42709630 </v>
    <v>       0.86083223       0.79531079       0.17107636 </v>
    <v>       0.09398655       0.22882313       0.08573638 </v>
    <v>       0.24425506       0.07855462       0.21374635 </v>
    <v>       0.39452358       0.92828610       0.34175632 </v>
    <v>       0.54479209       0.77801759       0.46976629 </v>
   </varray>
  </structure>
  <varray name="forces" >
   <v>      -0.28275964       0.13664565      -0.24985521 </v>
   <v>       0.10643515       0.11783847       0.10162745 </v>
   <v>       0.14067537       0.04124488       0.06416340 </v>
   <v>      -0.51751037      -0.85719727      -0.22295399 </v>
   <v>       1.06624760       0.64964273       1.86215964 </v>
   <v>      -0.12742722       0.45531001       0.08548718 </v>
   <v>       0.32185196       0.06771028       0.51766860 </v>
   <v>       0.12987566       0.08973817      -0.10252519 </v>
   <v>       0.08578014       0.02103666      -0.26787689 </v>
   <v>       0.08673753       0.05502410       0.08425435 </v>
   <v>      -0.73253361      -0.34514526      -0.43068441 </v>
   <v>       0.27397135       0.60241268       0.61383873 </v>
   <v>       0.06834160       0.14532524       0.81791511 </v>
   <v>      -0.53227444      -0.08772629       1.07994626 </v>
   <v>      -0.31669570      -0.02087317      -0.06546779 </v>
   <v>       0.07043231       0.05976144      -0.06120099 </v>
   <v>      -0.01235108       0.10199247      -0.13388543 </v>
   <v>      -0.08628936      -0.10326345       0.08657876 </v>
   <v>       0.54359661       0.71736805      -0.53791314 </v>
   <v>       0.71596909       0.04436530      -0.69533356 </v>
   <v>      -0.12260025      -0.56361586      -0.06675350 </v>
   <v>      -0.05390890      -0.03800094      -0.10057179 </v>
   <v>       0.04480233       0.20245291       0.38444126 </v>
   <v>      -0.76427448       0.19969265      -1.96848099 </v>
   <v>       0.55888948       0.06733550      -0.79576776 </v>
   <v>      -0.57756776      -0.17837895       0.83209719 </v>
   <v>      -0.16200056      -0.14508812      -0.09153774 </v>
   <v>       0.01029648      -0.17953427       0.09542708 </v>
   <v>      -0.09040271      -0.10423152      -0.85047487 </v>
   <v>       0.03440271       0.11489884       0.02352548 </v>
   <v>      -0.09720143      -0.11957237       0.43681958 </v>
   <v>       0.24881751      -0.28514797      -0.87312442 </v>
   <v>      -0.88379936       1.55280912       1.00885278 </v>
   <v>      -0.01188700       0.30424445      -0.06039736 </v>
   <v>       0.07944170       0.00599842      -0.00338679 </v>
   <v>       0.52556720       0.04661795      -0.54487201 </v>
   <v>      -0.23609642      -0.22345869       0.00900423 </v>
   <v>      -0.68288166       0.24447863       0.33668572 </v>
   <v>      -0.21124402       0.16826043      -1.59581494 </v>
   <v>      -0.08746631       0.08286666      -0.03713015 </v>
   <v>       0.03612605       0.06903096       0.05653425 </v>
   <v>       0.12344878      -0.16824164       0.04673345 </v>
   <v>      -0.36651052      -0.14491763       0.24424047 </v>
   <v>      -1.41660056       0.23524802       0.14916417 </v>
   <v>      -0.51488526      -0.70437994       1.18142058 </v>
   <v>      -0.30001596       0.11394003      -1.25742590 </v>
   <v>      -0.31224559      -0.11177037      -0.05340266 </v>
   <v>      -0.69335823      -0.28127686       1.01840086 </v>
   <v>       1.23383604       0.44607167       0.25311985 </v>
   <v>      -0.15577338      -0.19891502      -0.23244096 </v>
   <v>       0.05603208      -0.13762824      -0.07673287 </v>
   <v>       0.47775718      -0.03378526       1.15718621 </v>
   <v>      -0.96709470      -1.15657426      -0.98298600 </v>
   <v>       0.25801191      -0.01682649      -0.14244190 </v>
   <v>       0.01154627      -0.22920376       0.06008933 </v>
   <v>       0.57100884      -0.13590253      -0.65909870 </v>
   <v>       0.85235950      -0.94914946      -0.67983029 </v>
   <v>      -0.01412730      -0.33250208      -0.02085713 </v>
   <v>       0.23785636      -0.40209809       1.11760059 </v>
   <v>       0.43047298      -0.82546573       0.54757920 </v>
   <v>       0.91059084      -0.85157865       0.04071395 </v>
   <v>      -0.10964115      -0.25731113      -0.18880539 </v>
   <v>      -0.03081657      -0.05412331       0.10834062 </v>
   <v>       0.27658369      -0.16138325       0.12477008 </v>
   <v>      -0.23011525       1.57839139      -1.17926499 </v>
   <v>       0.00329919       0.06205859       0.09699665 </v>
   <v>       0.62146908      -0.18318714       0.58599848 </v>
   <v>      -0.47317363       0.43998017      -0.70642688 </v>
   <v>       0.05324275       0.69877943      -0.05051950 </v>
   <v>       0.14004359       0.03523432       0.30349033 </v>
   <v>       0.17805040       0.07243065      -0.08974568 </v>
   <v>       0.58966307       0.54121802       0.54311587 </v>
  </varray>
  <varray name="stress" >
   <v>     -31.95799056       4.29276103      -7.79821431 </v>
   <v>       4.29276101     -26.55913522       6.03900266 </v>
   <v>      -7.79821406       6.03900253     -20.19202311 </v>
  </varray>
  <energy>
   <i name="e_fr_energy">   -355.71830683 </i>
   <i name="e_wo_entrp">   -354.58789634 </i>
   <i name="e_0_energy">   -355.15310159 </i>
  </energy>
  <time name="totalsc">   94.13   94.43</time>
  <eigenvalues>
   <array>
    <dimension dim="1">band</dimension>
    <dimension dim="2">kpoint</dimension>
    <dimension dim="3">spin</dimension>
    <field>eigene</field>
    <field>occ</field>
    <set>
     <set comment="spin 1">
      <set comment="kpoint 1">
       <r>  -62.8380    1.0000 </r>
       <r>  -62.8253    1.0000 </r>
       <r>  -62.8176    1.0000 </r>
       <r>  -62.8147    1.0000 </r>
       <r>  -62.8107    1.0000 </r>
       <r>  -62.8039    1.0000 </r>
       <r>  -62.7986    1.0000 </r>
       <r>  -62.7934    1.0000 </r>
       <r>  -62.7881    1.0000 </r>
       <r>  -62.7754    1.0000 </r>
       <r>  -62.7750    1.0000 </r>
       <r>  -62.7709    1.0000 </r>
       <r>  -62.7709    1.0000 </r>
       <r>  -62.7694    1.0000 </r>
       <r>  -62.7660    1.0000 </r>
       <r>  -62.7563    1.0000 </r>
       <r>  -62.7540    1.0000 </r>
       <r>  -62.7536    1.0000 </r>
       <r>  -62.7496    1.0000 </r>
       <r>  -62.7471    1.0000 </r>
       <r>  -62.7453    1.0000 </r>
       <r>  -62.7422    1.0000 </r>
       <r>  -62.7372    1.0000 </r>
       <r>  -62.7294    1.0000 </r>
       <r>  -62.7265    1.0000 </r>
       <r>  -62.7224    1.0000 </r>
       <r>  -62.7170    1.0000 </r>
       <r>  -62.7152    1.0000 </r>
       <r>  -62.7140    1.0000 </r>
       <r>  -62.7121    1.0000 </r>
       <r>  -62.7107    1.0000 </r>
       <r>  -62.7039    1.0000 </r>
       <r>  -62.6957    1.0000 </r>
       <r>  -62.6907    1.0000 </r>
       <r>  -62.6827    1.0000 </r>
       <r>  -62.6777    1.0000 </r>
       <r>  -62.6764    1.0000 </r>
       <r>  -62.6657    1.0000 </r>
       <r>  -62.6651    1.0000 </r>
       <r>  -62.6517    1.0000 </r>
       <r>  -62.6513    1.0000 </r>
       <r>  -62.6504    1.0000 </r>
       <r>  -62.6461    1.0000 </r>
       <r>  -62.6185    1.0000 </r>
       <r>  -62.6000    1.0000 </r>
       <r>  -62.5975    1.0000 </r>
       <r>  -62.5813    1.0000 </r>
       <r>  -62.5670    1.0000 </r>
       <r>  -62.5480    1.0000 </r>
       <r>  -62.5470    1.0000 </r>
       <r>  -62.5467    1.0000 </r>
       <r>  -62.5465    1.0000 </r>
       <r>  -62.5429    1.0000 </r>
       <r>  -62.5322    1.0000 </r>
       <r>  -62.5308    1.0000 </r>
       <r>  -62.5267    1.0000 </r>
       <r>  -62.5197    1.0000 </r>
       <r>  -62.5061    1.0000 </r>
       <r>  -62.4939    1.0000 </r>
       <r>  -62.4938    1.0000 </r>
       <r>  -62.4909    1.0000 </r>
       <r>  -62.4824    1.0000 </r>
       <r>  -62.4809    1.0000 </r>
       <r>  -62.4759    1.0000 </r>
       <r>  -62.4744    1.0000 </r>
       <r>  -62.4584    1.0000 </r>
       <r>  -62.4367    1.0000 </r>
       <r>  -62.4351    1.0000 </r>
       <r>  -62.4351    1.0000 </r>
       <r>  -62.4260    1.0000 </r>
       <r>  -62.4191    1.0000 </r>
       <r>  -62.4178    1.0000 </r>
       <r>  -62.3871    1.0000 </r>
       <r>  -62.3774    1.0000 </r>
       <r>  -62.3771    1.0000 </r>
       <r>  -62.3768    1.0000 </r>
       <r>  -62.3509    1.0000 </r>
       <r>  -62.3440    1.0000 </r>
       <r>  -62.3400    1.0000 </r>
       <r>  -62.3341    1.0000 </r>
       <r>  -62.3082    1.0000 </r>
       <r>  -62.2753    1.0000 </r>
       <r>  -62.2633    1.0000 </r>
       <r>  -62.2496    1.0000 </r>
       <r>  -62.2422    1.0000 </r>
       <r>  -62.2225    1.0000 </r>
       <r>  -62.1977    1.0000 </r>
       <r>  -62.1699    1.0000 </r>
       <r>  -62.1421    1.0000 </r>
       <r>  -62.0837    1.0000 </r>
       <r>  -62.0836    1.0000 </r>
       <r>  -62.0633    1.0000 </r>
       <r>  -62.0534    1.0000 </r>
       <r>  -62.0387    1.0000 </r>
       <r>  -62.0177    1.0000 </r>
       <r>  -62.0063    1.0000 </r>
       <r>  -61.9733    1.0000 </r>
       <r>  -61.9252    1.0000 </r>
       <r>  -61.9066    1.0000 </r>
       <r>  -61.7715    1.0000 </r>
       <r>  -61.7649    1.0000 </r>
       <r>  -61.7523    1.0000 </r>
       <r>  -61.6971    1.0000 </r>
       <r>  -61.6114    1.0000 </r>
       <r>  -61.5669    1.0000 </r>
       <r>  -61.1138    1.0000 </r>
       <r>  -60.8564    1.0000 </r>
       <r>  -60.8207    1.0000 </r>
       <r>  -14.1055    1.0000 </r>
       <r>  -13.4393    1.0000 </r>
       <r>  -13.3112    1.0000 </r>
       <r>  -13.2463    1.0000 </r>
       <r>  -13.1392    1.0000 </r>
       <r>  -13.0741    1.0000 </r>
       <r>  -12.8945    1.0000 </r>
       <r>  -12.8599    1.0000 </r>
       <r>  -12.7647    1.0000 </r>
       <r>  -12.7451    1.0000 </r>
       <r>  -12.6923    1.0000 </r>
       <r>  -12.5870    1.0000 </r>
       <r>  -12.5231    1.0000 </r>
       <r>  -12.4488    1.0000 </r>
       <r>  -12.3022    1.0000 </r>
       <r>  -12.2585    1.0000 </r>
       <r>  -12.2444    1.0000 </r>
       <r>  -12.2123    1.0000 </r>
       <r>  -12.1449    1.0000 </r>
       <r>  -12.1044    1.0000 </r>
       <r>  -12.0335    1.0000 </r>
       <r>  -11.9883    1.0000 </r>
       <r>  -11.9529    1.0000 </r>
       <r>  -11.8997    1.0000 </r>
       <r>  -11.7730    1.0000 </r>
       <r>  -11.6750    1.0000 </r>
       <r>  -11.6334    1.0000 </r>
       <r>  -11.4526    1.0000 </r>
       <r>  -11.4347    1.0000 </r>
       <r>  -11.2536    1.0000 </r>
       <r>  -11.1538    1.0000 </r>
       <r>  -10.9344    1.0000 </r>
       <r>  -10.9317    1.0000 </r>
       <r>  -10.8765    1.0000 </r>
       <r>  -10.5978    1.0000 </r>
       <r>  -10.2187    1.0000 </r>
       <r>   -5.8615    1.0000 </r>
       <r>   -5.7692    1.0000 </r>
       <r>   -5.7441    1.0000 </r>
       <r>   -5.5183    1.0000 </r>
       <r>   -5.4885    1.0000 </r>
       <r>   -5.3090    1.0000 </r>
       <r>   -5.2705    1.0000 </r>
       <r>   -5.2433    1.0000 </r>
       <r>   -5.2088    1.0000 </r>
       <r>   -5.0780    1.0000 </r>
       <r>   -5.0213    1.0000 </r>
       <r>   -5.0023    1.0000 </r>
       <r>   -4.9747    1.0000 </r>
       <r>   -4.9479    1.0000 </r>
       <r>   -4.9068    1.0000 </r>
       <r>   -4.8881    1.0000 </r>
       <r>   -4.8385    1.0000 </r>
       <r>   -4.7997    1.0000 </r>
       <r>   -4.7599    1.0000 </r>
       <r>   -4.7166    1.0000 </r>
       <r>   -4.6912    1.0000 </r>
       <r>   -4.5994    1.0000 </r>
       <r>   -4.5679    1.0000 </r>
       <r>   -4.5176    1.0000 </r>
       <r>   -4.5109    1.0000 </r>
       <r>   -4.4494    1.0000 </r>
       <r>   -4.3889    1.0000 </r>
       <r>   -4.3855    1.0000 </r>
       <r>   -4.2731    1.0000 </r>
       <r>   -4.1873    1.0000 </r>
       <r>   -4.1739    1.0000 </r>
       <r>   -4.0820    1.0000 </r>
       <r>   -4.0306    1.0000 </r>
       <r>   -3.9976    1.0000 </r>
       <r>   -3.9678    1.0000 </r>
       <r>   -3.9528    1.0000 </r>
       <r>   -3.8351    1.0000 </r>
       <r>   -3.7312    1.0000 </r>
       <r>   -3.6933    1.0000 </r>
       <r>   -3.6559    1.0000 </r>
       <r>   -3.6226    1.0000 </r>
       <r>   -3.5501    1.0000 </r>
       <r>   -3.4990    1.0000 </r>
       <r>   -3.4870    1.0000 </r>
       <r>   -3.4200    1.0000 </r>
       <r>   -3.3538    1.0000 </r>
       <r>   -3.3231    1.0000 </r>
       <r>   -3.2814    1.0000 </r>
       <r>   -3.2688    1.0000 </r>
       <r>   -3.2534    1.0000 </r>
       <r>   -3.2197    1.0000 </r>
       <r>   -3.1871    1.0000 </r>
       <r>   -3.1629    1.0000 </r>
       <r>   -3.1579    1.0000 </r>
       <r>   -3.1313    1.0000 </r>
       <r>   -3.1197    1.0000 </r>
       <r>   -3.0497    1.0000 </r>
       <r>   -3.0408    1.0000 </r>
       <r>   -3.0041    1.0000 </r>
       <r>   -2.9620    1.0000 </r>
       <r>   -2.9279    1.0000 </r>
       <r>   -2.9057    1.0000 </r>
       <r>   -2.8705    1.0000 </r>
       <r>   -2.8426    1.0000 </r>
       <r>   -2.8070    1.0000 </r>
       <r>   -2.7971    1.0000 </r>
       <r>   -2.7619    1.0000 </r>
       <r>   -2.7482    1.0000 </r>
       <r>   -2.7153    1.0000 </r>
       <r>   -2.6825    1.0000 </r>
       <r>   -2.6774    1.0000 </r>
       <r>   -2.6697    1.0000 </r>
       <r>   -2.6593    1.0000 </r>
       <r>   -2.6134    1.0000 </r>
       <r>   -2.5862    1.0000 </r>
       <r>   -2.5614    1.0000 </r>
       <r>   -2.5352    1.0000 </r>
       <r>   -2.5281    1.0000 </r>
       <r>   -2.5043    1.0000 </r>
       <r>   -2.4478    1.0000 </r>
       <r>   -2.4255    1.0000 </r>
       <r>   -2.3962    1.0000 </r>
       <r>   -2.3431    1.0000 </r>
       <r>   -2.3306    1.0000 </r>
       <r>   -2.2441    1.0000 </r>
       <r>   -2.2146    1.0000 </r>
       <r>   -2.1994    1.0000 </r>
       <r>   -2.1615    1.0000 </r>
       <r>   -2.0691    1.0000 </r>
       <r>   -2.0254    1.0000 </r>
       <r>   -1.9894    1.0000 </r>
       <r>   -1.9415    1.0000 </r>
       <r>   -1.8992    1.0000 </r>
       <r>   -1.8740    1.0000 </r>
       <r>   -1.8472    1.0000 </r>
       <r>   -1.8180    1.0000 </r>
       <r>   -1.7882    1.0000 </r>
       <r>   -1.7127    1.0000 </r>
       <r>   -1.6342    1.0000 </r>
       <r>   -1.5988    1.0000 </r>
       <r>   -1.5698    1.0000 </r>
       <r>   -1.5378    1.0000 </r>
       <r>   -1.5224    1.0000 </r>
       <r>   -1.4788    1.0000 </r>
       <r>   -1.4504    1.0000 </r>
       <r>   -1.4070    1.0000 </r>
       <r>   -1.3948    1.0000 </r>
       <r>   -1.3637    1.0000 </r>
       <r>   -1.3262    1.0000 </r>
       <r>   -1.3085    1.0000 </r>
       <r>   -1.2426    1.0000 </r>
       <r>   -1.2220    1.0000 </r>
       <r>   -1.1988    1.0000 </r>
       <r>   -1.1551    1.0000 </r>
       <r>   -1.1226    1.0000 </r>
       <r>   -1.1184    1.0000 </r>
       <r>   -1.1001    1.0000 </r>
       <r>   -1.0571    1.0000 </r>
       <r>   -1.0424    1.0000 </r>
       <r>   -1.0371    1.0000 </r>
       <r>   -1.0192    1.0000 </r>
       <r>   -1.0022    1.0000 </r>
       <r>   -0.9658    1.0000 </r>
       <r>   -0.9481    1.0000 </r>
       <r>   -0.9039    1.0000 </r>
       <r>   -0.8966    1.0000 </r>
       <r>   -0.8731    1.0000 </r>
       <r>   -0.8635    1.0000 </r>
       <r>   -0.8261    1.0000 </r>
       <r>   -0.8127    1.0000 </r>
       <r>   -0.8084    1.0000 </r>
       <r>   -0.7899    1.0000 </r>
       <r>   -0.7832    1.0000 </r>
       <r>   -0.7563    1.0000 </r>
       <r>   -0.7353    1.0000 </r>
       <r>   -0.6969    1.0000 </r>
       <r>   -0.6852    1.0000 </r>
       <r>   -0.6620    1.0000 </r>
       <r>   -0.6583    1.0000 </r>
       <r>   -0.6510    1.0000 </r>
       <r>   -0.6477    1.0000 </r>
       <r>   -0.6101    1.0000 </r>
       <r>   -0.5961    1.0000 </r>
       <r>   -0.5898    1.0000 </r>
       <r>   -0.5678    1.0000 </r>
       <r>   -0.5472    1.0000 </r>
       <r>   -0.5239    1.0000 </r>
       <r>   -0.5065    1.0000 </r>
       <r>   -0.4992    1.0000 </r>
       <r>   -0.4935    1.0000 </r>
       <r>   -0.4867    1.0000 </r>
       <r>   -0.4710    1.0000 </r>
       <r>   -0.4601    1.0000 </r>
       <r>   -0.4431    1.0000 </r>
       <r>   -0.4299    1.0000 </r>
       <r>   -0.4235    1.0000 </r>
       <r>   -0.4081    1.0000 </r>
       <r>   -0.3962    1.0000 </r>
       <r>   -0.3782    1.0000 </r>
       <r>   -0.3685    1.0000 </r>
       <r>   -0.3656    1.0000 </r>
       <r>   -0.3509    1.0000 </r>
       <r>   -0.3466    1.0000 </r>
       <r>   -0.3304    1.0000 </r>
       <r>   -0.3261    1.0000 </r>
       <r>   -0.3051    1.0000 </r>
       <r>   -0.2971    1.0000 </r>
       <r>   -0.2885    1.0000 </r>
       <r>   -0.2763    1.0000 </r>
       <r>   -0.2606    1.0000 </r>
       <r>   -0.2436    1.0000 </r>
       <r>   -0.2411    1.0000 </r>
       <r>   -0.2281    1.0000 </r>
       <r>   -0.2231    1.0000 </r>
       <r>   -0.2162    1.0000 </r>
       <r>   -0.1946    1.0000 </r>
       <r>   -0.1911    1.0000 </r>
       <r>   -0.1784    1.0000 </r>
       <r>   -0.1666    1.0000 </r>
       <r>   -0.1577    1.0000 </r>
       <r>   -0.1535    1.0000 </r>
       <r>   -0.1418    1.0000 </r>
       <r>   -0.1378    1.0000 </r>
       <r>   -0.1229    1.0000 </r>
       <r>   -0.1146    1.0000 </r>
       <r>   -0.1087    1.0000 </r>
       <r>   -0.0825    1.0000 </r>
       <r>   -0.0720    1.0000 </r>
       <r>   -0.0623    1.0000 </r>
       <r>   -0.0560    1.0000 </r>
       <r>   -0.0546    1.0000 </r>
       <r>   -0.0391    1.0000 </r>
       <r>   -0.0222    1.0000 </r>
       <r>   -0.0165    1.0000 </r>
       <r>    0.0165    1.0000 </r>
       <r>    0.0256    1.0000 </r>
       <r>    0.0329    1.0000 </r>
       <r>    0.0576    1.0000 </r>
       <r>    0.0636    1.0000 </r>
       <r>    0.0666    1.0000 </r>
       <r>    0.1003    1.0000 </r>
       <r>    0.1033    1.0000 </r>
       <r>    0.1118    1.0000 </r>
       <r>    0.1235    1.0000 </r>
       <r>    0.1361    1.0000 </r>
       <r>    0.1544    1.0000 </r>
       <r>    0.1692    1.0000 </r>
       <r>    0.1966    1.0000 </r>
       <r>    0.2215    1.0000 </r>
       <r>    0.2365    1.0000 </r>
       <r>    0.2493    1.0000 </r>
       <r>    0.2585    1.0000 </r>
       <r>    0.2765    1.0000 </r>
       <r>    0.2880    1.0000 </r>
       <r>    0.3281    1.0000 </r>
       <r>    0.3440    1.0000 </r>
       <r>    0.4061    1.0000 </r>
       <r>    0.4198    1.0000 </r>
       <r>    0.4363    1.0000 </r>
       <r>    0.4400    1.0000 </r>
       <r>    0.4625    1.0000 </r>
       <r>    0.4821    1.0000 </r>
       <r>    0.4978    1.0000 </r>
       <r>    0.5482    1.0000 </r>
       <r>    0.5587    1.0000 </r>
       <r>    0.5837    1.0000 </r>
       <r>    0.6086    1.0000 </r>
       <r>    0.6326    1.0000 </r>
       <r>    0.6769    1.0000 </r>
       <r>    0.6886    1.0000 </r>
       <r>    0.6949    1.0000 </r>
       <r>    0.7391    1.0000 </r>
       <r>    0.7522    1.0000 </r>
       <r>    0.7718    1.0000 </r>
       <r>    0.8126    0.9999 </r>
       <r>    0.8280    0.9998 </r>
       <r>    0.8672    0.9996 </r>
       <r>    0.8736    0.9995 </r>
       <r>    0.8971    0.9991 </r>
       <r>    0.9217    0.9984 </r>
       <r>    0.9407    0.9976 </r>
       <r>    0.9926    0.9928 </r>
       <r>    1.0193    0.9881 </r>
       <r>    1.0379    0.9834 </r>
       <r>    1.0554    0.9775 </r>
       <r>    1.1117    0.9459 </r>
       <r>    1.1366    0.9238 </r>
       <r>    1.1915    0.8514 </r>
       <r>    1.1988    0.8391 </r>
       <r>    1.2485    0.7387 </r>
       <r>    1.2927    0.6283 </r>
       <r>    1.3007    0.6067 </r>
       <r>    1.3816    0.3814 </r>
       <r>    1.4146    0.2963 </r>
       <r>    1.4188    0.2863 </r>
       <r>    1.4613    0.1935 </r>
       <r>    1.4699    0.1772 </r>
       <r>    1.5327    0.0854 </r>
       <r>    1.5685    0.0522 </r>
       <r>    1.6187    0.0240 </r>
       <r>    1.6386    0.0171 </r>
       <r>    1.6894    0.0066 </r>
       <r>    1.6980    0.0056 </r>
       <r>    1.7279    0.0030 </r>
       <r>    1.7794    0.0009 </r>
       <r>    1.7923    0.0007 </r>
       <r>    1.8239    0.0003 </r>
       <r>    1.8472    0.0002 </r>
       <r>    1.9445    0.0000 </r>
       <r>    1.9529    0.0000 </r>
       <r>    1.9962    0.0000 </r>
       <r>    2.0224    0.0000 </r>
       <r>    2.0343    0.0000 </r>
       <r>    2.0641    0.0000 </r>
       <r>    2.1020    0.0000 </r>
       <r>    2.1728    0.0000 </r>
       <r>    2.1809    0.0000 </r>
       <r>    2.2151    0.0000 </r>
       <r>    2.2522    0.0000 </r>
       <r>    2.2754    0.0000 </r>
       <r>    2.2791    0.0000 </r>
       <r>    2.3484    0.0000 </r>
       <r>    2.3562    0.0000 </r>
       <r>    2.3659    0.0000 </r>
       <r>    2.4169    0.0000 </r>
       <r>    2.4462    0.0000 </r>
       <r>    2.5127    0.0000 </r>
       <r>    2.5569    0.0000 </r>
       <r>    2.6465    0.0000 </r>
       <r>    3.7679    0.0000 </r>
       <r>    3.7994    0.0000 </r>
       <r>    4.0516    0.0000 </r>
       <r>    4.3651    0.0000 </r>
       <r>    4.5123    0.0000 </r>
       <r>    4.5692    0.0000 </r>
       <r>    4.6302    0.0000 </r>
       <r>    4.7315    0.0000 </r>
       <r>    4.8856    0.0000 </r>
       <r>    4.9207    0.0000 </r>
       <r>    5.1429    0.0000 </r>
       <r>    5.2781    0.0000 </r>
       <r>    5.4646    0.0000 </r>
       <r>    5.5644    0.0000 </r>
       <r>    5.6648    0.0000 </r>
       <r>    5.6852    0.0000 </r>
       <r>    5.8787    0.0000 </r>
       <r>    5.9540    0.0000 </r>
       <r>    5.9671    0.0000 </r>
       <r>    6.1002    0.0000 </r>
       <r>    6.1899    0.0000 </r>
       <r>    6.2122    0.0000 </r>
       <r>    6.3137    0.0000 </r>
       <r>    6.3405    0.0000 </r>
       <r>    6.4148    0.0000 </r>
       <r>    6.4802    0.0000 </r>
       <r>    6.5138    0.0000 </r>
       <r>    6.6195    0.0000 </r>
       <r>    6.7439    0.0000 </r>
       <r>    6.7658    0.0000 </r>
       <r>    6.8145    0.0000 </r>
       <r>    6.8241    0.0000 </r>
       <r>    6.8805    0.0000 </r>
       <r>    6.9271    0.0000 </r>
       <r>    7.0011    0.0000 </r>
       <r>    7.0717    0.0000 </r>
       <r>    7.1232    0.0000 </r>
       <r>    7.1917    0.0000 </r>
       <r>    7.2420    0.0000 </r>
       <r>    7.2878    0.0000 </r>
       <r>    7.3415    0.0000 </r>
       <r>    7.3517    0.0000 </r>
       <r>    7.4048    0.0000 </r>
       <r>    7.4355    0.0000 </r>
       <r>    7.4821    0.0000 </r>
       <r>    7.5379    0.0000 </r>
       <r>    7.5724    0.0000 </r>
      </set>
     </set>
    </set>
   </array>
  </eigenvalues>
  <separator name="orbital magnetization" >
   <v name="MAGDIPOLOUT">      0.00000000      0.00000000      0.00000000</v>
  </separator>
  <dos>
   <i name="efermi">      1.33894061 </i>
   <total>
    <array>
     <dimension dim="1">gridpoints</dimension>
     <dimension dim="2">spin</dimension>
     <field>energy</field>
     <field>total</field>
     <field>integrated</field>
     <set>
      <set comment="spin 1">
       <r>   -66.3585     0.0000     0.0000 </r>
       <r>   -66.1003     0.0000     0.0000 </r>
       <r>   -65.8421     0.0000     0.0000 </r>
       <r>   -65.5840     0.0000     0.0000 </r>
       <r>   -65.3258     0.0000     0.0000 </r>
       <r>   -65.0676     0.0000     0.0000 </r>
       <r>   -64.8095     0.0000     0.0000 </r>
       <r>   -64.5513     0.0000     0.0000 </r>
       <r>   -64.2931     0.0000     0.0000 </r>
       <r>   -64.0349     0.0000     0.0000 </r>
       <r>   -63.7768     0.0000     0.0000 </r>
       <r>   -63.5186     0.0000     0.0000 </r>
       <r>   -63.2604     0.0813     0.0210 </r>
       <r>   -63.0023    13.1718     3.4216 </r>
       <r>   -62.7441   161.2995    45.0645 </r>
       <r>   -62.4859   282.7854   118.0716 </r>
       <r>   -62.2277   185.8147   166.0437 </r>
       <r>   -61.9696    93.0768   190.0735 </r>
       <r>   -61.7114    50.2877   203.0563 </r>
       <r>   -61.4532    23.6329   209.1577 </r>
       <r>   -61.1951     5.5017   210.5780 </r>
       <r>   -60.9369     8.4897   212.7698 </r>
       <r>   -60.6787    10.4730   215.4737 </r>
       <r>   -60.4205     2.0126   215.9933 </r>
       <r>   -60.1624     0.0260   216.0000 </r>
       <r>   -59.9042     0.0000   216.0000 </r>
       <r>   -59.6460     0.0000   216.0000 </r>
       <r>   -59.3879     0.0000   216.0000 </r>
       <r>   -59.1297     0.0000   216.0000 </r>
       <r>   -58.8715     0.0000   216.0000 </r>
       <r>   -58.6133     0.0000   216.0000 </r>
       <r>   -58.3552     0.0000   216.0000 </r>
       <r>   -58.0970     0.0000   216.0000 </r>
       <r>   -57.8388     0.0000   216.0000 </r>
       <r>   -57.5807     0.0000   216.0000 </r>
       <r>   -57.3225     0.0000   216.0000 </r>
       <r>   -57.0643     0.0000   216.0000 </r>
       <r>   -56.8061     0.0000   216.0000 </r>
       <r>   -56.5480     0.0000   216.0000 </r>
       <r>   -56.2898     0.0000   216.0000 </r>
       <r>   -56.0316     0.0000   216.0000 </r>
       <r>   -55.7735     0.0000   216.0000 </r>
       <r>   -55.5153     0.0000   216.0000 </r>
       <r>   -55.2571     0.0000   216.0000 </r>
       <r>   -54.9989     0.0000   216.0000 </r>
       <r>   -54.7408     0.0000   216.0000 </r>
       <r>   -54.4826     0.0000   216.0000 </r>
       <r>   -54.2244     0.0000   216.0000 </r>
       <r>   -53.9663     0.0000   216.0000 </r>
       <r>   -53.7081     0.0000   216.0000 </r>
       <r>   -53.4499     0.0000   216.0000 </r>
       <r>   -53.1917     0.0000   216.0000 </r>
       <r>   -52.9336     0.0000   216.0000 </r>
       <r>   -52.6754     0.0000   216.0000 </r>
       <r>   -52.4172     0.0000   216.0000 </r>
       <r>   -52.1591     0.0000   216.0000 </r>
       <r>   -51.9009     0.0000   216.0000 </r>
       <r>   -51.6427     0.0000   216.0000 </r>
       <r>   -51.3845     0.0000   216.0000 </r>
       <r>   -51.1264     0.0000   216.0000 </r>
       <r>   -50.8682     0.0000   216.0000 </r>
       <r>   -50.6100     0.0000   216.0000 </r>
       <r>   -50.3519     0.0000   216.0000 </r>
       <r>   -50.0937     0.0000   216.0000 </r>
       <r>   -49.8355     0.0000   216.0000 </r>
       <r>   -49.5773     0.0000   216.0000 </r>
       <r>   -49.3192     0.0000   216.0000 </r>
       <r>   -49.0610     0.0000   216.0000 </r>
       <r>   -48.8028     0.0000   216.0000 </r>
       <r>   -48.5447     0.0000   216.0000 </r>
       <r>   -48.2865     0.0000   216.0000 </r>
       <r>   -48.0283     0.0000   216.0000 </r>
       <r>   -47.7701     0.0000   216.0000 </r>
       <r>   -47.5120     0.0000   216.0000 </r>
       <r>   -47.2538     0.0000   216.0000 </r>
       <r>   -46.9956     0.0000   216.0000 </r>
       <r>   -46.7375     0.0000   216.0000 </r>
       <r>   -46.4793     0.0000   216.0000 </r>
       <r>   -46.2211     0.0000   216.0000 </r>
       <r>   -45.9629     0.0000   216.0000 </r>
       <r>   -45.7048     0.0000   216.0000 </r>
       <r>   -45.4466     0.0000   216.0000 </r>
       <r>   -45.1884     0.0000   216.0000 </r>
       <r>   -44.9303     0.0000   216.0000 </r>
       <r>   -44.6721     0.0000   216.0000 </r>
       <r>   -44.4139     0.0000   216.0000 </r>
       <r>   -44.1557     0.0000   216.0000 </r>
       <r>   -43.8976     0.0000   216.0000 </r>
       <r>   -43.6394     0.0000   216.0000 </r>
       <r>   -43.3812     0.0000   216.0000 </r>
       <r>   -43.1231     0.0000   216.0000 </r>
       <r>   -42.8649     0.0000   216.0000 </r>
       <r>   -42.6067     0.0000   216.0000 </r>
       <r>   -42.3485     0.0000   216.0000 </r>
       <r>   -42.0904     0.0000   216.0000 </r>
       <r>   -41.8322     0.0000   216.0000 </r>
       <r>   -41.5740     0.0000   216.0000 </r>
       <r>   -41.3159     0.0000   216.0000 </r>
       <r>   -41.0577     0.0000   216.0000 </r>
       <r>   -40.7995     0.0000   216.0000 </r>
       <r>   -40.5413     0.0000   216.0000 </r>
       <r>   -40.2832     0.0000   216.0000 </r>
       <r>   -40.0250     0.0000   216.0000 </r>
       <r>   -39.7668     0.0000   216.0000 </r>
       <r>   -39.5087     0.0000   216.0000 </r>
       <r>   -39.2505     0.0000   216.0000 </r>
       <r>   -38.9923     0.0000   216.0000 </r>
       <r>   -38.7341     0.0000   216.0000 </r>
       <r>   -38.4760     0.0000   216.0000 </r>
       <r>   -38.2178     0.0000   216.0000 </r>
       <r>   -37.9596     0.0000   216.0000 </r>
       <r>   -37.7015     0.0000   216.0000 </r>
       <r>   -37.4433     0.0000   216.0000 </r>
       <r>   -37.1851     0.0000   216.0000 </r>
       <r>   -36.9269     0.0000   216.0000 </r>
       <r>   -36.6688     0.0000   216.0000 </r>
       <r>   -36.4106     0.0000   216.0000 </r>
       <r>   -36.1524     0.0000   216.0000 </r>
       <r>   -35.8943     0.0000   216.0000 </r>
       <r>   -35.6361     0.0000   216.0000 </r>
       <r>   -35.3779     0.0000   216.0000 </r>
       <r>   -35.1197     0.0000   216.0000 </r>
       <r>   -34.8616     0.0000   216.0000 </r>
       <r>   -34.6034     0.0000   216.0000 </r>
       <r>   -34.3452     0.0000   216.0000 </r>
       <r>   -34.0871     0.0000   216.0000 </r>
       <r>   -33.8289     0.0000   216.0000 </r>
       <r>   -33.5707     0.0000   216.0000 </r>
       <r>   -33.3125     0.0000   216.0000 </r>
       <r>   -33.0544     0.0000   216.0000 </r>
       <r>   -32.7962     0.0000   216.0000 </r>
       <r>   -32.5380     0.0000   216.0000 </r>
       <r>   -32.2799     0.0000   216.0000 </r>
       <r>   -32.0217     0.0000   216.0000 </r>
       <r>   -31.7635     0.0000   216.0000 </r>
       <r>   -31.5053     0.0000   216.0000 </r>
       <r>   -31.2472     0.0000   216.0000 </r>
       <r>   -30.9890     0.0000   216.0000 </r>
       <r>   -30.7308     0.0000   216.0000 </r>
       <r>   -30.4727     0.0000   216.0000 </r>
       <r>   -30.2145     0.0000   216.0000 </r>
       <r>   -29.9563     0.0000   216.0000 </r>
       <r>   -29.6981     0.0000   216.0000 </r>
       <r>   -29.4400     0.0000   216.0000 </r>
       <r>   -29.1818     0.0000   216.0000 </r>
       <r>   -28.9236     0.0000   216.0000 </r>
       <r>   -28.6655     0.0000   216.0000 </r>
       <r>   -28.4073     0.0000   216.0000 </r>
       <r>   -28.1491     0.0000   216.0000 </r>
       <r>   -27.8909     0.0000   216.0000 </r>
       <r>   -27.6328     0.0000   216.0000 </r>
       <r>   -27.3746     0.0000   216.0000 </r>
       <r>   -27.1164     0.0000   216.0000 </r>
       <r>   -26.8583     0.0000   216.0000 </r>
       <r>   -26.6001     0.0000   216.0000 </r>
       <r>   -26.3419     0.0000   216.0000 </r>
       <r>   -26.0837     0.0000   216.0000 </r>
       <r>   -25.8256     0.0000   216.0000 </r>
       <r>   -25.5674     0.0000   216.0000 </r>
       <r>   -25.3092     0.0000   216.0000 </r>
       <r>   -25.0511     0.0000   216.0000 </r>
       <r>   -24.7929     0.0000   216.0000 </r>
       <r>   -24.5347     0.0000   216.0000 </r>
       <r>   -24.2765     0.0000   216.0000 </r>
       <r>   -24.0184     0.0000   216.0000 </r>
       <r>   -23.7602     0.0000   216.0000 </r>
       <r>   -23.5020     0.0000   216.0000 </r>
       <r>   -23.2439     0.0000   216.0000 </r>
       <r>   -22.9857     0.0000   216.0000 </r>
       <r>   -22.7275     0.0000   216.0000 </r>
       <r>   -22.4693     0.0000   216.0000 </r>
       <r>   -22.2112     0.0000   216.0000 </r>
       <r>   -21.9530     0.0000   216.0000 </r>
       <r>   -21.6948     0.0000   216.0000 </r>
       <r>   -21.4367     0.0000   216.0000 </r>
       <r>   -21.1785     0.0000   216.0000 </r>
       <r>   -20.9203     0.0000   216.0000 </r>
       <r>   -20.6621     0.0000   216.0000 </r>
       <r>   -20.4040     0.0000   216.0000 </r>
       <r>   -20.1458     0.0000   216.0000 </r>
       <r>   -19.8876     0.0000   216.0000 </r>
       <r>   -19.6295     0.0000   216.0000 </r>
       <r>   -19.3713     0.0000   216.0000 </r>
       <r>   -19.1131     0.0000   216.0000 </r>
       <r>   -18.8549     0.0000   216.0000 </r>
       <r>   -18.5968     0.0000   216.0000 </r>
       <r>   -18.3386     0.0000   216.0000 </r>
       <r>   -18.0804     0.0000   216.0000 </r>
       <r>   -17.8223     0.0000   216.0000 </r>
       <r>   -17.5641     0.0000   216.0000 </r>
       <r>   -17.3059     0.0000   216.0000 </r>
       <r>   -17.0477     0.0000   216.0000 </r>
       <r>   -16.7896     0.0000   216.0000 </r>
       <r>   -16.5314     0.0000   216.0000 </r>
       <r>   -16.2732     0.0000   216.0000 </r>
       <r>   -16.0151     0.0000   216.0000 </r>
       <r>   -15.7569     0.0000   216.0000 </r>
       <r>   -15.4987     0.0000   216.0000 </r>
       <r>   -15.2405     0.0000   216.0000 </r>
       <r>   -14.9824     0.0000   216.0000 </r>
       <r>   -14.7242     0.0000   216.0000 </r>
       <r>   -14.4660     0.0418   216.0108 </r>
       <r>   -14.2078     1.7761   216.4693 </r>
       <r>   -13.9497     4.8824   217.7299 </r>
       <r>   -13.6915     1.3563   218.0800 </r>
       <r>   -13.4333     6.1054   219.6562 </r>
       <r>   -13.1752    18.1457   224.3409 </r>
       <r>   -12.9170    21.1292   229.7959 </r>
       <r>   -12.6588    28.0779   237.0448 </r>
       <r>   -12.4006    26.9471   244.0018 </r>
       <r>   -12.1425    34.8224   252.9919 </r>
       <r>   -11.8843    35.3850   262.1273 </r>
       <r>   -11.6261    24.0167   268.3278 </r>
       <r>   -11.3680    19.1526   273.2724 </r>
       <r>   -11.1098    16.0654   277.4201 </r>
       <r>   -10.8516    17.9153   282.0453 </r>
       <r>   -10.5934    11.2692   284.9547 </r>
       <r>   -10.3353     5.3906   286.3464 </r>
       <r>   -10.0771     5.1780   287.6832 </r>
       <r>    -9.8189     1.2089   287.9953 </r>
       <r>    -9.5608     0.0182   288.0000 </r>
       <r>    -9.3026     0.0000   288.0000 </r>
       <r>    -9.0444     0.0000   288.0000 </r>
       <r>    -8.7862     0.0000   288.0000 </r>
       <r>    -8.5281     0.0000   288.0000 </r>
       <r>    -8.2699     0.0000   288.0000 </r>
       <r>    -8.0117     0.0000   288.0000 </r>
       <r>    -7.7536     0.0000   288.0000 </r>
       <r>    -7.4954     0.0000   288.0000 </r>
       <r>    -7.2372     0.0000   288.0000 </r>
       <r>    -6.9790     0.0000   288.0000 </r>
       <r>    -6.7209     0.0000   288.0000 </r>
       <r>    -6.4627     0.0001   288.0000 </r>
       <r>    -6.2045     0.0716   288.0185 </r>
       <r>    -5.9464     3.4729   288.9151 </r>
       <r>    -5.6882    15.5147   292.9206 </r>
       <r>    -5.4300    18.5905   297.7201 </r>
       <r>    -5.1718    28.8729   305.1743 </r>
       <r>    -4.9137    44.5226   316.6687 </r>
       <r>    -4.6555    49.4563   329.4369 </r>
       <r>    -4.3973    43.1278   340.5713 </r>
       <r>    -4.1392    35.7750   349.8074 </r>
       <r>    -3.8810    36.9689   359.3517 </r>
       <r>    -3.6228    35.6509   368.5557 </r>
       <r>    -3.3646    46.2741   380.5024 </r>
       <r>    -3.1065    65.9664   397.5330 </r>
       <r>    -2.8483    70.0274   415.6121 </r>
       <r>    -2.5901    79.7272   436.1954 </r>
       <r>    -2.3320    66.1665   453.2777 </r>
       <r>    -2.0738    47.6701   465.5847 </r>
       <r>    -1.8156    47.9637   477.9676 </r>
       <r>    -1.5574    49.9197   490.8555 </r>
       <r>    -1.2993    61.6919   506.7825 </r>
       <r>    -1.0411    76.4356   526.5160 </r>
       <r>    -0.7829    98.7547   552.0117 </r>
       <r>    -0.5248   125.7824   584.4851 </r>
       <r>    -0.2666   165.6824   627.2596 </r>
       <r>    -0.0084   175.6262   672.6012 </r>
       <r>     0.2498   135.0052   707.4557 </r>
       <r>     0.5079    95.4429   732.0963 </r>
       <r>     0.7661    83.5444   753.6651 </r>
       <r>     1.0243    75.4279   773.1385 </r>
       <r>     1.2824    60.6824   788.8049 </r>
       <r>     1.5406    56.8945   803.4935 </r>
       <r>     1.7988    58.4787   818.5910 </r>
       <r>     2.0570    58.3795   833.6629 </r>
       <r>     2.3151    62.0809   849.6904 </r>
       <r>     2.5733    47.2668   861.8934 </r>
       <r>     2.8315    14.8233   865.7203 </r>
       <r>     3.0896     1.0757   865.9981 </r>
       <r>     3.3478     0.0245   866.0044 </r>
       <r>     3.6060     1.6307   866.4254 </r>
       <r>     3.8642    10.1367   869.0424 </r>
       <r>     4.1223     9.2945   871.4419 </r>
       <r>     4.3805     8.7105   873.6907 </r>
       <r>     4.6387    19.1649   878.6386 </r>
       <r>     4.8968    19.5631   883.6892 </r>
       <r>     5.1550    14.0941   887.3279 </r>
       <r>     5.4132    13.2000   890.7357 </r>
       <r>     5.6714    18.7917   895.5872 </r>
       <r>     5.9295    21.4598   901.1275 </r>
       <r>     6.1877    26.1963   907.8907 </r>
       <r>     6.4459    31.1003   915.9199 </r>
       <r>     6.7040    30.3175   923.7470 </r>
       <r>     6.9622    37.2718   933.3695 </r>
       <r>     7.2204    36.7925   942.8683 </r>
       <r>     7.4786    42.2089   953.7654 </r>
       <r>     7.7367    22.0466   959.4572 </r>
       <r>     7.9949     2.0852   959.9955 </r>
       <r>     8.2531     0.0172   960.0000 </r>
       <r>     8.5112     0.0000   960.0000 </r>
       <r>     8.7694     0.0000   960.0000 </r>
       <r>     9.0276     0.0000   960.0000 </r>
       <r>     9.2858     0.0000   960.0000 </r>
       <r>     9.5439     0.0000   960.0000 </r>
       <r>     9.8021     0.0000   960.0000 </r>
       <r>    10.0603     0.0000   960.0000 </r>
       <r>    10.3184     0.0000   960.0000 </r>
       <r>    10.5766     0.0000   960.0000 </r>
       <r>    10.8348     0.0000   960.0000 </r>
       <r>    11.0930     0.0000   960.0000 </r>
      </set>
     </set>
    </array>
   </total>
  </dos>
 </calculation>
 <structure name="finalpos" >
  <crystal>
   <varray name="basis" >
    <v>       9.42510255       3.57329804       0.00000000 </v>
    <v>       0.00000000      10.07973298       0.00000000 </v>
    <v>       0.00000000       0.00000000      20.51013988 </v>
   </varray>
   <i name="volume">   1948.51491473 </i>
   <varray name="rec_basis" >
    <v>       0.10609964       0.00000000       0.00000000 </v>
    <v>      -0.03761267       0.09920898       0.00000000 </v>
    <v>       0.00000000       0.00000000       0.04875637 </v>
   </varray>
  </crystal>
  <varray name="positions" >
   <v>       0.37433215       0.75136220       0.09511235 </v>
   <v>       0.52460066       0.60109368       0.22312232 </v>
   <v>       0.67486918       0.45082517       0.35113229 </v>
   <v>       0.82513769       0.30055666       0.47914226 </v>
   <v>       0.60748648       0.18487454       0.00977237 </v>
   <v>       0.75775499       0.03460603       0.13778234 </v>
   <v>       0.05829201       0.73406900       0.39380228 </v>
   <v>       0.90802350       0.88433751       0.26579231 </v>
   <v>       0.14117783       0.31784985       0.18045233 </v>
   <v>       0.29144634       0.16758134       0.30846230 </v>
   <v>       0.44171485       0.01731283       0.43647227 </v>
   <v>       0.99090931       0.46811837       0.05244236 </v>
   <v>       0.00994000       0.11575434       0.41150025 </v>
   <v>       0.55913447       0.56655988       0.02747034 </v>
   <v>       0.70940298       0.41629137       0.15548031 </v>
   <v>       0.85967149       0.26602286       0.28349028 </v>
   <v>       0.09282582       0.69953520       0.19815030 </v>
   <v>       0.24309433       0.54926668       0.32616027 </v>
   <v>       0.39336284       0.39899817       0.45417024 </v>
   <v>       0.94255730       0.84980371       0.07014033 </v>
   <v>       0.32598014       0.13304754       0.11281032 </v>
   <v>       0.47624865       0.98277903       0.24082029 </v>
   <v>       0.62651717       0.83251052       0.36883026 </v>
   <v>       0.77678568       0.68224200       0.49684023 </v>
   <v>       0.04964185       0.34025850       0.44532126 </v>
   <v>       0.59883631       0.79106404       0.06129134 </v>
   <v>       0.74910482       0.64079553       0.18930132 </v>
   <v>       0.89937333       0.49052701       0.31731129 </v>
   <v>       0.98225915       0.07430787       0.10396133 </v>
   <v>       0.13252766       0.92403935       0.23197131 </v>
   <v>       0.28279617       0.77377084       0.35998128 </v>
   <v>       0.43306468       0.62350233       0.48799125 </v>
   <v>       0.21541347       0.50782021       0.01862135 </v>
   <v>       0.36568198       0.35755170       0.14663132 </v>
   <v>       0.51595050       0.20728318       0.27464130 </v>
   <v>       0.66621901       0.05701467       0.40265127 </v>
   <v>       0.06382158       0.26208477       0.34135992 </v>
   <v>       0.21409009       0.11181626       0.46936989 </v>
   <v>       0.76328455       0.56262179       0.08533998 </v>
   <v>       0.91355307       0.41235328       0.21334995 </v>
   <v>       0.14670739       0.84586562       0.12800997 </v>
   <v>       0.29697590       0.69559711       0.25601994 </v>
   <v>       0.44724442       0.54532860       0.38402991 </v>
   <v>       0.59751293       0.39506009       0.51203988 </v>
   <v>       0.99643888       0.99613414       0.00000000 </v>
   <v>       0.53013023       0.12910945       0.17067996 </v>
   <v>       0.68039874       0.97884094       0.29868993 </v>
   <v>       0.83066725       0.82857243       0.42669990 </v>
   <v>       0.37769571       0.94821064       0.04346280 </v>
   <v>       0.52796422       0.79794212       0.17147277 </v>
   <v>       0.67823274       0.64767361       0.29948274 </v>
   <v>       0.82850125       0.49740510       0.42749271 </v>
   <v>       0.76111855       0.23145446       0.08613279 </v>
   <v>       0.91138706       0.08118595       0.21414276 </v>
   <v>       0.06165557       0.93091744       0.34215273 </v>
   <v>       0.21192409       0.78064893       0.47016270 </v>
   <v>       0.14454139       0.51469829       0.12880278 </v>
   <v>       0.29480990       0.36442978       0.25681275 </v>
   <v>       0.44507841       0.21416127       0.38482272 </v>
   <v>       0.99427287       0.66496681       0.00079281 </v>
   <v>       0.32714088       0.66233547       0.00039640 </v>
   <v>       0.47740939       0.51206696       0.12840637 </v>
   <v>       0.62767790       0.36179845       0.25641634 </v>
   <v>       0.77794641       0.21152993       0.38442631 </v>
   <v>       0.92821492       0.06126142       0.51243628 </v>
   <v>       0.01110074       0.64504228       0.29908633 </v>
   <v>       0.16136925       0.49477376       0.42709630 </v>
   <v>       0.86083223       0.79531079       0.17107636 </v>
   <v>       0.09398655       0.22882313       0.08573638 </v>
   <v>       0.24425506       0.07855462       0.21374635 </v>
   <v>       0.39452358       0.92828610       0.34175632 </v>
   <v>       0.54479209       0.77801759       0.46976629 </v>
  </varray>
 </structure>
</modeling>
