"Millerite NiS"                         
           1
    11.235110    3.690579    0.000000
     0.000000   11.825737    0.000000
     0.000000    0.000000   19.193590
   Ni   S 
    36    36
Direct configuration=     1
   0.92408823  0.19381755  0.11425953
   0.06067373  0.05723204  0.24467362
   0.19725924  0.92064652  0.37508772
   0.11612080  0.13388797  0.04534716
   0.25270630  0.99730246  0.17576125
   0.38929181  0.86071694  0.30617535
   0.05619122  0.32592054  0.11425953
   0.19277673  0.18933503  0.24467362
   0.32936224  0.05274951  0.37508772
   0.42408823  0.19381755  0.11425953
   0.56067373  0.05723204  0.24467362
   0.69725924  0.92064652  0.37508772
   0.61612080  0.13388797  0.04534716
   0.75270630  0.99730246  0.17576125
   0.88929181  0.86071694  0.30617535
   0.55619122  0.32592054  0.11425953
   0.69277673  0.18933503  0.24467362
   0.82936224  0.05274951  0.37508772
   0.92408823  0.69381755  0.11425953
   0.06067373  0.55723204  0.24467362
   0.19725924  0.42064652  0.37508772
   0.11612080  0.63388797  0.04534716
   0.25270630  0.49730246  0.17576125
   0.38929181  0.36071694  0.30617535
   0.05619122  0.82592054  0.11425953
   0.19277673  0.68933503  0.24467362
   0.32936224  0.55274951  0.37508772
   0.42408823  0.69381755  0.11425953
   0.56067373  0.55723204  0.24467362
   0.69725924  0.42064652  0.37508772
   0.61612080  0.63388797  0.04534716
   0.75270630  0.49730246  0.17576125
   0.88929181  0.36071694  0.30617535
   0.55619122  0.82592054  0.11425953
   0.69277673  0.68933503  0.24467362
   0.82936224  0.55274951  0.37508772
   0.10473973  0.31348403  0.00000000
   0.24132525  0.17689852  0.13041410
   0.37791075  0.04031301  0.26082819
   0.51449626  0.90372749  0.39124229
   0.86021266  0.38979610  0.08775043
   0.99679818  0.25321059  0.21816452
   0.26996920  0.98003956  0.47899272
   0.07311025  0.00868352  0.13041410
   0.20969576  0.87209801  0.26082819
   0.34628127  0.73551249  0.39124229
   0.60473973  0.31348403  0.00000000
   0.74132525  0.17689852  0.13041410
   0.87791075  0.04031301  0.26082819
   0.01449626  0.90372749  0.39124229
   0.36021266  0.38979610  0.08775043
   0.49679818  0.25321059  0.21816452
   0.57311025  0.00868352  0.13041410
   0.70969576  0.87209801  0.26082819
   0.84628127  0.73551249  0.39124229
   0.10473973  0.81348403  0.00000000
   0.24132525  0.67689852  0.13041410
   0.37791075  0.54031301  0.26082819
   0.51449626  0.40372749  0.39124229
   0.86021266  0.88979610  0.08775043
   0.99679818  0.75321059  0.21816452
   0.07311025  0.50868352  0.13041410
   0.20969576  0.37209801  0.26082819
   0.74132525  0.67689852  0.13041410
   0.87791075  0.54031301  0.26082819
   0.36021266  0.88979610  0.08775043
   0.49679818  0.75321059  0.21816452
   0.76996920  0.48003956  0.47899272
   0.43652473  0.64526903  0.00000000
   0.57311025  0.50868352  0.13041410
   0.70969576  0.37209801  0.26082819
   0.84628127  0.23551249  0.39124229
