"Millerite NiS"                         
           1
    16.884694    0.000000    0.000000
     0.000000    9.578410    0.000000
     0.000000    0.000000   16.169087
   Ty   Ty
  36  36
Direct configuration=     1
   0.78004630  0.14529696  0.09714858
   0.80376929  0.14557126  0.26430512
   0.21790716  0.62400819  0.07503431
   0.29651625  0.64801331  0.19773011
   0.38546951  0.17828808  0.10482782
   0.46975828  0.14529696  0.22432721
   0.95247430  0.64529696  0.12894323
   0.97457251  0.64499138  0.29714394
   0.12490229  0.14529696  0.16073789
   0.07435255  0.09269343  0.29302949
   0.55280646  0.69280731  0.13581564
   0.64218627  0.64529696  0.25612187
   0.91029441  0.00428852  0.09335338
   0.94154864  0.00903477  0.24735402
   0.42486675  0.51319396  0.16733153
   0.46655396  0.45881008  0.30494312
   0.60523558  0.93021043  0.06482686
   0.59729475  0.01319396  0.19912619
   0.08001077  0.51319396  0.10374222
   0.11190715  0.50692774  0.27348776
   0.25243876  0.01319396  0.13553687
   0.23472138  0.14698490  0.29069979
   0.77231733  0.43404626  0.09549980
   0.76972274  0.51319396  0.23092085
   0.91005885  0.28756640  0.09377190
   0.94347372  0.27723917  0.24829732
   0.40983078  0.77174508  0.12099857
   0.48863911  0.85519034  0.23612863
   0.52956029  0.14725964  0.06579582
   0.59729475  0.27739996  0.19912619
   0.08001077  0.77739996  0.10374222
   0.11146160  0.78615878  0.27448147
   0.25243876  0.27739996  0.13553687
   0.33560691  0.36148521  0.24166317
   0.76394872  0.87509826  0.09448166
   0.76972274  0.77739996  0.23092085
   0.96789004  0.14172427  0.34333079
   0.99146120  0.14529696  0.15897329
   0.46600564  0.61421505  0.06127585
   0.50874518  0.64529696  0.25435726
   0.64660522  0.14529696  0.09538397
   0.68094676  0.14793801  0.25937989
   0.11550537  0.64542066  0.01066909
   0.16388920  0.64529696  0.19076795
   0.07809755  0.64526198  0.36321841
   0.28345487  0.14327458  0.04017287
   0.33631719  0.14529696  0.22256260
   0.81903321  0.64529696  0.12717863
   0.85038552  0.64502259  0.29252796
   0.81578629  0.29635377  0.01288524
   0.82906105  0.31351196  0.19106332
   0.28914350  0.80186030  0.10416552
   0.48420507  0.31351196  0.12747400
   0.53039576  0.28280185  0.30534653
   0.00148905  0.81351196  0.22285798
   0.96805862  0.82091721  0.05568991
   0.13992865  0.32315566  0.08592818
   0.17391704  0.31351196  0.25465264
   0.65663306  0.81351196  0.15926866
   0.69719951  0.78585423  0.32999132
   0.30808359  0.47332947  0.11987291
   0.35873589  0.55291173  0.29212916
   0.81781818  0.99993236  0.01042601
   0.82906105  0.97708196  0.19106332
   0.00148905  0.47708196  0.22285798
   0.96773032  0.47026000  0.05543553
   0.48420507  0.97708196  0.12747400
   0.52898176  0.01118939  0.30765863
   0.65663306  0.47708196  0.15926866
   0.69372046  0.49586329  0.32662403
   0.13998035  0.96870720  0.08666887
   0.17391704  0.97708196  0.25465264
