  72  72   0   0
  0.2729146E+02  0.1007973E-08  0.1007973E-08  0.2068350E-08  0.5000000E-15
  1.000000000000000E-004
  CAR 
 "Millerite NiS"                         
     11.07440044    -66.96439650  301      1.49445885      1.00000000
    -66.964  0.0000E+00  0.0000E+00
    -66.704  0.0000E+00  0.0000E+00
    -66.444  0.0000E+00  0.0000E+00
    -66.184  0.0000E+00  0.0000E+00
    -65.924  0.0000E+00  0.0000E+00
    -65.664  0.0000E+00  0.0000E+00
    -65.404  0.0000E+00  0.0000E+00
    -65.143  0.0000E+00  0.0000E+00
    -64.883  0.0000E+00  0.0000E+00
    -64.623  0.0000E+00  0.0000E+00
    -64.363  0.8681E-10  0.2258E-10
    -64.103  0.4823E-05  0.1255E-05
    -63.843  0.1059E-01  0.2756E-02
    -63.583  0.1159E+01  0.3042E+00
    -63.323  0.1447E+02  0.4070E+01
    -63.062  0.8603E+02  0.2645E+02
    -62.802  0.2184E+03  0.8327E+02
    -62.542  0.2630E+03  0.1517E+03
    -62.282  0.1765E+03  0.1976E+03
    -62.022  0.4978E+02  0.2106E+03
    -61.762  0.1492E+02  0.2144E+03
    -61.502  0.5472E+01  0.2159E+03
    -61.242  0.5308E+00  0.2160E+03
    -60.981  0.3351E-02  0.2160E+03
    -60.721  0.9065E-06  0.2160E+03
    -60.461  0.9291E-11  0.2160E+03
    -60.201  0.0000E+00  0.2160E+03
    -59.941  0.0000E+00  0.2160E+03
    -59.681  0.0000E+00  0.2160E+03
    -59.421  0.0000E+00  0.2160E+03
    -59.161  0.0000E+00  0.2160E+03
    -58.900  0.0000E+00  0.2160E+03
    -58.640  0.0000E+00  0.2160E+03
    -58.380  0.0000E+00  0.2160E+03
    -58.120  0.0000E+00  0.2160E+03
    -57.860  0.0000E+00  0.2160E+03
    -57.600  0.0000E+00  0.2160E+03
    -57.340  0.0000E+00  0.2160E+03
    -57.079  0.0000E+00  0.2160E+03
    -56.819  0.0000E+00  0.2160E+03
    -56.559  0.0000E+00  0.2160E+03
    -56.299  0.0000E+00  0.2160E+03
    -56.039  0.0000E+00  0.2160E+03
    -55.779  0.0000E+00  0.2160E+03
    -55.519  0.0000E+00  0.2160E+03
    -55.259  0.0000E+00  0.2160E+03
    -54.998  0.0000E+00  0.2160E+03
    -54.738  0.0000E+00  0.2160E+03
    -54.478  0.0000E+00  0.2160E+03
    -54.218  0.0000E+00  0.2160E+03
    -53.958  0.0000E+00  0.2160E+03
    -53.698  0.0000E+00  0.2160E+03
    -53.438  0.0000E+00  0.2160E+03
    -53.178  0.0000E+00  0.2160E+03
    -52.917  0.0000E+00  0.2160E+03
    -52.657  0.0000E+00  0.2160E+03
    -52.397  0.0000E+00  0.2160E+03
    -52.137  0.0000E+00  0.2160E+03
    -51.877  0.0000E+00  0.2160E+03
    -51.617  0.0000E+00  0.2160E+03
    -51.357  0.0000E+00  0.2160E+03
    -51.097  0.0000E+00  0.2160E+03
    -50.836  0.0000E+00  0.2160E+03
    -50.576  0.0000E+00  0.2160E+03
    -50.316  0.0000E+00  0.2160E+03
    -50.056  0.0000E+00  0.2160E+03
    -49.796  0.0000E+00  0.2160E+03
    -49.536  0.0000E+00  0.2160E+03
    -49.276  0.0000E+00  0.2160E+03
    -49.015  0.0000E+00  0.2160E+03
    -48.755  0.0000E+00  0.2160E+03
    -48.495  0.0000E+00  0.2160E+03
    -48.235  0.0000E+00  0.2160E+03
    -47.975  0.0000E+00  0.2160E+03
    -47.715  0.0000E+00  0.2160E+03
    -47.455  0.0000E+00  0.2160E+03
    -47.195  0.0000E+00  0.2160E+03
    -46.934  0.0000E+00  0.2160E+03
    -46.674  0.0000E+00  0.2160E+03
    -46.414  0.0000E+00  0.2160E+03
    -46.154  0.0000E+00  0.2160E+03
    -45.894  0.0000E+00  0.2160E+03
    -45.634  0.0000E+00  0.2160E+03
    -45.374  0.0000E+00  0.2160E+03
    -45.114  0.0000E+00  0.2160E+03
    -44.853  0.0000E+00  0.2160E+03
    -44.593  0.0000E+00  0.2160E+03
    -44.333  0.0000E+00  0.2160E+03
    -44.073  0.0000E+00  0.2160E+03
    -43.813  0.0000E+00  0.2160E+03
    -43.553  0.0000E+00  0.2160E+03
    -43.293  0.0000E+00  0.2160E+03
    -43.032  0.0000E+00  0.2160E+03
    -42.772  0.0000E+00  0.2160E+03
    -42.512  0.0000E+00  0.2160E+03
    -42.252  0.0000E+00  0.2160E+03
    -41.992  0.0000E+00  0.2160E+03
    -41.732  0.0000E+00  0.2160E+03
    -41.472  0.0000E+00  0.2160E+03
    -41.212  0.0000E+00  0.2160E+03
    -40.951  0.0000E+00  0.2160E+03
    -40.691  0.0000E+00  0.2160E+03
    -40.431  0.0000E+00  0.2160E+03
    -40.171  0.0000E+00  0.2160E+03
    -39.911  0.0000E+00  0.2160E+03
    -39.651  0.0000E+00  0.2160E+03
    -39.391  0.0000E+00  0.2160E+03
    -39.131  0.0000E+00  0.2160E+03
    -38.870  0.0000E+00  0.2160E+03
    -38.610  0.0000E+00  0.2160E+03
    -38.350  0.0000E+00  0.2160E+03
    -38.090  0.0000E+00  0.2160E+03
    -37.830  0.0000E+00  0.2160E+03
    -37.570  0.0000E+00  0.2160E+03
    -37.310  0.0000E+00  0.2160E+03
    -37.050  0.0000E+00  0.2160E+03
    -36.789  0.0000E+00  0.2160E+03
    -36.529  0.0000E+00  0.2160E+03
    -36.269  0.0000E+00  0.2160E+03
    -36.009  0.0000E+00  0.2160E+03
    -35.749  0.0000E+00  0.2160E+03
    -35.489  0.0000E+00  0.2160E+03
    -35.229  0.0000E+00  0.2160E+03
    -34.968  0.0000E+00  0.2160E+03
    -34.708  0.0000E+00  0.2160E+03
    -34.448  0.0000E+00  0.2160E+03
    -34.188  0.0000E+00  0.2160E+03
    -33.928  0.0000E+00  0.2160E+03
    -33.668  0.0000E+00  0.2160E+03
    -33.408  0.0000E+00  0.2160E+03
    -33.148  0.0000E+00  0.2160E+03
    -32.887  0.0000E+00  0.2160E+03
    -32.627  0.0000E+00  0.2160E+03
    -32.367  0.0000E+00  0.2160E+03
    -32.107  0.0000E+00  0.2160E+03
    -31.847  0.0000E+00  0.2160E+03
    -31.587  0.0000E+00  0.2160E+03
    -31.327  0.0000E+00  0.2160E+03
    -31.067  0.0000E+00  0.2160E+03
    -30.806  0.0000E+00  0.2160E+03
    -30.546  0.0000E+00  0.2160E+03
    -30.286  0.0000E+00  0.2160E+03
    -30.026  0.0000E+00  0.2160E+03
    -29.766  0.0000E+00  0.2160E+03
    -29.506  0.0000E+00  0.2160E+03
    -29.246  0.0000E+00  0.2160E+03
    -28.986  0.0000E+00  0.2160E+03
    -28.725  0.0000E+00  0.2160E+03
    -28.465  0.0000E+00  0.2160E+03
    -28.205  0.0000E+00  0.2160E+03
    -27.945  0.0000E+00  0.2160E+03
    -27.685  0.0000E+00  0.2160E+03
    -27.425  0.0000E+00  0.2160E+03
    -27.165  0.0000E+00  0.2160E+03
    -26.904  0.0000E+00  0.2160E+03
    -26.644  0.0000E+00  0.2160E+03
    -26.384  0.0000E+00  0.2160E+03
    -26.124  0.0000E+00  0.2160E+03
    -25.864  0.0000E+00  0.2160E+03
    -25.604  0.0000E+00  0.2160E+03
    -25.344  0.0000E+00  0.2160E+03
    -25.084  0.0000E+00  0.2160E+03
    -24.823  0.0000E+00  0.2160E+03
    -24.563  0.0000E+00  0.2160E+03
    -24.303  0.0000E+00  0.2160E+03
    -24.043  0.0000E+00  0.2160E+03
    -23.783  0.0000E+00  0.2160E+03
    -23.523  0.0000E+00  0.2160E+03
    -23.263  0.0000E+00  0.2160E+03
    -23.003  0.0000E+00  0.2160E+03
    -22.742  0.0000E+00  0.2160E+03
    -22.482  0.0000E+00  0.2160E+03
    -22.222  0.0000E+00  0.2160E+03
    -21.962  0.0000E+00  0.2160E+03
    -21.702  0.0000E+00  0.2160E+03
    -21.442  0.0000E+00  0.2160E+03
    -21.182  0.0000E+00  0.2160E+03
    -20.922  0.0000E+00  0.2160E+03
    -20.661  0.0000E+00  0.2160E+03
    -20.401  0.0000E+00  0.2160E+03
    -20.141  0.0000E+00  0.2160E+03
    -19.881  0.0000E+00  0.2160E+03
    -19.621  0.0000E+00  0.2160E+03
    -19.361  0.0000E+00  0.2160E+03
    -19.101  0.0000E+00  0.2160E+03
    -18.840  0.0000E+00  0.2160E+03
    -18.580  0.0000E+00  0.2160E+03
    -18.320  0.0000E+00  0.2160E+03
    -18.060  0.0000E+00  0.2160E+03
    -17.800  0.0000E+00  0.2160E+03
    -17.540  0.0000E+00  0.2160E+03
    -17.280  0.0000E+00  0.2160E+03
    -17.020  0.0000E+00  0.2160E+03
    -16.759  0.0000E+00  0.2160E+03
    -16.499  0.0000E+00  0.2160E+03
    -16.239  0.0000E+00  0.2160E+03
    -15.979  0.1280E-14  0.2160E+03
    -15.719  0.1020E-08  0.2160E+03
    -15.459  0.2890E-04  0.2160E+03
    -15.199  0.3193E-01  0.2160E+03
    -14.939  0.1606E+01  0.2164E+03
    -14.678  0.5747E+01  0.2179E+03
    -14.418  0.5987E+01  0.2195E+03
    -14.158  0.5703E+01  0.2210E+03
    -13.898  0.1598E+02  0.2251E+03
    -13.638  0.1946E+02  0.2302E+03
    -13.378  0.2111E+02  0.2357E+03
    -13.118  0.2564E+02  0.2423E+03
    -12.857  0.2563E+02  0.2490E+03
    -12.597  0.2531E+02  0.2556E+03
    -12.337  0.2825E+02  0.2629E+03
    -12.077  0.3480E+02  0.2720E+03
    -11.817  0.3040E+02  0.2799E+03
    -11.557  0.1529E+02  0.2839E+03
    -11.297  0.1122E+02  0.2868E+03
    -11.037  0.4379E+01  0.2879E+03
    -10.776  0.2470E+00  0.2880E+03
    -10.516  0.8279E-03  0.2880E+03
    -10.256  0.1160E-06  0.2880E+03
     -9.996  0.6095E-12  0.2880E+03
     -9.736  0.0000E+00  0.2880E+03
     -9.476  0.0000E+00  0.2880E+03
     -9.216  0.0000E+00  0.2880E+03
     -8.956  0.0000E+00  0.2880E+03
     -8.695  0.0000E+00  0.2880E+03
     -8.435  0.0000E+00  0.2880E+03
     -8.175  0.0000E+00  0.2880E+03
     -7.915  0.0000E+00  0.2880E+03
     -7.655  0.3397E-10  0.2880E+03
     -7.395  0.2383E-05  0.2880E+03
     -7.135  0.6374E-02  0.2880E+03
     -6.875  0.7381E+00  0.2882E+03
     -6.614  0.5908E+01  0.2897E+03
     -6.354  0.1518E+02  0.2937E+03
     -6.094  0.2267E+02  0.2996E+03
     -5.834  0.2715E+02  0.3066E+03
     -5.574  0.4380E+02  0.3180E+03
     -5.314  0.4898E+02  0.3308E+03
     -5.054  0.4129E+02  0.3415E+03
     -4.793  0.4118E+02  0.3522E+03
     -4.533  0.3466E+02  0.3612E+03
     -4.273  0.4466E+02  0.3729E+03
     -4.013  0.4990E+02  0.3858E+03
     -3.753  0.5702E+02  0.4007E+03
     -3.493  0.6742E+02  0.4182E+03
     -3.233  0.6237E+02  0.4344E+03
     -2.973  0.5897E+02  0.4498E+03
     -2.712  0.5673E+02  0.4645E+03
     -2.452  0.4973E+02  0.4775E+03
     -2.192  0.4347E+02  0.4888E+03
     -1.932  0.4734E+02  0.5011E+03
     -1.672  0.6075E+02  0.5169E+03
     -1.412  0.7035E+02  0.5352E+03
     -1.152  0.8318E+02  0.5568E+03
     -0.892  0.9719E+02  0.5821E+03
     -0.631  0.1202E+03  0.6134E+03
     -0.371  0.1331E+03  0.6480E+03
     -0.111  0.1383E+03  0.6840E+03
      0.149  0.1144E+03  0.7137E+03
      0.409  0.7645E+02  0.7336E+03
      0.669  0.6625E+02  0.7509E+03
      0.929  0.5800E+02  0.7660E+03
      1.189  0.4894E+02  0.7787E+03
      1.450  0.4275E+02  0.7898E+03
      1.710  0.5143E+02  0.8032E+03
      1.970  0.4594E+02  0.8151E+03
      2.230  0.4963E+02  0.8280E+03
      2.490  0.4988E+02  0.8410E+03
      2.750  0.4696E+02  0.8532E+03
      3.010  0.2817E+02  0.8606E+03
      3.271  0.1133E+02  0.8635E+03
      3.531  0.1869E+01  0.8640E+03
      3.791  0.4190E+00  0.8641E+03
      4.051  0.4219E+01  0.8652E+03
      4.311  0.6390E+01  0.8669E+03
      4.571  0.9973E+01  0.8695E+03
      4.831  0.1197E+02  0.8726E+03
      5.091  0.1242E+02  0.8758E+03
      5.352  0.1576E+02  0.8799E+03
      5.612  0.2064E+02  0.8853E+03
      5.872  0.2528E+02  0.8918E+03
      6.132  0.2660E+02  0.8988E+03
      6.392  0.2409E+02  0.9050E+03
      6.652  0.3066E+02  0.9130E+03
      6.912  0.4165E+02  0.9238E+03
      7.172  0.4653E+02  0.9359E+03
      7.433  0.3975E+02  0.9463E+03
      7.693  0.2004E+02  0.9515E+03
      7.953  0.1906E+01  0.9520E+03
      8.213  0.1470E-01  0.9520E+03
      8.473  0.5870E-05  0.9520E+03
      8.733  0.9745E-10  0.9520E+03
      8.993  0.0000E+00  0.9520E+03
      9.253  0.0000E+00  0.9520E+03
      9.514  0.0000E+00  0.9520E+03
      9.774  0.0000E+00  0.9520E+03
     10.034  0.0000E+00  0.9520E+03
     10.294  0.0000E+00  0.9520E+03
     10.554  0.0000E+00  0.9520E+03
     10.814  0.0000E+00  0.9520E+03
     11.074  0.0000E+00  0.9520E+03
