"Millerite NiS"                         
           1
    10.079733    0.000000    0.000000
     3.573298    9.425103    0.000000
     0.000000    0.000000   20.683504
   Ty   Ty
  36  36
Direct configuration=     1
   0.28894077  0.99361970  0.05812058
   0.39705889  0.79495179  0.12693702
   0.54732740  0.64468328  0.25387405
   0.69759592  0.49441476  0.38081107
   0.81843176  0.34349033  0.48355654
   0.11381506  0.41152895  0.16924937
   0.26408357  0.26126044  0.29618639
   0.41435209  0.11099193  0.42312341
   0.71495739  0.21389633  0.14349707
   0.83057123  0.02810611  0.21156171
   0.98083975  0.87783760  0.33849873
   0.34621471  0.47479442  0.13522073
   0.50762556  0.42017912  0.22033653
   0.65789407  0.26991061  0.34727355
   0.75730711  0.13550323  0.45111414
   0.07411322  0.18702479  0.13571184
   0.22438173  0.03675628  0.26264887
   0.37465025  0.88648777  0.38958589
   0.47535280  0.76577672  0.49205329
   0.89493842  0.25561332  0.06004610
   0.09319074  0.48668961  0.41874336
   0.57451070  0.88961031  0.09627162
   0.79086939  0.80360196  0.17802418
   0.94113790  0.65333344  0.30496121
   0.02331539  0.17297229  0.42341514
   0.58325597  0.59839357  0.08115601
   0.73212972  0.45988096  0.18679900
   0.88239823  0.30961245  0.31373603
   0.29861738  0.22672664  0.10217432
   0.44888589  0.07645812  0.22911134
   0.59915440  0.92618961  0.35604837
   0.77086440  0.79187090  0.43096509
   0.01537355  0.84330380  0.14448666
   0.16564206  0.69303529  0.27142369
   0.30277171  0.56166798  0.38277855
   0.78073843  0.97865161  0.08603196
   0.92631096  0.13825896  0.50637813
   0.58579929  0.40599939  0.11724657
   0.73606781  0.25573088  0.24418359
   0.88633632  0.10546236  0.37112062
   0.12249111  0.18930976  0.04052950
   0.30255546  0.02257655  0.15955891
   0.45282398  0.87230804  0.28649593
   0.60309249  0.72203952  0.41343296
   0.01931164  0.63915371  0.20187125
   0.16958015  0.48888520  0.32880827
   0.30259368  0.34487884  0.42576783
   0.88734379  0.76731834  0.08808237
   0.47161157  0.79180073  0.03471080
   0.63635413  0.69187455  0.15995199
   0.78662264  0.54160604  0.28688901
   0.93689115  0.39133753  0.41382604
   0.19549173  0.43743307  0.08142790
   0.35311030  0.30845171  0.20226433
   0.50337881  0.15818320  0.32920136
   0.63607287  0.00230476  0.44569614
   0.06986647  0.92502888  0.24457667
   0.21195735  0.78485145  0.35452566
   0.35771398  0.65772645  0.45954264
   0.91959796  0.07529739  0.11763965
   0.19143491  0.84679432  0.08961298
   0.35047896  0.64131972  0.20265741
   0.50074748  0.49105120  0.32959444
   0.63425078  0.35291588  0.44032411
   0.06723514  0.25789688  0.24496976
   0.21750365  0.10762837  0.37190678
   0.36114034  0.97278801  0.48096419
   0.91954326  0.39365394  0.12928524
   0.44930840  0.07542704  0.04681607
   0.63372279  0.02474255  0.16034507
   0.78399131  0.87447404  0.28728210
   0.97634443  0.70767066  0.39958048
