 running on   12 total cores
 distrk:  each k-point on   12 cores,    1 groups
 distr:  one band on    6 cores,    2 groups
 using from now: INCAR     
 vasp.5.4.4.18Apr17-6-g9f103f2a35 (build Aug 13 2019 17:33:20) gamma-only       
  
 POSCAR found type information on POSCAR  Ty Ty
 POSCAR found :  2 types and      74 ions
 scaLAPACK will be used
 WARNING: type information on POSCAR and POTCAR are incompatible
 POTCAR overwrites the type information in POSCAR
 typ   1 type information:  Ty Ni
 WARNING: type information on POSCAR and POTCAR are incompatible
 POTCAR overwrites the type information in POSCAR
 typ   2 type information:  Ty S 
 LDA part: xc-table for Pade appr. of Perdew
 POSCAR, INCAR and KPOINTS ok, starting setup
 FFT: planning ...
 WAVECAR not read
 entering main loop
       N       E                     dE             d eps       ncg     rms          rms(c)
DAV:   1     0.917040366763E+04    0.91704E+04   -0.52106E+05  1200   0.154E+03
DAV:   2     0.498509221070E+03   -0.86719E+04   -0.83732E+04  1048   0.491E+02
DAV:   3    -0.352242820636E+03   -0.85075E+03   -0.81829E+03  1136   0.164E+02
DAV:   4    -0.395597035460E+03   -0.43354E+02   -0.42876E+02  1112   0.354E+01
DAV:   5    -0.397302852461E+03   -0.17058E+01   -0.17041E+01  1248   0.736E+00    0.103E+02
DAV:   6    -0.461649018060E+03   -0.64346E+02   -0.95625E+02  1240   0.126E+02    0.158E+02
DAV:   7    -0.361141472939E+03    0.10051E+03   -0.19489E+02  1112   0.716E+01    0.650E+01
DAV:   8    -0.378605226857E+03   -0.17464E+02   -0.22885E+02  1360   0.736E+01    0.952E+01
DAV:   9    -0.366773596746E+03    0.11832E+02   -0.10578E+02  1256   0.560E+01    0.531E+01
DAV:  10    -0.375097474653E+03   -0.83239E+01   -0.59489E+01  1320   0.485E+01    0.801E+01
DAV:  11    -0.358932617129E+03    0.16165E+02   -0.42566E+01  1328   0.350E+01    0.370E+01
DAV:  12    -0.355095998289E+03    0.38366E+01   -0.21986E+01  1344   0.321E+01    0.347E+01
DAV:  13    -0.351254079128E+03    0.38419E+01   -0.15069E+01  1352   0.263E+01    0.266E+01
DAV:  14    -0.349172367294E+03    0.20817E+01   -0.89377E+00  1344   0.179E+01    0.177E+01
DAV:  15    -0.348381044662E+03    0.79132E+00   -0.26212E+00  1320   0.107E+01    0.134E+01
DAV:  16    -0.347950953122E+03    0.43009E+00   -0.12292E+00  1320   0.739E+00    0.111E+01
DAV:  17    -0.347712830221E+03    0.23812E+00   -0.49283E-01  1336   0.459E+00    0.985E+00
DAV:  18    -0.347591580912E+03    0.12125E+00   -0.30678E-01  1328   0.354E+00    0.884E+00
DAV:  19    -0.347418757640E+03    0.17282E+00   -0.30137E-01  1352   0.373E+00    0.750E+00
DAV:  20    -0.347220362811E+03    0.19839E+00   -0.49582E-01  1336   0.454E+00    0.532E+00
DAV:  21    -0.347171057342E+03    0.49305E-01   -0.56181E-01  1456   0.501E+00    0.477E+00
DAV:  22    -0.347110099730E+03    0.60958E-01   -0.19459E-01  1240   0.181E+00    0.319E+00
DAV:  23    -0.347121565924E+03   -0.11466E-01   -0.40907E-02  1272   0.130E+00    0.352E+00
DAV:  24    -0.347100367315E+03    0.21199E-01   -0.32894E-02  1328   0.108E+00    0.304E+00
DAV:  25    -0.347079899876E+03    0.20467E-01   -0.34194E-02  1344   0.132E+00    0.253E+00
DAV:  26    -0.347057233431E+03    0.22666E-01   -0.41415E-02  1328   0.120E+00    0.165E+00
DAV:  27    -0.347047994927E+03    0.92385E-02   -0.24926E-02  1344   0.101E+00    0.987E-01
DAV:  28    -0.347046371165E+03    0.16238E-02   -0.80446E-03  1272   0.480E-01    0.753E-01
DAV:  29    -0.347045487008E+03    0.88416E-03   -0.37483E-03  1088   0.380E-01    0.585E-01
DAV:  30    -0.347045302539E+03    0.18447E-03   -0.14008E-03  1152   0.218E-01    0.476E-01
DAV:  31    -0.347045097821E+03    0.20472E-03   -0.10327E-03  1040   0.207E-01    0.361E-01
DAV:  32    -0.347045281280E+03   -0.18346E-03   -0.92704E-04  1072   0.205E-01    0.270E-01
DAV:  33    -0.347045447764E+03   -0.16648E-03   -0.98019E-04  1072   0.205E-01    0.128E-01
DAV:  34    -0.347045865474E+03   -0.41771E-03   -0.37837E-04   800   0.131E-01    0.150E-01
DAV:  35    -0.347046066401E+03   -0.20093E-03   -0.23770E-04   624   0.119E-01    0.851E-02
DAV:  36    -0.347046387033E+03   -0.32063E-03   -0.10735E-04   608   0.689E-02    0.826E-02
DAV:  37    -0.347046763852E+03   -0.37682E-03   -0.11494E-04   648   0.711E-02    0.547E-02
DAV:  38    -0.347047319394E+03   -0.55554E-03   -0.15332E-04   688   0.609E-02    0.661E-02
DAV:  39    -0.347047626221E+03   -0.30683E-03   -0.95772E-05   608   0.588E-02    0.574E-02
DAV:  40    -0.347047950251E+03   -0.32403E-03   -0.60963E-05   616   0.384E-02    0.609E-02
DAV:  41    -0.347048158094E+03   -0.20784E-03   -0.52058E-05   600   0.398E-02    0.487E-02
DAV:  42    -0.347048461029E+03   -0.30293E-03   -0.36113E-05   616   0.300E-02    0.398E-02
DAV:  43    -0.347048587865E+03   -0.12684E-03   -0.35097E-05   600   0.294E-02    0.225E-02
DAV:  44    -0.347048750100E+03   -0.16224E-03   -0.25775E-05   600   0.163E-02    0.239E-02
DAV:  45    -0.347048801558E+03   -0.51458E-04   -0.14922E-05   616   0.171E-02
   1 F= -.34704880E+03 E0= -.34649814E+03  d E =-.110132E+01
