"Millerite NiS"                         
           1
    16.884694    0.000000    0.000000
     0.000000    9.578410    0.000000
     0.000000    0.000000   16.654646
   Ty   Ty
  37  37
Direct configuration=     1
   0.78004630  0.14529696  0.12347080
   0.81742424  0.14310913  0.29154150
   0.21696437  0.67622432  0.09552304
   0.29733028  0.64529696  0.21607389
   0.38966831  0.15195556  0.13086669
   0.46975828  0.14529696  0.24694159
   0.95247430  0.64529696  0.15433850
   0.95172686  0.63869977  0.29817999
   0.17149483  0.14683762  0.04688026
   0.12490229  0.14529696  0.18520619
   0.05102010  0.14639696  0.30698039
   0.56481759  0.61370068  0.16368353
   0.64218627  0.64529696  0.27780929
   0.91075928  0.00638971  0.12083059
   0.94104513  0.00060799  0.26549255
   0.45386144  0.43871520  0.05690159
   0.42486675  0.51319396  0.19160760
   0.45290214  0.48267627  0.33594982
   0.53018308  0.14304708  0.09139427
   0.59729475  0.01319396  0.22247530
   0.08001077  0.51319396  0.12987220
   0.25243876  0.01319396  0.16073990
   0.29737931  0.89099645  0.27323603
   0.75651159  0.40524239  0.11947685
   0.76972274  0.51319396  0.25334300
   0.90403418  0.40972509  0.13207055
   0.94174274  0.28999952  0.26381287
   0.35769251  0.64328827  0.06225545
   0.42486675  0.77739996  0.19160760
   0.54695077  0.83971884  0.30325326
   0.59863809  0.36694055  0.09095494
   0.59729475  0.27739996  0.22247530
   0.08001077  0.77739996  0.12987220
   0.13275507  0.77930801  0.27054064
   0.25243876  0.27739996  0.16073990
   0.27337187  0.30031697  0.30276475
   0.76972274  0.77739996  0.25334300
   0.93283078  0.14636029  0.35491454
   0.99146120  0.14529696  0.18349304
   0.47417723  0.64529696  0.09088994
   0.50874518  0.64529696  0.27609614
   0.64660522  0.14529696  0.12175764
   0.69124984  0.14827335  0.27204323
   0.11399987  0.64906471  0.03602804
   0.16456695  0.61206358  0.20090742
   0.24206964  0.72475114  0.32238233
   0.28957115  0.14525371  0.06371674
   0.33631719  0.14529696  0.24522844
   0.82785833  0.58892956  0.14787250
   0.83560079  0.65264657  0.32409709
   0.83424199  0.29406285  0.05053779
   0.82906105  0.31351196  0.21464750
   0.31177707  0.81351196  0.12204440
   0.41612624  0.87401256  0.30326584
   0.48420507  0.31351196  0.15291210
   0.51858161  0.31138916  0.31744818
   0.00148905  0.81351196  0.24551520
   0.96803633  0.82597605  0.08409926
   0.14063822  0.32216275  0.10949192
   0.15485958  0.26234646  0.28668279
   0.62725723  0.80430898  0.18919636
   0.67499827  0.83083166  0.33096555
   0.31177707  0.47708196  0.12204440
   0.34120589  0.47821347  0.29015844
   0.81938771  0.00450252  0.04436582
   0.82906105  0.97708196  0.21464750
   0.99422558  0.47775469  0.22532509
   0.97892658  0.51436811  0.05692772
   0.48420507  0.97708196  0.15291210
   0.54350126  0.04700228  0.33202821
   0.65663306  0.47708196  0.18377980
   0.69730825  0.50705445  0.35081496
   0.14068237  0.96727499  0.10628353
   0.17391704  0.97708196  0.27638290
