  52  52   0   0
  0.3564765E+02  0.1125646E-08  0.9578410E-09  0.1719249E-08  0.5000000E-15
  1.000000000000000E-004
  CAR 
 "Millerite NiS"                         
      9.44117946    -68.39544950  301     -0.10533333      1.00000000
    -68.395  0.0000E+00  0.0000E+00
    -68.136  0.0000E+00  0.0000E+00
    -67.877  0.0000E+00  0.0000E+00
    -67.617  0.0000E+00  0.0000E+00
    -67.358  0.0000E+00  0.0000E+00
    -67.098  0.0000E+00  0.0000E+00
    -66.839  0.0000E+00  0.0000E+00
    -66.579  0.0000E+00  0.0000E+00
    -66.320  0.0000E+00  0.0000E+00
    -66.060  0.0000E+00  0.0000E+00
    -65.801  0.2019E-09  0.5239E-10
    -65.541  0.1196E-04  0.3102E-05
    -65.282  0.2978E-01  0.7730E-02
    -65.023  0.4015E+01  0.1049E+01
    -64.763  0.5489E+02  0.1529E+02
    -64.504  0.1602E+03  0.5687E+02
    -64.244  0.1822E+03  0.1041E+03
    -63.985  0.1286E+03  0.1375E+03
    -63.725  0.4723E+02  0.1498E+03
    -63.466  0.1685E+02  0.1541E+03
    -63.206  0.6735E+01  0.1559E+03
    -62.947  0.4286E+00  0.1560E+03
    -62.687  0.1861E-02  0.1560E+03
    -62.428  0.3706E-06  0.1560E+03
    -62.169  0.2889E-11  0.1560E+03
    -61.909  0.0000E+00  0.1560E+03
    -61.650  0.0000E+00  0.1560E+03
    -61.390  0.0000E+00  0.1560E+03
    -61.131  0.0000E+00  0.1560E+03
    -60.871  0.0000E+00  0.1560E+03
    -60.612  0.0000E+00  0.1560E+03
    -60.352  0.0000E+00  0.1560E+03
    -60.093  0.0000E+00  0.1560E+03
    -59.833  0.0000E+00  0.1560E+03
    -59.574  0.0000E+00  0.1560E+03
    -59.315  0.0000E+00  0.1560E+03
    -59.055  0.0000E+00  0.1560E+03
    -58.796  0.0000E+00  0.1560E+03
    -58.536  0.0000E+00  0.1560E+03
    -58.277  0.0000E+00  0.1560E+03
    -58.017  0.0000E+00  0.1560E+03
    -57.758  0.0000E+00  0.1560E+03
    -57.498  0.0000E+00  0.1560E+03
    -57.239  0.0000E+00  0.1560E+03
    -56.979  0.0000E+00  0.1560E+03
    -56.720  0.0000E+00  0.1560E+03
    -56.460  0.0000E+00  0.1560E+03
    -56.201  0.0000E+00  0.1560E+03
    -55.942  0.0000E+00  0.1560E+03
    -55.682  0.0000E+00  0.1560E+03
    -55.423  0.0000E+00  0.1560E+03
    -55.163  0.0000E+00  0.1560E+03
    -54.904  0.0000E+00  0.1560E+03
    -54.644  0.0000E+00  0.1560E+03
    -54.385  0.0000E+00  0.1560E+03
    -54.125  0.0000E+00  0.1560E+03
    -53.866  0.0000E+00  0.1560E+03
    -53.606  0.0000E+00  0.1560E+03
    -53.347  0.0000E+00  0.1560E+03
    -53.088  0.0000E+00  0.1560E+03
    -52.828  0.0000E+00  0.1560E+03
    -52.569  0.0000E+00  0.1560E+03
    -52.309  0.0000E+00  0.1560E+03
    -52.050  0.0000E+00  0.1560E+03
    -51.790  0.0000E+00  0.1560E+03
    -51.531  0.0000E+00  0.1560E+03
    -51.271  0.0000E+00  0.1560E+03
    -51.012  0.0000E+00  0.1560E+03
    -50.752  0.0000E+00  0.1560E+03
    -50.493  0.0000E+00  0.1560E+03
    -50.234  0.0000E+00  0.1560E+03
    -49.974  0.0000E+00  0.1560E+03
    -49.715  0.0000E+00  0.1560E+03
    -49.455  0.0000E+00  0.1560E+03
    -49.196  0.0000E+00  0.1560E+03
    -48.936  0.0000E+00  0.1560E+03
    -48.677  0.0000E+00  0.1560E+03
    -48.417  0.0000E+00  0.1560E+03
    -48.158  0.0000E+00  0.1560E+03
    -47.898  0.0000E+00  0.1560E+03
    -47.639  0.0000E+00  0.1560E+03
    -47.380  0.0000E+00  0.1560E+03
    -47.120  0.0000E+00  0.1560E+03
    -46.861  0.0000E+00  0.1560E+03
    -46.601  0.0000E+00  0.1560E+03
    -46.342  0.0000E+00  0.1560E+03
    -46.082  0.0000E+00  0.1560E+03
    -45.823  0.0000E+00  0.1560E+03
    -45.563  0.0000E+00  0.1560E+03
    -45.304  0.0000E+00  0.1560E+03
    -45.044  0.0000E+00  0.1560E+03
    -44.785  0.0000E+00  0.1560E+03
    -44.526  0.0000E+00  0.1560E+03
    -44.266  0.0000E+00  0.1560E+03
    -44.007  0.0000E+00  0.1560E+03
    -43.747  0.0000E+00  0.1560E+03
    -43.488  0.0000E+00  0.1560E+03
    -43.228  0.0000E+00  0.1560E+03
    -42.969  0.0000E+00  0.1560E+03
    -42.709  0.0000E+00  0.1560E+03
    -42.450  0.0000E+00  0.1560E+03
    -42.190  0.0000E+00  0.1560E+03
    -41.931  0.0000E+00  0.1560E+03
    -41.672  0.0000E+00  0.1560E+03
    -41.412  0.0000E+00  0.1560E+03
    -41.153  0.0000E+00  0.1560E+03
    -40.893  0.0000E+00  0.1560E+03
    -40.634  0.0000E+00  0.1560E+03
    -40.374  0.0000E+00  0.1560E+03
    -40.115  0.0000E+00  0.1560E+03
    -39.855  0.0000E+00  0.1560E+03
    -39.596  0.0000E+00  0.1560E+03
    -39.336  0.0000E+00  0.1560E+03
    -39.077  0.0000E+00  0.1560E+03
    -38.818  0.0000E+00  0.1560E+03
    -38.558  0.0000E+00  0.1560E+03
    -38.299  0.0000E+00  0.1560E+03
    -38.039  0.0000E+00  0.1560E+03
    -37.780  0.0000E+00  0.1560E+03
    -37.520  0.0000E+00  0.1560E+03
    -37.261  0.0000E+00  0.1560E+03
    -37.001  0.0000E+00  0.1560E+03
    -36.742  0.0000E+00  0.1560E+03
    -36.482  0.0000E+00  0.1560E+03
    -36.223  0.0000E+00  0.1560E+03
    -35.964  0.0000E+00  0.1560E+03
    -35.704  0.0000E+00  0.1560E+03
    -35.445  0.0000E+00  0.1560E+03
    -35.185  0.0000E+00  0.1560E+03
    -34.926  0.0000E+00  0.1560E+03
    -34.666  0.0000E+00  0.1560E+03
    -34.407  0.0000E+00  0.1560E+03
    -34.147  0.0000E+00  0.1560E+03
    -33.888  0.0000E+00  0.1560E+03
    -33.628  0.0000E+00  0.1560E+03
    -33.369  0.0000E+00  0.1560E+03
    -33.110  0.0000E+00  0.1560E+03
    -32.850  0.0000E+00  0.1560E+03
    -32.591  0.0000E+00  0.1560E+03
    -32.331  0.0000E+00  0.1560E+03
    -32.072  0.0000E+00  0.1560E+03
    -31.812  0.0000E+00  0.1560E+03
    -31.553  0.0000E+00  0.1560E+03
    -31.293  0.0000E+00  0.1560E+03
    -31.034  0.0000E+00  0.1560E+03
    -30.774  0.0000E+00  0.1560E+03
    -30.515  0.0000E+00  0.1560E+03
    -30.256  0.0000E+00  0.1560E+03
    -29.996  0.0000E+00  0.1560E+03
    -29.737  0.0000E+00  0.1560E+03
    -29.477  0.0000E+00  0.1560E+03
    -29.218  0.0000E+00  0.1560E+03
    -28.958  0.0000E+00  0.1560E+03
    -28.699  0.0000E+00  0.1560E+03
    -28.439  0.0000E+00  0.1560E+03
    -28.180  0.0000E+00  0.1560E+03
    -27.920  0.0000E+00  0.1560E+03
    -27.661  0.0000E+00  0.1560E+03
    -27.401  0.0000E+00  0.1560E+03
    -27.142  0.0000E+00  0.1560E+03
    -26.883  0.0000E+00  0.1560E+03
    -26.623  0.0000E+00  0.1560E+03
    -26.364  0.0000E+00  0.1560E+03
    -26.104  0.0000E+00  0.1560E+03
    -25.845  0.0000E+00  0.1560E+03
    -25.585  0.0000E+00  0.1560E+03
    -25.326  0.0000E+00  0.1560E+03
    -25.066  0.0000E+00  0.1560E+03
    -24.807  0.0000E+00  0.1560E+03
    -24.547  0.0000E+00  0.1560E+03
    -24.288  0.0000E+00  0.1560E+03
    -24.029  0.0000E+00  0.1560E+03
    -23.769  0.0000E+00  0.1560E+03
    -23.510  0.0000E+00  0.1560E+03
    -23.250  0.0000E+00  0.1560E+03
    -22.991  0.0000E+00  0.1560E+03
    -22.731  0.0000E+00  0.1560E+03
    -22.472  0.0000E+00  0.1560E+03
    -22.212  0.0000E+00  0.1560E+03
    -21.953  0.0000E+00  0.1560E+03
    -21.693  0.0000E+00  0.1560E+03
    -21.434  0.0000E+00  0.1560E+03
    -21.175  0.0000E+00  0.1560E+03
    -20.915  0.0000E+00  0.1560E+03
    -20.656  0.0000E+00  0.1560E+03
    -20.396  0.0000E+00  0.1560E+03
    -20.137  0.0000E+00  0.1560E+03
    -19.877  0.0000E+00  0.1560E+03
    -19.618  0.0000E+00  0.1560E+03
    -19.358  0.0000E+00  0.1560E+03
    -19.099  0.0000E+00  0.1560E+03
    -18.839  0.0000E+00  0.1560E+03
    -18.580  0.0000E+00  0.1560E+03
    -18.321  0.0000E+00  0.1560E+03
    -18.061  0.3808E-13  0.1560E+03
    -17.802  0.1350E-07  0.1560E+03
    -17.542  0.1801E-03  0.1560E+03
    -17.283  0.9766E-01  0.1560E+03
    -17.023  0.2693E+01  0.1567E+03
    -16.764  0.7405E+01  0.1586E+03
    -16.504  0.4780E+01  0.1599E+03
    -16.245  0.1076E+01  0.1602E+03
    -15.985  0.5036E+01  0.1615E+03
    -15.726  0.7852E+01  0.1635E+03
    -15.467  0.1023E+02  0.1662E+03
    -15.207  0.1236E+02  0.1694E+03
    -14.948  0.1464E+02  0.1732E+03
    -14.688  0.1833E+02  0.1779E+03
    -14.429  0.9667E+01  0.1804E+03
    -14.169  0.1694E+02  0.1848E+03
    -13.910  0.2382E+02  0.1910E+03
    -13.650  0.2238E+02  0.1968E+03
    -13.391  0.2192E+02  0.2025E+03
    -13.131  0.1484E+02  0.2063E+03
    -12.872  0.5807E+01  0.2079E+03
    -12.613  0.5542E+00  0.2080E+03
    -12.353  0.3631E-02  0.2080E+03
    -12.094  0.1045E-05  0.2080E+03
    -11.834  0.1161E-10  0.2080E+03
    -11.575  0.0000E+00  0.2080E+03
    -11.315  0.0000E+00  0.2080E+03
    -11.056  0.0000E+00  0.2080E+03
    -10.796  0.0000E+00  0.2080E+03
    -10.537  0.0000E+00  0.2080E+03
    -10.277  0.0000E+00  0.2080E+03
    -10.018  0.0000E+00  0.2080E+03
     -9.759  0.1506E-12  0.2080E+03
     -9.499  0.3882E-07  0.2080E+03
     -9.240  0.3786E-03  0.2080E+03
     -8.980  0.1518E+00  0.2080E+03
     -8.721  0.3181E+01  0.2089E+03
     -8.461  0.7932E+01  0.2109E+03
     -8.202  0.1231E+02  0.2141E+03
     -7.942  0.1604E+02  0.2183E+03
     -7.683  0.2180E+02  0.2239E+03
     -7.423  0.1803E+02  0.2286E+03
     -7.164  0.2191E+02  0.2343E+03
     -6.905  0.2506E+02  0.2408E+03
     -6.645  0.2801E+02  0.2481E+03
     -6.386  0.2524E+02  0.2546E+03
     -6.126  0.3510E+02  0.2637E+03
     -5.867  0.3579E+02  0.2730E+03
     -5.607  0.3318E+02  0.2816E+03
     -5.348  0.3995E+02  0.2920E+03
     -5.088  0.5044E+02  0.3051E+03
     -4.829  0.5350E+02  0.3189E+03
     -4.569  0.4530E+02  0.3307E+03
     -4.310  0.3558E+02  0.3399E+03
     -4.051  0.3171E+02  0.3482E+03
     -3.791  0.3168E+02  0.3564E+03
     -3.532  0.4186E+02  0.3672E+03
     -3.272  0.4714E+02  0.3795E+03
     -3.013  0.5906E+02  0.3948E+03
     -2.753  0.6954E+02  0.4128E+03
     -2.494  0.7163E+02  0.4314E+03
     -2.234  0.7415E+02  0.4507E+03
     -1.975  0.8140E+02  0.4718E+03
     -1.715  0.8207E+02  0.4931E+03
     -1.456  0.7104E+02  0.5115E+03
     -1.196  0.5199E+02  0.5250E+03
     -0.937  0.4717E+02  0.5372E+03
     -0.678  0.4439E+02  0.5487E+03
     -0.418  0.4152E+02  0.5595E+03
     -0.159  0.4012E+02  0.5699E+03
      0.101  0.3545E+02  0.5791E+03
      0.360  0.3234E+02  0.5875E+03
      0.620  0.3308E+02  0.5961E+03
      0.879  0.2987E+02  0.6039E+03
      1.139  0.2903E+02  0.6114E+03
      1.398  0.2521E+02  0.6179E+03
      1.658  0.1695E+02  0.6223E+03
      1.917  0.5970E+01  0.6239E+03
      2.176  0.1011E+01  0.6241E+03
      2.436  0.4351E+01  0.6253E+03
      2.695  0.2732E+01  0.6260E+03
      2.955  0.4203E+00  0.6261E+03
      3.214  0.4017E+01  0.6271E+03
      3.474  0.7324E+01  0.6290E+03
      3.733  0.9838E+01  0.6316E+03
      3.993  0.1729E+02  0.6361E+03
      4.252  0.2118E+02  0.6416E+03
      4.512  0.1802E+02  0.6462E+03
      4.771  0.2407E+02  0.6525E+03
      5.030  0.2941E+02  0.6601E+03
      5.290  0.3307E+02  0.6687E+03
      5.549  0.3284E+02  0.6772E+03
      5.809  0.2870E+02  0.6847E+03
      6.068  0.1177E+02  0.6877E+03
      6.328  0.1128E+01  0.6880E+03
      6.587  0.1069E-01  0.6880E+03
      6.847  0.5116E-05  0.6880E+03
      7.106  0.9777E-10  0.6880E+03
      7.366  0.0000E+00  0.6880E+03
      7.625  0.0000E+00  0.6880E+03
      7.884  0.0000E+00  0.6880E+03
      8.144  0.0000E+00  0.6880E+03
      8.403  0.0000E+00  0.6880E+03
      8.663  0.0000E+00  0.6880E+03
      8.922  0.0000E+00  0.6880E+03
      9.182  0.0000E+00  0.6880E+03
      9.441  0.0000E+00  0.6880E+03
