"Millerite NiS"                         
           1
    10.079733    0.000000    0.000000
     3.573298    9.425103    0.000000
     0.000000    0.000000   20.683504
   Ty   Ty
  36  36
Direct configuration=     1
   0.39705889  0.79495179  0.11816221
   0.54732740  0.64468328  0.24509923
   0.69759592  0.49441477  0.37203626
   0.11381506  0.41152895  0.16047455
   0.26408357  0.26126044  0.28741157
   0.41435209  0.11099193  0.41434860
   0.99515700  0.59535192  0.09399943
   0.11778094  0.76550146  0.44576812
   0.71284842  0.21547877  0.13762361
   0.83057123  0.02810612  0.20278689
   0.98083974  0.87783760  0.32972391
   0.36367571  0.55259090  0.10420227
   0.50762556  0.42017912  0.21156171
   0.65789407  0.26991061  0.33849873
   0.79226667  0.11810188  0.44908316
   0.07411322  0.18702480  0.12693702
   0.22438173  0.03675628  0.25387405
   0.37465024  0.88648777  0.38081107
   0.46724295  0.65549344  0.43639598
   0.07353000  0.36338224  0.03989791
   0.08770543  0.48850397  0.40856152
   0.62615631  0.84793464  0.07816379
   0.79086939  0.80360196  0.16924937
   0.94113790  0.65333345  0.29618639
   0.02419979  0.16651650  0.41469161
   0.59119360  0.59386521  0.07151270
   0.73212972  0.45988096  0.17802418
   0.88239823  0.30961245  0.30496121
   0.29861738  0.22672664  0.09339950
   0.44888589  0.07645813  0.22033653
   0.59915440  0.92618961  0.34727355
   0.01537355  0.84330380  0.13571184
   0.16564206  0.69303529  0.26264887
   0.31591057  0.54276678  0.38958589
   0.46762544  0.40979982  0.47001387
   0.76785699  0.00226195  0.07280621
   0.00728085  0.98649672  0.46416893
   0.58579929  0.40599939  0.10847175
   0.73606780  0.25573088  0.23540877
   0.88633632  0.10546237  0.36234580
   0.17354349  0.15178555  0.03816651
   0.30255546  0.02257655  0.15078409
   0.45282397  0.87230804  0.27772112
   0.59808767  0.72805581  0.38400779
   0.01931163  0.63915371  0.19309643
   0.16958015  0.48888520  0.32003346
   0.30845675  0.34722001  0.43104016
   0.86904312  0.78942223  0.06615941
   0.48316708  0.78258182  0.02800743
   0.63635413  0.69187455  0.15117717
   0.78662264  0.54160604  0.27811420
   0.93305898  0.38742709  0.39201104
   0.21481061  0.45236667  0.07618814
   0.35311030  0.30845172  0.19348951
   0.50337881  0.15818320  0.32042654
   0.63588098  0.03356347  0.42803528
   0.06986647  0.92502888  0.23580185
   0.22013498  0.77476037  0.36273888
   0.30944213  0.61212968  0.48495337
   0.91959796  0.07529739  0.10886483
   0.21271758  0.75924138  0.08840567
   0.35047896  0.64131972  0.19388260
   0.50074747  0.49105121  0.32081962
   0.67138264  0.33655792  0.43410202
   0.06723513  0.25789688  0.23619494
   0.21750365  0.10762837  0.36313196
   0.41351924  0.94351798  0.46906962
   0.91696662  0.40816539  0.10925791
   0.60518819  0.00677119  0.01469530
   0.63372279  0.02474256  0.15157025
   0.78399130  0.87447404  0.27850728
   0.97231991  0.70869561  0.39084491
