  72  72   0   0
  0.3546828E+02  0.1688469E-08  0.9578410E-09  0.1579014E-08  0.5000000E-15
  1.000000000000000E-004
  CAR 
 "Millerite NiS"                         
      9.29209227    -67.83716120  301     -0.18749256      1.00000000
    -67.837  0.0000E+00  0.0000E+00
    -67.580  0.0000E+00  0.0000E+00
    -67.323  0.0000E+00  0.0000E+00
    -67.066  0.0000E+00  0.0000E+00
    -66.809  0.0000E+00  0.0000E+00
    -66.552  0.0000E+00  0.0000E+00
    -66.295  0.0000E+00  0.0000E+00
    -66.037  0.0000E+00  0.0000E+00
    -65.780  0.0000E+00  0.0000E+00
    -65.523  0.0000E+00  0.0000E+00
    -65.266  0.5538E-09  0.1424E-09
    -65.009  0.3180E-04  0.8175E-05
    -64.752  0.8375E-01  0.2154E-01
    -64.495  0.1216E+02  0.3149E+01
    -64.238  0.1380E+03  0.3862E+02
    -63.981  0.2142E+03  0.9370E+02
    -63.724  0.1357E+03  0.1286E+03
    -63.467  0.1448E+03  0.1658E+03
    -63.209  0.1029E+03  0.1923E+03
    -62.952  0.6069E+02  0.2079E+03
    -62.695  0.2892E+02  0.2153E+03
    -62.438  0.2697E+01  0.2160E+03
    -62.181  0.2003E-01  0.2160E+03
    -61.924  0.7825E-05  0.2160E+03
    -61.667  0.1354E-09  0.2160E+03
    -61.410  0.0000E+00  0.2160E+03
    -61.153  0.0000E+00  0.2160E+03
    -60.896  0.0000E+00  0.2160E+03
    -60.638  0.0000E+00  0.2160E+03
    -60.381  0.0000E+00  0.2160E+03
    -60.124  0.0000E+00  0.2160E+03
    -59.867  0.0000E+00  0.2160E+03
    -59.610  0.0000E+00  0.2160E+03
    -59.353  0.0000E+00  0.2160E+03
    -59.096  0.0000E+00  0.2160E+03
    -58.839  0.0000E+00  0.2160E+03
    -58.582  0.0000E+00  0.2160E+03
    -58.325  0.0000E+00  0.2160E+03
    -58.067  0.0000E+00  0.2160E+03
    -57.810  0.0000E+00  0.2160E+03
    -57.553  0.0000E+00  0.2160E+03
    -57.296  0.0000E+00  0.2160E+03
    -57.039  0.0000E+00  0.2160E+03
    -56.782  0.0000E+00  0.2160E+03
    -56.525  0.0000E+00  0.2160E+03
    -56.268  0.0000E+00  0.2160E+03
    -56.011  0.0000E+00  0.2160E+03
    -55.754  0.0000E+00  0.2160E+03
    -55.496  0.0000E+00  0.2160E+03
    -55.239  0.0000E+00  0.2160E+03
    -54.982  0.0000E+00  0.2160E+03
    -54.725  0.0000E+00  0.2160E+03
    -54.468  0.0000E+00  0.2160E+03
    -54.211  0.0000E+00  0.2160E+03
    -53.954  0.0000E+00  0.2160E+03
    -53.697  0.0000E+00  0.2160E+03
    -53.440  0.0000E+00  0.2160E+03
    -53.183  0.0000E+00  0.2160E+03
    -52.926  0.0000E+00  0.2160E+03
    -52.668  0.0000E+00  0.2160E+03
    -52.411  0.0000E+00  0.2160E+03
    -52.154  0.0000E+00  0.2160E+03
    -51.897  0.0000E+00  0.2160E+03
    -51.640  0.0000E+00  0.2160E+03
    -51.383  0.0000E+00  0.2160E+03
    -51.126  0.0000E+00  0.2160E+03
    -50.869  0.0000E+00  0.2160E+03
    -50.612  0.0000E+00  0.2160E+03
    -50.355  0.0000E+00  0.2160E+03
    -50.097  0.0000E+00  0.2160E+03
    -49.840  0.0000E+00  0.2160E+03
    -49.583  0.0000E+00  0.2160E+03
    -49.326  0.0000E+00  0.2160E+03
    -49.069  0.0000E+00  0.2160E+03
    -48.812  0.0000E+00  0.2160E+03
    -48.555  0.0000E+00  0.2160E+03
    -48.298  0.0000E+00  0.2160E+03
    -48.041  0.0000E+00  0.2160E+03
    -47.784  0.0000E+00  0.2160E+03
    -47.526  0.0000E+00  0.2160E+03
    -47.269  0.0000E+00  0.2160E+03
    -47.012  0.0000E+00  0.2160E+03
    -46.755  0.0000E+00  0.2160E+03
    -46.498  0.0000E+00  0.2160E+03
    -46.241  0.0000E+00  0.2160E+03
    -45.984  0.0000E+00  0.2160E+03
    -45.727  0.0000E+00  0.2160E+03
    -45.470  0.0000E+00  0.2160E+03
    -45.213  0.0000E+00  0.2160E+03
    -44.955  0.0000E+00  0.2160E+03
    -44.698  0.0000E+00  0.2160E+03
    -44.441  0.0000E+00  0.2160E+03
    -44.184  0.0000E+00  0.2160E+03
    -43.927  0.0000E+00  0.2160E+03
    -43.670  0.0000E+00  0.2160E+03
    -43.413  0.0000E+00  0.2160E+03
    -43.156  0.0000E+00  0.2160E+03
    -42.899  0.0000E+00  0.2160E+03
    -42.642  0.0000E+00  0.2160E+03
    -42.385  0.0000E+00  0.2160E+03
    -42.127  0.0000E+00  0.2160E+03
    -41.870  0.0000E+00  0.2160E+03
    -41.613  0.0000E+00  0.2160E+03
    -41.356  0.0000E+00  0.2160E+03
    -41.099  0.0000E+00  0.2160E+03
    -40.842  0.0000E+00  0.2160E+03
    -40.585  0.0000E+00  0.2160E+03
    -40.328  0.0000E+00  0.2160E+03
    -40.071  0.0000E+00  0.2160E+03
    -39.814  0.0000E+00  0.2160E+03
    -39.556  0.0000E+00  0.2160E+03
    -39.299  0.0000E+00  0.2160E+03
    -39.042  0.0000E+00  0.2160E+03
    -38.785  0.0000E+00  0.2160E+03
    -38.528  0.0000E+00  0.2160E+03
    -38.271  0.0000E+00  0.2160E+03
    -38.014  0.0000E+00  0.2160E+03
    -37.757  0.0000E+00  0.2160E+03
    -37.500  0.0000E+00  0.2160E+03
    -37.243  0.0000E+00  0.2160E+03
    -36.985  0.0000E+00  0.2160E+03
    -36.728  0.0000E+00  0.2160E+03
    -36.471  0.0000E+00  0.2160E+03
    -36.214  0.0000E+00  0.2160E+03
    -35.957  0.0000E+00  0.2160E+03
    -35.700  0.0000E+00  0.2160E+03
    -35.443  0.0000E+00  0.2160E+03
    -35.186  0.0000E+00  0.2160E+03
    -34.929  0.0000E+00  0.2160E+03
    -34.672  0.0000E+00  0.2160E+03
    -34.414  0.0000E+00  0.2160E+03
    -34.157  0.0000E+00  0.2160E+03
    -33.900  0.0000E+00  0.2160E+03
    -33.643  0.0000E+00  0.2160E+03
    -33.386  0.0000E+00  0.2160E+03
    -33.129  0.0000E+00  0.2160E+03
    -32.872  0.0000E+00  0.2160E+03
    -32.615  0.0000E+00  0.2160E+03
    -32.358  0.0000E+00  0.2160E+03
    -32.101  0.0000E+00  0.2160E+03
    -31.844  0.0000E+00  0.2160E+03
    -31.586  0.0000E+00  0.2160E+03
    -31.329  0.0000E+00  0.2160E+03
    -31.072  0.0000E+00  0.2160E+03
    -30.815  0.0000E+00  0.2160E+03
    -30.558  0.0000E+00  0.2160E+03
    -30.301  0.0000E+00  0.2160E+03
    -30.044  0.0000E+00  0.2160E+03
    -29.787  0.0000E+00  0.2160E+03
    -29.530  0.0000E+00  0.2160E+03
    -29.273  0.0000E+00  0.2160E+03
    -29.015  0.0000E+00  0.2160E+03
    -28.758  0.0000E+00  0.2160E+03
    -28.501  0.0000E+00  0.2160E+03
    -28.244  0.0000E+00  0.2160E+03
    -27.987  0.0000E+00  0.2160E+03
    -27.730  0.0000E+00  0.2160E+03
    -27.473  0.0000E+00  0.2160E+03
    -27.216  0.0000E+00  0.2160E+03
    -26.959  0.0000E+00  0.2160E+03
    -26.702  0.0000E+00  0.2160E+03
    -26.444  0.0000E+00  0.2160E+03
    -26.187  0.0000E+00  0.2160E+03
    -25.930  0.0000E+00  0.2160E+03
    -25.673  0.0000E+00  0.2160E+03
    -25.416  0.0000E+00  0.2160E+03
    -25.159  0.0000E+00  0.2160E+03
    -24.902  0.0000E+00  0.2160E+03
    -24.645  0.0000E+00  0.2160E+03
    -24.388  0.0000E+00  0.2160E+03
    -24.131  0.0000E+00  0.2160E+03
    -23.873  0.0000E+00  0.2160E+03
    -23.616  0.0000E+00  0.2160E+03
    -23.359  0.0000E+00  0.2160E+03
    -23.102  0.0000E+00  0.2160E+03
    -22.845  0.0000E+00  0.2160E+03
    -22.588  0.0000E+00  0.2160E+03
    -22.331  0.0000E+00  0.2160E+03
    -22.074  0.0000E+00  0.2160E+03
    -21.817  0.0000E+00  0.2160E+03
    -21.560  0.0000E+00  0.2160E+03
    -21.303  0.0000E+00  0.2160E+03
    -21.045  0.0000E+00  0.2160E+03
    -20.788  0.0000E+00  0.2160E+03
    -20.531  0.0000E+00  0.2160E+03
    -20.274  0.0000E+00  0.2160E+03
    -20.017  0.0000E+00  0.2160E+03
    -19.760  0.0000E+00  0.2160E+03
    -19.503  0.0000E+00  0.2160E+03
    -19.246  0.0000E+00  0.2160E+03
    -18.989  0.0000E+00  0.2160E+03
    -18.732  0.0000E+00  0.2160E+03
    -18.474  0.0000E+00  0.2160E+03
    -18.217  0.0000E+00  0.2160E+03
    -17.960  0.0000E+00  0.2160E+03
    -17.703  0.0000E+00  0.2160E+03
    -17.446  0.0000E+00  0.2160E+03
    -17.189  0.0000E+00  0.2160E+03
    -16.932  0.0000E+00  0.2160E+03
    -16.675  0.0000E+00  0.2160E+03
    -16.418  0.0000E+00  0.2160E+03
    -16.161  0.3358E-11  0.2160E+03
    -15.903  0.3762E-06  0.2160E+03
    -15.646  0.1712E-02  0.2160E+03
    -15.389  0.3487E+00  0.2161E+03
    -15.132  0.4327E+01  0.2172E+03
    -14.875  0.9850E+01  0.2197E+03
    -14.618  0.9201E+01  0.2221E+03
    -14.361  0.1176E+02  0.2251E+03
    -14.104  0.2204E+02  0.2308E+03
    -13.847  0.2912E+02  0.2383E+03
    -13.590  0.3022E+02  0.2460E+03
    -13.332  0.2508E+02  0.2525E+03
    -13.075  0.2132E+02  0.2580E+03
    -12.818  0.2478E+02  0.2643E+03
    -12.561  0.3043E+02  0.2722E+03
    -12.304  0.3279E+02  0.2806E+03
    -12.047  0.1550E+02  0.2846E+03
    -11.790  0.7788E+01  0.2866E+03
    -11.533  0.4950E+01  0.2879E+03
    -11.276  0.5397E+00  0.2880E+03
    -11.019  0.3776E-02  0.2880E+03
    -10.762  0.1209E-05  0.2880E+03
    -10.504  0.1583E-10  0.2880E+03
    -10.247  0.0000E+00  0.2880E+03
     -9.990  0.0000E+00  0.2880E+03
     -9.733  0.0000E+00  0.2880E+03
     -9.476  0.0000E+00  0.2880E+03
     -9.219  0.0000E+00  0.2880E+03
     -8.962  0.0000E+00  0.2880E+03
     -8.705  0.0000E+00  0.2880E+03
     -8.448  0.0000E+00  0.2880E+03
     -8.191  0.0000E+00  0.2880E+03
     -7.933  0.8062E-12  0.2880E+03
     -7.676  0.1527E-06  0.2880E+03
     -7.419  0.1226E-02  0.2880E+03
     -7.162  0.4690E+00  0.2881E+03
     -6.905  0.1096E+02  0.2909E+03
     -6.648  0.2367E+02  0.2970E+03
     -6.391  0.2263E+02  0.3028E+03
     -6.134  0.4030E+02  0.3132E+03
     -5.877  0.4131E+02  0.3238E+03
     -5.620  0.4526E+02  0.3355E+03
     -5.362  0.5619E+02  0.3499E+03
     -5.105  0.4980E+02  0.3627E+03
     -4.848  0.3497E+02  0.3717E+03
     -4.591  0.4594E+02  0.3835E+03
     -4.334  0.6157E+02  0.3993E+03
     -4.077  0.5095E+02  0.4124E+03
     -3.820  0.6565E+02  0.4293E+03
     -3.563  0.6785E+02  0.4468E+03
     -3.306  0.6172E+02  0.4626E+03
     -3.049  0.5877E+02  0.4777E+03
     -2.791  0.6520E+02  0.4945E+03
     -2.534  0.6648E+02  0.5116E+03
     -2.277  0.9048E+02  0.5349E+03
     -2.020  0.1263E+03  0.5673E+03
     -1.763  0.1559E+03  0.6074E+03
     -1.506  0.1674E+03  0.6505E+03
     -1.249  0.1500E+03  0.6890E+03
     -0.992  0.1203E+03  0.7199E+03
     -0.735  0.1067E+03  0.7474E+03
     -0.478  0.9414E+02  0.7716E+03
     -0.221  0.7137E+02  0.7899E+03
      0.037  0.5953E+02  0.8052E+03
      0.294  0.5490E+02  0.8193E+03
      0.551  0.5122E+02  0.8325E+03
      0.808  0.5722E+02  0.8472E+03
      1.065  0.6139E+02  0.8630E+03
      1.322  0.3141E+02  0.8711E+03
      1.579  0.6799E+01  0.8728E+03
      1.836  0.4223E+01  0.8739E+03
      2.093  0.3559E+01  0.8748E+03
      2.350  0.9781E+01  0.8773E+03
      2.608  0.3715E+01  0.8783E+03
      2.865  0.8494E+01  0.8805E+03
      3.122  0.7739E+01  0.8825E+03
      3.379  0.9139E+01  0.8848E+03
      3.636  0.1552E+02  0.8888E+03
      3.893  0.1278E+02  0.8921E+03
      4.150  0.2283E+02  0.8980E+03
      4.407  0.3479E+02  0.9069E+03
      4.664  0.3151E+02  0.9150E+03
      4.921  0.2407E+02  0.9212E+03
      5.179  0.2793E+02  0.9284E+03
      5.436  0.4082E+02  0.9389E+03
      5.693  0.5347E+02  0.9526E+03
      5.950  0.2636E+02  0.9594E+03
      6.207  0.2310E+01  0.9600E+03
      6.464  0.1808E-01  0.9600E+03
      6.721  0.8128E-05  0.9600E+03
      6.978  0.1685E-09  0.9600E+03
      7.235  0.0000E+00  0.9600E+03
      7.492  0.0000E+00  0.9600E+03
      7.750  0.0000E+00  0.9600E+03
      8.007  0.0000E+00  0.9600E+03
      8.264  0.0000E+00  0.9600E+03
      8.521  0.0000E+00  0.9600E+03
      8.778  0.0000E+00  0.9600E+03
      9.035  0.0000E+00  0.9600E+03
      9.292  0.0000E+00  0.9600E+03
