 vasp.6.1.0 28Jan20 (build Mar 31 2020 17:42:31) gamma-only                     
  
 executed on             LinuxIFC date 2020.04.12  10:13:03
 running on   48 total cores
 distrk:  each k-point on   48 cores,    1 groups
 distr:  one band on NCORE=   6 cores,    8 groups


--------------------------------------------------------------------------------------------------------


 INCAR:
 POTCAR:    PAW_PBE Ni_pv 06Sep2000               
 POTCAR:    PAW_PBE S 06Sep2000                   
 POTCAR:    PAW_PBE Ni_pv 06Sep2000               
   VRHFIN =Ni:                                                                                      
   LEXCH  = PE                                                                                      
   EATOM  =  3501.1230 eV,  257.3253 Ry                                                             
                                                                                                    
   TITEL  = PAW_PBE Ni_pv 06Sep2000                                                                 
   LULTRA =        F    use ultrasoft PP ?                                                          
   IUNSCR =        1    unscreen: 0-lin 1-nonlin 2-no                                               
   RPACOR =    1.500    partial core radius                                                         
   POMASS =   58.690; ZVAL   =   16.000    mass and valenz                                          
   RCORE  =    2.000    outmost cutoff radius                                                       
   RWIGS  =    2.000; RWIGS  =    1.058    wigner-seitz radius (au A)                               
   ENMAX  =  367.986; ENMIN  =  275.989 eV                                                          
   RCLOC  =    1.301    cutoff for local pot                                                        
   LCOR   =        T    correct aug charges                                                         
   LPAW   =        T    paw PP                                                                      
   EAUG   =  703.443                                                                                
   DEXC   =    0.000                                                                                
   RMAX   =    2.041    core radius for proj-oper                                                   
   RAUG   =    1.300    factor for augmentation sphere                                              
   RDEP   =    2.103    radius for radial grids                                                     
   RDEPT  =    1.618    core radius for aug-charge                                                  
                                                                                                    
   Atomic configuration                                                                             
    8 entries                                                                                       
     n  l   j            E        occ.                                                              
     1  0  0.50     -8206.4253   2.0000                                                             
     2  0  0.50      -976.1748   2.0000                                                             
     2  1  1.50      -839.0571   6.0000                                                             
     3  0  0.50      -105.9991   2.0000                                                             
     3  1  1.50       -66.4603   6.0000                                                             
     3  2  2.50        -4.6458   9.0000                                                             
     4  0  0.50        -4.4926   1.0000                                                             
     4  3  2.50        -1.3606   0.0000                                                             
   Description                                                                                      
     l       E           TYP  RCUT    TYP  RCUT                                                     
     1    -66.4602962     23  1.700                                                                 
     1     -1.3605826     23  1.700                                                                 
     2     -4.6457867     23  2.000                                                                 
     2     -6.0063693     23  2.000                                                                 
     0     -4.4925576     23  1.900                                                                 
     0     16.3626226     23  1.900                                                                 
  local pseudopotential read in
  partial core-charges read in
  partial kinetic energy density read in
  atomic valenz-charges read in
  non local Contribution for L=           1  read in
    real space projection operators read in
  non local Contribution for L=           1  read in
    real space projection operators read in
  non local Contribution for L=           2  read in
    real space projection operators read in
  non local Contribution for L=           2  read in
    real space projection operators read in
  non local Contribution for L=           0  read in
    real space projection operators read in
  non local Contribution for L=           0  read in
    real space projection operators read in
    PAW grid and wavefunctions read in
 
   number of l-projection  operators is LMAX  =           6
   number of lm-projection operators is LMMAX =          18
 
 POTCAR:    PAW_PBE S 06Sep2000                   
   VRHFIN =S : s2p4                                                                                 
   LEXCH  = PE                                                                                      
   EATOM  =   276.8230 eV,   20.3459 Ry                                                             
                                                                                                    
   TITEL  = PAW_PBE S 06Sep2000                                                                     
   LULTRA =        F    use ultrasoft PP ?                                                          
   IUNSCR =        1    unscreen: 0-lin 1-nonlin 2-no                                               
   RPACOR =    1.500    partial core radius                                                         
   POMASS =   32.066; ZVAL   =    6.000    mass and valenz                                          
   RCORE  =    1.900    outmost cutoff radius                                                       
   RWIGS  =    2.200; RWIGS  =    1.164    wigner-seitz radius (au A)                               
   ENMAX  =  258.689; ENMIN  =  194.016 eV                                                          
   ICORE  =        2    local potential                                                             
   LCOR   =        T    correct aug charges                                                         
   LPAW   =        T    paw PP                                                                      
   EAUG   =  335.092                                                                                
   DEXC   =    0.000                                                                                
   RMAX   =    1.942    core radius for proj-oper                                                   
   RAUG   =    1.300    factor for augmentation sphere                                              
   RDEP   =    1.954    radius for radial grids                                                     
   RDEPT  =    1.744    core radius for aug-charge                                                  
                                                                                                    
   Atomic configuration                                                                             
    6 entries                                                                                       
     n  l   j            E        occ.                                                              
     1  0  0.50     -2405.8406   2.0000                                                             
     2  0  0.50      -211.7007   2.0000                                                             
     2  1  1.50      -156.4958   6.0000                                                             
     3  0  0.50       -17.2562   2.0000                                                             
     3  1  0.50        -7.0085   4.0000                                                             
     3  2  1.50        -6.8029   0.0000                                                             
   Description                                                                                      
     l       E           TYP  RCUT    TYP  RCUT                                                     
     0    -17.2561641     23  1.900                                                                 
     0    -15.8743224     23  1.900                                                                 
     1     -7.0085400     23  1.900                                                                 
     1     -2.7779785     23  1.900                                                                 
     2     -6.8029130     23  1.900                                                                 
  local pseudopotential read in
  partial core-charges read in
  partial kinetic energy density read in
  atomic valenz-charges read in
  non local Contribution for L=           0  read in
    real space projection operators read in
  non local Contribution for L=           0  read in
    real space projection operators read in
  non local Contribution for L=           1  read in
    real space projection operators read in
  non local Contribution for L=           1  read in
    real space projection operators read in
    PAW grid and wavefunctions read in
 
   number of l-projection  operators is LMAX  =           4
   number of lm-projection operators is LMMAX =           8
 
 Optimization of the real space projectors (new method)

 maximal supplied QI-value         = 18.90
 optimisation between [QCUT,QGAM] = [ 10.77, 21.73] = [ 32.49,132.25] Ry 
 Optimized for a Real-space Cutoff    1.38 Angstroem

   l    n(q)    QCUT    max X(q) W(low)/X(q) W(high)/X(q)  e(spline) 
   1      8    10.771     2.836    0.40E-04    0.29E-04    0.12E-06
   1      8    10.771     4.023    0.10E-03    0.48E-04    0.29E-06
   2      8    10.771    73.368    0.42E-03    0.97E-04    0.44E-06
   2      8    10.771    69.010    0.42E-03    0.99E-04    0.45E-06
   0      9    10.771    54.797    0.10E-03    0.56E-04    0.74E-07
   0      9    10.771    24.266    0.89E-04    0.49E-04    0.67E-07
 Optimization of the real space projectors (new method)

 maximal supplied QI-value         = 19.84
 optimisation between [QCUT,QGAM] = [ 10.71, 21.63] = [ 32.15,130.99] Ry 
 Optimized for a Real-space Cutoff    1.19 Angstroem

   l    n(q)    QCUT    max X(q) W(low)/X(q) W(high)/X(q)  e(spline) 
   0      8    10.715   187.594    0.41E-03    0.53E-04    0.66E-07
   0      8    10.715   164.243    0.41E-03    0.53E-04    0.65E-07
   1      7    10.715    67.533    0.19E-03    0.59E-03    0.68E-07
   1      7    10.715    50.729    0.19E-03    0.58E-03    0.67E-07
  PAW_PBE Ni_pv 06Sep2000               :
 energy of atom  1       EATOM=-3501.1230
 kinetic energy error for atom=    0.0925 (will be added to EATOM!!)
  PAW_PBE S 06Sep2000                   :
 energy of atom  2       EATOM= -276.8230
 kinetic energy error for atom=    0.0033 (will be added to EATOM!!)
 
 
 POSCAR: Structure 1 made from -112-2.xsd file
  positions in direct lattice
  No initial velocities read in
 exchange correlation table for  LEXCH =        8
   RHO(1)=    0.500       N(1)  =     2000
   RHO(2)=  100.500       N(2)  =     4000
 


--------------------------------------------------------------------------------------------------------


 ion  position               nearest neighbor table
   1  0.780  0.145  0.099-  41 2.25  49 2.26  63 2.26  50 2.36  64 2.36  25 2.53  13 2.53
   2  0.815  0.145  0.295-  42 2.25  50 2.26  64 2.26  26 2.53  14 2.53
   3  0.263  0.645  0.002-  43 2.25  51 2.36  61 2.36
   4  0.297  0.645  0.197-  44 2.25  51 2.26  61 2.26  52 2.36  62 2.36  27 2.53  15 2.53
   5  0.435  0.145  0.034-  45 2.25  53 2.36  67 2.36  29 2.53  17 2.53
   6  0.470  0.145  0.230-  46 2.25  53 2.26  67 2.26  54 2.36  68 2.36  30 2.53  18 2.53
   7  0.952  0.645  0.132-  47 2.25  56 2.26  66 2.26  55 2.36  65 2.36  31 2.53  19 2.53
   8  0.987  0.645  0.327-  48 2.25  55 2.26  65 2.26  32 2.53  20 2.53
   9  0.125  0.145  0.165-  38 2.25  57 2.26  71 2.26  58 2.36  72 2.36  33 2.53  21 2.53
  10  0.159  0.145  0.360-  37 2.25  58 2.26  72 2.26  34 2.53  22 2.53
  11  0.608  0.645  0.067-  39 2.25  59 2.36  69 2.36  35 2.53  23 2.53
  12  0.642  0.645  0.262-  40 2.25  59 2.26  69 2.26  60 2.36  70 2.36  36 2.53  24 2.53
  13  0.908  0.013  0.074-  56 2.25  63 2.26  64 2.36  38 2.36   1 2.53  25 2.53
  14  0.942  0.013  0.269-  55 2.25  64 2.26  38 2.26  37 2.36   2 2.53  26 2.53
  15  0.425  0.513  0.171-  53 2.25  39 2.26  61 2.26  40 2.36  62 2.36  27 2.53   4 2.53
  16  0.459  0.513  0.367-  54 2.25  40 2.26  62 2.26  28 2.53
  17  0.563  0.013  0.009-  67 2.36  41 2.36   5 2.53  29 2.53
  18  0.597  0.013  0.204-  59 2.25  67 2.26  41 2.26  68 2.36  42 2.36   6 2.53  30 2.53
  19  0.080  0.513  0.106-  57 2.25  43 2.26  66 2.26  44 2.36  65 2.36   7 2.53  31 2.53
  20  0.115  0.513  0.302-  58 2.25  44 2.26  65 2.26   8 2.53  32 2.53
  21  0.252  0.013  0.139-  51 2.25  45 2.26  71 2.26  46 2.36  72 2.36   9 2.53  33 2.53
  22  0.287  0.013  0.334-  52 2.25  46 2.26  72 2.26  10 2.53  34 2.53
  23  0.735  0.513  0.041-  49 2.25  69 2.36  47 2.36  11 2.53  35 2.53
  24  0.770  0.513  0.236-  50 2.25  69 2.26  47 2.26  70 2.36  48 2.36  12 2.53  36 2.53
  25  0.908  0.277  0.074-  66 2.25  49 2.26  50 2.36  38 2.36   1 2.53  13 2.53
  26  0.942  0.277  0.269-  65 2.25  50 2.26  38 2.26  37 2.36   2 2.53  14 2.53
  27  0.425  0.777  0.171-  67 2.25  39 2.26  51 2.26  40 2.36  52 2.36  15 2.53   4 2.53
  28  0.459  0.777  0.367-  68 2.25  40 2.26  52 2.26  16 2.53
  29  0.563  0.277  0.009-  53 2.36  41 2.36   5 2.53  17 2.53
  30  0.597  0.277  0.204-  69 2.25  53 2.26  41 2.26  54 2.36  42 2.36   6 2.53  18 2.53
  31  0.080  0.777  0.106-  71 2.25  43 2.26  56 2.26  44 2.36  55 2.36   7 2.53  19 2.53
  32  0.115  0.777  0.302-  72 2.25  44 2.26  55 2.26   8 2.53  20 2.53
  33  0.252  0.277  0.139-  61 2.25  45 2.26  57 2.26  46 2.36  58 2.36   9 2.53  21 2.53
  34  0.287  0.277  0.334-  62 2.25  46 2.26  58 2.26  10 2.53  22 2.53
  35  0.735  0.777  0.041-  63 2.25  59 2.36  47 2.36  11 2.53  23 2.53
  36  0.770  0.777  0.236-  64 2.25  59 2.26  47 2.26  60 2.36  48 2.36  12 2.53  24 2.53
  37  0.026  0.145  0.358-  10 2.25  14 2.36  26 2.36
  38  0.991  0.145  0.163-   9 2.25  14 2.26  26 2.26  25 2.36  13 2.36
  39  0.474  0.645  0.065-  11 2.25  15 2.26  27 2.26
  40  0.509  0.645  0.260-  12 2.25  16 2.26  28 2.26  27 2.36  15 2.36
  41  0.647  0.145  0.098-   1 2.25  18 2.26  30 2.26  29 2.36  17 2.36
  42  0.681  0.145  0.293-   2 2.25  18 2.36  30 2.36
  43  0.129  0.645  0.000-   3 2.25  19 2.26  31 2.26
  44  0.164  0.645  0.195-   4 2.25  20 2.26  32 2.26  31 2.36  19 2.36
  45  0.302  0.145  0.033-   5 2.25  21 2.26  33 2.26
  46  0.336  0.145  0.228-   6 2.25  22 2.26  34 2.26  33 2.36  21 2.36
  47  0.819  0.645  0.130-   7 2.25  24 2.26  36 2.26  35 2.36  23 2.36
  48  0.854  0.645  0.326-   8 2.25  24 2.36  36 2.36
  49  0.794  0.314  0.000-  23 2.25   1 2.26  25 2.26
  50  0.829  0.314  0.196-  24 2.25  26 2.26   2 2.26  25 2.36   1 2.36
  51  0.312  0.814  0.098-  21 2.25   4 2.26  27 2.26   3 2.36
  52  0.346  0.814  0.293-  22 2.25  28 2.26   4 2.36  27 2.36
  53  0.484  0.314  0.131-  15 2.25  30 2.26   6 2.26  29 2.36   5 2.36
  54  0.519  0.314  0.326-  16 2.25  30 2.36   6 2.36
  55  0.001  0.814  0.228-  14 2.25   8 2.26  32 2.26   7 2.36  31 2.36
  56  0.967  0.814  0.033-  13 2.25   7 2.26  31 2.26
  57  0.139  0.314  0.065-  19 2.25   9 2.26  33 2.26
  58  0.174  0.314  0.261-  20 2.25  10 2.26  34 2.26  33 2.36   9 2.36
  59  0.657  0.814  0.163-  18 2.25  36 2.26  12 2.26  35 2.36  11 2.36
  60  0.691  0.814  0.358-  36 2.36  12 2.36
  61  0.312  0.477  0.098-  33 2.25   4 2.26  15 2.26   3 2.36
  62  0.346  0.477  0.293-  34 2.25  16 2.26   4 2.36  15 2.36
  63  0.794  0.977  0.000-  35 2.25   1 2.26  13 2.26
  64  0.829  0.977  0.196-  36 2.25  14 2.26   2 2.26  13 2.36   1 2.36
  65  0.001  0.477  0.228-  26 2.25   8 2.26  20 2.26   7 2.36  19 2.36
  66  0.967  0.477  0.033-  25 2.25   7 2.26  19 2.26
  67  0.484  0.977  0.131-  27 2.25  18 2.26   6 2.26  17 2.36   5 2.36
  68  0.519  0.977  0.326-  28 2.25  18 2.36   6 2.36
  69  0.657  0.477  0.163-  30 2.25  24 2.26  12 2.26  23 2.36  11 2.36
  70  0.691  0.477  0.358-  24 2.36  12 2.36
  71  0.139  0.977  0.065-  31 2.25   9 2.26  21 2.26
  72  0.174  0.977  0.261-  32 2.25  10 2.26  22 2.26  21 2.36   9 2.36
 
  LATTYP: Found a simple orthorhombic cell.
 ALAT       =     9.5784100000
 B/A-ratio  =     1.6485138650
 C/A-ratio  =     1.7627867312
  
  Lattice vectors:
  
 A1 = (   0.0000000000,   9.5784100000,   0.0000000000)
 A2 = (   0.0000000000,   0.0000000000, -15.7901416898)
 A3 = ( -16.8846940542,   0.0000000000,   0.0000000000)


Analysis of symmetry for initial positions (statically):
=====================================================================
 Subroutine PRICEL returns:
 Original cell was already a primitive cell.
 

 Routine SETGRP: Setting up the symmetry group for a 
 simple orthorhombic supercell.


 Subroutine GETGRP returns: Found  2 space group operations
 (whereof  1 operations were pure point group operations)
 out of a pool of  8 trial point group operations.


The static configuration has the point symmetry C_1 .
 The point group associated with its full space group is C_1h.


Analysis of symmetry for dynamics (positions and initial velocities):
=====================================================================
 Subroutine PRICEL returns:
 Original cell was already a primitive cell.
 

 Routine SETGRP: Setting up the symmetry group for a 
 simple orthorhombic supercell.


 Subroutine GETGRP returns: Found  2 space group operations
 (whereof  1 operations were pure point group operations)
 out of a pool of  8 trial point group operations.


The dynamic configuration has the point symmetry C_1 .
 The point group associated with its full space group is C_1h.


 Subroutine INISYM returns: Found  2 space group operations
 (whereof  1 operations are pure point group operations),
 and found     1 'primitive' translations


----------------------------------------------------------------------------------------

                                     Primitive cell                                     

  volume of cell :    2553.7163

  direct lattice vectors                    reciprocal lattice vectors
    16.884694054  0.000000000  0.000000000     0.059225237  0.000000000  0.000000000
     0.000000000  9.578410000  0.000000000     0.000000000  0.104401461  0.000000000
     0.000000000  0.000000000 15.790141690     0.000000000  0.000000000  0.063330654

  length of vectors
    16.884694054  9.578410000 15.790141690     0.059225237  0.104401461  0.063330654

  position of ions in fractional coordinates (direct lattice)
     0.780046307  0.145296954  0.099480032
     0.814614264  0.145296954  0.294826193
     0.262762328  0.645296954  0.001806952
     0.297330285  0.645296954  0.197153113
     0.435190321  0.145296954  0.034364645
     0.469758278  0.145296954  0.229710806
     0.952474300  0.645296954  0.132037726
     0.987042257  0.645296954  0.327383887
     0.124902293  0.145296954  0.164595419
     0.159470250  0.145296954  0.359941580
     0.607618314  0.645296954  0.066922339
     0.642186271  0.645296954  0.262268500
     0.907582776  0.013193954  0.073674219
     0.942150733  0.013193954  0.269020380
     0.424866755  0.513193954  0.171347299
     0.459434712  0.513193954  0.366693460
     0.562726790  0.013193954  0.008558832
     0.597294747  0.013193954  0.203904993
     0.080010769  0.513193954  0.106231912
     0.114578726  0.513193954  0.301578073
     0.252438762  0.013193954  0.138789606
     0.287006719  0.013193954  0.334135766
     0.735154783  0.513193954  0.041116525
     0.769722740  0.513193954  0.236462686
     0.907582776  0.277399954  0.073674219
     0.942150733  0.277399954  0.269020380
     0.424866755  0.777399954  0.171347299
     0.459434712  0.777399954  0.366693460
     0.562726790  0.277399954  0.008558832
     0.597294747  0.277399954  0.203904993
     0.080010769  0.777399954  0.106231912
     0.114578726  0.777399954  0.301578073
     0.252438762  0.277399954  0.138789606
     0.287006719  0.277399954  0.334135766
     0.735154783  0.777399954  0.041116525
     0.769722740  0.777399954  0.236462686
     0.026029163  0.145296954  0.358134628
     0.991461206  0.145296954  0.162788467
     0.474177227  0.645296954  0.065115387
     0.508745184  0.645296954  0.260461548
     0.646605220  0.145296954  0.097673080
     0.681173177  0.145296954  0.293019241
     0.129321241  0.645296954  0.000000000
     0.163889198  0.645296954  0.195346161
     0.301749234  0.145296954  0.032557693
     0.336317191  0.145296954  0.227903854
     0.819033213  0.645296954  0.130230774
     0.853601170  0.645296954  0.325576935
     0.794493097  0.313511954  0.000302461
     0.829061055  0.313511954  0.195648622
     0.311777076  0.813511954  0.097975541
     0.346345033  0.813511954  0.293321702
     0.484205069  0.313511954  0.130533235
     0.518773026  0.313511954  0.325879396
     0.001489047  0.813511954  0.228206315
     0.966921090  0.813511954  0.032860154
     0.139349083  0.313511954  0.065417848
     0.173917040  0.313511954  0.260764009
     0.656633062  0.813511954  0.163090928
     0.691201019  0.813511954  0.358437089
     0.311777076  0.477081954  0.097975541
     0.346345033  0.477081954  0.293321702
     0.794493097  0.977081954  0.000302461
     0.829061055  0.977081954  0.195648622
     0.001489047  0.477081954  0.228206315
     0.966921090  0.477081954  0.032860154
     0.484205069  0.977081954  0.130533235
     0.518773026  0.977081954  0.325879396
     0.656633062  0.477081954  0.163090928
     0.691201019  0.477081954  0.358437089
     0.139349083  0.977081954  0.065417848
     0.173917040  0.977081954  0.260764009

  ion indices of the primitive-cell ions
   primitive index   ion index
                 1           1
                 2           2
                 3           3
                 4           4
                 5           5
                 6           6
                 7           7
                 8           8
                 9           9
                10          10
                11          11
                12          12
                13          13
                14          14
                15          15
                16          16
                17          17
                18          18
                19          19
                20          20
                21          21
                22          22
                23          23
                24          24
                25          25
                26          26
                27          27
                28          28
                29          29
                30          30
                31          31
                32          32
                33          33
                34          34
                35          35
                36          36
                37          37
                38          38
                39          39
                40          40
                41          41
                42          42
                43          43
                44          44
                45          45
                46          46
                47          47
                48          48
                49          49
                50          50
                51          51
                52          52
                53          53
                54          54
                55          55
                56          56
                57          57
                58          58
                59          59
                60          60
                61          61
                62          62
                63          63
                64          64
                65          65
                66          66
                67          67
                68          68
                69          69
                70          70
                71          71
                72          72

----------------------------------------------------------------------------------------

 
 
 KPOINTS: gamma-point-only calculation. no periodi

Automatic generation of k-mesh.
Space group operators:
 irot       det(A)        alpha          n_x          n_y          n_z        tau_x        tau_y        tau_z
    1     1.000000     0.000001     1.000000     0.000000     0.000000     0.000000     0.000000     0.000000
    2    -1.000000   180.000000     0.000000     1.000000     0.000000     0.000000     0.290594     0.000000
 
 Subroutine IBZKPT returns following result:
 ===========================================
 
 Found      1 irreducible k-points:
 
 Following reciprocal coordinates:
            Coordinates               Weight
  0.000000  0.000000  0.000000      1.000000
 
 Following cartesian coordinates:
            Coordinates               Weight
  0.000000  0.000000  0.000000      1.000000
 


--------------------------------------------------------------------------------------------------------




 Dimension of arrays:
   k-points           NKPTS =      1   k-points in BZ     NKDIM =      1   number of bands    NBANDS=    480
   number of dos      NEDOS =    301   number of ions     NIONS =     72
   non local maximal  LDIM  =      6   non local SUM 2l+1 LMDIM =     18
   total plane-waves  NPLWV = 378000
   max r-space proj   IRMAX =   1682   max aug-charges    IRDMAX=   4862
   dimension x,y,z NGX =    90 NGY =   50 NGZ =   84
   dimension x,y,z NGXF=   180 NGYF=  100 NGZF=  168
   support grid    NGXF=   180 NGYF=  100 NGZF=  168
   ions per type =              36  36
   NGX,Y,Z   is equivalent  to a cutoff of   8.86,  8.68,  8.84 a.u.
   NGXF,Y,Z  is equivalent  to a cutoff of  17.72, 17.36, 17.69 a.u.

 SYSTEM =  "Millerite NiS"                         
 POSCAR =  Structure 1 made from -112-2.xsd file   

 Startparameter for this run:
   NWRITE =      2    write-flag & timer
   PREC   = normal    normal or accurate (medium, high low for compatibility)
   ISTART =      0    job   : 0-new  1-cont  2-samecut
   ICHARG =      2    charge: 1-file 2-atom 10-const
   ISPIN  =      1    spin polarized calculation?
   LNONCOLLINEAR =      F non collinear calculations
   LSORBIT =      F    spin-orbit coupling
   INIWAV =      1    electr: 0-lowe 1-rand  2-diag
   LASPH  =      F    aspherical Exc in radial PAW
   METAGGA=      F    non-selfconsistent MetaGGA calc.

 Electronic Relaxation 1
   ENCUT  =  450.0 eV  33.07 Ry    5.75 a.u.  29.20 16.57 27.31*2*pi/ulx,y,z
   ENINI  =  450.0     initial cutoff
   ENAUG  =  703.4 eV  augmentation charge cutoff
   NELM   =    100;   NELMIN=  2; NELMDL= -5     # of ELM steps 
   EDIFF  = 0.1E-03   stopping-criterion for ELM
   LREAL  =      T    real-space projection
   NLSPLINE    = F    spline interpolate recip. space projectors
   LCOMPAT=      F    compatible to vasp.4.4
   GGA_COMPAT  = T    GGA compatible to vasp.4.4-vasp.4.6
   LMAXPAW     = -100 max onsite density
   LMAXMIX     =    2 max onsite mixed and CHGCAR
   VOSKOWN=      0    Vosko Wilk Nusair interpolation
   ROPT   =   -0.00050  -0.00050
 Ionic relaxation
   EDIFFG = 0.1E-02   stopping-criterion for IOM
   NSW    =      0    number of steps for IOM
   NBLOCK =      1;   KBLOCK =      1    inner block; outer block 
   IBRION =     -1    ionic relax: 0-MD 1-quasi-New 2-CG
   NFREE  =      0    steps in history (QN), initial steepest desc. (CG)
   ISIF   =      2    stress and relaxation
   IWAVPR =     10    prediction:  0-non 1-charg 2-wave 3-comb
   ISYM   =      2    0-nonsym 1-usesym 2-fastsym
   LCORR  =      T    Harris-Foulkes like correction to forces

   POTIM  = 0.5000    time-step for ionic-motion
   TEIN   =    0.0    initial temperature
   TEBEG  =    0.0;   TEEND  =   0.0 temperature during run
   SMASS  =  -3.00    Nose mass-parameter (am)
   estimated Nose-frequenzy (Omega)   =  0.10E-29 period in steps = 0.13E+47 mass=  -0.652E-26a.u.
   SCALEE = 1.0000    scale energy and forces
   NPACO  =    256;   APACO  = 16.0  distance and # of slots for P.C.
   PSTRESS=    0.0 pullay stress

  Mass of Ions in am
   POMASS =  58.69 32.07
  Ionic Valenz
   ZVAL   =  16.00  6.00
  Atomic Wigner-Seitz radii
   RWIGS  =  -1.00 -1.00
  virtual crystal weights 
   VCA    =   1.00  1.00
   NELECT =     792.0000    total number of electrons
   NUPDOWN=      -1.0000    fix difference up-down

 DOS related values:
   EMIN   =  10.00;   EMAX   =-10.00  energy-range for DOS
   EFERMI =   0.00
   ISMEAR =     0;   SIGMA  =   0.20  broadening in eV -4-tet -1-fermi 0-gaus

 Electronic relaxation 2 (details)
   IALGO  =     38    algorithm
   LDIAG  =      T    sub-space diagonalisation (order eigenvalues)
   LSUBROT=      F    optimize rotation matrix (better conditioning)
   TURBO    =      0    0=normal 1=particle mesh
   IRESTART =      0    0=no restart 2=restart with 2 vectors
   NREBOOT  =      0    no. of reboots
   NMIN     =      0    reboot dimension
   EREF     =   0.00    reference energy to select bands
   IMIX   =      4    mixing-type and parameters
     AMIX     =   0.40;   BMIX     =  1.00
     AMIX_MAG =   1.60;   BMIX_MAG =  1.00
     AMIN     =   0.10
     WC   =   100.;   INIMIX=   1;  MIXPRE=   1;  MAXMIX= -45

 Intra band minimization:
   WEIMIN = 0.0000     energy-eigenvalue tresh-hold
   EBREAK =  0.52E-07  absolut break condition
   DEPER  =   0.30     relativ break condition  

   TIME   =   0.40     timestep for ELM

  volume/ion in A,a.u.               =      35.47       239.35
  Fermi-wavevector in a.u.,A,eV,Ry     =   1.108134  2.094070 16.707428  1.227961
  Thomas-Fermi vector in A             =   2.244657
 
 Write flags
   LWAVE        =      F    write WAVECAR
   LDOWNSAMPLE  =      F    k-point downsampling of WAVECAR
   LCHARG       =      F    write CHGCAR
   LVTOT        =      F    write LOCPOT, total local potential
   LVHAR        =      F    write LOCPOT, Hartree potential only
   LELF         =      F    write electronic localiz. function (ELF)
   LORBIT       =      0    0 simple, 1 ext, 2 COOP (PROOUT), +10 PAW based schemes


 Dipole corrections
   LMONO  =      F    monopole corrections only (constant potential shift)
   LDIPOL =      F    correct potential (dipole corrections)
   IDIPOL =      0    1-x, 2-y, 3-z, 4-all directions 
   EPSILON=  1.0000000 bulk dielectric constant

 Exchange correlation treatment:
   GGA     =    --    GGA type
   LEXCH   =     8    internal setting for exchange type
   VOSKOWN=      0    Vosko Wilk Nusair interpolation
   LHFCALC =     F    Hartree Fock is set to
   LHFONE  =     F    Hartree Fock one center treatment
   AEXX    =    0.0000 exact exchange contribution

 Linear response parameters
   LEPSILON=     F    determine dielectric tensor
   LRPA    =     F    only Hartree local field effects (RPA)
   LNABLA  =     F    use nabla operator in PAW spheres
   LVEL    =     F    velocity operator in full k-point grid
   LINTERFAST=   F  fast interpolation
   KINTER  =     0    interpolate to denser k-point grid
   CSHIFT  =0.1000    complex shift for real part using Kramers Kronig
   OMEGAMAX=  -1.0    maximum frequency
   DEG_THRESHOLD= 0.2000000E-02 threshold for treating states as degnerate
   RTIME   =   -0.100 relaxation time in fs
  (WPLASMAI=    0.000 imaginary part of plasma frequency in eV, 0.658/RTIME)
   DFIELD  = 0.0000000 0.0000000 0.0000000 field for delta impulse in time
 
 Orbital magnetization related:
   ORBITALMAG=     F  switch on orbital magnetization
   LCHIMAG   =     F  perturbation theory with respect to B field
   DQ        =  0.001000  dq finite difference perturbation B field
   LLRAUG    =     F  two centre corrections for induced B field



--------------------------------------------------------------------------------------------------------


 Static calculation
 charge density and potential will be updated during run
 non-spin polarized calculation
 Variant of blocked Davidson
 Davidson routine will perform the subspace rotation
 perform sub-space diagonalisation
    after iterative eigenvector-optimisation
 modified Broyden-mixing scheme, WC =      100.0
 initial mixing is a Kerker type mixing with AMIX =  0.4000 and BMIX =      1.0000
 Hartree-type preconditioning will be used
 using additional bands           84
 real space projection scheme for non local part
 use partial core corrections
 calculate Harris-corrections to forces 
   (improved forces if not selfconsistent)
 use gradient corrections 
 use of overlap-Matrix (Vanderbilt PP)
 Gauss-broadening in eV      SIGMA  =   0.20


--------------------------------------------------------------------------------------------------------


  energy-cutoff  :      450.00
  volume of cell :     2553.72
      direct lattice vectors                 reciprocal lattice vectors
    16.884694054  0.000000000  0.000000000     0.059225237  0.000000000  0.000000000
     0.000000000  9.578410000  0.000000000     0.000000000  0.104401461  0.000000000
     0.000000000  0.000000000 15.790141690     0.000000000  0.000000000  0.063330654

  length of vectors
    16.884694054  9.578410000 15.790141690     0.059225237  0.104401461  0.063330654


 
 k-points in units of 2pi/SCALE and weight: gamma-point-only calculation. no periodi
   0.00000000  0.00000000  0.00000000       1.000
 
 k-points in reciprocal lattice and weights: gamma-point-only calculation. no periodi
   0.00000000  0.00000000  0.00000000       1.000
 
 position of ions in fractional coordinates (direct lattice) 
   0.78004631  0.14529695  0.09948003
   0.81461426  0.14529695  0.29482619
   0.26276233  0.64529695  0.00180695
   0.29733029  0.64529695  0.19715311
   0.43519032  0.14529695  0.03436464
   0.46975828  0.14529695  0.22971081
   0.95247430  0.64529695  0.13203773
   0.98704226  0.64529695  0.32738389
   0.12490229  0.14529695  0.16459542
   0.15947025  0.14529695  0.35994158
   0.60761831  0.64529695  0.06692234
   0.64218627  0.64529695  0.26226850
   0.90758278  0.01319395  0.07367422
   0.94215073  0.01319395  0.26902038
   0.42486675  0.51319395  0.17134730
   0.45943471  0.51319395  0.36669346
   0.56272679  0.01319395  0.00855883
   0.59729475  0.01319395  0.20390499
   0.08001077  0.51319395  0.10623191
   0.11457873  0.51319395  0.30157807
   0.25243876  0.01319395  0.13878961
   0.28700672  0.01319395  0.33413577
   0.73515478  0.51319395  0.04111652
   0.76972274  0.51319395  0.23646269
   0.90758278  0.27739995  0.07367422
   0.94215073  0.27739995  0.26902038
   0.42486675  0.77739995  0.17134730
   0.45943471  0.77739995  0.36669346
   0.56272679  0.27739995  0.00855883
   0.59729475  0.27739995  0.20390499
   0.08001077  0.77739995  0.10623191
   0.11457873  0.77739995  0.30157807
   0.25243876  0.27739995  0.13878961
   0.28700672  0.27739995  0.33413577
   0.73515478  0.77739995  0.04111652
   0.76972274  0.77739995  0.23646269
   0.02602916  0.14529695  0.35813463
   0.99146121  0.14529695  0.16278847
   0.47417723  0.64529695  0.06511539
   0.50874518  0.64529695  0.26046155
   0.64660522  0.14529695  0.09767308
   0.68117318  0.14529695  0.29301924
   0.12932124  0.64529695  0.00000000
   0.16388920  0.64529695  0.19534616
   0.30174923  0.14529695  0.03255769
   0.33631719  0.14529695  0.22790385
   0.81903321  0.64529695  0.13023077
   0.85360117  0.64529695  0.32557694
   0.79449310  0.31351195  0.00030246
   0.82906105  0.31351195  0.19564862
   0.31177708  0.81351195  0.09797554
   0.34634503  0.81351195  0.29332170
   0.48420507  0.31351195  0.13053324
   0.51877303  0.31351195  0.32587940
   0.00148905  0.81351195  0.22820632
   0.96692109  0.81351195  0.03286015
   0.13934908  0.31351195  0.06541785
   0.17391704  0.31351195  0.26076401
   0.65663306  0.81351195  0.16309093
   0.69120102  0.81351195  0.35843709
   0.31177708  0.47708195  0.09797554
   0.34634503  0.47708195  0.29332170
   0.79449310  0.97708195  0.00030246
   0.82906105  0.97708195  0.19564862
   0.00148905  0.47708195  0.22820632
   0.96692109  0.47708195  0.03286015
   0.48420507  0.97708195  0.13053324
   0.51877303  0.97708195  0.32587940
   0.65663306  0.47708195  0.16309093
   0.69120102  0.47708195  0.35843709
   0.13934908  0.97708195  0.06541785
   0.17391704  0.97708195  0.26076401
 
 position of ions in cartesian coordinates  (Angst):
  13.17084324  1.39171380  1.57080380
  13.75451262  1.39171380  4.65534736
   4.43666152  6.18091880  0.02853203
   5.02033090  6.18091880  3.11307559
   7.34805543  1.39171380  0.54262261
   7.93172480  1.39171380  3.62716617
  16.08223715  6.18091880  2.08489440
  16.66590653  6.18091880  5.16943796
   2.10893700  1.39171380  2.59898499
   2.69260638  1.39171380  5.68352855
  10.25944933  6.18091880  1.05671322
  10.84311871  6.18091880  4.14125678
  15.32425750  0.12637710  1.16332636
  15.90792688  0.12637710  4.24786992
   7.17374517  4.91558210  2.70559813
   7.75741455  4.91558210  5.79014169
   9.50146969  0.12637710  0.13514517
  10.08513906  0.12637710  3.21968873
   1.35095736  4.91558210  1.67741694
   1.93462673  4.91558210  4.76196050
   4.26235126  0.12637710  2.19150754
   4.84602064  0.12637710  5.27605109
  12.41286359  4.91558210  0.64923576
  12.99653297  4.91558210  3.73377932
  15.32425750  2.65705049  1.16332636
  15.90792688  2.65705049  4.24786992
   7.17374517  7.44625549  2.70559813
   7.75741455  7.44625549  5.79014169
   9.50146969  2.65705049  0.13514517
  10.08513906  2.65705049  3.21968873
   1.35095736  7.44625549  1.67741694
   1.93462673  7.44625549  4.76196050
   4.26235126  2.65705049  2.19150754
   4.84602064  2.65705049  5.27605109
  12.41286359  7.44625549  0.64923576
  12.99653297  7.44625549  3.73377932
   0.43949445  1.39171380  5.65499652
  16.74051913  1.39171380  2.57045296
   8.00633741  6.18091880  1.02818119
   8.59000678  6.18091880  4.11272475
  10.91773131  1.39171380  1.54227177
  11.50140069  1.39171380  4.62681533
   2.18354959  6.18091880  0.00000000
   2.76721897  6.18091880  3.08454356
   5.09494350  1.39171380  0.51409059
   5.67861288  1.39171380  3.59863415
  13.82912522  6.18091880  2.05636237
  14.41279460  6.18091880  5.14090593
  13.41477287  3.00294604  0.00477590
  13.99844227  3.00294604  3.08931946
   5.26426054  7.79215104  1.54704767
   5.84792992  7.79215104  4.63159124
   8.17565445  3.00294604  2.06113828
   8.75932383  3.00294604  5.14568184
   0.02514210  7.79215104  3.60341005
  16.32616678  7.79215104  0.51886649
   2.35286663  3.00294604  1.03295709
   2.93653601  3.00294604  4.11750065
  11.08704836  7.79215104  2.57522886
  11.67071774  7.79215104  5.65977242
   5.26426054  4.56968656  1.54704767
   5.84792992  4.56968656  4.63159124
  13.41477287  9.35889156  0.00477590
  13.99844227  9.35889156  3.08931946
   0.02514210  4.56968656  3.60341005
  16.32616678  4.56968656  0.51886649
   8.17565445  9.35889156  2.06113828
   8.75932383  9.35889156  5.14568184
  11.08704836  4.56968656  2.57522886
  11.67071774  4.56968656  5.65977242
   2.35286663  9.35889156  1.03295709
   2.93653601  9.35889156  4.11750065
 


--------------------------------------------------------------------------------------------------------


 use parallel FFT for orbitals z direction half grid
 k-point   1 :   0.0000 0.0000 0.0000  plane waves:   27701

 maximum and minimum number of plane-waves per node :      4624     4609

 maximum number of plane-waves:     27701
 maximum index in each direction: 
   IXMAX=   29   IYMAX=   16   IZMAX=   27
   IXMIN=  -29   IYMIN=  -16   IZMIN=    0


 real space projection operators:
  total allocation   :      10303.16 KBytes
  max/ min on nodes  :       1720.61       1714.48


 parallel 3D FFT for wavefunctions:
    minimum data exchange during FFTs selected (reduces bandwidth)
 parallel 3D FFT for charge:
    minimum data exchange during FFTs selected (reduces bandwidth)


 total amount of memory used by VASP MPI-rank0    46658. kBytes
=======================================================================

   base      :      30000. kBytes
   nonlr-proj:       2109. kBytes
   fftplans  :       3621. kBytes
   grid      :       6327. kBytes
   one-center:         93. kBytes
   wavefun   :       4508. kBytes
 
     INWAV:  cpu time    0.0000: real time    0.0000
 Broyden mixing: mesh for mixing (old mesh)
   NGX = 59   NGY = 33   NGZ = 55
  (NGX  =180   NGY  =100   NGZ  =168)
  gives a total of 107085 points

 initial charge density was supplied:
 charge density of overlapping atoms calculated
 number of electron     792.0000000 magnetization 
 keeping initial charge density in first step


--------------------------------------------------------------------------------------------------------


 Maximum index for non-local projection operator          271
 Maximum index for augmentation-charges          327 (set IRDMAX)


--------------------------------------------------------------------------------------------------------


 First call to EWALD:  gamma=   0.130
 Maximum number of real-space cells 2x 4x 2
 Maximum number of reciprocal cells 3x 2x 3

    FEWALD:  cpu time    0.0034: real time    0.0039


--------------------------------------- Iteration      1(   1)  ---------------------------------------


    POTLOK:  cpu time    0.0520: real time    0.0523
    SETDIJ:  cpu time    0.0052: real time    0.0070
     EDDAV:  cpu time    2.5200: real time    2.5275
       DOS:  cpu time    0.0026: real time    0.0026
    --------------------------------------------
      LOOP:  cpu time    2.5798: real time    2.5895

 eigenvalue-minimisations  :  1184
 total energy-change (2. order) : 0.8682365E+04  (-0.4998192E+05)
 number of electron     792.0000000 magnetization 
 augmentation part      792.0000000 magnetization 

 Free energy of the ion-electron system (eV)
  ---------------------------------------------------
  alpha Z        PSCENC =      1456.66127761
  Ewald energy   TEWEN  =     97508.37907492
  -Hartree energ DENC   =   -218489.31968218
  -exchange      EXHF   =         0.00000000
  -V(xc)+E(xc)   XCENC  =      3640.57565627
  PAW double counting   =    112729.53333415  -117641.51188735
  entropy T*S    EENTRO =        -0.56684592
  eigenvalues    EBANDS =     -6523.99075981
  atomic energy  EATOM  =    136002.60505376
  Solvation  Ediel_sol  =         0.00000000
  ---------------------------------------------------
  free energy    TOTEN  =      8682.36522146 eV

  energy without entropy =     8682.93206738  energy(sigma->0) =     8682.64864442


--------------------------------------------------------------------------------------------------------




--------------------------------------- Iteration      1(   2)  ---------------------------------------


     EDDAV:  cpu time    2.2231: real time    2.2316
       DOS:  cpu time    0.0024: real time    0.0024
    --------------------------------------------
      LOOP:  cpu time    2.2255: real time    2.2340

 eigenvalue-minimisations  :  1024
 total energy-change (2. order) :-0.8193599E+04  (-0.7898749E+04)
 number of electron     792.0000000 magnetization 
 augmentation part      792.0000000 magnetization 

 Free energy of the ion-electron system (eV)
  ---------------------------------------------------
  alpha Z        PSCENC =      1456.66127761
  Ewald energy   TEWEN  =     97508.37907492
  -Hartree energ DENC   =   -218489.31968218
  -exchange      EXHF   =         0.00000000
  -V(xc)+E(xc)   XCENC  =      3640.57565627
  PAW double counting   =    112729.53333415  -117641.51188735
  entropy T*S    EENTRO =        -0.88719281
  eigenvalues    EBANDS =    -14717.26949779
  atomic energy  EATOM  =    136002.60505376
  Solvation  Ediel_sol  =         0.00000000
  ---------------------------------------------------
  free energy    TOTEN  =       488.76613658 eV

  energy without entropy =      489.65332940  energy(sigma->0) =      489.20973299


--------------------------------------------------------------------------------------------------------




--------------------------------------- Iteration      1(   3)  ---------------------------------------


     EDDAV:  cpu time    2.3742: real time    2.3831
       DOS:  cpu time    0.0026: real time    0.0026
    --------------------------------------------
      LOOP:  cpu time    2.3768: real time    2.3856

 eigenvalue-minimisations  :  1104
 total energy-change (2. order) :-0.8368204E+03  (-0.7917596E+03)
 number of electron     792.0000000 magnetization 
 augmentation part      792.0000000 magnetization 

 Free energy of the ion-electron system (eV)
  ---------------------------------------------------
  alpha Z        PSCENC =      1456.66127761
  Ewald energy   TEWEN  =     97508.37907492
  -Hartree energ DENC   =   -218489.31968218
  -exchange      EXHF   =         0.00000000
  -V(xc)+E(xc)   XCENC  =      3640.57565627
  PAW double counting   =    112729.53333415  -117641.51188735
  entropy T*S    EENTRO =        -1.37474379
  eigenvalues    EBANDS =    -15553.60230420
  atomic energy  EATOM  =    136002.60505376
  Solvation  Ediel_sol  =         0.00000000
  ---------------------------------------------------
  free energy    TOTEN  =      -348.05422081 eV

  energy without entropy =     -346.67947702  energy(sigma->0) =     -347.36684891


--------------------------------------------------------------------------------------------------------




--------------------------------------- Iteration      1(   4)  ---------------------------------------


     EDDAV:  cpu time    2.3763: real time    2.3828
       DOS:  cpu time    0.0025: real time    0.0025
    --------------------------------------------
      LOOP:  cpu time    2.3788: real time    2.3853

 eigenvalue-minimisations  :  1120
 total energy-change (2. order) :-0.5025275E+02  (-0.4971924E+02)
 number of electron     792.0000000 magnetization 
 augmentation part      792.0000000 magnetization 

 Free energy of the ion-electron system (eV)
  ---------------------------------------------------
  alpha Z        PSCENC =      1456.66127761
  Ewald energy   TEWEN  =     97508.37907492
  -Hartree energ DENC   =   -218489.31968218
  -exchange      EXHF   =         0.00000000
  -V(xc)+E(xc)   XCENC  =      3640.57565627
  PAW double counting   =    112729.53333415  -117641.51188735
  entropy T*S    EENTRO =        -1.41855846
  eigenvalues    EBANDS =    -15603.81124162
  atomic energy  EATOM  =    136002.60505376
  Solvation  Ediel_sol  =         0.00000000
  ---------------------------------------------------
  free energy    TOTEN  =      -398.30697290 eV

  energy without entropy =     -396.88841444  energy(sigma->0) =     -397.59769367


--------------------------------------------------------------------------------------------------------




--------------------------------------- Iteration      1(   5)  ---------------------------------------


     EDDAV:  cpu time    2.5283: real time    2.5345
       DOS:  cpu time    0.0026: real time    0.0026
    CHARGE:  cpu time    0.0872: real time    0.0874
    MIXING:  cpu time    0.0028: real time    0.0031
    --------------------------------------------
      LOOP:  cpu time    2.6209: real time    2.6276

 eigenvalue-minimisations  :  1216
 total energy-change (2. order) :-0.1831809E+01  (-0.1829441E+01)
 number of electron     791.9996963 magnetization 
 augmentation part      284.9509413 magnetization 

 Broyden mixing:
  rms(total) = 0.82269E+01    rms(broyden)= 0.82130E+01
  rms(prec ) = 0.89339E+01
  weight for this iteration     100.00

 Free energy of the ion-electron system (eV)
  ---------------------------------------------------
  alpha Z        PSCENC =      1456.66127761
  Ewald energy   TEWEN  =     97508.37907492
  -Hartree energ DENC   =   -218489.31968218
  -exchange      EXHF   =         0.00000000
  -V(xc)+E(xc)   XCENC  =      3640.57565627
  PAW double counting   =    112729.53333415  -117641.51188735
  entropy T*S    EENTRO =        -1.40772006
  eigenvalues    EBANDS =    -15605.65388900
  atomic energy  EATOM  =    136002.60505376
  Solvation  Ediel_sol  =         0.00000000
  ---------------------------------------------------
  free energy    TOTEN  =      -400.13878188 eV

  energy without entropy =     -398.73106182  energy(sigma->0) =     -399.43492185


--------------------------------------------------------------------------------------------------------




--------------------------------------- Iteration      1(   6)  ---------------------------------------


    POTLOK:  cpu time    0.0480: real time    0.0481
    SETDIJ:  cpu time    0.0044: real time    0.0061
     EDDAV:  cpu time    2.4716: real time    2.4776
       DOS:  cpu time    0.0006: real time    0.0006
    CHARGE:  cpu time    0.0875: real time    0.0877
    MIXING:  cpu time    0.0023: real time    0.0024
    --------------------------------------------
      LOOP:  cpu time    2.6143: real time    2.6225

 eigenvalue-minimisations  :  1176
 total energy-change (2. order) :-0.1101363E+03  (-0.1063944E+03)
 number of electron     791.9996294 magnetization 
 augmentation part      355.3156287 magnetization 

 Broyden mixing:
  rms(total) = 0.17645E+02    rms(broyden)= 0.17642E+02
  rms(prec ) = 0.18580E+02
  weight for this iteration     100.00

 eigenvalues of (default mixing * dielectric matrix)
  average eigenvalue GAMMA=   0.2016
  0.2016

 Free energy of the ion-electron system (eV)
  ---------------------------------------------------
  alpha Z        PSCENC =      1456.66127761
  Ewald energy   TEWEN  =     97508.37907492
  -Hartree energ DENC   =   -215632.51408677
  -exchange      EXHF   =         0.00000000
  -V(xc)+E(xc)   XCENC  =      3561.18091222
  PAW double counting   =    113797.20109454  -118460.72303697
  entropy T*S    EENTRO =        -1.07405267
  eigenvalues    EBANDS =    -18741.99130566
  atomic energy  EATOM  =    136002.60505376
  Solvation  Ediel_sol  =         0.00000000
  ---------------------------------------------------
  free energy    TOTEN  =      -510.27506901 eV

  energy without entropy =     -509.20101634  energy(sigma->0) =     -509.73804268


--------------------------------------------------------------------------------------------------------




--------------------------------------- Iteration      1(   7)  ---------------------------------------


    POTLOK:  cpu time    0.0493: real time    0.0494
    SETDIJ:  cpu time    0.0046: real time    0.0046
     EDDAV:  cpu time    2.5117: real time    2.5199
       DOS:  cpu time    0.0006: real time    0.0006
    CHARGE:  cpu time    0.0902: real time    0.0904
    MIXING:  cpu time    0.0021: real time    0.0021
    --------------------------------------------
      LOOP:  cpu time    2.6586: real time    2.6672

 eigenvalue-minimisations  :  1120
 total energy-change (2. order) : 0.1320598E+03  (-0.1992116E+02)
 number of electron     791.9996479 magnetization 
 augmentation part      335.6555189 magnetization 

 Broyden mixing:
  rms(total) = 0.74083E+01    rms(broyden)= 0.74075E+01
  rms(prec ) = 0.79822E+01
  weight for this iteration     100.00

 eigenvalues of (default mixing * dielectric matrix)
  average eigenvalue GAMMA=   0.4963
  0.4963  0.4963

 Free energy of the ion-electron system (eV)
  ---------------------------------------------------
  alpha Z        PSCENC =      1456.66127761
  Ewald energy   TEWEN  =     97508.37907492
  -Hartree energ DENC   =   -216773.39388068
  -exchange      EXHF   =         0.00000000
  -V(xc)+E(xc)   XCENC  =      3590.26150419
  PAW double counting   =    117822.59114130  -122630.37585969
  entropy T*S    EENTRO =        -1.11920811
  eigenvalues    EBANDS =    -17353.82442213
  atomic energy  EATOM  =    136002.60505376
  Solvation  Ediel_sol  =         0.00000000
  ---------------------------------------------------
  free energy    TOTEN  =      -378.21531882 eV

  energy without entropy =     -377.09611071  energy(sigma->0) =     -377.65571476


--------------------------------------------------------------------------------------------------------




--------------------------------------- Iteration      1(   8)  ---------------------------------------


    POTLOK:  cpu time    0.0497: real time    0.0517
    SETDIJ:  cpu time    0.0048: real time    0.0074
     EDDAV:  cpu time    2.8537: real time    2.8607
       DOS:  cpu time    0.0007: real time    0.0006
    CHARGE:  cpu time    0.0878: real time    0.0880
    MIXING:  cpu time    0.0021: real time    0.0021
    --------------------------------------------
      LOOP:  cpu time    2.9989: real time    3.0106

 eigenvalue-minimisations  :  1344
 total energy-change (2. order) :-0.2149083E+01  (-0.1967338E+02)
 number of electron     791.9996747 magnetization 
 augmentation part      306.2034502 magnetization 

 Broyden mixing:
  rms(total) = 0.96321E+01    rms(broyden)= 0.96282E+01
  rms(prec ) = 0.11494E+02
  weight for this iteration     100.00

 eigenvalues of (default mixing * dielectric matrix)
  average eigenvalue GAMMA=   0.3909
  0.5192  0.5192  0.1342

 Free energy of the ion-electron system (eV)
  ---------------------------------------------------
  alpha Z        PSCENC =      1456.66127761
  Ewald energy   TEWEN  =     97508.37907492
  -Hartree energ DENC   =   -217701.40858341
  -exchange      EXHF   =         0.00000000
  -V(xc)+E(xc)   XCENC  =      3614.17278600
  PAW double counting   =    123093.32477574  -128014.41672158
  entropy T*S    EENTRO =        -1.47684931
  eigenvalues    EBANDS =    -16338.20521522
  atomic energy  EATOM  =    136002.60505376
  Solvation  Ediel_sol  =         0.00000000
  ---------------------------------------------------
  free energy    TOTEN  =      -380.36440149 eV

  energy without entropy =     -378.88755219  energy(sigma->0) =     -379.62597684


--------------------------------------------------------------------------------------------------------




--------------------------------------- Iteration      1(   9)  ---------------------------------------


    POTLOK:  cpu time    0.0489: real time    0.0490
    SETDIJ:  cpu time    0.0046: real time    0.0046
     EDDAV:  cpu time    2.8142: real time    2.8213
       DOS:  cpu time    0.0008: real time    0.0008
    CHARGE:  cpu time    0.0884: real time    0.0886
    MIXING:  cpu time    0.0022: real time    0.0022
    --------------------------------------------
      LOOP:  cpu time    2.9591: real time    2.9665

 eigenvalue-minimisations  :  1320
 total energy-change (2. order) : 0.1808248E+02  (-0.8444989E+01)
 number of electron     791.9996796 magnetization 
 augmentation part      307.5034613 magnetization 

 Broyden mixing:
  rms(total) = 0.50938E+01    rms(broyden)= 0.50902E+01
  rms(prec ) = 0.58472E+01
  weight for this iteration     100.00

 eigenvalues of (default mixing * dielectric matrix)
  average eigenvalue GAMMA=   0.4079
  0.8560  0.3285  0.3285  0.1186

 Free energy of the ion-electron system (eV)
  ---------------------------------------------------
  alpha Z        PSCENC =      1456.66127761
  Ewald energy   TEWEN  =     97508.37907492
  -Hartree energ DENC   =   -217715.07625957
  -exchange      EXHF   =         0.00000000
  -V(xc)+E(xc)   XCENC  =      3614.55613056
  PAW double counting   =    124249.34772172  -129183.21074735
  entropy T*S    EENTRO =        -0.92634810
  eigenvalues    EBANDS =    -16294.61782368
  atomic energy  EATOM  =    136002.60505376
  Solvation  Ediel_sol  =         0.00000000
  ---------------------------------------------------
  free energy    TOTEN  =      -362.28192013 eV

  energy without entropy =     -361.35557203  energy(sigma->0) =     -361.81874608


--------------------------------------------------------------------------------------------------------




--------------------------------------- Iteration      1(  10)  ---------------------------------------


    POTLOK:  cpu time    0.0493: real time    0.0495
    SETDIJ:  cpu time    0.0046: real time    0.0046
     EDDAV:  cpu time    2.7985: real time    2.8053
       DOS:  cpu time    0.0007: real time    0.0007
    CHARGE:  cpu time    0.0887: real time    0.0889
    MIXING:  cpu time    0.0023: real time    0.0023
    --------------------------------------------
      LOOP:  cpu time    2.9442: real time    2.9513

 eigenvalue-minimisations  :  1320
 total energy-change (2. order) :-0.6736427E+00  (-0.4544528E+01)
 number of electron     791.9996713 magnetization 
 augmentation part      303.6397660 magnetization 

 Broyden mixing:
  rms(total) = 0.75103E+01    rms(broyden)= 0.75049E+01
  rms(prec ) = 0.90973E+01
  weight for this iteration     100.00

 eigenvalues of (default mixing * dielectric matrix)
  average eigenvalue GAMMA=   0.5280
  1.6064  0.4053  0.4053  0.1114  0.1114

 Free energy of the ion-electron system (eV)
  ---------------------------------------------------
  alpha Z        PSCENC =      1456.66127761
  Ewald energy   TEWEN  =     97508.37907492
  -Hartree energ DENC   =   -217741.27105548
  -exchange      EXHF   =         0.00000000
  -V(xc)+E(xc)   XCENC  =      3615.53886410
  PAW double counting   =    125666.60135089  -130617.75351015
  entropy T*S    EENTRO =        -1.53468451
  eigenvalues    EBANDS =    -16252.18193403
  atomic energy  EATOM  =    136002.60505376
  Solvation  Ediel_sol  =         0.00000000
  ---------------------------------------------------
  free energy    TOTEN  =      -362.95556288 eV

  energy without entropy =     -361.42087838  energy(sigma->0) =     -362.18822063


--------------------------------------------------------------------------------------------------------




--------------------------------------- Iteration      1(  11)  ---------------------------------------


    POTLOK:  cpu time    0.0493: real time    0.0494
    SETDIJ:  cpu time    0.0046: real time    0.0046
     EDDAV:  cpu time    2.8502: real time    2.8587
       DOS:  cpu time    0.0006: real time    0.0006
    CHARGE:  cpu time    0.0878: real time    0.0881
    MIXING:  cpu time    0.0025: real time    0.0025
    --------------------------------------------
      LOOP:  cpu time    2.9950: real time    3.0039

 eigenvalue-minimisations  :  1344
 total energy-change (2. order) :-0.1392480E+01  (-0.4731505E+01)
 number of electron     791.9996774 magnetization 
 augmentation part      308.6326027 magnetization 

 Broyden mixing:
  rms(total) = 0.62790E+01    rms(broyden)= 0.62759E+01
  rms(prec ) = 0.80185E+01
  weight for this iteration     100.00

 eigenvalues of (default mixing * dielectric matrix)
  average eigenvalue GAMMA=   0.5053
  1.8604  0.4120  0.4120  0.1277  0.1277  0.0919

 Free energy of the ion-electron system (eV)
  ---------------------------------------------------
  alpha Z        PSCENC =      1456.66127761
  Ewald energy   TEWEN  =     97508.37907492
  -Hartree energ DENC   =   -217627.62962070
  -exchange      EXHF   =         0.00000000
  -V(xc)+E(xc)   XCENC  =      3611.21455812
  PAW double counting   =    128226.33925263  -133190.40124727
  entropy T*S    EENTRO =        -1.42226624
  eigenvalues    EBANDS =    -16350.09412530
  atomic energy  EATOM  =    136002.60505376
  Solvation  Ediel_sol  =         0.00000000
  ---------------------------------------------------
  free energy    TOTEN  =      -364.34804247 eV

  energy without entropy =     -362.92577622  energy(sigma->0) =     -363.63690934


--------------------------------------------------------------------------------------------------------




--------------------------------------- Iteration      1(  12)  ---------------------------------------


    POTLOK:  cpu time    0.0492: real time    0.0511
    SETDIJ:  cpu time    0.0043: real time    0.0061
     EDDAV:  cpu time    2.7594: real time    2.7662
       DOS:  cpu time    0.0007: real time    0.0007
    CHARGE:  cpu time    0.0868: real time    0.0870
    MIXING:  cpu time    0.0025: real time    0.0025
    --------------------------------------------
      LOOP:  cpu time    2.9029: real time    2.9135

 eigenvalue-minimisations  :  1312
 total energy-change (2. order) : 0.8134718E+01  (-0.4029211E+01)
 number of electron     791.9996714 magnetization 
 augmentation part      312.8666894 magnetization 

 Broyden mixing:
  rms(total) = 0.36102E+01    rms(broyden)= 0.36075E+01
  rms(prec ) = 0.43400E+01
  weight for this iteration     100.00

 eigenvalues of (default mixing * dielectric matrix)
  average eigenvalue GAMMA=   0.4876
  1.9398  0.4101  0.4101  0.3304  0.1071  0.1071  0.1086

 Free energy of the ion-electron system (eV)
  ---------------------------------------------------
  alpha Z        PSCENC =      1456.66127761
  Ewald energy   TEWEN  =     97508.37907492
  -Hartree energ DENC   =   -217577.23251875
  -exchange      EXHF   =         0.00000000
  -V(xc)+E(xc)   XCENC  =      3609.68173598
  PAW double counting   =    129544.41712801  -134518.30553494
  entropy T*S    EENTRO =        -1.06415356
  eigenvalues    EBANDS =    -16381.35538793
  atomic energy  EATOM  =    136002.60505376
  Solvation  Ediel_sol  =         0.00000000
  ---------------------------------------------------
  free energy    TOTEN  =      -356.21332489 eV

  energy without entropy =     -355.14917133  energy(sigma->0) =     -355.68124811


--------------------------------------------------------------------------------------------------------




--------------------------------------- Iteration      1(  13)  ---------------------------------------


    POTLOK:  cpu time    0.0492: real time    0.0493
    SETDIJ:  cpu time    0.0046: real time    0.0046
     EDDAV:  cpu time    2.7544: real time    2.7611
       DOS:  cpu time    0.0008: real time    0.0008
    CHARGE:  cpu time    0.0868: real time    0.0870
    MIXING:  cpu time    0.0026: real time    0.0026
    --------------------------------------------
      LOOP:  cpu time    2.8984: real time    2.9054

 eigenvalue-minimisations  :  1304
 total energy-change (2. order) : 0.1955417E+01  (-0.2024555E+01)
 number of electron     791.9996728 magnetization 
 augmentation part      313.9011469 magnetization 

 Broyden mixing:
  rms(total) = 0.34248E+01    rms(broyden)= 0.34225E+01
  rms(prec ) = 0.41420E+01
  weight for this iteration     100.00

 eigenvalues of (default mixing * dielectric matrix)
  average eigenvalue GAMMA=   0.4801
  1.9215  0.5993  0.4230  0.4230  0.1174  0.1174  0.1401  0.0993

 Free energy of the ion-electron system (eV)
  ---------------------------------------------------
  alpha Z        PSCENC =      1456.66127761
  Ewald energy   TEWEN  =     97508.37907492
  -Hartree energ DENC   =   -217581.54804177
  -exchange      EXHF   =         0.00000000
  -V(xc)+E(xc)   XCENC  =      3609.44877382
  PAW double counting   =    129954.64520431  -134932.77529728
  entropy T*S    EENTRO =        -0.94776450
  eigenvalues    EBANDS =    -16370.72618840
  atomic energy  EATOM  =    136002.60505376
  Solvation  Ediel_sol  =         0.00000000
  ---------------------------------------------------
  free energy    TOTEN  =      -354.25790753 eV

  energy without entropy =     -353.31014303  energy(sigma->0) =     -353.78402528


--------------------------------------------------------------------------------------------------------




--------------------------------------- Iteration      1(  14)  ---------------------------------------


    POTLOK:  cpu time    0.0489: real time    0.0491
    SETDIJ:  cpu time    0.0047: real time    0.0047
     EDDAV:  cpu time    2.7607: real time    2.7674
       DOS:  cpu time    0.0007: real time    0.0007
    CHARGE:  cpu time    0.0862: real time    0.0864
    MIXING:  cpu time    0.0027: real time    0.0027
    --------------------------------------------
      LOOP:  cpu time    2.9038: real time    2.9109

 eigenvalue-minimisations  :  1312
 total energy-change (2. order) : 0.4563525E+00  (-0.1247613E+01)
 number of electron     791.9996756 magnetization 
 augmentation part      312.4597979 magnetization 

 Broyden mixing:
  rms(total) = 0.48760E+01    rms(broyden)= 0.48744E+01
  rms(prec ) = 0.59127E+01
  weight for this iteration     100.00

 eigenvalues of (default mixing * dielectric matrix)
  average eigenvalue GAMMA=   0.4521
  1.9607  0.6660  0.4257  0.4257  0.1496  0.1263  0.1263  0.0941  0.0941

 Free energy of the ion-electron system (eV)
  ---------------------------------------------------
  alpha Z        PSCENC =      1456.66127761
  Ewald energy   TEWEN  =     97508.37907492
  -Hartree energ DENC   =   -217616.35899190
  -exchange      EXHF   =         0.00000000
  -V(xc)+E(xc)   XCENC  =      3610.35979657
  PAW double counting   =    129911.98111547  -134892.99022392
  entropy T*S    EENTRO =        -1.09943079
  eigenvalues    EBANDS =    -16333.33922679
  atomic energy  EATOM  =    136002.60505376
  Solvation  Ediel_sol  =         0.00000000
  ---------------------------------------------------
  free energy    TOTEN  =      -353.80155507 eV

  energy without entropy =     -352.70212427  energy(sigma->0) =     -353.25183967


--------------------------------------------------------------------------------------------------------




--------------------------------------- Iteration      1(  15)  ---------------------------------------


    POTLOK:  cpu time    0.0490: real time    0.0491
    SETDIJ:  cpu time    0.0047: real time    0.0047
     EDDAV:  cpu time    2.6377: real time    2.6441
       DOS:  cpu time    0.0006: real time    0.0006
    CHARGE:  cpu time    0.0875: real time    0.0877
    MIXING:  cpu time    0.0028: real time    0.0028
    --------------------------------------------
      LOOP:  cpu time    2.7823: real time    2.7890

 eigenvalue-minimisations  :  1240
 total energy-change (2. order) : 0.3458493E+01  (-0.1586452E+01)
 number of electron     791.9996739 magnetization 
 augmentation part      313.6903286 magnetization 

 Broyden mixing:
  rms(total) = 0.24511E+01    rms(broyden)= 0.24489E+01
  rms(prec ) = 0.29194E+01
  weight for this iteration     100.00

 eigenvalues of (default mixing * dielectric matrix)
  average eigenvalue GAMMA=   0.4225
  1.9389  0.6328  0.4332  0.4332  0.1923  0.1923  0.1138  0.1138  0.1021  0.0732

 Free energy of the ion-electron system (eV)
  ---------------------------------------------------
  alpha Z        PSCENC =      1456.66127761
  Ewald energy   TEWEN  =     97508.37907492
  -Hartree energ DENC   =   -217625.17120468
  -exchange      EXHF   =         0.00000000
  -V(xc)+E(xc)   XCENC  =      3610.15953961
  PAW double counting   =    129996.01769442  -134977.56848593
  entropy T*S    EENTRO =        -1.00214610
  eigenvalues    EBANDS =    -16320.42386592
  atomic energy  EATOM  =    136002.60505376
  Solvation  Ediel_sol  =         0.00000000
  ---------------------------------------------------
  free energy    TOTEN  =      -350.34306230 eV

  energy without entropy =     -349.34091621  energy(sigma->0) =     -349.84198926


--------------------------------------------------------------------------------------------------------




--------------------------------------- Iteration      1(  16)  ---------------------------------------


    POTLOK:  cpu time    0.0492: real time    0.0493
    SETDIJ:  cpu time    0.0046: real time    0.0046
     EDDAV:  cpu time    2.7365: real time    2.7432
       DOS:  cpu time    0.0009: real time    0.0009
    CHARGE:  cpu time    0.0861: real time    0.0863
    MIXING:  cpu time    0.0029: real time    0.0029
    --------------------------------------------
      LOOP:  cpu time    2.8803: real time    2.8873

 eigenvalue-minimisations  :  1312
 total energy-change (2. order) : 0.1750843E+01  (-0.2487352E+00)
 number of electron     791.9996713 magnetization 
 augmentation part      313.5690829 magnetization 

 Broyden mixing:
  rms(total) = 0.18883E+01    rms(broyden)= 0.18873E+01
  rms(prec ) = 0.22881E+01
  weight for this iteration     100.00

 eigenvalues of (default mixing * dielectric matrix)
  average eigenvalue GAMMA=   0.4386
  1.9303  0.6643  0.6643  0.4151  0.4151  0.1874  0.1184  0.1184  0.1326  0.0976
  0.0809

 Free energy of the ion-electron system (eV)
  ---------------------------------------------------
  alpha Z        PSCENC =      1456.66127761
  Ewald energy   TEWEN  =     97508.37907492
  -Hartree energ DENC   =   -217641.17545459
  -exchange      EXHF   =         0.00000000
  -V(xc)+E(xc)   XCENC  =      3610.64952921
  PAW double counting   =    129918.01474778  -134900.43982285
  entropy T*S    EENTRO =        -1.06263884
  eigenvalues    EBANDS =    -16302.22398624
  atomic energy  EATOM  =    136002.60505376
  Solvation  Ediel_sol  =         0.00000000
  ---------------------------------------------------
  free energy    TOTEN  =      -348.59221924 eV

  energy without entropy =     -347.52958040  energy(sigma->0) =     -348.06089982


--------------------------------------------------------------------------------------------------------




--------------------------------------- Iteration      1(  17)  ---------------------------------------


    POTLOK:  cpu time    0.0494: real time    0.0495
    SETDIJ:  cpu time    0.0046: real time    0.0046
     EDDAV:  cpu time    2.7255: real time    2.7321
       DOS:  cpu time    0.0007: real time    0.0007
    CHARGE:  cpu time    0.0864: real time    0.0866
    MIXING:  cpu time    0.0030: real time    0.0030
    --------------------------------------------
      LOOP:  cpu time    2.8695: real time    2.8765

 eigenvalue-minimisations  :  1304
 total energy-change (2. order) : 0.6207530E+00  (-0.1997339E+00)
 number of electron     791.9996716 magnetization 
 augmentation part      313.0168428 magnetization 

 Broyden mixing:
  rms(total) = 0.15248E+01    rms(broyden)= 0.15236E+01
  rms(prec ) = 0.18432E+01
  weight for this iteration     100.00

 eigenvalues of (default mixing * dielectric matrix)
  average eigenvalue GAMMA=   0.4310
  1.9194  0.7621  0.7621  0.4127  0.4127  0.1892  0.1892  0.1187  0.1187  0.1045
  0.1045  0.0785

 Free energy of the ion-electron system (eV)
  ---------------------------------------------------
  alpha Z        PSCENC =      1456.66127761
  Ewald energy   TEWEN  =     97508.37907492
  -Hartree energ DENC   =   -217667.04208245
  -exchange      EXHF   =         0.00000000
  -V(xc)+E(xc)   XCENC  =      3611.16816217
  PAW double counting   =    129734.61916786  -134715.40587279
  entropy T*S    EENTRO =        -1.08115940
  eigenvalues    EBANDS =    -16277.87508790
  atomic energy  EATOM  =    136002.60505376
  Solvation  Ediel_sol  =         0.00000000
  ---------------------------------------------------
  free energy    TOTEN  =      -347.97146621 eV

  energy without entropy =     -346.89030681  energy(sigma->0) =     -347.43088651


--------------------------------------------------------------------------------------------------------




--------------------------------------- Iteration      1(  18)  ---------------------------------------


    POTLOK:  cpu time    0.0492: real time    0.0493
    SETDIJ:  cpu time    0.0046: real time    0.0046
     EDDAV:  cpu time    2.6692: real time    2.6757
       DOS:  cpu time    0.0007: real time    0.0007
    CHARGE:  cpu time    0.0888: real time    0.0890
    MIXING:  cpu time    0.0031: real time    0.0031
    --------------------------------------------
      LOOP:  cpu time    2.8157: real time    2.8225

 eigenvalue-minimisations  :  1272
 total energy-change (2. order) : 0.7189399E+00  (-0.8953364E-01)
 number of electron     791.9996721 magnetization 
 augmentation part      312.8416109 magnetization 

 Broyden mixing:
  rms(total) = 0.12009E+01    rms(broyden)= 0.12004E+01
  rms(prec ) = 0.14746E+01
  weight for this iteration     100.00

 eigenvalues of (default mixing * dielectric matrix)
  average eigenvalue GAMMA=   0.4597
  1.9718  0.9169  0.9169  0.4436  0.4207  0.4207  0.2160  0.1182  0.1182  0.1278
  0.1278  0.0985  0.0796

 Free energy of the ion-electron system (eV)
  ---------------------------------------------------
  alpha Z        PSCENC =      1456.66127761
  Ewald energy   TEWEN  =     97508.37907492
  -Hartree energ DENC   =   -217680.26633409
  -exchange      EXHF   =         0.00000000
  -V(xc)+E(xc)   XCENC  =      3611.44627951
  PAW double counting   =    129641.06726807  -134620.91700109
  entropy T*S    EENTRO =        -1.08726183
  eigenvalues    EBANDS =    -16265.14088317
  atomic energy  EATOM  =    136002.60505376
  Solvation  Ediel_sol  =         0.00000000
  ---------------------------------------------------
  free energy    TOTEN  =      -347.25252631 eV

  energy without entropy =     -346.16526449  energy(sigma->0) =     -346.70889540


--------------------------------------------------------------------------------------------------------




--------------------------------------- Iteration      1(  19)  ---------------------------------------


    POTLOK:  cpu time    0.0490: real time    0.0491
    SETDIJ:  cpu time    0.0046: real time    0.0046
     EDDAV:  cpu time    2.7560: real time    2.7657
       DOS:  cpu time    0.0013: real time    0.0012
    CHARGE:  cpu time    0.0875: real time    0.0877
    MIXING:  cpu time    0.0035: real time    0.0035
    --------------------------------------------
      LOOP:  cpu time    2.9019: real time    2.9119

 eigenvalue-minimisations  :  1304
 total energy-change (2. order) : 0.1811591E+00  (-0.6658505E-01)
 number of electron     791.9996719 magnetization 
 augmentation part      312.4747103 magnetization 

 Broyden mixing:
  rms(total) = 0.11347E+01    rms(broyden)= 0.11340E+01
  rms(prec ) = 0.13849E+01
  weight for this iteration     100.00

 eigenvalues of (default mixing * dielectric matrix)
  average eigenvalue GAMMA=   0.4725
  2.0361  1.0897  1.0897  0.5122  0.4253  0.4253  0.1874  0.1874  0.1180  0.1180
  0.1347  0.1113  0.1001  0.0794

 Free energy of the ion-electron system (eV)
  ---------------------------------------------------
  alpha Z        PSCENC =      1456.66127761
  Ewald energy   TEWEN  =     97508.37907492
  -Hartree energ DENC   =   -217692.84835806
  -exchange      EXHF   =         0.00000000
  -V(xc)+E(xc)   XCENC  =      3611.63063671
  PAW double counting   =    129618.10331742  -134596.66780336
  entropy T*S    EENTRO =        -1.11125729
  eigenvalues    EBANDS =    -16253.82330895
  atomic energy  EATOM  =    136002.60505376
  Solvation  Ediel_sol  =         0.00000000
  ---------------------------------------------------
  free energy    TOTEN  =      -347.07136725 eV

  energy without entropy =     -345.96010995  energy(sigma->0) =     -346.51573860


--------------------------------------------------------------------------------------------------------




--------------------------------------- Iteration      1(  20)  ---------------------------------------


    POTLOK:  cpu time    0.0498: real time    0.0518
    SETDIJ:  cpu time    0.0042: real time    0.0059
     EDDAV:  cpu time    2.7161: real time    2.7227
       DOS:  cpu time    0.0009: real time    0.0009
    CHARGE:  cpu time    0.0862: real time    0.0864
    MIXING:  cpu time    0.0035: real time    0.0035
    --------------------------------------------
      LOOP:  cpu time    2.8606: real time    2.8712

 eigenvalue-minimisations  :  1296
 total energy-change (2. order) : 0.2979460E+00  (-0.5779508E-01)
 number of electron     791.9996718 magnetization 
 augmentation part      312.4121218 magnetization 

 Broyden mixing:
  rms(total) = 0.81425E+00    rms(broyden)= 0.81350E+00
  rms(prec ) = 0.95709E+00
  weight for this iteration     100.00

 eigenvalues of (default mixing * dielectric matrix)
  average eigenvalue GAMMA=   0.4746
  2.0427  1.1792  1.1792  0.4440  0.4440  0.4051  0.4051  0.2207  0.1183  0.1183
  0.1505  0.0795  0.0987  0.1168  0.1168

 Free energy of the ion-electron system (eV)
  ---------------------------------------------------
  alpha Z        PSCENC =      1456.66127761
  Ewald energy   TEWEN  =     97508.37907492
  -Hartree energ DENC   =   -217701.94916767
  -exchange      EXHF   =         0.00000000
  -V(xc)+E(xc)   XCENC  =      3611.63454971
  PAW double counting   =    129612.30606992  -134589.11053306
  entropy T*S    EENTRO =        -1.18190867
  eigenvalues    EBANDS =    -16246.11783774
  atomic energy  EATOM  =    136002.60505376
  Solvation  Ediel_sol  =         0.00000000
  ---------------------------------------------------
  free energy    TOTEN  =      -346.77342122 eV

  energy without entropy =     -345.59151255  energy(sigma->0) =     -346.18246689


--------------------------------------------------------------------------------------------------------




--------------------------------------- Iteration      1(  21)  ---------------------------------------


    POTLOK:  cpu time    0.0494: real time    0.0495
    SETDIJ:  cpu time    0.0045: real time    0.0045
     EDDAV:  cpu time    2.7021: real time    2.7086
       DOS:  cpu time    0.0006: real time    0.0006
    CHARGE:  cpu time    0.0870: real time    0.0872
    MIXING:  cpu time    0.0035: real time    0.0036
    --------------------------------------------
      LOOP:  cpu time    2.8471: real time    2.8540

 eigenvalue-minimisations  :  1304
 total energy-change (2. order) : 0.6149585E-01  (-0.2695153E-01)
 number of electron     791.9996715 magnetization 
 augmentation part      312.4570898 magnetization 

 Broyden mixing:
  rms(total) = 0.71957E+00    rms(broyden)= 0.71921E+00
  rms(prec ) = 0.85071E+00
  weight for this iteration     100.00

 eigenvalues of (default mixing * dielectric matrix)
  average eigenvalue GAMMA=   0.4780
  2.0341  1.2678  1.2678  0.5345  0.5345  0.4186  0.4186  0.2012  0.1884  0.1183
  0.1183  0.0794  0.1276  0.1276  0.0995  0.1111

 Free energy of the ion-electron system (eV)
  ---------------------------------------------------
  alpha Z        PSCENC =      1456.66127761
  Ewald energy   TEWEN  =     97508.37907492
  -Hartree energ DENC   =   -217708.19057460
  -exchange      EXHF   =         0.00000000
  -V(xc)+E(xc)   XCENC  =      3611.64740377
  PAW double counting   =    129554.42354580  -134529.94852212
  entropy T*S    EENTRO =        -1.16889838
  eigenvalues    EBANDS =    -16241.12028614
  atomic energy  EATOM  =    136002.60505376
  Solvation  Ediel_sol  =         0.00000000
  ---------------------------------------------------
  free energy    TOTEN  =      -346.71192537 eV

  energy without entropy =     -345.54302699  energy(sigma->0) =     -346.12747618


--------------------------------------------------------------------------------------------------------




--------------------------------------- Iteration      1(  22)  ---------------------------------------


    POTLOK:  cpu time    0.0496: real time    0.0497
    SETDIJ:  cpu time    0.0045: real time    0.0046
     EDDAV:  cpu time    2.6445: real time    2.6510
[...]
    FORCOR:  cpu time    0.0652: real time    0.0655
    FORHAR:  cpu time    0.0278: real time    0.0279
    MIXING:  cpu time    0.0076: real time    0.0076
    OFIELD:  cpu time    0.0001: real time    0.0001

  FORCE on cell =-STRESS in cart. coord.  units (eV):
  Direction    XX          YY          ZZ          XY          YZ          ZX
  --------------------------------------------------------------------------------------
  Alpha Z  1456.66128  1456.66128  1456.66128
  Ewald  146264.26206147143.49251************    -0.00000    -0.00000   -49.26705
  Hartree181914.40547182881.18195************     0.00017     0.00006  -107.33458
  E(xc)   -5017.69667 -5018.18561 -5025.15101    -0.00000    -0.00000     0.50951
  Local  ************************330308.95845    -0.00004    -0.00010   165.06369
  n-local  -687.52703  -692.63449  -697.68175     0.03784    -0.03013     2.59423
  augment  5782.91045  5794.00066  5806.03927    -0.00010    -0.00000    -5.84147
  Kinetic 10931.46481 10934.80784 10977.15755     0.00068     0.00033   -16.03568
  Fock        0.00000     0.00000     0.00000     0.00000     0.00000     0.00000
  -------------------------------------------------------------------------------------
  Total     -39.53436   -41.17571   -57.91535     0.00000     0.00000   -10.31135
  in kB     -24.80348   -25.83325   -36.33554     0.00000     0.00000    -6.46924
  external pressure =      -28.99 kB  Pullay stress =        0.00 kB


 VOLUME and BASIS-vectors are now :
 -----------------------------------------------------------------------------
  energy-cutoff  :      450.00
  volume of cell :     2553.72
      direct lattice vectors                 reciprocal lattice vectors
    16.884694054  0.000000000  0.000000000     0.059225237  0.000000000  0.000000000
     0.000000000  9.578410000  0.000000000     0.000000000  0.104401461  0.000000000
     0.000000000  0.000000000 15.790141690     0.000000000  0.000000000  0.063330654

  length of vectors
    16.884694054  9.578410000 15.790141690     0.059225237  0.104401461  0.063330654


 FORCES acting on ions
    electron-ion (+dipol)            ewald-force                    non-local-force                 convergence-correction
 -----------------------------------------------------------------------------------------------
   0.394E+03 -.852E-03 0.146E+04   -.395E+03 -.568E-13 -.147E+04   0.133E+01 -.455E-19 0.443E+01   0.280E-01 -.113E-06 0.114E-01
   0.485E+03 -.781E-03 -.274E+04   -.486E+03 -.693E-13 0.273E+04   0.416E+00 0.293E-19 0.676E+01   0.747E-02 -.129E-06 -.155E-01
   -.150E+03 -.882E-03 0.315E+04   0.141E+03 -.178E-13 -.314E+04   0.800E+01 -.513E-19 -.847E+01   -.679E-02 -.218E-06 0.101E-01
   0.442E+03 -.843E-03 -.375E+03   -.444E+03 0.000E+00 0.375E+03   0.109E+01 0.183E-19 0.617E+00   -.164E-01 -.409E-07 0.655E-02
   0.707E+03 -.876E-03 0.275E+04   -.709E+03 0.409E-13 -.275E+04   0.219E+01 0.629E-19 -.206E+01   -.575E-01 -.180E-06 0.169E-01
   0.343E+03 -.805E-03 -.126E+04   -.344E+03 0.284E-13 0.127E+04   0.777E+00 0.173E-19 -.314E+01   -.853E-02 -.160E-06 0.135E-01
   0.464E+03 -.863E-03 0.106E+04   -.466E+03 -.604E-13 -.106E+04   0.172E+01 0.697E-19 0.383E+01   -.218E-01 -.133E-06 0.109E-01
   0.527E+03 -.876E-03 -.302E+04   -.527E+03 0.103E-12 0.301E+04   -.841E+00 0.494E-19 0.581E+01   -.505E-02 -.122E-06 -.168E-01
   0.523E+03 -.816E-03 0.693E+03   -.525E+03 -.284E-13 -.698E+03   0.200E+01 0.167E-18 0.411E+01   0.154E-01 -.130E-06 0.320E-02
   0.515E+03 -.837E-03 -.320E+04   -.514E+03 0.142E-12 0.319E+04   -.631E+00 -.515E-19 0.571E+01   -.284E-02 -.208E-06 -.144E-01
   0.600E+03 -.891E-03 0.232E+04   -.601E+03 0.169E-12 -.232E+04   0.114E+01 0.435E-19 -.154E+01   0.305E-01 -.206E-06 0.132E-01
   0.328E+03 -.875E-03 -.190E+04   -.328E+03 0.102E-12 0.191E+04   0.761E-02 -.124E-18 -.449E+01   0.126E-01 -.130E-06 -.260E-02
   -.489E+03 0.311E+03 0.231E+04   0.488E+03 -.315E+03 -.232E+04   0.220E+00 0.331E+01 0.191E+01   -.101E-02 0.490E-03 0.112E-01
   -.730E+02 0.437E+03 -.197E+04   0.747E+02 -.435E+03 0.197E+04   -.114E+01 -.244E+01 -.262E+00   0.347E-02 -.568E-02 -.110E-01
   -.153E+03 0.369E+03 0.510E+03   0.153E+03 -.370E+03 -.513E+03   -.133E+00 0.763E+00 0.289E+01   -.115E-01 -.218E-02 0.902E-02
   -.125E+03 0.330E+03 -.315E+04   0.123E+03 -.330E+03 0.314E+04   0.212E+01 -.764E+00 0.872E+01   0.541E-02 -.770E-02 -.340E-02
   -.982E+02 0.626E+03 0.310E+04   0.938E+02 -.615E+03 -.309E+04   0.425E+01 -.101E+02 -.660E+01   0.282E-02 -.208E-01 0.149E-01
   -.324E+03 0.380E+03 -.779E+03   0.325E+03 -.381E+03 0.782E+03   -.921E+00 0.119E+01 -.211E+01   0.129E-01 -.390E-02 0.228E-01
   -.234E+03 0.505E+03 0.175E+04   0.235E+03 -.509E+03 -.176E+04   -.829E+00 0.312E+01 0.451E+01   -.152E-01 -.105E-01 0.128E-01
   -.262E+03 0.303E+03 -.247E+04   0.260E+03 -.299E+03 0.246E+04   0.249E+01 -.402E+01 0.470E+01   -.102E-01 -.275E-02 -.865E-02
   -.167E+03 0.429E+03 0.129E+04   0.167E+03 -.431E+03 -.129E+04   0.170E+00 0.149E+01 0.441E+01   -.800E-02 0.151E-01 0.723E-02
   -.350E+03 0.491E+03 -.279E+04   0.347E+03 -.489E+03 0.279E+04   0.250E+01 -.300E+01 0.474E+01   -.172E-01 0.700E-02 -.176E-01
   -.215E+03 0.311E+03 0.275E+04   0.216E+03 -.312E+03 -.275E+04   -.479E+00 0.981E+00 -.180E+01   0.264E-01 0.121E-01 0.152E-01
   -.298E+03 0.459E+03 -.141E+04   0.299E+03 -.460E+03 0.141E+04   0.647E-01 0.104E+01 -.361E+01   0.164E-01 0.407E-02 -.115E-01
   -.489E+03 -.311E+03 0.231E+04   0.488E+03 0.315E+03 -.232E+04   0.220E+00 -.331E+01 0.191E+01   -.101E-02 -.490E-03 0.112E-01
   -.730E+02 -.437E+03 -.197E+04   0.747E+02 0.435E+03 0.197E+04   -.114E+01 0.244E+01 -.262E+00   0.347E-02 0.568E-02 -.110E-01
   -.153E+03 -.369E+03 0.510E+03   0.153E+03 0.370E+03 -.513E+03   -.133E+00 -.763E+00 0.289E+01   -.115E-01 0.218E-02 0.902E-02
   -.125E+03 -.330E+03 -.315E+04   0.123E+03 0.330E+03 0.314E+04   0.212E+01 0.764E+00 0.872E+01   0.541E-02 0.770E-02 -.340E-02
   -.982E+02 -.626E+03 0.310E+04   0.938E+02 0.615E+03 -.309E+04   0.425E+01 0.101E+02 -.660E+01   0.282E-02 0.208E-01 0.149E-01
   -.324E+03 -.380E+03 -.779E+03   0.325E+03 0.381E+03 0.782E+03   -.921E+00 -.119E+01 -.211E+01   0.129E-01 0.390E-02 0.228E-01
   -.234E+03 -.505E+03 0.175E+04   0.235E+03 0.509E+03 -.176E+04   -.829E+00 -.312E+01 0.451E+01   -.152E-01 0.105E-01 0.128E-01
   -.262E+03 -.303E+03 -.247E+04   0.260E+03 0.299E+03 0.246E+04   0.249E+01 0.402E+01 0.470E+01   -.102E-01 0.275E-02 -.865E-02
   -.167E+03 -.429E+03 0.129E+04   0.167E+03 0.431E+03 -.129E+04   0.170E+00 -.149E+01 0.441E+01   -.800E-02 -.151E-01 0.723E-02
   -.350E+03 -.491E+03 -.279E+04   0.347E+03 0.489E+03 0.279E+04   0.250E+01 0.300E+01 0.474E+01   -.172E-01 -.701E-02 -.176E-01
   -.215E+03 -.311E+03 0.275E+04   0.216E+03 0.312E+03 -.275E+04   -.479E+00 -.981E+00 -.180E+01   0.264E-01 -.121E-01 0.152E-01
   -.298E+03 -.459E+03 -.141E+04   0.299E+03 0.460E+03 0.141E+04   0.647E-01 -.104E+01 -.361E+01   0.164E-01 -.407E-02 -.115E-01
   0.940E+02 -.534E-05 -.124E+04   -.945E+02 0.107E-13 0.124E+04   -.639E+00 -.214E-18 -.375E+01   0.289E-02 -.176E-07 -.507E-02
   -.178E+03 0.615E-05 0.295E+03   0.181E+03 0.266E-13 -.296E+03   -.270E+01 0.316E-19 -.307E+00   -.362E-02 -.244E-08 -.131E-02
   0.662E+02 0.372E-05 0.110E+04   -.674E+02 -.577E-14 -.111E+04   0.226E+01 -.297E-18 0.441E+01   -.114E-02 0.556E-08 0.453E-02
   -.156E+03 0.121E-05 -.477E+03   0.157E+03 0.242E-13 0.476E+03   -.194E+01 0.194E-19 0.199E+01   0.522E-02 0.638E-08 -.176E-02
   -.169E+03 0.135E-04 0.628E+03   0.171E+03 0.803E-13 -.629E+03   -.266E+01 0.869E-20 -.766E+00   0.197E-01 0.233E-07 0.184E-01
   -.298E+02 0.162E-05 -.104E+04   0.292E+02 0.400E-13 0.105E+04   0.856E+00 0.162E-18 -.482E+01   0.156E-02 -.647E-08 -.149E-02
   0.102E+02 -.300E-05 0.135E+04   -.116E+02 -.124E-13 -.135E+04   0.278E+01 -.685E-19 0.533E+01   -.296E-02 -.205E-07 -.143E-02
   -.173E+03 0.111E-05 -.142E+02   0.175E+03 -.426E-13 0.138E+02   -.198E+01 0.165E-18 0.149E+01   0.508E-03 0.435E-08 0.628E-02
   0.845E+02 0.144E-05 0.127E+04   -.856E+02 0.258E-13 -.127E+04   0.228E+01 0.102E-18 0.509E+01   -.113E-01 -.326E-08 0.112E-01
   -.172E+03 -.872E-05 -.215E+03   0.174E+03 0.675E-13 0.215E+03   -.198E+01 0.123E-18 0.133E+01   -.114E-01 -.481E-07 -.623E-02
   -.190E+03 -.153E-05 0.451E+03   0.192E+03 -.628E-13 -.452E+03   -.203E+01 0.210E-18 -.361E+00   0.393E-02 -.712E-08 -.776E-03
   0.114E+02 -.888E-05 -.117E+04   -.114E+02 0.342E-13 0.117E+04   -.108E+00 -.470E-20 -.419E+01   0.448E-02 -.443E-08 -.628E-02
   -.103E+01 -.344E+02 0.132E+04   0.307E+00 0.345E+02 -.132E+04   0.779E+00 0.516E+00 0.506E+01   0.758E-02 0.369E-02 0.970E-02
   0.820E+02 -.141E+03 -.157E+03   -.835E+02 0.142E+03 0.158E+03   0.173E+01 -.153E+01 0.518E+00   0.330E-02 0.243E-02 -.450E-02
   0.866E+01 -.109E+03 0.837E+03   -.818E+01 0.111E+03 -.840E+03   -.943E+00 -.172E+01 0.228E+01   -.789E-02 0.855E-02 0.657E-02
   0.121E+03 0.502E+01 -.822E+03   -.123E+03 -.432E+01 0.823E+03   0.201E+01 -.662E+00 -.340E+00   -.720E-02 0.256E-02 -.422E-02
   0.131E+03 -.185E+03 0.428E+03   -.132E+03 0.186E+03 -.428E+03   0.122E+01 -.182E+01 -.910E+00   -.748E-02 0.197E-02 0.143E-01
   -.117E+03 0.689E+02 -.113E+04   0.118E+03 -.697E+02 0.113E+04   -.111E+01 0.573E+00 -.378E+01   0.293E-02 -.276E-02 -.138E-02
   0.110E+03 -.151E+03 -.322E+03   -.111E+03 0.153E+03 0.322E+03   0.147E+01 -.252E+01 0.135E+01   -.506E-02 -.313E-02 0.138E-02
   0.132E+02 -.451E+02 0.124E+04   -.144E+02 0.443E+02 -.125E+04   0.118E+01 0.141E+01 0.566E+01   -.717E-02 -.859E-04 0.588E-02
   0.615E+02 0.275E+02 0.114E+04   -.622E+02 -.285E+02 -.114E+04   0.657E+00 0.107E+01 0.573E+01   0.482E-02 -.566E-02 0.416E-02
   0.102E+03 -.177E+03 -.482E+03   -.104E+03 0.179E+03 0.481E+03   0.228E+01 -.253E+01 0.194E+01   0.680E-03 -.258E-02 -.380E-02
   0.873E+02 -.147E+03 0.124E+03   -.887E+02 0.149E+03 -.124E+03   0.143E+01 -.224E+01 -.136E+01   0.997E-02 -.242E-02 0.268E-02
   -.236E+02 -.167E+03 -.130E+04   0.230E+02 0.169E+03 0.131E+04   0.817E+00 -.329E+01 -.466E+01   0.338E-02 -.773E-03 -.264E-02
   0.866E+01 0.109E+03 0.837E+03   -.818E+01 -.111E+03 -.840E+03   -.943E+00 0.172E+01 0.228E+01   -.789E-02 -.855E-02 0.657E-02
   0.121E+03 -.502E+01 -.822E+03   -.123E+03 0.432E+01 0.823E+03   0.201E+01 0.662E+00 -.340E+00   -.720E-02 -.256E-02 -.422E-02
   -.103E+01 0.344E+02 0.132E+04   0.307E+00 -.345E+02 -.132E+04   0.779E+00 -.516E+00 0.506E+01   0.758E-02 -.369E-02 0.970E-02
   0.820E+02 0.141E+03 -.157E+03   -.835E+02 -.142E+03 0.158E+03   0.173E+01 0.153E+01 0.518E+00   0.330E-02 -.243E-02 -.450E-02
   0.110E+03 0.151E+03 -.322E+03   -.111E+03 -.153E+03 0.322E+03   0.147E+01 0.252E+01 0.135E+01   -.506E-02 0.313E-02 0.138E-02
   0.132E+02 0.451E+02 0.124E+04   -.144E+02 -.443E+02 -.125E+04   0.118E+01 -.141E+01 0.566E+01   -.717E-02 0.859E-04 0.588E-02
   0.131E+03 0.185E+03 0.428E+03   -.132E+03 -.186E+03 -.428E+03   0.122E+01 0.182E+01 -.910E+00   -.748E-02 -.197E-02 0.143E-01
   -.117E+03 -.689E+02 -.113E+04   0.118E+03 0.697E+02 0.113E+04   -.111E+01 -.573E+00 -.378E+01   0.293E-02 0.276E-02 -.138E-02
   0.873E+02 0.147E+03 0.124E+03   -.887E+02 -.149E+03 -.124E+03   0.143E+01 0.224E+01 -.136E+01   0.997E-02 0.242E-02 0.268E-02
   -.236E+02 0.167E+03 -.130E+04   0.230E+02 -.169E+03 0.131E+04   0.817E+00 0.329E+01 -.466E+01   0.338E-02 0.773E-03 -.264E-02
   0.615E+02 -.275E+02 0.114E+04   -.622E+02 0.285E+02 -.114E+04   0.657E+00 -.107E+01 0.573E+01   0.482E-02 0.566E-02 0.416E-02
   0.102E+03 0.177E+03 -.482E+03   -.104E+03 -.179E+03 0.481E+03   0.228E+01 0.253E+01 0.194E+01   0.680E-03 0.258E-02 -.380E-02
 -----------------------------------------------------------------------------------------------
   -.510E+02 -.123E-01 -.752E+02   0.151E-11 0.284E-13 -.631E-11   0.510E+02 -.577E-14 0.750E+02   -.129E-01 -.117E-05 0.191E+00
 
 
 POSITION                                       TOTAL-FORCE (eV/Angst)
 -----------------------------------------------------------------------------------
     13.17084      1.39171      1.57080         0.387149      0.000000     -0.334970
     13.75451      1.39171      4.65535        -1.024692      0.000000     -1.537252
      4.43666      6.18092      0.02853        -0.806563      0.000000      1.759799
      5.02033      6.18092      3.11308        -0.270962      0.000000      0.261222
      7.34806      1.39171      0.54262        -0.261705      0.000000      1.080108
      7.93172      1.39171      3.62717        -0.179619      0.000000      0.209985
     16.08224      6.18092      2.08489        -0.146715      0.000000     -0.065970
     16.66591      6.18092      5.16944        -0.845992      0.000000     -1.688352
      2.10894      1.39171      2.59898        -0.152611      0.000000     -0.247522
      2.69261      1.39171      5.68353        -0.603758      0.000000     -1.545337
     10.25945      6.18092      1.05671        -0.099981      0.000000      0.993566
     10.84312      6.18092      4.14126         0.070053      0.000000      0.641205
     15.32426      0.12638      1.16333        -0.230934     -0.784882      0.343454
     15.90793      0.12638      4.24787         0.589333      0.320602     -0.479798
      7.17375      4.91558      2.70560         0.048583     -0.192733     -0.076645
      7.75741      4.91558      5.79014        -0.140477     -0.369646     -2.014395
      9.50147      0.12638      0.13515        -0.073814      0.677820      1.645379
     10.08514      0.12638      3.21969         0.091428     -0.006514      0.173290
      1.35096      4.91558      1.67742         0.234605     -0.465689     -0.239586
      1.93463      4.91558      4.76196        -0.100108     -0.153570     -1.412244
      4.26235      0.12638      2.19151         0.157508     -0.294939     -0.249967
      4.84602      0.12638      5.27605        -0.195723     -0.210876     -1.532755
     12.41286      4.91558      0.64924         0.222375     -0.355527      0.945146
     12.99653      4.91558      3.73378         0.238687     -0.112692      0.429206
     15.32426      2.65705      1.16333        -0.230934      0.784882      0.343454
     15.90793      2.65705      4.24787         0.589333     -0.320602     -0.479798
      7.17375      7.44626      2.70560         0.048583      0.192733     -0.076645
      7.75741      7.44626      5.79014        -0.140477      0.369646     -2.014395
      9.50147      2.65705      0.13515        -0.073814     -0.677820      1.645379
     10.08514      2.65705      3.21969         0.091428      0.006514      0.173290
      1.35096      7.44626      1.67742         0.234605      0.465689     -0.239586
      1.93463      7.44626      4.76196        -0.100108      0.153570     -1.412244
      4.26235      2.65705      2.19151         0.157508      0.294939     -0.249967
      4.84602      2.65705      5.27605        -0.195723      0.210876     -1.532755
     12.41286      7.44626      0.64924         0.222375      0.355527      0.945146
     12.99653      7.44626      3.73378         0.238687      0.112692      0.429206
      0.43949      1.39171      5.65500        -1.103149      0.000000      0.016205
     16.74052      1.39171      2.57045        -0.193140      0.000000     -0.983789
      8.00634      6.18092      1.02818         1.078987      0.000000      0.086297
      8.59001      6.18092      4.11272        -0.147581      0.000000      1.277373
     10.91773      1.39171      1.54227        -0.550997      0.000000     -0.920927
     11.50140      1.39171      4.62682         0.225054      0.000000      0.363941
      2.18355      6.18092      0.00000         1.375263      0.000000      0.111548
      2.76722      6.18092      3.08454         0.051269      0.000000      1.096016
      5.09494      1.39171      0.51409         1.258239      0.000000      0.110219
      5.67861      1.39171      3.59863         0.092220      0.000000      0.997013
     13.82913      6.18092      2.05636        -0.539220      0.000000     -0.742257
     14.41279      6.18092      5.14091        -0.081527      0.000000      0.175121
     13.41477      3.00295      0.00478         0.068188      0.582239      0.375229
     13.99844      3.00295      3.08932         0.180795     -0.412107      1.235549
      5.26426      7.79215      1.54705        -0.478589     -0.549479     -0.451465
      5.84793      7.79215      4.63159         0.461070      0.049415      0.681057
      8.17565      3.00295      2.06114        -0.060648     -0.287943     -0.940268
      8.75932      3.00295      5.14568        -0.040301     -0.242256      0.060855
      0.02514      7.79215      3.60341         0.102456     -0.220506      0.960376
     16.32617      7.79215      0.51887        -0.044481      0.604994      0.477092
      2.35287      3.00295      1.03296        -0.120098      0.087171      0.504979
      2.93654      3.00295      4.11750         0.040394      0.020542      1.008321
     11.08705      7.79215      2.57523         0.029779     -0.496038     -0.667689
     11.67072      7.79215      5.65977         0.254963     -0.909233     -1.331741
      5.26426      4.56969      1.54705        -0.478589      0.549479     -0.451465
      5.84793      4.56969      4.63159         0.461070     -0.049415      0.681057
     13.41477      9.35889      0.00478         0.068188     -0.582239      0.375229
     13.99844      9.35889      3.08932         0.180795      0.412107      1.235549
      0.02514      4.56969      3.60341         0.102456      0.220506      0.960376
     16.32617      4.56969      0.51887        -0.044481     -0.604994      0.477092
      8.17565      9.35889      2.06114        -0.060648      0.287943     -0.940268
      8.75932      9.35889      5.14568        -0.040301      0.242256      0.060855
     11.08705      4.56969      2.57523         0.029779      0.496038     -0.667689
     11.67072      4.56969      5.65977         0.254963      0.909233     -1.331741
      2.35287      9.35889      1.03296        -0.120098     -0.087171      0.504979
      2.93654      9.35889      4.11750         0.040394     -0.020542      1.008321
 -----------------------------------------------------------------------------------
    total drift:                               -0.027718     -0.012332      0.005132


--------------------------------------------------------------------------------------------------------



  FREE ENERGIE OF THE ION-ELECTRON SYSTEM (eV)
  ---------------------------------------------------
  free  energy   TOTEN  =      -346.48050261 eV

  energy  without entropy=     -345.23529185  energy(sigma->0) =     -345.85789723
 


--------------------------------------------------------------------------------------------------------


    POTLOK:  cpu time    0.0548: real time    0.0559


--------------------------------------------------------------------------------------------------------


     LOOP+:  cpu time  119.7538: real time  120.1240
    4ORBIT:  cpu time    0.0000: real time    0.0000

 total amount of memory used by VASP MPI-rank0    46658. kBytes
=======================================================================

   base      :      30000. kBytes
   nonlr-proj:       2109. kBytes
   fftplans  :       3621. kBytes
   grid      :       6327. kBytes
   one-center:         93. kBytes
   wavefun   :       4508. kBytes
 
  
  
 General timing and accounting informations for this job:
 ========================================================
  
                  Total CPU time used (sec):      122.117
                            User time (sec):      121.449
                          System time (sec):        0.668
                         Elapsed time (sec):      122.957
  
                   Maximum memory used (kb):      257880.
                   Average memory used (kb):           0.
  
                          Minor page faults:        98057
                          Major page faults:            0
                 Voluntary context switches:          970
