"Millerite NiS"                         
           1
    16.884694    0.000000    0.000000
     0.000000    9.578410    0.000000
     0.000000    0.000000   15.790142
   Ni   S 
    36    36
Direct configuration=     1
   0.78004631  0.14529695  0.09948003
   0.81461426  0.14529695  0.29482619
   0.26276233  0.64529695  0.00180695
   0.29733029  0.64529695  0.19715311
   0.43519032  0.14529695  0.03436464
   0.46975828  0.14529695  0.22971081
   0.95247430  0.64529695  0.13203773
   0.98704226  0.64529695  0.32738389
   0.12490229  0.14529695  0.16459542
   0.15947025  0.14529695  0.35994158
   0.60761831  0.64529695  0.06692234
   0.64218627  0.64529695  0.26226850
   0.90758278  0.01319395  0.07367422
   0.94215073  0.01319395  0.26902038
   0.42486675  0.51319395  0.17134730
   0.45943471  0.51319395  0.36669346
   0.56272679  0.01319395  0.00855883
   0.59729475  0.01319395  0.20390499
   0.08001077  0.51319395  0.10623191
   0.11457873  0.51319395  0.30157807
   0.25243876  0.01319395  0.13878961
   0.28700672  0.01319395  0.33413577
   0.73515478  0.51319395  0.04111652
   0.76972274  0.51319395  0.23646269
   0.90758278  0.27739995  0.07367422
   0.94215073  0.27739995  0.26902038
   0.42486675  0.77739995  0.17134730
   0.45943471  0.77739995  0.36669346
   0.56272679  0.27739995  0.00855883
   0.59729475  0.27739995  0.20390499
   0.08001077  0.77739995  0.10623191
   0.11457873  0.77739995  0.30157807
   0.25243876  0.27739995  0.13878961
   0.28700672  0.27739995  0.33413577
   0.73515478  0.77739995  0.04111652
   0.76972274  0.77739995  0.23646269
   0.02602916  0.14529695  0.35813463
   0.99146121  0.14529695  0.16278847
   0.47417723  0.64529695  0.06511539
   0.50874518  0.64529695  0.26046155
   0.64660522  0.14529695  0.09767308
   0.68117318  0.14529695  0.29301924
   0.12932124  0.64529695  0.00000000
   0.16388920  0.64529695  0.19534616
   0.30174923  0.14529695  0.03255769
   0.33631719  0.14529695  0.22790385
   0.81903321  0.64529695  0.13023077
   0.85360117  0.64529695  0.32557694
   0.79449310  0.31351195  0.00030246
   0.82906105  0.31351195  0.19564862
   0.31177708  0.81351195  0.09797554
   0.34634503  0.81351195  0.29332170
   0.48420507  0.31351195  0.13053324
   0.51877303  0.31351195  0.32587940
   0.00148905  0.81351195  0.22820632
   0.96692109  0.81351195  0.03286015
   0.13934908  0.31351195  0.06541785
   0.17391704  0.31351195  0.26076401
   0.65663306  0.81351195  0.16309093
   0.69120102  0.81351195  0.35843709
   0.31177708  0.47708195  0.09797554
   0.34634503  0.47708195  0.29332170
   0.79449310  0.97708195  0.00030246
   0.82906105  0.97708195  0.19564862
   0.00148905  0.47708195  0.22820632
   0.96692109  0.47708195  0.03286015
   0.48420507  0.97708195  0.13053324
   0.51877303  0.97708195  0.32587940
   0.65663306  0.47708195  0.16309093
   0.69120102  0.47708195  0.35843709
   0.13934908  0.97708195  0.06541785
   0.17391704  0.97708195  0.26076401
