LAMMPS data file via write_data, version 5 Jun 2019, timestep = 53

54 atoms
2 atom types

0.0000000000000000e+00 9.5784099999999999e+00 xlo xhi
0.0000000000000000e+00 8.8693028200999997e+00 ylo yhi
0.0000000000000000e+00 1.9011135740000000e+01 zlo zhi
-4.7892049999999999e+00 0.0000000000000000e+00 0.0000000000000000e+00 xy xz yz

Masses

1 58.71
2 32.06

Atoms # atomic

1 1 1.6836821866852063e+00 8.2071092949534155e+00 2.3746841372890355e+00 0 0 0
2 1 1.7973757104999999e+00 7.0064240171999996e+00 4.8934299332000002e+00 0 0 0
3 1 1.5978201083782739e+00 6.1584212158624174e+00 7.4147857606262706e+00 0 0 0
4 1 8.3073201667441710e-01 2.5669355270773142e+00 2.0127421081275130e+00 0 0 0
5 1 1.7973757057000004e+00 1.4639370387999999e+00 3.9147439464999998e+00 0 0 0
6 1 1.7973757009000004e+00 3.5279233360000001e-01 6.8508019063999992e+00 0 0 0
7 1 5.8439401471837851e+00 6.1345151505146278e+00 1.1968841808549457e+00 -1 0 0
8 1 6.5865807057000003e+00 4.7907528894000002e+00 2.9360579598999990e+00 0 0 0
9 1 6.5865807057000012e+00 3.6796081753999998e+00 5.8721159197999979e+00 0 0 0
10 1 6.7880500441895313e+00 2.3302181887021085e+00 7.8849982113212915e+00 0 0 0
11 1 3.0616728888429430e+00 6.2814315698841288e+00 1.6738333647227093e+00 0 0 0
12 1 3.0627123971000003e+00 4.9566720992000004e+00 4.1177058050999999e+00 0 0 0
13 1 3.2959621336978855e+00 4.0036076460789065e+00 6.5523761003387788e+00 0 0 0
14 1 3.0618283597607561e+00 1.5835729875657816e+00 1.5062080756242378e+00 0 0 0
15 1 -1.7264925981000008e+00 8.2834879410000006e+00 3.1390198184000000e+00 0 0 0
16 1 -1.7264925981000001e+00 7.1723432268999998e+00 6.0750777782999998e+00 0 0 0
17 1 -1.6115881599297091e+00 5.9183007769381817e+00 8.1087691449031229e+00 0 0 0
18 1 7.8519174067000019e+00 2.7410009625999998e+00 2.1603338318000000e+00 0 0 0
19 1 7.8519174019000006e+00 1.6298562574000000e+00 5.0963917917000003e+00 0 0 0
20 1 4.4458292070590471e+00 8.2027401048929995e+00 2.3795667569686927e+00 0 0 0
21 1 4.3280491029000006e+00 7.0064240171999996e+00 4.8934299332000002e+00 0 0 0
22 1 5.2920191253424083e+00 2.5739270331166013e+00 2.0134013959374375e+00 0 0 0
23 1 4.3280490981000019e+00 1.4639370387999999e+00 3.9147439464999998e+00 0 0 0
24 1 4.3280490933000006e+00 3.5279233360000001e-01 6.8508019063999992e+00 0 0 0
25 1 2.6949371744085043e-01 6.1495824782121984e+00 1.2066819984908628e+00 0 0 0
26 1 -4.6115590189999989e-01 4.7907528894000002e+00 2.9360579598999990e+00 0 0 0
27 1 -4.6115590189999983e-01 3.6796081753999998e+00 5.8721159197999979e+00 0 0 0
28 2 4.6739446447999997e+00 5.9817243888000000e+00 2.9088994307999996e+00 0 0 0
29 2 4.7580635865519163e+00 4.9853013202383867e+00 5.4082915144833015e+00 0 0 0
30 2 5.1367257816022240e+00 3.4247077702033364e+00 7.4569914795593339e+00 0 0 0
31 2 4.6739446351999998e+00 4.3923741929999999e-01 1.9302134441999996e+00 0 0 0
32 2 -1.1526035520000011e-01 8.1973955253999993e+00 4.8662714040999999e+00 0 0 0
33 2 -1.7103835611295576e-01 7.2606376076062364e+00 7.5740331578417353e+00 0 0 0
34 2 -2.2656361288315122e-01 4.0493557290811184e+00 1.0391863013552947e+00 0 0 0
35 2 -1.1526035999999999e-01 2.6549085469999998e+00 3.8875854175000000e+00 0 0 0
36 2 -2.2177663789431167e-02 1.6451468080736980e+00 6.3819456736250668e+00 0 0 0
37 2 7.8590739921224939e+00 7.2420722206636390e-01 1.5057851572234091e+00 0 0 0
38 2 3.0627124019000003e+00 8.5918015280999995e+00 3.8966773981000000e+00 0 0 0
39 2 3.0747679937719847e+00 7.2530797718555569e+00 6.5052572785985667e+00 0 0 0
40 2 3.0627123971000003e+00 3.0493145497000005e+00 2.9179914113999992e+00 0 0 0
41 2 3.0627124067000002e+00 1.9381698355999999e+00 5.8540493713000004e+00 0 0 0
42 2 3.0558549628753036e+00 8.0974269108296260e-01 8.3449335539956486e+00 0 0 0
43 2 -1.7264925981000001e+00 6.3761303915000003e+00 1.9393054247999999e+00 0 0 0
44 2 -1.7264925981000010e+00 5.2649856774000003e+00 4.8753633847000000e+00 0 0 0
45 2 -1.6402776809371826e+00 3.9652189724280444e+00 7.5401397516319788e+00 0 0 0
46 2 1.4514801685000001e+00 5.9817243888000000e+00 2.9088994307999996e+00 0 0 0
47 2 1.4514801637000001e+00 4.8705796835999999e+00 5.8449573907000003e+00 0 0 0
48 2 2.7128321512719094e+00 4.7689148613171515e+00 8.3222776021284535e+00 0 0 0
49 2 1.4514801588999999e+00 4.3923741929999999e-01 1.9302134441999996e+00 0 0 0
50 2 -3.3377248315000001e+00 8.1973955253999993e+00 4.8662714040999999e+00 0 0 0
51 2 -3.0327989951262211e+00 7.3078065525982465e+00 7.6580531427493881e+00 0 0 0
52 2 6.3733422188967888e+00 4.0475554782361849e+00 1.0433966727931803e+00 0 0 0
53 2 6.2406851637000003e+00 2.6549085469999998e+00 3.8875854175000000e+00 0 0 0
54 2 6.2402496210441010e+00 1.1758821252764822e+00 6.3372498886213693e+00 0 0 0

Velocities

1 0.0000000000000000e+00 0.0000000000000000e+00 0.0000000000000000e+00
2 0.0000000000000000e+00 0.0000000000000000e+00 0.0000000000000000e+00
3 0.0000000000000000e+00 0.0000000000000000e+00 0.0000000000000000e+00
4 0.0000000000000000e+00 0.0000000000000000e+00 0.0000000000000000e+00
5 0.0000000000000000e+00 0.0000000000000000e+00 0.0000000000000000e+00
6 0.0000000000000000e+00 0.0000000000000000e+00 0.0000000000000000e+00
7 0.0000000000000000e+00 0.0000000000000000e+00 0.0000000000000000e+00
8 0.0000000000000000e+00 0.0000000000000000e+00 0.0000000000000000e+00
9 0.0000000000000000e+00 0.0000000000000000e+00 0.0000000000000000e+00
10 0.0000000000000000e+00 0.0000000000000000e+00 0.0000000000000000e+00
11 0.0000000000000000e+00 0.0000000000000000e+00 0.0000000000000000e+00
12 0.0000000000000000e+00 0.0000000000000000e+00 0.0000000000000000e+00
13 0.0000000000000000e+00 0.0000000000000000e+00 0.0000000000000000e+00
14 0.0000000000000000e+00 0.0000000000000000e+00 0.0000000000000000e+00
15 0.0000000000000000e+00 0.0000000000000000e+00 0.0000000000000000e+00
16 0.0000000000000000e+00 0.0000000000000000e+00 0.0000000000000000e+00
17 0.0000000000000000e+00 0.0000000000000000e+00 0.0000000000000000e+00
18 0.0000000000000000e+00 0.0000000000000000e+00 0.0000000000000000e+00
19 0.0000000000000000e+00 0.0000000000000000e+00 0.0000000000000000e+00
20 0.0000000000000000e+00 0.0000000000000000e+00 0.0000000000000000e+00
21 0.0000000000000000e+00 0.0000000000000000e+00 0.0000000000000000e+00
22 0.0000000000000000e+00 0.0000000000000000e+00 0.0000000000000000e+00
23 0.0000000000000000e+00 0.0000000000000000e+00 0.0000000000000000e+00
24 0.0000000000000000e+00 0.0000000000000000e+00 0.0000000000000000e+00
25 0.0000000000000000e+00 0.0000000000000000e+00 0.0000000000000000e+00
26 0.0000000000000000e+00 0.0000000000000000e+00 0.0000000000000000e+00
27 0.0000000000000000e+00 0.0000000000000000e+00 0.0000000000000000e+00
28 0.0000000000000000e+00 0.0000000000000000e+00 0.0000000000000000e+00
29 0.0000000000000000e+00 0.0000000000000000e+00 0.0000000000000000e+00
30 0.0000000000000000e+00 0.0000000000000000e+00 0.0000000000000000e+00
31 0.0000000000000000e+00 0.0000000000000000e+00 0.0000000000000000e+00
32 0.0000000000000000e+00 0.0000000000000000e+00 0.0000000000000000e+00
33 0.0000000000000000e+00 0.0000000000000000e+00 0.0000000000000000e+00
34 0.0000000000000000e+00 0.0000000000000000e+00 0.0000000000000000e+00
35 0.0000000000000000e+00 0.0000000000000000e+00 0.0000000000000000e+00
36 0.0000000000000000e+00 0.0000000000000000e+00 0.0000000000000000e+00
37 0.0000000000000000e+00 0.0000000000000000e+00 0.0000000000000000e+00
38 0.0000000000000000e+00 0.0000000000000000e+00 0.0000000000000000e+00
39 0.0000000000000000e+00 0.0000000000000000e+00 0.0000000000000000e+00
40 0.0000000000000000e+00 0.0000000000000000e+00 0.0000000000000000e+00
41 0.0000000000000000e+00 0.0000000000000000e+00 0.0000000000000000e+00
42 0.0000000000000000e+00 0.0000000000000000e+00 0.0000000000000000e+00
43 0.0000000000000000e+00 0.0000000000000000e+00 0.0000000000000000e+00
44 0.0000000000000000e+00 0.0000000000000000e+00 0.0000000000000000e+00
45 0.0000000000000000e+00 0.0000000000000000e+00 0.0000000000000000e+00
46 0.0000000000000000e+00 0.0000000000000000e+00 0.0000000000000000e+00
47 0.0000000000000000e+00 0.0000000000000000e+00 0.0000000000000000e+00
48 0.0000000000000000e+00 0.0000000000000000e+00 0.0000000000000000e+00
49 0.0000000000000000e+00 0.0000000000000000e+00 0.0000000000000000e+00
50 0.0000000000000000e+00 0.0000000000000000e+00 0.0000000000000000e+00
51 0.0000000000000000e+00 0.0000000000000000e+00 0.0000000000000000e+00
52 0.0000000000000000e+00 0.0000000000000000e+00 0.0000000000000000e+00
53 0.0000000000000000e+00 0.0000000000000000e+00 0.0000000000000000e+00
54 0.0000000000000000e+00 0.0000000000000000e+00 0.0000000000000000e+00
