  72  72   0   0
  0.2706271E+02  0.1007973E-08  0.1007973E-08  0.2051014E-08  0.5000000E-15
  1.000000000000000E-004
  CAR 
 "Millerite NiS"                         
     11.06880776    -67.04216997  301      1.44906446      1.00000000
    -67.042  0.0000E+00  0.0000E+00
    -66.782  0.0000E+00  0.0000E+00
    -66.521  0.0000E+00  0.0000E+00
    -66.261  0.0000E+00  0.0000E+00
    -66.001  0.0000E+00  0.0000E+00
    -65.740  0.0000E+00  0.0000E+00
    -65.480  0.0000E+00  0.0000E+00
    -65.220  0.0000E+00  0.0000E+00
    -64.959  0.0000E+00  0.0000E+00
    -64.699  0.0000E+00  0.0000E+00
    -64.438  0.8337E-10  0.2171E-10
    -64.178  0.4773E-05  0.1243E-05
    -63.918  0.1120E-01  0.2918E-02
    -63.657  0.1554E+01  0.4075E+00
    -63.397  0.2655E+02  0.7320E+01
    -63.137  0.9395E+02  0.3178E+02
    -62.876  0.1592E+03  0.7323E+02
    -62.616  0.2497E+03  0.1382E+03
    -62.356  0.2103E+03  0.1930E+03
    -62.095  0.5558E+02  0.2075E+03
    -61.835  0.2008E+02  0.2127E+03
    -61.574  0.1129E+02  0.2156E+03
    -61.314  0.1426E+01  0.2160E+03
    -61.054  0.1885E-01  0.2160E+03
    -60.793  0.1227E-04  0.2160E+03
    -60.533  0.3101E-09  0.2160E+03
    -60.273  0.0000E+00  0.2160E+03
    -60.012  0.0000E+00  0.2160E+03
    -59.752  0.0000E+00  0.2160E+03
    -59.491  0.0000E+00  0.2160E+03
    -59.231  0.0000E+00  0.2160E+03
    -58.971  0.0000E+00  0.2160E+03
    -58.710  0.0000E+00  0.2160E+03
    -58.450  0.0000E+00  0.2160E+03
    -58.190  0.0000E+00  0.2160E+03
    -57.929  0.0000E+00  0.2160E+03
    -57.669  0.0000E+00  0.2160E+03
    -57.408  0.0000E+00  0.2160E+03
    -57.148  0.0000E+00  0.2160E+03
    -56.888  0.0000E+00  0.2160E+03
    -56.627  0.0000E+00  0.2160E+03
    -56.367  0.0000E+00  0.2160E+03
    -56.107  0.0000E+00  0.2160E+03
    -55.846  0.0000E+00  0.2160E+03
    -55.586  0.0000E+00  0.2160E+03
    -55.326  0.0000E+00  0.2160E+03
    -55.065  0.0000E+00  0.2160E+03
    -54.805  0.0000E+00  0.2160E+03
    -54.544  0.0000E+00  0.2160E+03
    -54.284  0.0000E+00  0.2160E+03
    -54.024  0.0000E+00  0.2160E+03
    -53.763  0.0000E+00  0.2160E+03
    -53.503  0.0000E+00  0.2160E+03
    -53.243  0.0000E+00  0.2160E+03
    -52.982  0.0000E+00  0.2160E+03
    -52.722  0.0000E+00  0.2160E+03
    -52.461  0.0000E+00  0.2160E+03
    -52.201  0.0000E+00  0.2160E+03
    -51.941  0.0000E+00  0.2160E+03
    -51.680  0.0000E+00  0.2160E+03
    -51.420  0.0000E+00  0.2160E+03
    -51.160  0.0000E+00  0.2160E+03
    -50.899  0.0000E+00  0.2160E+03
    -50.639  0.0000E+00  0.2160E+03
    -50.378  0.0000E+00  0.2160E+03
    -50.118  0.0000E+00  0.2160E+03
    -49.858  0.0000E+00  0.2160E+03
    -49.597  0.0000E+00  0.2160E+03
    -49.337  0.0000E+00  0.2160E+03
    -49.077  0.0000E+00  0.2160E+03
    -48.816  0.0000E+00  0.2160E+03
    -48.556  0.0000E+00  0.2160E+03
    -48.296  0.0000E+00  0.2160E+03
    -48.035  0.0000E+00  0.2160E+03
    -47.775  0.0000E+00  0.2160E+03
    -47.514  0.0000E+00  0.2160E+03
    -47.254  0.0000E+00  0.2160E+03
    -46.994  0.0000E+00  0.2160E+03
    -46.733  0.0000E+00  0.2160E+03
    -46.473  0.0000E+00  0.2160E+03
    -46.213  0.0000E+00  0.2160E+03
    -45.952  0.0000E+00  0.2160E+03
    -45.692  0.0000E+00  0.2160E+03
    -45.431  0.0000E+00  0.2160E+03
    -45.171  0.0000E+00  0.2160E+03
    -44.911  0.0000E+00  0.2160E+03
    -44.650  0.0000E+00  0.2160E+03
    -44.390  0.0000E+00  0.2160E+03
    -44.130  0.0000E+00  0.2160E+03
    -43.869  0.0000E+00  0.2160E+03
    -43.609  0.0000E+00  0.2160E+03
    -43.349  0.0000E+00  0.2160E+03
    -43.088  0.0000E+00  0.2160E+03
    -42.828  0.0000E+00  0.2160E+03
    -42.567  0.0000E+00  0.2160E+03
    -42.307  0.0000E+00  0.2160E+03
    -42.047  0.0000E+00  0.2160E+03
    -41.786  0.0000E+00  0.2160E+03
    -41.526  0.0000E+00  0.2160E+03
    -41.266  0.0000E+00  0.2160E+03
    -41.005  0.0000E+00  0.2160E+03
    -40.745  0.0000E+00  0.2160E+03
    -40.484  0.0000E+00  0.2160E+03
    -40.224  0.0000E+00  0.2160E+03
    -39.964  0.0000E+00  0.2160E+03
    -39.703  0.0000E+00  0.2160E+03
    -39.443  0.0000E+00  0.2160E+03
    -39.183  0.0000E+00  0.2160E+03
    -38.922  0.0000E+00  0.2160E+03
    -38.662  0.0000E+00  0.2160E+03
    -38.401  0.0000E+00  0.2160E+03
    -38.141  0.0000E+00  0.2160E+03
    -37.881  0.0000E+00  0.2160E+03
    -37.620  0.0000E+00  0.2160E+03
    -37.360  0.0000E+00  0.2160E+03
    -37.100  0.0000E+00  0.2160E+03
    -36.839  0.0000E+00  0.2160E+03
    -36.579  0.0000E+00  0.2160E+03
    -36.319  0.0000E+00  0.2160E+03
    -36.058  0.0000E+00  0.2160E+03
    -35.798  0.0000E+00  0.2160E+03
    -35.537  0.0000E+00  0.2160E+03
    -35.277  0.0000E+00  0.2160E+03
    -35.017  0.0000E+00  0.2160E+03
    -34.756  0.0000E+00  0.2160E+03
    -34.496  0.0000E+00  0.2160E+03
    -34.236  0.0000E+00  0.2160E+03
    -33.975  0.0000E+00  0.2160E+03
    -33.715  0.0000E+00  0.2160E+03
    -33.454  0.0000E+00  0.2160E+03
    -33.194  0.0000E+00  0.2160E+03
    -32.934  0.0000E+00  0.2160E+03
    -32.673  0.0000E+00  0.2160E+03
    -32.413  0.0000E+00  0.2160E+03
    -32.153  0.0000E+00  0.2160E+03
    -31.892  0.0000E+00  0.2160E+03
    -31.632  0.0000E+00  0.2160E+03
    -31.371  0.0000E+00  0.2160E+03
    -31.111  0.0000E+00  0.2160E+03
    -30.851  0.0000E+00  0.2160E+03
    -30.590  0.0000E+00  0.2160E+03
    -30.330  0.0000E+00  0.2160E+03
    -30.070  0.0000E+00  0.2160E+03
    -29.809  0.0000E+00  0.2160E+03
    -29.549  0.0000E+00  0.2160E+03
    -29.289  0.0000E+00  0.2160E+03
    -29.028  0.0000E+00  0.2160E+03
    -28.768  0.0000E+00  0.2160E+03
    -28.507  0.0000E+00  0.2160E+03
    -28.247  0.0000E+00  0.2160E+03
    -27.987  0.0000E+00  0.2160E+03
    -27.726  0.0000E+00  0.2160E+03
    -27.466  0.0000E+00  0.2160E+03
    -27.206  0.0000E+00  0.2160E+03
    -26.945  0.0000E+00  0.2160E+03
    -26.685  0.0000E+00  0.2160E+03
    -26.424  0.0000E+00  0.2160E+03
    -26.164  0.0000E+00  0.2160E+03
    -25.904  0.0000E+00  0.2160E+03
    -25.643  0.0000E+00  0.2160E+03
    -25.383  0.0000E+00  0.2160E+03
    -25.123  0.0000E+00  0.2160E+03
    -24.862  0.0000E+00  0.2160E+03
    -24.602  0.0000E+00  0.2160E+03
    -24.342  0.0000E+00  0.2160E+03
    -24.081  0.0000E+00  0.2160E+03
    -23.821  0.0000E+00  0.2160E+03
    -23.560  0.0000E+00  0.2160E+03
    -23.300  0.0000E+00  0.2160E+03
    -23.040  0.0000E+00  0.2160E+03
    -22.779  0.0000E+00  0.2160E+03
    -22.519  0.0000E+00  0.2160E+03
    -22.259  0.0000E+00  0.2160E+03
    -21.998  0.0000E+00  0.2160E+03
    -21.738  0.0000E+00  0.2160E+03
    -21.477  0.0000E+00  0.2160E+03
    -21.217  0.0000E+00  0.2160E+03
    -20.957  0.0000E+00  0.2160E+03
    -20.696  0.0000E+00  0.2160E+03
    -20.436  0.0000E+00  0.2160E+03
    -20.176  0.0000E+00  0.2160E+03
    -19.915  0.0000E+00  0.2160E+03
    -19.655  0.0000E+00  0.2160E+03
    -19.394  0.0000E+00  0.2160E+03
    -19.134  0.0000E+00  0.2160E+03
    -18.874  0.0000E+00  0.2160E+03
    -18.613  0.0000E+00  0.2160E+03
    -18.353  0.0000E+00  0.2160E+03
    -18.093  0.0000E+00  0.2160E+03
    -17.832  0.0000E+00  0.2160E+03
    -17.572  0.0000E+00  0.2160E+03
    -17.312  0.0000E+00  0.2160E+03
    -17.051  0.0000E+00  0.2160E+03
    -16.791  0.0000E+00  0.2160E+03
    -16.530  0.0000E+00  0.2160E+03
    -16.270  0.0000E+00  0.2160E+03
    -16.010  0.8443E-13  0.2160E+03
    -15.749  0.2588E-07  0.2160E+03
    -15.489  0.2924E-03  0.2160E+03
    -15.229  0.1319E+00  0.2160E+03
    -14.968  0.2928E+01  0.2168E+03
    -14.708  0.6162E+01  0.2184E+03
    -14.447  0.5595E+01  0.2199E+03
    -14.187  0.7137E+01  0.2217E+03
    -13.927  0.1616E+02  0.2259E+03
    -13.666  0.1747E+02  0.2305E+03
    -13.406  0.1965E+02  0.2356E+03
    -13.146  0.2675E+02  0.2426E+03
    -12.885  0.3042E+02  0.2505E+03
    -12.625  0.3115E+02  0.2586E+03
    -12.364  0.2456E+02  0.2650E+03
    -12.104  0.2436E+02  0.2713E+03
    -11.844  0.3048E+02  0.2793E+03
    -11.583  0.1537E+02  0.2833E+03
    -11.323  0.1095E+02  0.2861E+03
    -11.063  0.6315E+01  0.2878E+03
    -10.802  0.9459E+00  0.2880E+03
    -10.542  0.1017E-01  0.2880E+03
    -10.282  0.4813E-05  0.2880E+03
    -10.021  0.8681E-10  0.2880E+03
     -9.761  0.0000E+00  0.2880E+03
     -9.500  0.0000E+00  0.2880E+03
     -9.240  0.0000E+00  0.2880E+03
     -8.980  0.0000E+00  0.2880E+03
     -8.719  0.0000E+00  0.2880E+03
     -8.459  0.0000E+00  0.2880E+03
     -8.199  0.0000E+00  0.2880E+03
     -7.938  0.0000E+00  0.2880E+03
     -7.678  0.1637E-11  0.2880E+03
     -7.417  0.2559E-06  0.2880E+03
     -7.157  0.1554E-02  0.2880E+03
     -6.897  0.4232E+00  0.2881E+03
     -6.636  0.7342E+01  0.2900E+03
     -6.376  0.1779E+02  0.2947E+03
     -6.116  0.2631E+02  0.3015E+03
     -5.855  0.3393E+02  0.3103E+03
     -5.595  0.3836E+02  0.3203E+03
     -5.334  0.4531E+02  0.3321E+03
     -5.074  0.4301E+02  0.3433E+03
     -4.814  0.3904E+02  0.3535E+03
     -4.553  0.3980E+02  0.3638E+03
     -4.293  0.4545E+02  0.3757E+03
     -4.033  0.4404E+02  0.3871E+03
     -3.772  0.5933E+02  0.4026E+03
     -3.512  0.6317E+02  0.4190E+03
     -3.252  0.6584E+02  0.4362E+03
     -2.991  0.6298E+02  0.4526E+03
     -2.731  0.5994E+02  0.4682E+03
     -2.470  0.4385E+02  0.4796E+03
     -2.210  0.3823E+02  0.4896E+03
     -1.950  0.4997E+02  0.5026E+03
     -1.689  0.5898E+02  0.5179E+03
     -1.429  0.7826E+02  0.5383E+03
     -1.169  0.8980E+02  0.5617E+03
     -0.908  0.9510E+02  0.5864E+03
     -0.648  0.1087E+03  0.6148E+03
     -0.387  0.1346E+03  0.6498E+03
     -0.127  0.1397E+03  0.6862E+03
      0.133  0.1097E+03  0.7147E+03
      0.394  0.7536E+02  0.7343E+03
      0.654  0.6542E+02  0.7514E+03
      0.914  0.5950E+02  0.7669E+03
      1.175  0.4656E+02  0.7790E+03
      1.435  0.4742E+02  0.7913E+03
      1.695  0.4786E+02  0.8038E+03
      1.956  0.5043E+02  0.8169E+03
      2.216  0.5601E+02  0.8315E+03
      2.477  0.4999E+02  0.8445E+03
      2.737  0.3564E+02  0.8538E+03
      2.997  0.2755E+02  0.8610E+03
      3.258  0.1102E+02  0.8638E+03
      3.518  0.5836E+00  0.8640E+03
      3.778  0.2496E-02  0.8640E+03
      4.039  0.1903E+00  0.8640E+03
      4.299  0.3914E+01  0.8651E+03
      4.560  0.1282E+02  0.8684E+03
      4.820  0.1423E+02  0.8721E+03
      5.080  0.9609E+01  0.8746E+03
      5.341  0.1262E+02  0.8779E+03
      5.601  0.2047E+02  0.8832E+03
      5.861  0.2736E+02  0.8904E+03
      6.122  0.3081E+02  0.8984E+03
      6.382  0.2812E+02  0.9057E+03
      6.643  0.3024E+02  0.9136E+03
      6.903  0.3754E+02  0.9233E+03
      7.163  0.3992E+02  0.9337E+03
      7.424  0.4317E+02  0.9450E+03
      7.684  0.2456E+02  0.9514E+03
      7.944  0.2372E+01  0.9520E+03
      8.205  0.1917E-01  0.9520E+03
      8.465  0.7753E-05  0.9520E+03
      8.725  0.1261E-09  0.9520E+03
      8.986  0.0000E+00  0.9520E+03
      9.246  0.0000E+00  0.9520E+03
      9.507  0.0000E+00  0.9520E+03
      9.767  0.0000E+00  0.9520E+03
     10.027  0.0000E+00  0.9520E+03
     10.288  0.0000E+00  0.9520E+03
     10.548  0.0000E+00  0.9520E+03
     10.808  0.0000E+00  0.9520E+03
     11.069  0.0000E+00  0.9520E+03
