 vasp.5.4.4.18Apr17-6-g9f103f2a35 (build Aug 13 2019 17:33:20) gamma-only       
  
 executed on             LinuxIFC date 2020.05.12  16:09:42
 running on   12 total cores
 distrk:  each k-point on   12 cores,    1 groups
 distr:  one band on NCORES_PER_BAND=   6 cores,    2 groups


--------------------------------------------------------------------------------------------------------


 INCAR:
 POTCAR:    PAW_PBE Ni_pv 06Sep2000               
 POTCAR:    PAW_PBE S 06Sep2000                   
 POTCAR:    PAW_PBE Ni_pv 06Sep2000               
   VRHFIN =Ni:                                                                  
   LEXCH  = PE                                                                  
   EATOM  =  3501.1230 eV,  257.3253 Ry                                         
                                                                                
   TITEL  = PAW_PBE Ni_pv 06Sep2000                                             
   LULTRA =        F    use ultrasoft PP ?                                      
   IUNSCR =        1    unscreen: 0-lin 1-nonlin 2-no                           
   RPACOR =    1.500    partial core radius                                     
   POMASS =   58.690; ZVAL   =   16.000    mass and valenz                      
   RCORE  =    2.000    outmost cutoff radius                                   
   RWIGS  =    2.000; RWIGS  =    1.058    wigner-seitz radius (au A)           
   ENMAX  =  367.986; ENMIN  =  275.989 eV                                      
   RCLOC  =    1.301    cutoff for local pot                                    
   LCOR   =        T    correct aug charges                                     
   LPAW   =        T    paw PP                                                  
   EAUG   =  703.443                                                            
   DEXC   =    0.000                                                            
   RMAX   =    2.041    core radius for proj-oper                               
   RAUG   =    1.300    factor for augmentation sphere                          
   RDEP   =    2.103    radius for radial grids                                 
   RDEPT  =    1.618    core radius for aug-charge                              
                                                                                
   Atomic configuration                                                         
    8 entries                                                                   
     n  l   j            E        occ.                                          
     1  0  0.50     -8206.4253   2.0000                                         
     2  0  0.50      -976.1748   2.0000                                         
     2  1  1.50      -839.0571   6.0000                                         
     3  0  0.50      -105.9991   2.0000                                         
     3  1  1.50       -66.4603   6.0000                                         
     3  2  2.50        -4.6458   9.0000                                         
     4  0  0.50        -4.4926   1.0000                                         
     4  3  2.50        -1.3606   0.0000                                         
   Description                                                                  
     l       E           TYP  RCUT    TYP  RCUT                                 
     1    -66.4602962     23  1.700                                             
     1     -1.3605826     23  1.700                                             
     2     -4.6457867     23  2.000                                             
     2     -6.0063693     23  2.000                                             
     0     -4.4925576     23  1.900                                             
     0     16.3626226     23  1.900                                             
  local pseudopotential read in
  partial core-charges read in
  partial kinetic energy density read in
  atomic valenz-charges read in
  non local Contribution for L=           1  read in
    real space projection operators read in
  non local Contribution for L=           1  read in
    real space projection operators read in
  non local Contribution for L=           2  read in
    real space projection operators read in
  non local Contribution for L=           2  read in
    real space projection operators read in
  non local Contribution for L=           0  read in
    real space projection operators read in
  non local Contribution for L=           0  read in
    real space projection operators read in
    PAW grid and wavefunctions read in
 
   number of l-projection  operators is LMAX  =           6
   number of lm-projection operators is LMMAX =          18
 
 POTCAR:    PAW_PBE S 06Sep2000                   
   VRHFIN =S : s2p4                                                             
   LEXCH  = PE                                                                  
   EATOM  =   276.8230 eV,   20.3459 Ry                                         
                                                                                
   TITEL  = PAW_PBE S 06Sep2000                                                 
   LULTRA =        F    use ultrasoft PP ?                                      
   IUNSCR =        1    unscreen: 0-lin 1-nonlin 2-no                           
   RPACOR =    1.500    partial core radius                                     
   POMASS =   32.066; ZVAL   =    6.000    mass and valenz                      
   RCORE  =    1.900    outmost cutoff radius                                   
   RWIGS  =    2.200; RWIGS  =    1.164    wigner-seitz radius (au A)           
   ENMAX  =  258.689; ENMIN  =  194.016 eV                                      
   ICORE  =        2    local potential                                         
   LCOR   =        T    correct aug charges                                     
   LPAW   =        T    paw PP                                                  
   EAUG   =  335.092                                                            
   DEXC   =    0.000                                                            
   RMAX   =    1.942    core radius for proj-oper                               
   RAUG   =    1.300    factor for augmentation sphere                          
   RDEP   =    1.954    radius for radial grids                                 
   RDEPT  =    1.744    core radius for aug-charge                              
                                                                                
   Atomic configuration                                                         
    6 entries                                                                   
     n  l   j            E        occ.                                          
     1  0  0.50     -2405.8406   2.0000                                         
     2  0  0.50      -211.7007   2.0000                                         
     2  1  1.50      -156.4958   6.0000                                         
     3  0  0.50       -17.2562   2.0000                                         
     3  1  0.50        -7.0085   4.0000                                         
     3  2  1.50        -6.8029   0.0000                                         
   Description                                                                  
     l       E           TYP  RCUT    TYP  RCUT                                 
     0    -17.2561641     23  1.900                                             
     0    -15.8743224     23  1.900                                             
     1     -7.0085400     23  1.900                                             
     1     -2.7779785     23  1.900                                             
     2     -6.8029130     23  1.900                                             
  local pseudopotential read in
  partial core-charges read in
  partial kinetic energy density read in
  atomic valenz-charges read in
  non local Contribution for L=           0  read in
    real space projection operators read in
  non local Contribution for L=           0  read in
    real space projection operators read in
  non local Contribution for L=           1  read in
    real space projection operators read in
  non local Contribution for L=           1  read in
    real space projection operators read in
    PAW grid and wavefunctions read in
 
   number of l-projection  operators is LMAX  =           4
   number of lm-projection operators is LMMAX =           8
 
 Optimization of the real space projectors (new method)

 maximal supplied QI-value         = 18.90
 optimisation between [QCUT,QGAM] = [ 10.77, 21.73] = [ 32.49,132.25] Ry 
 Optimized for a Real-space Cutoff    1.38 Angstroem

   l    n(q)    QCUT    max X(q) W(low)/X(q) W(high)/X(q)  e(spline) 
   1      8    10.771     2.836    0.40E-04    0.29E-04    0.12E-06
   1      8    10.771     4.023    0.10E-03    0.48E-04    0.29E-06
   2      8    10.771    73.368    0.42E-03    0.97E-04    0.44E-06
   2      8    10.771    69.010    0.42E-03    0.99E-04    0.45E-06
   0      9    10.771    54.797    0.10E-03    0.56E-04    0.74E-07
   0      9    10.771    24.266    0.89E-04    0.49E-04    0.67E-07
 Optimization of the real space projectors (new method)

 maximal supplied QI-value         = 19.84
 optimisation between [QCUT,QGAM] = [ 10.71, 21.63] = [ 32.15,130.99] Ry 
 Optimized for a Real-space Cutoff    1.19 Angstroem

   l    n(q)    QCUT    max X(q) W(low)/X(q) W(high)/X(q)  e(spline) 
   0      8    10.715   187.594    0.41E-03    0.53E-04    0.66E-07
   0      8    10.715   164.243    0.41E-03    0.53E-04    0.65E-07
   1      7    10.715    67.533    0.19E-03    0.59E-03    0.68E-07
   1      7    10.715    50.729    0.19E-03    0.58E-03    0.67E-07
  PAW_PBE Ni_pv 06Sep2000               :
 energy of atom  1       EATOM=-3501.1230
 kinetic energy error for atom=    0.0925 (will be added to EATOM!!)
  PAW_PBE S 06Sep2000                   :
 energy of atom  2       EATOM= -276.8230
 kinetic energy error for atom=    0.0033 (will be added to EATOM!!)
 
 
 POSCAR: Type_036 Type_136                       
  positions in cartesian coordinates
  No initial velocities read in
 exchange correlation table for  LEXCH =        8
   RHO(1)=    0.500       N(1)  =     2000
   RHO(2)=  100.500       N(2)  =     4000
 


--------------------------------------------------------------------------------------------------------


 ion  position               nearest neighbor table
   1  0.345  0.728  0.154-  41 2.00  61 2.18  42 2.20  60 2.22  49 2.22   2 2.30  14 2.35  33 2.47

   2  0.525  0.601  0.223-  42 2.25  49 2.26  61 2.26   1 2.30  62 2.36  50 2.36  15 2.53  27 2.53

   3  0.675  0.451  0.351-  43 2.25  62 2.26  50 2.26  63 2.36  51 2.36  28 2.53  16 2.53
   4  0.785  0.329  0.462-  64 2.00  63 2.01  51 2.02
   5  0.570  0.181  0.074-  45 2.03  46 2.12  67 2.17  52 2.18   6 2.34
   6  0.758  0.035  0.138-  67 2.06  52 2.09  46 2.25   5 2.34  53 2.36  68 2.36  29 2.53  20 2.53

   7  0.058  0.734  0.394-  55 2.07  66 2.16  65 2.26  54 2.26  48 2.27  18 2.53  31 2.53
   8  0.908  0.884  0.266-  47 2.25  53 2.26  68 2.26  54 2.36  65 2.36  30 2.53  17 2.53
   9  0.141  0.318  0.180-  69 2.05  40 2.25  56 2.26  12 2.27  70 2.36  57 2.36  21 2.42  34 2.53

  10  0.291  0.168  0.308-  37 2.25  57 2.26  70 2.26  58 2.36  71 2.36  35 2.53  22 2.53
  11  0.423  0.033  0.423-  71 2.04  58 2.07  72 2.08  38 2.08
  12  0.961  0.449  0.115-  39 2.01  40 2.14  69 2.17  56 2.19   9 2.27
  13  0.010  0.116  0.412-  64 2.07  38 2.14  54 2.25  63 2.26  37 2.26  25 2.46
  14  0.553  0.662  0.091-  39 2.00  60 2.04  61 2.07  49 2.11   1 2.35  26 2.48
  15  0.709  0.416  0.155-  52 2.14  39 2.26  61 2.26  40 2.36  62 2.36  27 2.53   2 2.53
  16  0.860  0.266  0.283-  53 2.25  62 2.26  40 2.26  37 2.36  63 2.36   3 2.53  28 2.53
  17  0.093  0.700  0.198-  56 2.25  41 2.26  68 2.26  42 2.36  65 2.36  30 2.53   8 2.53
  18  0.243  0.549  0.326-  66 2.17  57 2.25  65 2.26  42 2.26  43 2.36  19 2.41   7 2.53  31 2.53

  19  0.349  0.416  0.422-  66 2.04  43 2.05  58 2.07  18 2.41
  20  0.943  0.850  0.070-  59 2.01  44 2.03  67 2.22  68 2.36  41 2.36   6 2.53  29 2.53
  21  0.335  0.129  0.130-  45 2.05  70 2.09  46 2.13   9 2.42  69 2.44  34 2.45
  22  0.476  0.983  0.241-  49 2.25  70 2.26  46 2.26  47 2.36  71 2.36  35 2.53  10 2.53
  23  0.627  0.833  0.369-  72 2.16  48 2.20  50 2.25  71 2.26  47 2.26  24 2.37  32 2.47
  24  0.760  0.704  0.458-  51 2.04  72 2.05  48 2.06  23 2.37
  25  0.040  0.343  0.435-  37 2.06  64 2.10  51 2.15  38 2.18  66 2.24  13 2.46
  26  0.713  0.800  0.099-  67 2.07  68 2.09  39 2.28  49 2.40  27 2.40  14 2.48
  27  0.749  0.641  0.189-  68 2.25  49 2.26  39 2.26  40 2.36  50 2.36  26 2.40  15 2.53   2 2.53

  28  0.899  0.491  0.317-  65 2.25  50 2.26  40 2.26  51 2.36  37 2.36   3 2.53  16 2.53
  29  0.982  0.074  0.104-  44 1.99  69 2.13  52 2.23  41 2.36  53 2.36   6 2.53  20 2.53
  30  0.133  0.924  0.232-  70 2.25  53 2.26  41 2.26  54 2.36  42 2.36   8 2.53  17 2.53
  31  0.283  0.774  0.360-  55 2.00  71 2.25  54 2.26  42 2.26  43 2.36  32 2.39   7 2.53  18 2.53

  32  0.488  0.712  0.428-  72 2.04  43 2.07  31 2.39  23 2.47  55 2.59
  33  0.203  0.658  0.073-  59 2.01  60 2.06  56 2.08  41 2.11   1 2.47
  34  0.366  0.358  0.147-  45 2.06  61 2.25  56 2.26  46 2.36  57 2.36  21 2.45   9 2.53
  35  0.516  0.207  0.275-  62 2.25  57 2.26  46 2.26  47 2.36  58 2.36  10 2.53  22 2.53
  36  0.662  0.067  0.389-  47 2.03  58 2.16  63 2.17  48 2.25
  37  0.064  0.262  0.341-  25 2.06  10 2.25  13 2.26  16 2.36  28 2.36  38 2.55
  38  0.207  0.134  0.440-  11 2.08  13 2.14  25 2.18  64 2.51  37 2.55
  39  0.763  0.563  0.085-  14 2.00  12 2.01  15 2.26  27 2.26  26 2.28
  40  0.914  0.412  0.213-  12 2.14   9 2.25  16 2.26  28 2.26  27 2.36  15 2.36
  41  0.147  0.846  0.128-   1 2.00  33 2.11  17 2.26  30 2.26  20 2.36  29 2.36  60 2.64
  42  0.297  0.696  0.256-   1 2.20   2 2.25  31 2.26  18 2.26  30 2.36  17 2.36
  43  0.447  0.545  0.384-  19 2.05  32 2.07   3 2.25  31 2.36  18 2.36  55 2.73
  44  0.986  0.996  0.015-  29 1.99  20 2.03
  45  0.357  0.262  0.059-   5 2.03  21 2.05  34 2.06
  46  0.530  0.129  0.171-   5 2.12  21 2.13   6 2.25  22 2.26  35 2.26  34 2.36
  47  0.680  0.979  0.299-  36 2.03   8 2.25  23 2.26  35 2.36  22 2.36  48 2.74
  48  0.822  0.849  0.408-  24 2.06  23 2.20  36 2.25   7 2.27  47 2.74
  49  0.528  0.798  0.171-  14 2.11   1 2.22  22 2.25  27 2.26   2 2.26  26 2.40
  50  0.678  0.648  0.299-  23 2.25  28 2.26   3 2.26  27 2.36   2 2.36
  51  0.829  0.497  0.427-   4 2.02  24 2.04  25 2.15  28 2.36   3 2.36
  52  0.759  0.226  0.099-   6 2.09  15 2.14   5 2.18  29 2.23
  53  0.911  0.081  0.214-  16 2.25   8 2.26  30 2.26   6 2.36  29 2.36
  54  0.062  0.931  0.342-  13 2.25  31 2.26   7 2.26  30 2.36   8 2.36
  55  0.228  0.737  0.450-  31 2.00   7 2.07  32 2.59  43 2.73
  56  0.145  0.515  0.129-  33 2.08  12 2.19  17 2.25  34 2.26   9 2.26
  57  0.295  0.364  0.257-  18 2.25  10 2.26  35 2.26   9 2.36  34 2.36
  58  0.445  0.214  0.385-  19 2.07  11 2.07  36 2.16  35 2.36  10 2.36
  59  0.044  0.692  0.008-  33 2.01  20 2.01
  60  0.359  0.735  0.046-  14 2.04  33 2.06   1 2.22  41 2.64  61 2.72
  61  0.477  0.512  0.128-  14 2.07   1 2.18  34 2.25  15 2.26   2 2.26  60 2.72
  62  0.628  0.362  0.256-  35 2.25   3 2.26  16 2.26   2 2.36  15 2.36
  63  0.778  0.212  0.384-   4 2.01  36 2.17  13 2.26  16 2.36   3 2.36
  64  0.975  0.219  0.501-   4 2.00  13 2.07  25 2.10  38 2.51
  65  0.011  0.645  0.299-  28 2.25   7 2.26  18 2.26   8 2.36  17 2.36  66 2.74
  66  0.135  0.508  0.411-  19 2.04   7 2.16  18 2.17  25 2.24  65 2.74
  67  0.717  0.973  0.046-   6 2.06  26 2.07   5 2.17  20 2.22
  68  0.861  0.795  0.171-  26 2.09  27 2.25  17 2.26   8 2.26   6 2.36  20 2.36
  69  0.084  0.227  0.101-   9 2.05  29 2.13  12 2.17  21 2.44
  70  0.244  0.079  0.214-  21 2.09  30 2.25  22 2.26  10 2.26   9 2.36
  71  0.395  0.928  0.342-  11 2.04  31 2.25  23 2.26  10 2.36  22 2.36
  72  0.563  0.855  0.470-  32 2.04  24 2.05  11 2.08  23 2.16
 
  LATTYP: Found a base centered orthorhombic cell.
 ALAT       =    11.4527836704
 B/A-ratio  =     1.4485816945
 C/A-ratio  =     1.7908432109
  
  Lattice vectors:
  
 A1 = (  10.0797329849,   0.0000000000,   0.0000000000)
 A2 = (  -3.5732980427,  -9.4251025535,   0.0000000000)
 A3 = (   0.0000000000,   0.0000000000, -20.5101398818)


Analysis of symmetry for initial positions (statically):
=====================================================================
 Subroutine PRICEL returns:
 Original cell was already a primitive cell.
 

 Routine SETGRP: Setting up the symmetry group for a 
 base centered orthorhombic supercell.


 Subroutine GETGRP returns: Found  1 space group operations
 (whereof  1 operations were pure point group operations)
 out of a pool of  8 trial point group operations.


The static configuration has the point symmetry C_1 .


Analysis of symmetry for dynamics (positions and initial velocities):
=====================================================================
 Subroutine PRICEL returns:
 Original cell was already a primitive cell.
 

 Routine SETGRP: Setting up the symmetry group for a 
 base centered orthorhombic supercell.


 Subroutine GETGRP returns: Found  1 space group operations
 (whereof  1 operations were pure point group operations)
 out of a pool of  8 trial point group operations.


The dynamic configuration has the point symmetry C_1 .


 Subroutine INISYM returns: Found  1 space group operations
 (whereof  1 operations are pure point group operations),
 and found     1 'primitive' translations

 
 
 KPOINTS: gamma-point-only calculation. no periodi

Automatic generation of k-mesh.
Space group operators:
 irot       det(A)        alpha          n_x          n_y          n_z        tau_x        tau_y        tau_z
    1     1.000000     0.000000     1.000000     0.000000     0.000000     0.000000     0.000000     0.000000
 
 Subroutine IBZKPT returns following result:
 ===========================================
 
 Found      1 irreducible k-points:
 
 Following reciprocal coordinates:
            Coordinates               Weight
  0.000000  0.000000  0.000000      1.000000
 
 Following cartesian coordinates:
            Coordinates               Weight
  0.000000  0.000000  0.000000      1.000000
 


--------------------------------------------------------------------------------------------------------




 Dimension of arrays:
   k-points           NKPTS =      1   k-points in BZ     NKDIM =      1   number of bands    NBANDS=    476
   number of dos      NEDOS =    301   number of ions     NIONS =     72
   non local maximal  LDIM  =      6   non local SUM 2l+1 LMDIM =     18
   total plane-waves  NPLWV = 314928
   max r-space proj   IRMAX =   1832   max aug-charges    IRDMAX=   5291
   dimension x,y,z NGX =    54 NGY =   54 NGZ =  108
   dimension x,y,z NGXF=   108 NGYF=  108 NGZF=  216
   support grid    NGXF=   108 NGYF=  108 NGZF=  216
   ions per type =              36  36
   NGX,Y,Z   is equivalent  to a cutoff of   8.91,  8.91,  8.75 a.u.
   NGXF,Y,Z  is equivalent  to a cutoff of  17.81, 17.81, 17.51 a.u.

 SYSTEM =  "Millerite NiS"                         
 POSCAR =  Type_036 Type_136                       

 Startparameter for this run:
   NWRITE =      2    write-flag & timer
   PREC   = normal    normal or accurate (medium, high low for compatibility)
   ISTART =      0    job   : 0-new  1-cont  2-samecut
   ICHARG =      2    charge: 1-file 2-atom 10-const
   ISPIN  =      1    spin polarized calculation?
   LNONCOLLINEAR =      F non collinear calculations
   LSORBIT =      F    spin-orbit coupling
   INIWAV =      1    electr: 0-lowe 1-rand  2-diag
   LASPH  =      F    aspherical Exc in radial PAW
   METAGGA=      F    non-selfconsistent MetaGGA calc.

 Electronic Relaxation 1
   ENCUT  =  450.0 eV  33.07 Ry    5.75 a.u.  17.43 17.43 35.48*2*pi/ulx,y,z
   ENINI  =  450.0     initial cutoff
   ENAUG  =  703.4 eV  augmentation charge cutoff
   NELM   =    100;   NELMIN=  2; NELMDL= -5     # of ELM steps 
   EDIFF  = 0.1E-03   stopping-criterion for ELM
   LREAL  =      T    real-space projection
   NLSPLINE    = F    spline interpolate recip. space projectors
   LCOMPAT=      F    compatible to vasp.4.4
   GGA_COMPAT  = T    GGA compatible to vasp.4.4-vasp.4.6
   LMAXPAW     = -100 max onsite density
   LMAXMIX     =    2 max onsite mixed and CHGCAR
   VOSKOWN=      0    Vosko Wilk Nusair interpolation
   ROPT   =   -0.00050  -0.00050
 Ionic relaxation
   EDIFFG = 0.1E-02   stopping-criterion for IOM
   NSW    =      0    number of steps for IOM
   NBLOCK =      1;   KBLOCK =      1    inner block; outer block 
   IBRION =     -1    ionic relax: 0-MD 1-quasi-New 2-CG
   NFREE  =      0    steps in history (QN), initial steepest desc. (CG)
   ISIF   =      2    stress and relaxation
   IWAVPR =     10    prediction:  0-non 1-charg 2-wave 3-comb
   ISYM   =      2    0-nonsym 1-usesym 2-fastsym
   LCORR  =      T    Harris-Foulkes like correction to forces

   POTIM  = 0.5000    time-step for ionic-motion
   TEIN   =    0.0    initial temperature
   TEBEG  =    0.0;   TEEND  =   0.0 temperature during run
   SMASS  =  -3.00    Nose mass-parameter (am)
   estimated Nose-frequenzy (Omega)   =  0.10E-29 period in steps =****** mass=  -0.232E-26a.u.
   SCALEE = 1.0000    scale energy and forces
   NPACO  =    256;   APACO  = 16.0  distance and # of slots for P.C.
   PSTRESS=    0.0 pullay stress

  Mass of Ions in am
   POMASS =  58.69 32.07
  Ionic Valenz
   ZVAL   =  16.00  6.00
  Atomic Wigner-Seitz radii
   RWIGS  =  -1.00 -1.00
  virtual crystal weights 
   VCA    =   1.00  1.00
   NELECT =     792.0000    total number of electrons
   NUPDOWN=      -1.0000    fix difference up-down

 DOS related values:
   EMIN   =  10.00;   EMAX   =-10.00  energy-range for DOS
   EFERMI =   0.00
   ISMEAR =     0;   SIGMA  =   0.20  broadening in eV -4-tet -1-fermi 0-gaus

 Electronic relaxation 2 (details)
   IALGO  =     38    algorithm
   LDIAG  =      T    sub-space diagonalisation (order eigenvalues)
   LSUBROT=      F    optimize rotation matrix (better conditioning)
   TURBO    =      0    0=normal 1=particle mesh
   IRESTART =      0    0=no restart 2=restart with 2 vectors
   NREBOOT  =      0    no. of reboots
   NMIN     =      0    reboot dimension
   EREF     =   0.00    reference energy to select bands
   IMIX   =      4    mixing-type and parameters
     AMIX     =   0.40;   BMIX     =  1.00
     AMIX_MAG =   1.60;   BMIX_MAG =  1.00
     AMIN     =   0.10
     WC   =   100.;   INIMIX=   1;  MIXPRE=   1;  MAXMIX= -45

 Intra band minimization:
   WEIMIN = 0.0000     energy-eigenvalue tresh-hold
   EBREAK =  0.53E-07  absolut break condition
   DEPER  =   0.30     relativ break condition  

   TIME   =   0.40     timestep for ELM

  volume/ion in A,a.u.               =      27.06       182.63
  Fermi-wavevector in a.u.,A,eV,Ry     =   1.212687  2.291646 20.008854  1.470609
  Thomas-Fermi vector in A             =   2.348163
 
 Write flags
   LWAVE        =      F    write WAVECAR
   LDOWNSAMPLE  =      F    k-point downsampling of WAVECAR
   LCHARG       =      F    write CHGCAR
   LVTOT        =      F    write LOCPOT, total local potential
   LVHAR        =      F    write LOCPOT, Hartree potential only
   LELF         =      F    write electronic localiz. function (ELF)
   LORBIT       =      0    0 simple, 1 ext, 2 COOP (PROOUT), +10 PAW based schemes


 Dipole corrections
   LMONO  =      F    monopole corrections only (constant potential shift)
   LDIPOL =      F    correct potential (dipole corrections)
   IDIPOL =      0    1-x, 2-y, 3-z, 4-all directions 
   EPSILON=  1.0000000 bulk dielectric constant

 Exchange correlation treatment:
   GGA     =    --    GGA type
   LEXCH   =     8    internal setting for exchange type
   VOSKOWN=      0    Vosko Wilk Nusair interpolation
   LHFCALC =     F    Hartree Fock is set to
   LHFONE  =     F    Hartree Fock one center treatment
   AEXX    =    0.0000 exact exchange contribution

 Linear response parameters
   LEPSILON=     F    determine dielectric tensor
   LRPA    =     F    only Hartree local field effects (RPA)
   LNABLA  =     F    use nabla operator in PAW spheres
   LVEL    =     F    velocity operator in full k-point grid
   LINTERFAST=   F  fast interpolation
   KINTER  =     0    interpolate to denser k-point grid
   CSHIFT  =0.1000    complex shift for real part using Kramers Kronig
   OMEGAMAX=  -1.0    maximum frequency
   DEG_THRESHOLD= 0.2000000E-02 threshold for treating states as degnerate
   RTIME   =   -0.100 relaxation time in fs
  (WPLASMAI=    0.000 imaginary part of plasma frequency in eV, 0.658/RTIME)
   DFIELD  = 0.0000000 0.0000000 0.0000000 field for delta impulse in time
 
 Orbital magnetization related:
   ORBITALMAG=     F  switch on orbital magnetization
   LCHIMAG   =     F  perturbation theory with respect to B field
   DQ        =  0.001000  dq finite difference perturbation B field
   LLRAUG    =     F  two centre corrections for induced B field



--------------------------------------------------------------------------------------------------------


 Static calculation
 charge density and potential will be updated during run
 non-spin polarized calculation
 Variant of blocked Davidson
 Davidson routine will perform the subspace rotation
 perform sub-space diagonalisation
    after iterative eigenvector-optimisation
 modified Broyden-mixing scheme, WC =      100.0
 initial mixing is a Kerker type mixing with AMIX =  0.4000 and BMIX =      1.0000
 Hartree-type preconditioning will be used
 using additional bands           80
 real space projection scheme for non local part
 use partial core corrections
 calculate Harris-corrections to forces 
   (improved forces if not selfconsistent)
 use gradient corrections 
 use of overlap-Matrix (Vanderbilt PP)
 Gauss-broadening in eV      SIGMA  =   0.20


--------------------------------------------------------------------------------------------------------


  energy-cutoff  :      450.00
  volume of cell :     1948.51
      direct lattice vectors                 reciprocal lattice vectors
    10.079732985  0.000000000  0.000000000     0.099208977 -0.037612667  0.000000000
     3.573298043  9.425102554  0.000000000     0.000000000  0.106099641  0.000000000
     0.000000000  0.000000000 20.510139882     0.000000000  0.000000000  0.048756372

  length of vectors
    10.079732985 10.079732985 20.510139882     0.106099641  0.106099641  0.048756372


 
 k-points in units of 2pi/SCALE and weight: gamma-point-only calculation. no periodi
   0.00000000  0.00000000  0.00000000       1.000
 
 k-points in reciprocal lattice and weights: gamma-point-only calculation. no periodi
   0.00000000  0.00000000  0.00000000       1.000
 
 position of ions in fractional coordinates (direct lattice) 
   0.34479531  0.72828035  0.15411653
   0.52460066  0.60109368  0.22312232
   0.67486918  0.45082517  0.35113229
   0.78547201  0.32934142  0.46225164
   0.56970691  0.18050264  0.07437262
   0.75775499  0.03460603  0.13778234
   0.05829201  0.73406900  0.39380228
   0.90802350  0.88433751  0.26579231
   0.14117783  0.31784985  0.18045233
   0.29144634  0.16758134  0.30846230
   0.42305706  0.03294053  0.42276957
   0.96065050  0.44940452  0.11498865
   0.00994000  0.11575434  0.41150025
   0.55322009  0.66176250  0.09089536
   0.70940298  0.41629137  0.15548031
   0.85967149  0.26602286  0.28349028
   0.09282582  0.69953520  0.19815030
   0.24309433  0.54926669  0.32616027
   0.34916497  0.41592367  0.42239585
   0.94255730  0.84980371  0.07014033
   0.33493275  0.12932569  0.13034480
   0.47624865  0.98277903  0.24082029
   0.62651717  0.83251052  0.36883026
   0.76049127  0.70353756  0.45834931
   0.03998814  0.34331295  0.43473388
   0.71291240  0.79993494  0.09860025
   0.74910482  0.64079553  0.18930132
   0.89937333  0.49052701  0.31731128
   0.98225915  0.07430787  0.10396133
   0.13252766  0.92403936  0.23197130
   0.28279617  0.77377084  0.35998128
   0.48829270  0.71155040  0.42797085
   0.20254994  0.65757240  0.07257521
   0.36568198  0.35755170  0.14663132
   0.51595050  0.20728318  0.27464130
   0.66172559  0.06667913  0.38910250
   0.06382158  0.26208477  0.34135992
   0.20658943  0.13394447  0.43997300
   0.76328455  0.56262179  0.08533998
   0.91355306  0.41235328  0.21334995
   0.14670739  0.84586562  0.12800997
   0.29697590  0.69559711  0.25601994
   0.44724441  0.54532860  0.38402991
   0.98639993  0.99564334  0.01484240
   0.35749454  0.26218757  0.05881433
   0.53013023  0.12910945  0.17067996
   0.68039874  0.97884094  0.29868993
   0.82241577  0.84925372  0.40844995
   0.52796422  0.79794212  0.17147277
   0.67823274  0.64767361  0.29948274
   0.82850125  0.49740510  0.42749271
   0.75914860  0.22620309  0.09903812
   0.91138706  0.08118595  0.21414276
   0.06165557  0.93091744  0.34215273
   0.22782281  0.73717278  0.45015639
   0.14454139  0.51469829  0.12880278
   0.29480990  0.36442978  0.25681275
   0.44507841  0.21416127  0.38482272
   0.04405052  0.69244292  0.00796187
   0.35931570  0.73474280  0.04633425
   0.47740939  0.51206696  0.12840637
   0.62767790  0.36179845  0.25641634
   0.77794641  0.21152993  0.38442632
   0.97525779  0.21923671  0.50055364
   0.01110074  0.64504227  0.29908634
   0.13513970  0.50779875  0.41075110
   0.71736964  0.97335289  0.04607292
   0.86083223  0.79531079  0.17107636
   0.08408176  0.22668663  0.10087418
   0.24425506  0.07855462  0.21374635
   0.39452358  0.92828611  0.34175632
   0.56286215  0.85503349  0.46975365
 
 position of ions in cartesian coordinates  (Angst):
   6.07780741  6.86411699  3.16095156
   7.43572149  5.66536961  4.57626993
   8.41343379  4.24907347  7.20177232
   9.09418318  3.10407663  9.48084583
   6.38748323  1.70125591  1.52539277
   7.76162560  0.32616533  2.82593501
   3.21061525  6.91867561  8.07693979
  12.31263594  8.33497175  5.45143740
   2.55880705  2.99576747  3.70110247
   3.53651935  1.57947133  6.32660486
   4.38200851  0.31046790  8.67106312
  11.28895684  4.23568373  2.35843337
   0.51381735  1.09099656  8.43992775
   7.94098540  6.23717941  1.86427653
   8.63812573  3.92358885  3.18892295
   9.61583803  2.50729270  5.81442536
   3.43530719  6.59319098  4.06409041
   4.41301949  5.17689484  6.68959282
   5.00570893  3.92012320  8.66339806
  12.53732787  8.00948712  1.43858802
   3.83815192  1.21890790  2.67339015
   8.31222163  9.26279312  4.93925788
   9.28993394  7.84649698  7.56476029
  10.17949830  6.63091369  9.40080848
   1.62982928  3.23575975  8.91645268
  10.04437261  7.53946889  2.02230495
   9.84052997  6.03956355  3.88259645
  10.81824227  4.62326741  6.50809884
  10.16643407  0.70035928  2.13226150
   4.63771142  8.70916568  4.75776391
   5.61542373  7.29286955  7.38326631
   7.46444169  6.70643548  8.77774203
   4.39135145  6.19768729  1.48852777
   4.96361553  3.36996141  3.00742897
   5.94132783  1.95366527  5.63293138
   6.90828169  0.62845764  7.98054669
   1.57981145  2.47017583  7.00133971
   2.56098981  1.26244036  9.02390779
   9.70411984  5.30276811  1.75033493
  10.68183214  3.88647197  4.37583732
   4.50130129  7.97237024  2.62550239
   5.47901360  6.55607411  5.25100478
   6.45672590  5.13977797  7.87650717
  13.50037834  9.38404063  0.30441980
   4.54032383  2.47114470  1.20629019
   5.80491770  1.21686984  3.50066985
  10.35592804  9.22567624  6.12617225
  11.32436803  8.00430345  8.37736563
   8.17302343  7.52068634  3.51693048
   9.15073573  6.10439020  6.14243287
  10.12844803  4.68809406  8.76793526
   8.46030624  2.13198736  2.03128568
   9.47663982  0.76518592  4.39209794
   3.94791719  8.77399234  7.01760033
   4.93053115  6.94792901  9.23277046
   3.29610898  4.85108421  2.64176301
   4.27382129  3.43478806  5.26726541
   5.25153358  2.01849192  7.89276780
   2.91832238  6.52634549  0.16329897
   6.24726135  6.92502624  0.95032196
   6.64192702  4.82628360  2.63363269
   7.61963932  3.40998746  5.25913510
   8.59735162  1.99369132  7.88463749
  10.61373618  2.06632847 10.26642521
   2.41682077  6.07958959  6.13430257
   3.17668838  4.78605531  8.42456261
  10.70897440  9.17395084  0.94496196
  11.51884146  7.49588574  3.50880016
   1.65754060  2.13654471  2.06894363
   2.74272487  0.74038532  4.38396762
   7.29373522  8.74919174  7.00947003
   8.72878972  8.05877836  9.63471313
 


--------------------------------------------------------------------------------------------------------


 use parallel FFT for orbitals z direction half grid
 k-point  1 :   0.0000 0.0000 0.0000  plane waves:   21165

 maximum and minimum number of plane-waves per node :      3530     3525

 maximum number of plane-waves:     21165
 maximum index in each direction: 
   IXMAX=   17   IYMAX=   17   IZMAX=   35
   IXMIN=  -17   IYMIN=  -17   IZMIN=    0


 real space projection operators:
  total allocation   :      11248.58 KBytes
  max/ min on nodes  :       1881.44       1866.55


 parallel 3D FFT for wavefunctions:
    minimum data exchange during FFTs selected (reduces bandwidth)
 parallel 3D FFT for charge:
    minimum data exchange during FFTs selected (reduces bandwidth)


 total amount of memory used by VASP MPI-rank0    68344. kBytes
=======================================================================

   base      :      30000. kBytes
   nonlr-proj:       2305. kBytes
   fftplans  :       8265. kBytes
   grid      :      13942. kBytes
   one-center:         93. kBytes
   wavefun   :      13739. kBytes
 
     INWAV:  cpu time    0.0000: real time    0.0000
 Broyden mixing: mesh for mixing (old mesh)
   NGX = 35   NGY = 35   NGZ = 71
  (NGX  =108   NGY  =108   NGZ  =216)
  gives a total of  86975 points

 initial charge density was supplied:
 charge density of overlapping atoms calculated
 number of electron     792.0000000 magnetization 
 keeping initial charge density in first step


--------------------------------------------------------------------------------------------------------


 Maximum index for non-local projection operator          307
 Maximum index for augmentation-charges          472 (set IRDMAX)


--------------------------------------------------------------------------------------------------------


 First call to EWALD:  gamma=   0.142
 Maximum number of real-space cells 3x 3x 2
 Maximum number of reciprocal cells 2x 2x 4

    FEWALD:  cpu time    0.0050: real time    0.0050


--------------------------------------- Iteration      1(   1)  ---------------------------------------


    POTLOK:  cpu time    0.2576: real time    0.2596
    SETDIJ:  cpu time    0.0177: real time    0.0177
     EDDAV:  cpu time    6.7903: real time    6.7918
       DOS:  cpu time    0.0017: real time    0.0017
    --------------------------------------------
      LOOP:  cpu time    7.0673: real time    7.0708

 eigenvalue-minimisations  :  1160
 total energy-change (2. order) : 0.1001967E+05  (-0.5133621E+05)
 number of electron     792.0000000 magnetization 
 augmentation part      792.0000000 magnetization 

 Free energy of the ion-electron system (eV)
  ---------------------------------------------------
  alpha Z        PSCENC =      1909.09476555
  Ewald energy   TEWEN  =    224956.49480310
  -Hartree energ DENC   =   -347188.77502303
  -exchange      EXHF   =         0.00000000
  -V(xc)+E(xc)   XCENC  =      3682.11877925
  PAW double counting   =    112729.53333415  -117641.51188735
  entropy T*S    EENTRO =        -0.42988580
  eigenvalues    EBANDS =     -4429.46127677
  atomic energy  EATOM  =    136002.60505376
  Solvation  Ediel_sol  =         0.00000000
  ---------------------------------------------------
  free energy    TOTEN  =     10019.66866287 eV

  energy without entropy =    10020.09854867  energy(sigma->0) =    10019.88360577


--------------------------------------------------------------------------------------------------------




--------------------------------------- Iteration      1(   2)  ---------------------------------------


     EDDAV:  cpu time    6.1253: real time    6.1267
       DOS:  cpu time    0.0013: real time    0.0012
    --------------------------------------------
      LOOP:  cpu time    6.1266: real time    6.1279

 eigenvalue-minimisations  :  1012
 total energy-change (2. order) :-0.9391752E+04  (-0.9059969E+04)
 number of electron     792.0000000 magnetization 
 augmentation part      792.0000000 magnetization 

 Free energy of the ion-electron system (eV)
  ---------------------------------------------------
  alpha Z        PSCENC =      1909.09476555
  Ewald energy   TEWEN  =    224956.49480310
  -Hartree energ DENC   =   -347188.77502303
  -exchange      EXHF   =         0.00000000
  -V(xc)+E(xc)   XCENC  =      3682.11877925
  PAW double counting   =    112729.53333415  -117641.51188735
  entropy T*S    EENTRO =        -0.66456135
  eigenvalues    EBANDS =    -13820.97815795
  atomic energy  EATOM  =    136002.60505376
  Solvation  Ediel_sol  =         0.00000000
  ---------------------------------------------------
  free energy    TOTEN  =       627.91710614 eV

  energy without entropy =      628.58166749  energy(sigma->0) =      628.24938681


--------------------------------------------------------------------------------------------------------




--------------------------------------- Iteration      1(   3)  ---------------------------------------


     EDDAV:  cpu time    6.4924: real time    6.4935
       DOS:  cpu time    0.0012: real time    0.0012
    --------------------------------------------
      LOOP:  cpu time    6.4936: real time    6.4947

 eigenvalue-minimisations  :  1072
 total energy-change (2. order) :-0.9640888E+03  (-0.9157243E+03)
 number of electron     792.0000000 magnetization 
 augmentation part      792.0000000 magnetization 

 Free energy of the ion-electron system (eV)
  ---------------------------------------------------
  alpha Z        PSCENC =      1909.09476555
  Ewald energy   TEWEN  =    224956.49480310
  -Hartree energ DENC   =   -347188.77502303
  -exchange      EXHF   =         0.00000000
  -V(xc)+E(xc)   XCENC  =      3682.11877925
  PAW double counting   =    112729.53333415  -117641.51188735
  entropy T*S    EENTRO =        -1.09269665
  eigenvalues    EBANDS =    -14784.63878106
  atomic energy  EATOM  =    136002.60505376
  Solvation  Ediel_sol  =         0.00000000
  ---------------------------------------------------
  free energy    TOTEN  =      -336.17165227 eV

  energy without entropy =     -335.07895562  energy(sigma->0) =     -335.62530395


--------------------------------------------------------------------------------------------------------




--------------------------------------- Iteration      1(   4)  ---------------------------------------


     EDDAV:  cpu time    6.6215: real time    6.6229
       DOS:  cpu time    0.0011: real time    0.0011
    --------------------------------------------
      LOOP:  cpu time    6.6227: real time    6.6241

 eigenvalue-minimisations  :  1080
 total energy-change (2. order) :-0.5901131E+02  (-0.5829936E+02)
 number of electron     792.0000000 magnetization 
 augmentation part      792.0000000 magnetization 

 Free energy of the ion-electron system (eV)
  ---------------------------------------------------
  alpha Z        PSCENC =      1909.09476555
  Ewald energy   TEWEN  =    224956.49480310
  -Hartree energ DENC   =   -347188.77502303
  -exchange      EXHF   =         0.00000000
  -V(xc)+E(xc)   XCENC  =      3682.11877925
  PAW double counting   =    112729.53333415  -117641.51188735
  entropy T*S    EENTRO =        -1.11769848
  eigenvalues    EBANDS =    -14843.62508455
  atomic energy  EATOM  =    136002.60505376
  Solvation  Ediel_sol  =         0.00000000
  ---------------------------------------------------
  free energy    TOTEN  =      -395.18295759 eV

  energy without entropy =     -394.06525912  energy(sigma->0) =     -394.62410835


--------------------------------------------------------------------------------------------------------




--------------------------------------- Iteration      1(   5)  ---------------------------------------


     EDDAV:  cpu time    7.0834: real time    7.0851
       DOS:  cpu time    0.0014: real time    0.0014
    CHARGE:  cpu time    0.2185: real time    0.2185
    MIXING:  cpu time    0.0076: real time    0.0076
    --------------------------------------------
      LOOP:  cpu time    7.3110: real time    7.3127

 eigenvalue-minimisations  :  1232
 total energy-change (2. order) :-0.2472454E+01  (-0.2468352E+01)
 number of electron     791.9999741 magnetization 
 augmentation part      286.6833310 magnetization 

 Broyden mixing:
  rms(total) = 0.97516E+01    rms(broyden)= 0.97430E+01
  rms(prec ) = 0.10099E+02
  weight for this iteration     100.00

 Free energy of the ion-electron system (eV)
  ---------------------------------------------------
  alpha Z        PSCENC =      1909.09476555
  Ewald energy   TEWEN  =    224956.49480310
  -Hartree energ DENC   =   -347188.77502303
  -exchange      EXHF   =         0.00000000
  -V(xc)+E(xc)   XCENC  =      3682.11877925
  PAW double counting   =    112729.53333415  -117641.51188735
  entropy T*S    EENTRO =        -1.12008481
  eigenvalues    EBANDS =    -14846.09515182
  atomic energy  EATOM  =    136002.60505376
  Solvation  Ediel_sol  =         0.00000000
  ---------------------------------------------------
  free energy    TOTEN  =      -397.65541119 eV

  energy without entropy =     -396.53532638  energy(sigma->0) =     -397.09536879


--------------------------------------------------------------------------------------------------------




--------------------------------------- Iteration      1(   6)  ---------------------------------------


    POTLOK:  cpu time    0.2484: real time    0.2484
    SETDIJ:  cpu time    0.0179: real time    0.0179
     EDDAV:  cpu time    6.9141: real time    6.9156
       DOS:  cpu time    0.0011: real time    0.0011
    CHARGE:  cpu time    0.2343: real time    0.2343
    MIXING:  cpu time    0.0087: real time    0.0087
    --------------------------------------------
      LOOP:  cpu time    7.4244: real time    7.4260

 eigenvalue-minimisations  :  1192
 total energy-change (2. order) :-0.6853158E+02  (-0.9152643E+02)
 number of electron     791.9999749 magnetization 
 augmentation part      346.5108910 magnetization 

 Broyden mixing:
  rms(total) = 0.15440E+02    rms(broyden)= 0.15438E+02
  rms(prec ) = 0.16050E+02
  weight for this iteration     100.00

 eigenvalues of (default mixing * dielectric matrix)
  average eigenvalue GAMMA=   0.2579
  0.2579

 Free energy of the ion-electron system (eV)
  ---------------------------------------------------
  alpha Z        PSCENC =      1909.09476555
  Ewald energy   TEWEN  =    224956.49480310
  -Hartree energ DENC   =   -344423.34157465
  -exchange      EXHF   =         0.00000000
  -V(xc)+E(xc)   XCENC  =      3608.38292841
  PAW double counting   =    117631.78596715  -122313.11064649
  entropy T*S    EENTRO =        -0.83061798
  eigenvalues    EBANDS =    -17837.26766680
  atomic energy  EATOM  =    136002.60505376
  Solvation  Ediel_sol  =         0.00000000
  ---------------------------------------------------
  free energy    TOTEN  =      -466.18698794 eV

  energy without entropy =     -465.35636997  energy(sigma->0) =     -465.77167896


--------------------------------------------------------------------------------------------------------




--------------------------------------- Iteration      1(   7)  ---------------------------------------


    POTLOK:  cpu time    0.2462: real time    0.2462
    SETDIJ:  cpu time    0.0175: real time    0.0175
     EDDAV:  cpu time    6.5058: real time    6.5066
       DOS:  cpu time    0.0011: real time    0.0011
    CHARGE:  cpu time    0.3212: real time    0.3212
    MIXING:  cpu time    0.0087: real time    0.0088
    --------------------------------------------
      LOOP:  cpu time    7.1006: real time    7.1014

 eigenvalue-minimisations  :  1080
 total energy-change (2. order) : 0.1028181E+03  (-0.1919547E+02)
 number of electron     791.9999725 magnetization 
 augmentation part      329.6187114 magnetization 

 Broyden mixing:
  rms(total) = 0.63702E+01    rms(broyden)= 0.63687E+01
  rms(prec ) = 0.66088E+01
  weight for this iteration     100.00

 eigenvalues of (default mixing * dielectric matrix)
  average eigenvalue GAMMA=   0.5466
  0.6530  0.4402

 Free energy of the ion-electron system (eV)
  ---------------------------------------------------
  alpha Z        PSCENC =      1909.09476555
  Ewald energy   TEWEN  =    224956.49480310
  -Hartree energ DENC   =   -345658.41778617
  -exchange      EXHF   =         0.00000000
  -V(xc)+E(xc)   XCENC  =      3635.72047373
  PAW double counting   =    122280.84942360  -127107.82660038
  entropy T*S    EENTRO =        -0.76944528
  eigenvalues    EBANDS =    -16381.11959632
  atomic energy  EATOM  =    136002.60505376
  Solvation  Ediel_sol  =         0.00000000
  ---------------------------------------------------
  free energy    TOTEN  =      -363.36890839 eV

  energy without entropy =     -362.59946312  energy(sigma->0) =     -362.98418575


--------------------------------------------------------------------------------------------------------




--------------------------------------- Iteration      1(   8)  ---------------------------------------


    POTLOK:  cpu time    0.2522: real time    0.2525
    SETDIJ:  cpu time    0.0176: real time    0.0176
     EDDAV:  cpu time    7.3064: real time    7.3076
       DOS:  cpu time    0.0016: real time    0.0015
    CHARGE:  cpu time    0.2079: real time    0.2080
    MIXING:  cpu time    0.0088: real time    0.0088
    --------------------------------------------
      LOOP:  cpu time    7.7944: real time    7.7960

 eigenvalue-minimisations  :  1248
 total energy-change (2. order) :-0.5472029E+02  (-0.2092695E+02)
 number of electron     791.9999804 magnetization 
 augmentation part      302.5053206 magnetization 

 Broyden mixing:
  rms(total) = 0.13880E+02    rms(broyden)= 0.13878E+02
  rms(prec ) = 0.16301E+02
  weight for this iteration     100.00

 eigenvalues of (default mixing * dielectric matrix)
  average eigenvalue GAMMA=   0.5103
  0.9532  0.4132  0.1645

 Free energy of the ion-electron system (eV)
  ---------------------------------------------------
  alpha Z        PSCENC =      1909.09476555
  Ewald energy   TEWEN  =    224956.49480310
  -Hartree energ DENC   =   -346429.63756847
  -exchange      EXHF   =         0.00000000
  -V(xc)+E(xc)   XCENC  =      3661.57999839
  PAW double counting   =    129924.99159169  -134894.30835981
  entropy T*S    EENTRO =        -1.08004896
  eigenvalues    EBANDS =    -15547.82943782
  atomic energy  EATOM  =    136002.60505376
  Solvation  Ediel_sol  =         0.00000000
  ---------------------------------------------------
  free energy    TOTEN  =      -418.08920256 eV

  energy without entropy =     -417.00915360  energy(sigma->0) =     -417.54917808


--------------------------------------------------------------------------------------------------------




--------------------------------------- Iteration      1(   9)  ---------------------------------------


    POTLOK:  cpu time    0.2474: real time    0.2475
    SETDIJ:  cpu time    0.0175: real time    0.0175
     EDDAV:  cpu time    7.0933: real time    7.0946
       DOS:  cpu time    0.0012: real time    0.0012
    CHARGE:  cpu time    0.2136: real time    0.2136
    MIXING:  cpu time    0.0089: real time    0.0089
    --------------------------------------------
      LOOP:  cpu time    7.5820: real time    7.5834

 eigenvalue-minimisations  :  1232
 total energy-change (2. order) : 0.3812748E+02  (-0.1813224E+02)
 number of electron     791.9999691 magnetization 
 augmentation part      303.0096736 magnetization 

 Broyden mixing:
  rms(total) = 0.81456E+01    rms(broyden)= 0.81389E+01
  rms(prec ) = 0.95382E+01
  weight for this iteration     100.00

 eigenvalues of (default mixing * dielectric matrix)
  average eigenvalue GAMMA=   0.5777
  1.4683  0.3661  0.3661  0.1104

 Free energy of the ion-electron system (eV)
  ---------------------------------------------------
  alpha Z        PSCENC =      1909.09476555
  Ewald energy   TEWEN  =    224956.49480310
  -Hartree energ DENC   =   -346470.60294043
  -exchange      EXHF   =         0.00000000
  -V(xc)+E(xc)   XCENC  =      3660.28509242
  PAW double counting   =    133057.01045428  -138043.07108817
  entropy T*S    EENTRO =        -1.18018563
  eigenvalues    EBANDS =    -15450.59768097
  atomic energy  EATOM  =    136002.60505376
  Solvation  Ediel_sol  =         0.00000000
  ---------------------------------------------------
  free energy    TOTEN  =      -379.96172608 eV

  energy without entropy =     -378.78154045  energy(sigma->0) =     -379.37163327


--------------------------------------------------------------------------------------------------------




--------------------------------------- Iteration      1(  10)  ---------------------------------------


    POTLOK:  cpu time    0.2443: real time    0.2443
    SETDIJ:  cpu time    0.0197: real time    0.0197
     EDDAV:  cpu time    7.9771: real time    7.9787
       DOS:  cpu time    0.0013: real time    0.0013
    CHARGE:  cpu time    0.2159: real time    0.2159
    MIXING:  cpu time    0.0100: real time    0.0100
    --------------------------------------------
      LOOP:  cpu time    8.4684: real time    8.4700

 eigenvalue-minimisations  :  1360
 total energy-change (2. order) :-0.2092487E+02  (-0.1263993E+02)
 number of electron     791.9999737 magnetization 
 augmentation part      302.6152747 magnetization 

 Broyden mixing:
  rms(total) = 0.90192E+01    rms(broyden)= 0.90165E+01
  rms(prec ) = 0.10037E+02
  weight for this iteration     100.00

 eigenvalues of (default mixing * dielectric matrix)
  average eigenvalue GAMMA=   0.6467
  2.1611  0.4126  0.4126  0.1235  0.1235

 Free energy of the ion-electron system (eV)
  ---------------------------------------------------
  alpha Z        PSCENC =      1909.09476555
  Ewald energy   TEWEN  =    224956.49480310
  -Hartree energ DENC   =   -346449.21509750
  -exchange      EXHF   =         0.00000000
  -V(xc)+E(xc)   XCENC  =      3655.90400369
  PAW double counting   =    137038.14365295  -142040.26620206
  entropy T*S    EENTRO =        -1.05434278
  eigenvalues    EBANDS =    -15472.59323557
  atomic energy  EATOM  =    136002.60505376
  Solvation  Ediel_sol  =         0.00000000
  ---------------------------------------------------
  free energy    TOTEN  =      -400.88659885 eV

  energy without entropy =     -399.83225608  energy(sigma->0) =     -400.35942747


--------------------------------------------------------------------------------------------------------




--------------------------------------- Iteration      1(  11)  ---------------------------------------


    POTLOK:  cpu time    0.2432: real time    0.2437
    SETDIJ:  cpu time    0.0188: real time    0.0188
     EDDAV:  cpu time    7.4797: real time    7.4808
       DOS:  cpu time    0.0012: real time    0.0012
    CHARGE:  cpu time    0.2094: real time    0.2094
    MIXING:  cpu time    0.0098: real time    0.0098
    --------------------------------------------
      LOOP:  cpu time    7.9621: real time    7.9637

 eigenvalue-minimisations  :  1320
 total energy-change (2. order) : 0.1600558E+02  (-0.5906206E+01)
 number of electron     791.9999739 magnetization 
 augmentation part      308.6378597 magnetization 

 Broyden mixing:
  rms(total) = 0.74312E+01    rms(broyden)= 0.74279E+01
  rms(prec ) = 0.84583E+01
  weight for this iteration     100.00

 eigenvalues of (default mixing * dielectric matrix)
  average eigenvalue GAMMA=   0.5931
  2.3075  0.4153  0.4153  0.1589  0.1589  0.1025

 Free energy of the ion-electron system (eV)
  ---------------------------------------------------
  alpha Z        PSCENC =      1909.09476555
  Ewald energy   TEWEN  =    224956.49480310
  -Hartree energ DENC   =   -346213.73354269
  -exchange      EXHF   =         0.00000000
  -V(xc)+E(xc)   XCENC  =      3651.17914895
  PAW double counting   =    142296.92126452  -147323.59054435
  entropy T*S    EENTRO =        -1.03850169
  eigenvalues    EBANDS =    -15662.81346916
  atomic energy  EATOM  =    136002.60505376
  Solvation  Ediel_sol  =         0.00000000
  ---------------------------------------------------
  free energy    TOTEN  =      -384.88102201 eV

  energy without entropy =     -383.84252032  energy(sigma->0) =     -384.36177116


--------------------------------------------------------------------------------------------------------




--------------------------------------- Iteration      1(  12)  ---------------------------------------


    POTLOK:  cpu time    0.2427: real time    0.2428
    SETDIJ:  cpu time    0.0190: real time    0.0190
     EDDAV:  cpu time    7.5258: real time    7.5270
       DOS:  cpu time    0.0012: real time    0.0012
    CHARGE:  cpu time    0.2120: real time    0.2120
    MIXING:  cpu time    0.0103: real time    0.0103
    --------------------------------------------
      LOOP:  cpu time    8.0111: real time    8.0122

 eigenvalue-minimisations  :  1272
 total energy-change (2. order) : 0.1883876E+02  (-0.4000018E+01)
 number of electron     791.9999705 magnetization 
 augmentation part      311.8544395 magnetization 

 Broyden mixing:
  rms(total) = 0.46300E+01    rms(broyden)= 0.46265E+01
  rms(prec ) = 0.51662E+01
  weight for this iteration     100.00

 eigenvalues of (default mixing * dielectric matrix)
  average eigenvalue GAMMA=   0.5720
  2.2811  0.4054  0.4054  0.4230  0.2568  0.1289  0.1031

 Free energy of the ion-electron system (eV)
  ---------------------------------------------------
  alpha Z        PSCENC =      1909.09476555
  Ewald energy   TEWEN  =    224956.49480310
  -Hartree energ DENC   =   -346204.64310509
  -exchange      EXHF   =         0.00000000
  -V(xc)+E(xc)   XCENC  =      3650.38400582
  PAW double counting   =    143624.38507837  -148658.69706074
  entropy T*S    EENTRO =        -0.87473503
  eigenvalues    EBANDS =    -15644.79107076
  atomic energy  EATOM  =    136002.60505376
  Solvation  Ediel_sol  =         0.00000000
  ---------------------------------------------------
  free energy    TOTEN  =      -366.04226502 eV

  energy without entropy =     -365.16752999  energy(sigma->0) =     -365.60489751


--------------------------------------------------------------------------------------------------------




--------------------------------------- Iteration      1(  13)  ---------------------------------------


    POTLOK:  cpu time    0.2436: real time    0.2436
    SETDIJ:  cpu time    0.0191: real time    0.0191
     EDDAV:  cpu time    7.4196: real time    7.4208
       DOS:  cpu time    0.0013: real time    0.0013
    CHARGE:  cpu time    0.2157: real time    0.2157
    MIXING:  cpu time    0.0107: real time    0.0107
    --------------------------------------------
      LOOP:  cpu time    7.9099: real time    7.9111

 eigenvalue-minimisations  :  1304
 total energy-change (2. order) : 0.1921087E+01  (-0.3326444E+01)
 number of electron     791.9999753 magnetization 
 augmentation part      310.8137581 magnetization 

 Broyden mixing:
  rms(total) = 0.55394E+01    rms(broyden)= 0.55371E+01
  rms(prec ) = 0.62399E+01
  weight for this iteration     100.00

 eigenvalues of (default mixing * dielectric matrix)
  average eigenvalue GAMMA=   0.5479
  2.3089  0.5697  0.4208  0.4208  0.2856  0.1382  0.1382  0.1013

 Free energy of the ion-electron system (eV)
  ---------------------------------------------------
  alpha Z        PSCENC =      1909.09476555
  Ewald energy   TEWEN  =    224956.49480310
  -Hartree energ DENC   =   -346254.59941506
  -exchange      EXHF   =         0.00000000
  -V(xc)+E(xc)   XCENC  =      3651.11370164
  PAW double counting   =    143322.70538497  -148355.87122188
  entropy T*S    EENTRO =        -1.03685868
  eigenvalues    EBANDS =    -15594.62739178
  atomic energy  EATOM  =    136002.60505376
  Solvation  Ediel_sol  =         0.00000000
  ---------------------------------------------------
  free energy    TOTEN  =      -364.12117838 eV

  energy without entropy =     -363.08431970  energy(sigma->0) =     -363.60274904


--------------------------------------------------------------------------------------------------------




--------------------------------------- Iteration      1(  14)  ---------------------------------------


    POTLOK:  cpu time    0.2441: real time    0.2441
    SETDIJ:  cpu time    0.0195: real time    0.0195
     EDDAV:  cpu time    7.7086: real time    7.7097
       DOS:  cpu time    0.0012: real time    0.0012
    CHARGE:  cpu time    0.2110: real time    0.2110
    MIXING:  cpu time    0.0111: real time    0.0111
    --------------------------------------------
      LOOP:  cpu time    8.1955: real time    8.1966

 eigenvalue-minimisations  :  1320
 total energy-change (2. order) : 0.7806082E+01  (-0.3404838E+01)
 number of electron     791.9999703 magnetization 
 augmentation part      312.5124554 magnetization 

 Broyden mixing:
  rms(total) = 0.33633E+01    rms(broyden)= 0.33607E+01
  rms(prec ) = 0.37408E+01
  weight for this iteration     100.00

 eigenvalues of (default mixing * dielectric matrix)
  average eigenvalue GAMMA=   0.5044
  2.2748  0.4916  0.4395  0.4395  0.3582  0.1590  0.1590  0.1170  0.1014

 Free energy of the ion-electron system (eV)
  ---------------------------------------------------
  alpha Z        PSCENC =      1909.09476555
  Ewald energy   TEWEN  =    224956.49480310
  -Hartree energ DENC   =   -346243.82624931
  -exchange      EXHF   =         0.00000000
  -V(xc)+E(xc)   XCENC  =      3650.97886166
  PAW double counting   =    143296.33252180  -148326.71683393
  entropy T*S    EENTRO =        -0.88287630
  eigenvalues    EBANDS =    -15600.39514302
  atomic energy  EATOM  =    136002.60505376
  Solvation  Ediel_sol  =         0.00000000
  ---------------------------------------------------
  free energy    TOTEN  =      -356.31509668 eV

  energy without entropy =     -355.43222039  energy(sigma->0) =     -355.87365854


--------------------------------------------------------------------------------------------------------




--------------------------------------- Iteration      1(  15)  ---------------------------------------


    POTLOK:  cpu time    0.2433: real time    0.2433
    SETDIJ:  cpu time    0.0191: real time    0.0191
     EDDAV:  cpu time    7.4264: real time    7.4275
       DOS:  cpu time    0.0013: real time    0.0013
    CHARGE:  cpu time    0.2193: real time    0.2194
    MIXING:  cpu time    0.0127: real time    0.0127
    --------------------------------------------
      LOOP:  cpu time    7.9221: real time    7.9233

 eigenvalue-minimisations  :  1312
 total energy-change (2. order) : 0.4444308E+01  (-0.7846812E+00)
 number of electron     791.9999720 magnetization 
 augmentation part      313.0488781 magnetization 

 Broyden mixing:
  rms(total) = 0.19944E+01    rms(broyden)= 0.19932E+01
  rms(prec ) = 0.22080E+01
  weight for this iteration     100.00

 eigenvalues of (default mixing * dielectric matrix)
  average eigenvalue GAMMA=   0.4990
  2.2224  0.5726  0.5726  0.4280  0.4280  0.1970  0.1970  0.1359  0.1359  0.1009

 Free energy of the ion-electron system (eV)
  ---------------------------------------------------
  alpha Z        PSCENC =      1909.09476555
  Ewald energy   TEWEN  =    224956.49480310
  -Hartree energ DENC   =   -346244.91620395
  -exchange      EXHF   =         0.00000000
  -V(xc)+E(xc)   XCENC  =      3651.05497908
  PAW double counting   =    143005.27490858  -148032.63741934
  entropy T*S    EENTRO =        -0.85856142
  eigenvalues    EBANDS =    -15597.98311446
  atomic energy  EATOM  =    136002.60505376
  Solvation  Ediel_sol  =         0.00000000
  ---------------------------------------------------
  free energy    TOTEN  =      -351.87078910 eV

  energy without entropy =     -351.01222767  energy(sigma->0) =     -351.44150838


--------------------------------------------------------------------------------------------------------




--------------------------------------- Iteration      1(  16)  ---------------------------------------


    POTLOK:  cpu time    0.2514: real time    0.2517
    SETDIJ:  cpu time    0.0174: real time    0.0174
     EDDAV:  cpu time    7.7074: real time    7.7090
       DOS:  cpu time    0.0014: real time    0.0014
    CHARGE:  cpu time    0.2148: real time    0.2148
    MIXING:  cpu time    0.0121: real time    0.0121
    --------------------------------------------
      LOOP:  cpu time    8.2045: real time    8.2064

 eigenvalue-minimisations  :  1320
 total energy-change (2. order) : 0.2879648E+00  (-0.2821533E+00)
 number of electron     791.9999726 magnetization 
 augmentation part      312.6412924 magnetization 

 Broyden mixing:
  rms(total) = 0.19707E+01    rms(broyden)= 0.19703E+01
  rms(prec ) = 0.22185E+01
  weight for this iteration     100.00

 eigenvalues of (default mixing * dielectric matrix)
  average eigenvalue GAMMA=   0.4881
  2.1996  0.6927  0.6927  0.4250  0.4250  0.2122  0.2122  0.1441  0.1441  0.1014
  0.1207

 Free energy of the ion-electron system (eV)
  ---------------------------------------------------
  alpha Z        PSCENC =      1909.09476555
  Ewald energy   TEWEN  =    224956.49480310
  -Hartree energ DENC   =   -346261.67395490
  -exchange      EXHF   =         0.00000000
  -V(xc)+E(xc)   XCENC  =      3651.35218723
  PAW double counting   =    142543.08025470  -147566.53976086
  entropy T*S    EENTRO =        -0.88369085
  eigenvalues    EBANDS =    -15585.11248209
  atomic energy  EATOM  =    136002.60505376
  Solvation  Ediel_sol  =         0.00000000
  ---------------------------------------------------
  free energy    TOTEN  =      -351.58282434 eV

  energy without entropy =     -350.69913349  energy(sigma->0) =     -351.14097892


--------------------------------------------------------------------------------------------------------




--------------------------------------- Iteration      1(  17)  ---------------------------------------


    POTLOK:  cpu time    0.2447: real time    0.2447
    SETDIJ:  cpu time    0.0178: real time    0.0178
     EDDAV:  cpu time    7.0367: real time    7.0382
       DOS:  cpu time    0.0012: real time    0.0012
    CHARGE:  cpu time    0.2136: real time    0.2136
    MIXING:  cpu time    0.0124: real time    0.0124
    --------------------------------------------
      LOOP:  cpu time    7.5264: real time    7.5279

 eigenvalue-minimisations  :  1216
 total energy-change (2. order) : 0.6793724E+00  (-0.1343075E+00)
 number of electron     791.9999723 magnetization 
 augmentation part      312.5034571 magnetization 

 Broyden mixing:
  rms(total) = 0.15863E+01    rms(broyden)= 0.15859E+01
  rms(prec ) = 0.17645E+01
  weight for this iteration     100.00

 eigenvalues of (default mixing * dielectric matrix)
  average eigenvalue GAMMA=   0.4830
  2.1863  0.7618  0.7618  0.4133  0.4133  0.2933  0.2933  0.1590  0.1590  0.1010
  0.1268  0.1268

 Free energy of the ion-electron system (eV)
  ---------------------------------------------------
  alpha Z        PSCENC =      1909.09476555
  Ewald energy   TEWEN  =    224956.49480310
  -Hartree energ DENC   =   -346274.33293202
  -exchange      EXHF   =         0.00000000
  -V(xc)+E(xc)   XCENC  =      3651.53472342
  PAW double counting   =    142197.35409894  -147217.48487227
  entropy T*S    EENTRO =        -0.86929743
  eigenvalues    EBANDS =    -15575.29979500
  atomic energy  EATOM  =    136002.60505376
  Solvation  Ediel_sol  =         0.00000000
  ---------------------------------------------------
  free energy    TOTEN  =      -350.90345195 eV

  energy without entropy =     -350.03415453  energy(sigma->0) =     -350.46880324


--------------------------------------------------------------------------------------------------------




--------------------------------------- Iteration      1(  18)  ---------------------------------------


    POTLOK:  cpu time    0.2489: real time    0.2489
    SETDIJ:  cpu time    0.0177: real time    0.0177
     EDDAV:  cpu time    7.7634: real time    7.7649
       DOS:  cpu time    0.0012: real time    0.0012
    CHARGE:  cpu time    0.2121: real time    0.2121
    MIXING:  cpu time    0.0125: real time    0.0125
    --------------------------------------------
      LOOP:  cpu time    8.2558: real time    8.2572

 eigenvalue-minimisations  :  1320
 total energy-change (2. order) : 0.2636594E+00  (-0.3683451E-01)
 number of electron     791.9999726 magnetization 
 augmentation part      312.4017785 magnetization 

 Broyden mixing:
  rms(total) = 0.14892E+01    rms(broyden)= 0.14891E+01
  rms(prec ) = 0.16635E+01
  weight for this iteration     100.00

 eigenvalues of (default mixing * dielectric matrix)
  average eigenvalue GAMMA=   0.5235
  2.1672  1.0780  1.0780  0.4315  0.4315  0.3761  0.3761  0.1811  0.1811  0.1012
  0.1399  0.1399  0.1239

 Free energy of the ion-electron system (eV)
  ---------------------------------------------------
  alpha Z        PSCENC =      1909.09476555
  Ewald energy   TEWEN  =    224956.49480310
  -Hartree energ DENC   =   -346282.89049393
  -exchange      EXHF   =         0.00000000
  -V(xc)+E(xc)   XCENC  =      3651.63523158
  PAW double counting   =    141947.55977803  -146965.01784594
  entropy T*S    EENTRO =        -0.88081342
  eigenvalues    EBANDS =    -15569.24027125
  atomic energy  EATOM  =    136002.60505376
  Solvation  Ediel_sol  =         0.00000000
  ---------------------------------------------------
  free energy    TOTEN  =      -350.63979253 eV

  energy without entropy =     -349.75897911  energy(sigma->0) =     -350.19938582


--------------------------------------------------------------------------------------------------------




--------------------------------------- Iteration      1(  19)  ---------------------------------------


    POTLOK:  cpu time    0.2477: real time    0.2477
    SETDIJ:  cpu time    0.0174: real time    0.0174
     EDDAV:  cpu time    7.4226: real time    7.4241
       DOS:  cpu time    0.0012: real time    0.0012
    CHARGE:  cpu time    0.2115: real time    0.2116
    MIXING:  cpu time    0.0131: real time    0.0131
    --------------------------------------------
      LOOP:  cpu time    7.9136: real time    7.9152

 eigenvalue-minimisations  :  1312
 total energy-change (2. order) : 0.5674251E+00  (-0.3092198E-01)
 number of electron     791.9999728 magnetization 
 augmentation part      312.2509317 magnetization 

 Broyden mixing:
  rms(total) = 0.12077E+01    rms(broyden)= 0.12075E+01
  rms(prec ) = 0.13358E+01
  weight for this iteration     100.00

 eigenvalues of (default mixing * dielectric matrix)
  average eigenvalue GAMMA=   0.5520
  2.1461  1.3367  1.3367  0.4588  0.4588  0.4409  0.4409  0.2202  0.2202  0.1011
  0.1494  0.1494  0.1416  0.1268

 Free energy of the ion-electron system (eV)
  ---------------------------------------------------
  alpha Z        PSCENC =      1909.09476555
  Ewald energy   TEWEN  =    224956.49480310
  -Hartree energ DENC   =   -346305.55268693
  -exchange      EXHF   =         0.00000000
  -V(xc)+E(xc)   XCENC  =      3651.82327317
  PAW double counting   =    141332.24535785  -146342.62246045
  entropy T*S    EENTRO =        -0.90455080
  eigenvalues    EBANDS =    -15553.25592267
  atomic energy  EATOM  =    136002.60505376
  Solvation  Ediel_sol  =         0.00000000
  ---------------------------------------------------
  free energy    TOTEN  =      -350.07236741 eV

  energy without entropy =     -349.16781662  energy(sigma->0) =     -349.62009201


--------------------------------------------------------------------------------------------------------




--------------------------------------- Iteration      1(  20)  ---------------------------------------


    POTLOK:  cpu time    0.2494: real time    0.2494
    SETDIJ:  cpu time    0.0173: real time    0.0173
     EDDAV:  cpu time    7.7771: real time    7.7784
       DOS:  cpu time    0.0012: real time    0.0012
    CHARGE:  cpu time    0.2152: real time    0.2153
    MIXING:  cpu time    0.0174: real time    0.0174
    --------------------------------------------
      LOOP:  cpu time    8.2775: real time    8.2791

 eigenvalue-minimisations  :  1336
 total energy-change (2. order) : 0.3631391E+00  (-0.2883626E-01)
 number of electron     791.9999726 magnetization 
 augmentation part      312.0553948 magnetization 

 Broyden mixing:
  rms(total) = 0.98619E+00    rms(broyden)= 0.98607E+00
  rms(prec ) = 0.11020E+01
  weight for this iteration     100.00

 eigenvalues of (default mixing * dielectric matrix)
  average eigenvalue GAMMA=   0.5827
  2.1203  1.6335  1.6335  0.5758  0.5758  0.4367  0.4367  0.2410  0.2410  0.1687
  0.1687  0.1012  0.1410  0.1410  0.1252

 Free energy of the ion-electron system (eV)
  ---------------------------------------------------
  alpha Z        PSCENC =      1909.09476555
  Ewald energy   TEWEN  =    224956.49480310
  -Hartree energ DENC   =   -346328.15838351
  -exchange      EXHF   =         0.00000000
  -V(xc)+E(xc)   XCENC  =      3651.98732658
  PAW double counting   =    140817.07759768  -145821.48526239
  entropy T*S    EENTRO =        -0.90990508
  eigenvalues    EBANDS =    -15536.41522401
  atomic energy  EATOM  =    136002.60505376
  Solvation  Ediel_sol  =         0.00000000
  ---------------------------------------------------
  free energy    TOTEN  =      -349.70922831 eV

  energy without entropy =     -348.79932323  energy(sigma->0) =     -349.25427577


--------------------------------------------------------------------------------------------------------




--------------------------------------- Iteration      1(  21)  ---------------------------------------


    POTLOK:  cpu time    0.2478: real time    0.2478
    SETDIJ:  cpu time    0.0193: real time    0.0193
     EDDAV:  cpu time    7.5978: real time    7.5993
       DOS:  cpu time    0.0011: real time    0.0011
    CHARGE:  cpu time    0.2120: real time    0.2122
    MIXING:  cpu time    0.0146: real time    0.0146
    --------------------------------------------
      LOOP:  cpu time    8.0926: real time    8.0943

 eigenvalue-minimisations  :  1352
 total energy-change (2. order) : 0.3991685E+00  (-0.3464934E-01)
 number of electron     791.9999733 magnetization 
 augmentation part      311.9044421 magnetization 

 Broyden mixing:
  rms(total) = 0.63320E+00    rms(broyden)= 0.63295E+00
  rms(prec ) = 0.69949E+00
  weight for this iteration     100.00

 eigenvalues of (default mixing * dielectric matrix)
  average eigenvalue GAMMA=   0.5858
  2.0819  1.7651  1.7651  0.6376  0.6376  0.4256  0.4256  0.2976  0.2976  0.1856
  0.1856  0.1012  0.1443  0.1443  0.1518  0.1258

 Free energy of the ion-electron system (eV)
  ---------------------------------------------------
  alpha Z        PSCENC =      1909.09476555
  Ewald energy   TEWEN  =    224956.49480310
  -Hartree energ DENC   =   -346362.81010744
  -exchange      EXHF   =         0.00000000
  -V(xc)+E(xc)   XCENC  =      3652.17482822
  PAW double counting   =    140087.19629758  -145082.77952413
  entropy T*S    EENTRO =        -0.94072604
  eigenvalues    EBANDS =    -15510.34545043
  atomic energy  EATOM  =    136002.60505376
  Solvation  Ediel_sol  =         0.00000000
  ---------------------------------------------------
  free energy    TOTEN  =      -349.31005983 eV

  energy without entropy =     -348.36933379  energy(sigma->0) =     -348.83969681


--------------------------------------------------------------------------------------------------------




--------------------------------------- Iteration      1(  22)  ---------------------------------------


    POTLOK:  cpu time    0.2488: real time    0.2488
    SETDIJ:  cpu time    0.0189: real time    0.0189
     EDDAV:  cpu time    7.6381: real time    7.6395
       DOS:  cpu time    0.0011: real time    0.0011
    CHARGE:  cpu time    0.2095: real time    0.2095
    MIXING:  cpu time    0.0151: real time    0.0151
    --------------------------------------------
      LOOP:  cpu time    8.1315: real time    8.1329

 eigenvalue-minimisations  :  1304
 total energy-change (2. order) : 0.1403975E+00  (-0.3323036E-01)
 number of electron     791.9999734 magnetization 
 augmentation part      311.8375434 magnetization 

 Broyden mixing:
  rms(total) = 0.41263E+00    rms(broyden)= 0.41226E+00
  rms(prec ) = 0.45608E+00
  weight for this iteration     100.00

 eigenvalues of (default mixing * dielectric matrix)
  average eigenvalue GAMMA=   0.5919
  2.0699  1.7891  1.7891  0.7581  0.7581  0.5049  0.4381  0.4381  0.2747  0.2058
  0.2058  0.1012  0.1255  0.1427  0.1427  0.1596  0.1596

 Free energy of the ion-electron system (eV)
  ---------------------------------------------------
  alpha Z        PSCENC =      1909.09476555
  Ewald energy   TEWEN  =    224956.49480310
  -Hartree energ DENC   =   -346381.23556854
  -exchange      EXHF   =         0.00000000
  -V(xc)+E(xc)   XCENC  =      3652.27531623
  PAW double counting   =    139609.33703115  -144599.01675447
  entropy T*S    EENTRO =        -0.95180711
  eigenvalues    EBANDS =    -15497.77250197
  atomic energy  EATOM  =    136002.60505376
  Solvation  Ediel_sol  =         0.00000000
  ---------------------------------------------------
  free energy    TOTEN  =      -349.16966231 eV

  energy without entropy =     -348.21785520  energy(sigma->0) =     -348.69375876


--------------------------------------------------------------------------------------------------------




--------------------------------------- Iteration      1(  23)  ---------------------------------------


    POTLOK:  cpu time    0.2475: real time    0.2477
    SETDIJ:  cpu time    0.0190: real time    0.0190
     EDDAV:  cpu time    7.1095: real time    7.1109
       DOS:  cpu time    0.0012: real time    0.0012
    CHARGE:  cpu time    0.2092: real time    0.2092
    MIXING:  cpu time    0.0158: real time    0.0158
    --------------------------------------------
      LOOP:  cpu time    7.6023: real time    7.6039

 eigenvalue-minimisations  :  1240
 total energy-change (2. order) : 0.2367811E-01  (-0.1875939E-01)
 number of electron     791.9999733 magnetization 
 augmentation part      312.0041384 magnetization 

 Broyden mixing:
  rms(total) = 0.35617E+00    rms(broyden)= 0.35595E+00
  rms(prec ) = 0.39119E+00
  weight for this iteration     100.00

 eigenvalues of (default mixing * dielectric matrix)
  average eigenvalue GAMMA=   0.5825
  2.0651  1.8025  1.8025  0.8465  0.8465  0.5273  0.4407  0.4407  0.3017  0.2215
  0.2215  0.1012  0.1643  0.1643  0.1425  0.1425  0.1256  0.1289

 Free energy of the ion-electron system (eV)
  ---------------------------------------------------
  alpha Z        PSCENC =      1909.09476555
  Ewald energy   TEWEN  =    224956.49480310
  -Hartree energ DENC   =   -346379.41427743
  -exchange      EXHF   =         0.00000000
  -V(xc)+E(xc)   XCENC  =      3652.17757491
  PAW double counting   =    139587.49563989  -144576.52257387
  entropy T*S    EENTRO =        -0.95870786
  eigenvalues    EBANDS =    -15500.11826226
  atomic energy  EATOM  =    136002.60505376
  Solvation  Ediel_sol  =         0.00000000
  ---------------------------------------------------
  free energy    TOTEN  =      -349.14598420 eV

  energy without entropy =     -348.18727635  energy(sigma->0) =     -348.66663027


--------------------------------------------------------------------------------------------------------




--------------------------------------- Iteration      1(  24)  ---------------------------------------


    POTLOK:  cpu time    0.2513: real time    0.2513
    SETDIJ:  cpu time    0.0188: real time    0.0188
     EDDAV:  cpu time    7.2150: real time    7.2161
       DOS:  cpu time    0.0012: real time    0.0012
    CHARGE:  cpu time    0.2129: real time    0.2129
    MIXING:  cpu time    0.0177: real time    0.0177
    --------------------------------------------
      LOOP:  cpu time    7.7169: real time    7.7180

 eigenvalue-minimisations  :  1256
 total energy-change (2. order) : 0.2049941E-01  (-0.8203903E-02)
 number of electron     791.9999733 magnetization 
 augmentation part      312.0727842 magnetization 

 Broyden mixing:
  rms(total) = 0.28930E+00    rms(broyden)= 0.28921E+00
  rms(prec ) = 0.30750E+00
  weight for this iteration     100.00

 eigenvalues of (default mixing * dielectric matrix)
  average eigenvalue GAMMA=   0.5957
  1.8842  1.7498  1.7498  1.1608  1.1608  0.6514  0.4404  0.4404  0.4342  0.2375
  0.2375  0.1808  0.1808  0.1012  0.1595  0.1435  0.1435  0.1255  0.1368

 Free energy of the ion-electron system (eV)
  ---------------------------------------------------
  alpha Z        PSCENC =      1909.09476555
  Ewald energy   TEWEN  =    224956.49480310
  -Hartree energ DENC   =   -346382.90337613
  -exchange      EXHF   =         0.00000000
  -V(xc)+E(xc)   XCENC  =      3652.16027530
  PAW double counting   =    139534.51514776  -144522.93281490
  entropy T*S    EENTRO =        -0.96100424
  eigenvalues    EBANDS =    -15497.19833499
  atomic energy  EATOM  =    136002.60505376
  Solvation  Ediel_sol  =         0.00000000
  ---------------------------------------------------
  free energy    TOTEN  =      -349.12548479 eV

  energy without entropy =     -348.16448056  energy(sigma->0) =     -348.64498267


--------------------------------------------------------------------------------------------------------




--------------------------------------- Iteration      1(  25)  ---------------------------------------


    POTLOK:  cpu time    0.3015: real time    0.3019
    SETDIJ:  cpu time    0.0370: real time    0.0370
     EDDAV:  cpu time    7.5782: real time    7.5795
       DOS:  cpu time    0.0012: real time    0.0012
    CHARGE:  cpu time    0.2104: real time    0.2104
    MIXING:  cpu time    0.0171: real time    0.0171
    --------------------------------------------
      LOOP:  cpu time    8.1453: real time    8.1470

 eigenvalue-minimisations  :  1328
 total energy-change (2. order) : 0.1063925E-01  (-0.6909998E-02)
 number of electron     791.9999734 magnetization 
 augmentation part      312.1349373 magnetization 

 Broyden mixing:
  rms(total) = 0.23093E+00    rms(broyden)= 0.23082E+00
  rms(prec ) = 0.25600E+00
  weight for this iteration     100.00

 eigenvalues of (default mixing * dielectric matrix)
  average eigenvalue GAMMA=   0.6414
  2.1972  2.1972  1.6999  1.6999  0.8509  0.8509  0.5290  0.4379  0.4379  0.2878
  0.2627  0.1994  0.1994  0.1012  0.1655  0.1655  0.1431  0.1431  0.1255  0.1333

 Free energy of the ion-electron system (eV)
  ---------------------------------------------------
  alpha Z        PSCENC =      1909.09476555
  Ewald energy   TEWEN  =    224956.49480310
  -Hartree energ DENC   =   -346397.12222222
  -exchange      EXHF   =         0.00000000
  -V(xc)+E(xc)   XCENC  =      3652.17843229
  PAW double counting   =    139327.92448433  -144314.26707147
  entropy T*S    EENTRO =        -0.95979329
  eigenvalues    EBANDS =    -15485.06329760
  atomic energy  EATOM  =    136002.60505376
  Solvation  Ediel_sol  =         0.00000000
  ---------------------------------------------------
  free energy    TOTEN  =      -349.11484554 eV

[...]
    FORCOR:  cpu time    0.3368: real time    0.3369
    FORHAR:  cpu time    0.1489: real time    0.1489
    MIXING:  cpu time    0.0242: real time    0.0242
    OFIELD:  cpu time    0.0001: real time    0.0001

  FORCE on cell =-STRESS in cart. coord.  units (eV):
  Direction    XX          YY          ZZ          XY          YZ          ZX
  --------------------------------------------------------------------------------------
  Alpha Z  1909.09477  1909.09477  1909.09477
  Ewald  278159.96395275062.04125************ -2434.03991 -1810.26530   348.94637
  Hartree313422.98319311049.26416************ -1937.73611 -1370.61736   114.58035
  E(xc)   -5051.78289 -5052.88648 -5057.45249    -0.88568    -0.95402     0.63864
  Local  ************************593223.10153  4352.08897  3153.60445  -434.22575
  n-local  -613.08502  -613.59720  -615.49432     3.40512     3.33420     7.76145
  augment  5784.43189  5790.89663  5798.99344     3.88300     6.09390   -14.14571
  Kinetic 11072.69628 11090.52733 11148.19146     9.64786    17.65666   -16.73381
  Fock        0.00000     0.00000     0.00000     0.00000     0.00000     0.00000
  -------------------------------------------------------------------------------------
  Total      91.08252    94.84645   109.17398    -3.63674    -1.14748     6.82155
  in kB      74.89311    77.98803    89.76892    -2.99033    -0.94352     5.60906
  external pressure =       80.88 kB  Pullay stress =        0.00 kB


 VOLUME and BASIS-vectors are now :
 -----------------------------------------------------------------------------
  energy-cutoff  :      450.00
  volume of cell :     1948.51
      direct lattice vectors                 reciprocal lattice vectors
    10.079732985  0.000000000  0.000000000     0.099208977 -0.037612667  0.000000000
     3.573298043  9.425102554  0.000000000     0.000000000  0.106099641  0.000000000
     0.000000000  0.000000000 20.510139882     0.000000000  0.000000000  0.048756372

  length of vectors
    10.079732985 10.079732985 20.510139882     0.106099641  0.106099641  0.048756372


 FORCES acting on ions
    electron-ion (+dipol)            ewald-force                    non-local-force                 convergence-correction
 -----------------------------------------------------------------------------------------------
   0.184E+02 -.436E+03 0.268E+04   -.164E+02 0.436E+03 -.268E+04   -.170E+01 -.811E+00 -.171E+01   0.336E-01 0.633E-01 -.315E-01
   0.215E+03 0.148E+03 0.199E+03   -.214E+03 -.151E+03 -.194E+03   -.413E+00 0.157E+01 -.321E+01   0.910E-01 -.124E-02 -.520E-01
   0.517E+03 0.351E+02 -.265E+04   -.519E+03 -.348E+02 0.265E+04   0.183E+01 -.284E+00 0.210E+01   -.847E-02 -.831E-01 -.213E-01
   0.742E+03 0.628E+02 -.536E+04   -.744E+03 -.629E+02 0.536E+04   -.186E+00 0.893E+00 -.279E+01   -.497E-01 -.581E-01 0.805E-01
   0.569E+02 -.330E+03 0.517E+04   -.586E+02 0.333E+03 -.518E+04   0.239E+01 -.363E+01 0.697E+01   0.898E-01 -.106E+00 -.119E-02
   0.854E+02 -.253E+03 0.254E+04   -.836E+02 0.253E+03 -.254E+04   -.101E+01 -.347E+00 -.225E+01   0.592E-01 -.871E-01 0.195E-01
   0.383E+03 -.295E+03 -.415E+04   -.385E+03 0.297E+03 0.415E+04   0.928E+00 -.104E+01 -.274E+01   -.314E-01 0.151E-01 -.194E-01
   0.339E+03 -.225E+03 -.714E+03   -.340E+03 0.227E+03 0.714E+03   0.520E+00 -.136E+01 -.548E-01   -.473E-02 0.885E-01 -.757E-01
   0.204E+03 0.663E+02 0.166E+04   -.202E+03 -.673E+02 -.165E+04   -.637E+00 0.640E+00 -.214E+01   -.641E-01 -.483E-01 -.648E-02
   0.455E+03 -.179E+03 -.159E+04   -.456E+03 0.181E+03 0.159E+04   0.111E+01 -.166E+01 0.290E+01   -.262E-01 0.167E-01 -.800E-01
   0.239E+03 -.355E+03 -.484E+04   -.237E+03 0.356E+03 0.485E+04   -.158E+01 -.860E+00 -.201E+01   0.993E-01 0.397E-01 0.323E-01
   -.524E+02 0.136E+03 0.438E+04   0.557E+02 -.136E+03 -.438E+04   -.278E+01 -.792E+00 0.492E+01   -.935E-01 0.189E-01 -.153E-01
   0.164E+03 0.828E+03 -.395E+04   -.166E+03 -.834E+03 0.395E+04   0.170E+01 0.514E+01 0.132E+01   -.159E+00 -.445E-01 -.481E-01
   0.290E+02 -.353E+02 0.517E+04   -.286E+02 0.376E+02 -.518E+04   -.268E-01 -.217E+01 0.868E+01   0.118E+00 0.177E-01 -.433E-01
   0.758E+02 0.684E+03 0.290E+04   -.777E+02 -.688E+03 -.290E+04   0.190E+01 0.408E+01 0.671E+00   0.503E-01 -.304E-03 -.246E-01
   -.451E+01 0.573E+03 -.550E+03   0.377E+01 -.574E+03 0.550E+03   0.689E+00 0.957E+00 0.634E+00   -.855E-02 -.111E+00 -.901E-01
   0.206E+03 0.449E+03 0.132E+04   -.208E+03 -.451E+03 -.132E+04   0.204E+01 0.198E+01 -.754E+00   -.807E-01 0.133E+00 0.181E-01
   0.280E+02 0.364E+03 -.162E+04   -.286E+02 -.367E+03 0.161E+04   0.507E+00 0.344E+01 0.197E+01   -.162E-01 -.163E-01 0.102E-01
   -.179E+03 0.276E+03 -.488E+04   0.179E+03 -.278E+03 0.488E+04   0.172E+00 0.856E+00 0.117E+01   0.181E-02 0.266E-02 0.146E-01
   0.157E+02 0.189E+03 0.486E+04   -.181E+02 -.191E+03 -.487E+04   0.107E+01 0.256E+01 0.492E+01   -.854E-01 0.133E+00 0.397E-01
   0.370E+03 0.640E+03 0.392E+04   -.372E+03 -.639E+03 -.392E+04   0.153E+01 -.184E+01 0.875E+00   -.242E-01 -.680E-01 -.477E-02
   0.152E+01 0.394E+03 0.507E+03   -.176E+01 -.394E+03 -.505E+03   0.114E+00 0.341E+00 -.187E+01   0.532E-01 -.433E-01 -.104E+00
   -.222E+03 0.107E+03 -.251E+04   0.222E+03 -.111E+03 0.251E+04   -.181E+00 0.384E+01 0.222E+01   0.122E+00 0.460E-01 -.647E-01
   -.518E+03 0.123E+03 -.536E+04   0.520E+03 -.124E+03 0.536E+04   -.240E+01 0.118E+01 0.164E+01   0.834E-01 0.527E-02 0.837E-01
   -.623E+03 -.281E+03 -.470E+04   0.627E+03 0.287E+03 0.470E+04   -.215E+01 -.374E+01 -.217E+01   -.291E-01 0.800E-01 0.418E-01
   0.311E+03 -.152E+03 0.450E+04   -.314E+03 0.154E+03 -.450E+04   0.219E+01 -.244E+01 0.492E+01   0.188E-01 0.251E-01 0.291E-01
   -.408E+03 -.136E+03 0.127E+04   0.409E+03 0.136E+03 -.127E+04   -.504E+00 -.580E+00 -.361E+01   0.208E-01 0.729E-01 -.767E-01
   -.475E+03 -.224E+03 -.159E+04   0.475E+03 0.225E+03 0.159E+04   -.105E+00 -.132E+01 0.117E+01   0.136E-01 0.329E-02 -.888E-01
   -.604E+03 -.538E+03 0.400E+04   0.607E+03 0.543E+03 -.400E+04   -.226E+01 -.398E+01 0.279E+01   -.631E-01 -.248E-01 0.979E-02
   -.327E+03 -.535E+03 0.384E+03   0.327E+03 0.537E+03 -.383E+03   0.792E+00 -.260E+01 -.919E+00   -.875E-01 0.999E-01 -.223E-01
   -.568E+02 -.390E+03 -.276E+04   0.583E+02 0.393E+03 0.276E+04   -.945E+00 -.245E+01 -.823E+00   -.115E+00 -.703E-02 -.799E-01
   0.324E+03 0.284E+03 -.483E+04   -.324E+03 -.283E+03 0.483E+04   -.685E+00 -.166E+01 -.169E+01   -.102E-01 -.298E-01 0.521E-01
   -.117E+03 0.491E+03 0.507E+04   0.116E+03 -.495E+03 -.508E+04   0.124E+01 0.388E+01 0.916E+01   0.145E-01 0.306E-01 -.617E-01
   -.248E+03 -.341E+03 0.290E+04   0.246E+03 0.344E+03 -.290E+04   0.167E+01 -.216E+01 0.501E+00   0.200E-01 -.144E-01 0.426E-02
   -.456E+03 -.311E+03 -.589E+03   0.456E+03 0.313E+03 0.589E+03   -.967E-01 -.154E+01 0.232E+00   0.709E-01 -.333E-01 -.304E-01
   -.517E+03 -.306E+03 -.393E+04   0.519E+03 0.309E+03 0.393E+04   -.204E+01 -.182E+01 -.882E+00   0.845E-01 0.224E-01 -.153E-01
   -.110E+03 0.849E+02 -.658E+03   0.111E+03 -.846E+02 0.654E+03   -.194E+01 -.294E+00 0.138E+01   -.193E-01 -.202E-01 -.589E-01
   -.902E+02 0.107E+03 -.188E+04   0.920E+02 -.108E+03 0.188E+04   -.135E+01 0.341E+00 -.316E+00   0.693E-02 -.105E-01 0.251E-01
   -.783E+02 0.179E+03 0.209E+04   0.804E+02 -.180E+03 -.209E+04   -.627E+00 0.122E+01 0.392E+01   -.744E-02 0.279E-01 0.293E-03
   -.832E+02 0.113E+03 0.352E+03   0.836E+02 -.114E+03 -.349E+03   -.640E+00 0.874E+00 -.125E+01   -.253E-01 -.284E-02 -.271E-01
   -.139E+03 -.295E+03 0.137E+04   0.139E+03 0.299E+03 -.137E+04   -.181E+01 -.131E+01 0.140E+01   -.221E-01 0.656E-01 -.351E-02
   -.545E+02 0.463E+02 -.107E+03   0.560E+02 -.469E+02 0.109E+03   -.148E+01 0.561E+00 -.151E+01   -.641E-02 0.202E-01 0.132E-01
   -.453E+02 0.159E+03 -.130E+04   0.467E+02 -.162E+03 0.130E+04   -.425E+00 0.103E+01 -.183E+01   -.481E-01 -.375E-01 -.683E-02
   -.205E+03 -.201E+03 0.229E+04   0.207E+03 0.204E+03 -.230E+04   -.133E+01 -.188E+01 0.893E+00   -.960E-02 0.192E-01 -.142E-01
   0.199E+03 -.820E+02 0.226E+04   -.201E+03 0.837E+02 -.227E+04   0.136E+01 -.989E+00 0.107E+01   -.243E-01 -.103E-01 -.368E-01
   -.957E+02 0.460E+02 0.768E+03   0.966E+02 -.471E+02 -.766E+03   -.534E+00 0.121E+01 -.673E+00   0.299E-01 -.450E-01 0.137E-02
   -.154E+03 0.334E+02 -.291E+03   0.155E+03 -.338E+02 0.289E+03   -.165E+01 0.147E+00 -.201E+00   0.467E-01 -.438E-02 -.318E-01
   -.302E+03 -.122E+03 -.157E+04   0.305E+03 0.122E+03 0.157E+04   -.124E+01 -.732E+00 -.585E-01   0.145E-01 0.155E-01 0.123E-02
   0.110E+02 -.343E+03 0.789E+03   -.114E+02 0.349E+03 -.787E+03   0.115E+01 -.363E+01 0.615E-01   0.593E-01 -.879E-04 -.191E-01
   -.177E+02 -.139E+03 -.446E+03   0.175E+02 0.142E+03 0.447E+03   0.234E-01 -.265E+01 -.712E+00   0.167E-01 0.222E-01 -.657E-01
   -.643E+02 -.138E+03 -.169E+04   0.647E+02 0.141E+03 0.170E+04   -.110E+00 -.208E+01 -.238E+01   -.165E-01 0.922E-03 0.447E-01
   -.123E+03 -.238E+03 0.170E+04   0.123E+03 0.242E+03 -.171E+04   0.887E-01 -.215E+01 0.287E+01   0.293E-01 -.345E-01 0.742E-02
   -.114E+02 -.182E+03 0.316E+03   0.108E+02 0.184E+03 -.316E+03   0.719E+00 -.264E+01 0.383E+00   -.418E-02 -.337E-01 -.112E-01
   0.378E+02 -.179E+03 -.961E+03   -.380E+02 0.182E+03 0.960E+03   0.370E-02 -.322E+01 0.314E+00   -.328E-01 0.715E-02 -.560E-01
   0.431E+02 -.621E+02 -.222E+04   -.442E+02 0.623E+02 0.223E+04   0.175E+01 0.314E+00 -.162E+01   -.342E-01 -.104E-01 0.335E-01
   0.443E+02 0.753E+02 0.134E+04   -.454E+02 -.740E+02 -.134E+04   0.762E+00 -.152E+01 0.220E+01   -.159E-01 -.683E-02 -.207E-01
   0.192E+02 -.144E+03 -.738E+02   -.197E+02 0.146E+03 0.746E+02   0.516E+00 -.260E+01 -.101E+01   -.361E-03 0.987E-02 0.673E-02
   -.779E+02 -.174E+03 -.141E+04   0.780E+02 0.177E+03 0.141E+04   0.513E+00 -.205E+01 -.222E+01   0.311E-01 0.168E-01 0.994E-02
   0.116E+03 0.242E+03 0.226E+04   -.117E+03 -.244E+03 -.226E+04   0.601E+00 0.127E+01 0.760E+00   -.150E-01 0.152E-01 -.324E-01
   -.966E+02 -.205E+03 0.224E+04   0.976E+02 0.208E+03 -.225E+04   -.567E+00 -.992E+00 0.276E+01   0.196E-01 0.809E-02 -.444E-01
   0.128E+03 0.294E+03 0.145E+04   -.130E+03 -.299E+03 -.145E+04   0.995E+00 0.226E+01 0.348E+01   0.323E-01 -.824E-02 -.177E-01
   0.143E+03 0.113E+03 -.797E+01   -.145E+03 -.114E+03 0.832E+01   0.217E+01 0.150E+01 0.168E+00   0.163E-01 -.242E-01 -.294E-01
   0.173E+03 0.194E+03 -.122E+04   -.175E+03 -.196E+03 0.122E+04   0.148E+01 0.877E+00 -.132E+01   -.867E-02 -.220E-01 0.120E-01
   -.529E+02 0.224E+03 -.231E+04   0.529E+02 -.225E+03 0.232E+04   0.227E+00 0.329E+00 -.241E+01   -.589E-01 0.948E-03 0.691E-01
   0.133E+03 0.563E+02 -.430E+03   -.135E+03 -.570E+02 0.430E+03   0.226E+01 0.742E+00 -.208E+00   0.543E-02 0.344E-01 -.354E-02
   0.127E+03 0.132E+02 -.169E+04   -.128E+03 -.140E+02 0.170E+04   -.983E-01 0.443E-01 -.299E+00   0.342E-01 0.210E-01 -.142E-03
   0.193E+03 -.634E+02 0.227E+04   -.196E+03 0.625E+02 -.227E+04   0.159E+01 0.480E+00 0.259E+01   0.166E-01 -.325E-01 0.810E-02
   0.189E+02 0.467E+02 0.666E+03   -.187E+02 -.488E+02 -.664E+03   0.412E+00 0.185E+01 -.603E+00   -.489E-01 0.435E-01 -.106E-01
   0.143E+02 0.115E+03 0.183E+04   -.144E+02 -.115E+03 -.183E+04   0.108E+00 -.956E+00 0.237E+01   -.269E-01 -.249E-01 -.129E-01
   0.208E+03 0.641E+02 0.413E+03   -.210E+03 -.654E+02 -.413E+03   0.163E+01 0.612E+00 0.200E+01   -.365E-01 -.232E-01 -.168E-01
   0.199E+03 0.315E+02 -.736E+03   -.202E+03 -.317E+02 0.734E+03   0.240E+01 -.756E+00 0.133E-02   -.182E-02 0.787E-02 -.427E-01
   0.104E+02 -.175E+03 -.230E+04   -.118E+02 0.176E+03 0.231E+04   0.110E+01 -.151E+00 -.248E+01   0.436E-01 0.196E-01 0.623E-01
 -----------------------------------------------------------------------------------------------
   -.108E+02 0.226E+02 -.368E+02   -.359E-12 -.111E-11 0.227E-11   0.107E+02 -.227E+02 0.377E+02   0.271E-01 0.142E+00 -.889E+00
 
 
 POSITION                                       TOTAL-FORCE (eV/Angst)
 -----------------------------------------------------------------------------------
      6.07781      6.86412      3.16095         0.311034     -0.003113      0.008786
      7.43572      5.66537      4.57627         0.940972     -0.791036      1.084634
      8.41343      4.24907      7.20177        -0.003334     -0.089713      0.251996
      9.09418      3.10408      9.48085        -1.805610      0.749999      0.779027
      6.38748      1.70126      1.52539         0.781011     -0.248800     -0.841741
      7.76163      0.32617      2.82594         0.804988     -0.919109      2.563307
      3.21062      6.91868      8.07694        -1.019628      0.845805     -1.053486
     12.31264      8.33497      5.45144         0.076488      0.147803      0.168961
      2.55881      2.99577      3.70110         0.988429     -0.395122      2.760732
      3.53652      1.57947      6.32660         0.458330     -0.085242     -0.100376
      4.38201      0.31047      8.67106         0.263550      0.616738      0.941932
     11.28896      4.23568      2.35843         0.329634     -0.167478     -0.605045
      0.51382      1.09100      8.43993        -0.778937     -1.261056     -1.890541
      7.94099      6.23718      1.86428         0.505284      0.200045     -1.192614
      8.63813      3.92359      3.18892         0.042752     -0.283035      0.613239
      9.61584      2.50729      5.81443        -0.062461     -0.237112     -0.262520
      3.43531      6.59319      4.06409        -0.160159     -0.279666      0.380155
      4.41302      5.17689      6.68959        -0.110851      0.313759     -1.702170
      5.00571      3.92012      8.66340         0.659955     -0.561477      1.201969
     12.53733      8.00949      1.43859        -1.386813      0.399437      1.418895
      3.83815      1.21891      2.67339        -1.223178     -0.872863     -0.656877
      8.31222      9.26279      4.93926        -0.078459     -0.268643      0.069043
      9.28993      7.84650      7.56476        -0.445479      0.399672     -2.232492
     10.17950      6.63091      9.40081         0.111780     -0.487559      0.884933
      1.62983      3.23576      8.91645         1.736417      1.837445      0.398618
     10.04437      7.53947      2.02230        -0.838798     -0.252912     -0.401318
      9.84053      6.03956      3.88260         0.265487     -0.357924      0.730197
     10.81824      4.62327      6.50810         0.057248      0.091279     -0.039104
     10.16643      0.70036      2.13226         0.022037      0.809696      2.197920
      4.63771      8.70917      4.75776        -0.075197      0.062225      0.150172
      5.61542      7.29287      7.38327         0.395635      0.825480     -2.206797
      7.46444      6.70644      8.77774        -0.674083     -0.523766      0.405469
      4.39135      6.19769      1.48853         0.680335     -0.657064     -0.006742
      4.96362      3.36996      3.00743         0.268744      0.810149      1.421686
      5.94133      1.95367      5.63293         0.060448      0.042961      0.105865
      6.90828      0.62846      7.98055         0.663230      0.870047      1.104020
      1.57981      2.47018      7.00134        -0.543919     -0.046858     -2.824853
      2.56099      1.26244      9.02391         0.448405     -0.837628      2.018024
      9.70412      5.30277      1.75033         1.418045      0.100821     -2.478939
     10.68183      3.88647      4.37584        -0.223626     -0.007239      1.277092
      4.50130      7.97237      2.62550        -1.877215      2.845574      0.746441
      5.47901      6.55607      5.25100        -0.055597     -0.023195      0.604532
      6.45673      5.13978      7.87651         0.978484     -1.276067     -0.440070
     13.50038      9.38404      0.30442         0.837698      0.710196     -3.790203
      4.54032      2.47114      1.20629        -0.753825      0.748682     -3.888436
      5.80492      1.21687      3.50067         0.405695      0.046831      1.846282
     10.35593      9.22568      6.12617        -0.496584     -0.301685     -2.596440
     11.32437      8.00430      8.37737         1.338406     -0.059682      1.628327
      8.17302      7.52069      3.51693         0.818418      1.968522      1.315673
      9.15074      6.10439      6.14243        -0.212180     -0.232636     -0.449887
     10.12845      4.68809      8.76794         0.308765      1.247179     -0.352750
      8.46031      2.13199      2.03129         0.494379      1.923007     -1.574419
      9.47664      0.76519      4.39210         0.122681     -0.159132      0.400160
      3.94792      8.77399      7.01760        -0.172734      0.089180     -0.140862
      4.93053      6.94793      9.23277         0.589326      0.466981      3.743548
      3.29611      4.85108      2.64176        -0.398229     -0.207262      0.727602
      4.27382      3.43479      5.26727         0.050824      0.082115     -0.254482
      5.25153      2.01849      7.89277         0.655105      1.112081     -0.541748
      2.91832      6.52635      0.16330        -0.944366     -1.269532     -2.880458
      6.24726      6.92503      0.95032         0.462095      1.327188     -2.878532
      6.64193      4.82628      2.63363        -1.167464     -2.704215      0.708729
      7.61964      3.40999      5.25914         0.103283      0.207135      0.484528
      8.59735      1.99369      7.88464        -0.941686     -1.202772     -1.148621
     10.61374      2.06633     10.26643         0.168189     -0.878484      4.205372
      2.41682      6.07959      6.13430        -0.290602      0.084177     -0.912462
      3.17669      4.78606      8.42456        -0.743138     -0.717970      1.938933
     10.70897      9.17395      0.94496        -1.284166     -0.512961     -2.957990
     11.51884      7.49589      3.50880         0.543361     -0.248767      1.205892
      1.65754      2.13654      2.06894        -0.042100     -1.265237     -2.225182
      2.74272      0.74039      4.38397        -0.659066     -0.634043      1.668926
      7.29374      8.74919      7.00947        -0.413729     -1.021440     -2.038396
      8.72879      8.05878      9.63471        -0.283734      0.367285      3.404934
 -----------------------------------------------------------------------------------
    total drift:                               -0.009678      0.069215     -0.028362


--------------------------------------------------------------------------------------------------------



  FREE ENERGIE OF THE ION-ELECTRON SYSTEM (eV)
  ---------------------------------------------------
  free  energy   TOTEN  =      -349.09459725 eV

  energy  without entropy=     -348.13523346  energy(sigma->0) =     -348.61491535
 


--------------------------------------------------------------------------------------------------------


    POTLOK:  cpu time    0.2686: real time    0.2689


--------------------------------------------------------------------------------------------------------


     LOOP+:  cpu time  263.3491: real time  263.4066
    4ORBIT:  cpu time    0.0000: real time    0.0000

 total amount of memory used by VASP MPI-rank0    68344. kBytes
=======================================================================

   base      :      30000. kBytes
   nonlr-proj:       2305. kBytes
   fftplans  :       8265. kBytes
   grid      :      13942. kBytes
   one-center:         93. kBytes
   wavefun   :      13739. kBytes
 
  
  
 General timing and accounting informations for this job:
 ========================================================
  
                  Total CPU time used (sec):      266.037
                            User time (sec):      265.616
                          System time (sec):        0.421
                         Elapsed time (sec):      266.333
  
                   Maximum memory used (kb):      187244.
                   Average memory used (kb):           0.
  
                          Minor page faults:       129303
                          Major page faults:            0
                 Voluntary context switches:          201
