LAMMPS data file via write_data, version 5 Jun 2019, timestep = 47

72 atoms
2 atom types

0.0000000000000000e+00 1.6884694054200001e+01 xlo xhi
0.0000000000000000e+00 9.5784099999999999e+00 ylo yhi
0.0000000000000000e+00 1.6169087119699999e+01 zlo zhi
0.0000000000000000e+00 0.0000000000000000e+00 0.0000000000000000e+00 xy xz yz

Masses

1 58.71
2 32.06

Atoms # atomic

1 1 1.3170843241800000e+01 1.3917137972000000e+00 1.9497492409999999e+00 0 0 0
2 1 1.3542535168686902e+01 1.4080510225367902e+00 4.6203526049386552e+00 0 0 0
3 1 3.6106315081951079e+00 6.4619865587355729e+00 1.5456682103784500e+00 0 0 0
4 1 5.0203308952999999e+00 6.1809187972000021e+00 3.4920210102000002e+00 0 0 0
5 1 6.5221319767985895e+00 1.5939616408208128e+00 2.0449779147829412e+00 0 0 0
6 1 7.9317248034999999e+00 1.3917137972000000e+00 4.0061116054000001e+00 0 0 0
7 1 1.6082237150000001e+01 6.1809187972000021e+00 2.4638398361000018e+00 0 0 0
8 1 1.6335471342809811e+01 6.1791871431333334e+00 5.0752477387406350e+00 0 0 0
9 1 2.1089370039999999e+00 1.3917137972000000e+00 2.9779304312999999e+00 0 0 0
10 1 1.7028512823739446e+00 1.3902080580949920e+00 5.2657542131840938e+00 0 0 0
11 1 9.7615628377759087e+00 6.1791519100278647e+00 2.4358341586704744e+00 0 0 0
12 1 1.0843118711600001e+01 6.1809187972000021e+00 4.5202022005000000e+00 0 0 0
13 1 1.5352615535863132e+01 7.6642536783521564e-02 1.8827537233548086e+00 0 0 0
14 1 1.5943534686379936e+01 1.2109127311233729e-01 4.3915886611358781e+00 0 0 0
15 1 6.9923961291897188e+00 3.8725774070926158e+00 9.6793525868399910e-01 0 0 0
16 1 7.1737451720000003e+00 4.9155821009000009e+00 3.0845435547000002e+00 0 0 0
17 1 1.0546292837821824e+01 9.0127067586305785e+00 1.3691944650727785e+00 0 -1 0
18 1 1.0085139063300000e+01 1.2637710090000001e-01 3.5986341498000001e+00 0 0 0
19 1 1.3509573556000001e+00 4.9155821009000009e+00 2.0563623806000000e+00 0 0 0
20 1 1.9032094518385685e+00 4.8010821403201351e+00 4.7088145300298558e+00 0 0 0
21 1 4.2623512638000003e+00 1.2637710090000001e-01 2.5704529594999999e+00 0 0 0
22 1 4.9887835547358099e+00 9.1743704653612248e+00 4.7963474980781893e+00 0 -1 0
23 1 1.2996532971500001e+01 4.9155821009000009e+00 4.1127247450000004e+00 0 0 0
24 1 1.5424058690637203e+01 2.7403654705740017e+00 1.9457827803229684e+00 0 0 0
25 1 1.5914620567064961e+01 2.6675965240545016e+00 4.3998693375806210e+00 0 0 0
26 1 6.0422278771159164e+00 6.1869972799073114e+00 9.4528595968981710e-01 0 0 0
27 1 7.1737451720000003e+00 7.4462554934000007e+00 3.0845435547000002e+00 0 0 0
28 1 8.2494231561420168e+00 8.0544380913421687e+00 5.0762072981393489e+00 0 0 0
29 1 8.9394655700642556e+00 1.3842234548878181e+00 1.4285462509671936e+00 0 0 0
30 1 1.0085139063300000e+01 2.6570504934000008e+00 3.5986341498000001e+00 0 0 0
31 1 1.3509573556000001e+00 7.4462554934000007e+00 2.0563623806000000e+00 0 0 0
32 1 1.9075250815676152e+00 7.5634626605172555e+00 4.7045557432265612e+00 0 0 0
33 1 4.2623512638000003e+00 2.6570504934000008e+00 2.5704529594999999e+00 0 0 0
34 1 4.9355173396563918e+00 3.0711663112641765e+00 4.9072601199206058e+00 0 0 0
35 1 1.2979923471486588e+01 8.3084303507531700e+00 1.8973350375337765e+00 0 0 0
36 1 1.2996532971500001e+01 7.4462554934000007e+00 4.1127247450000004e+00 0 0 0
37 2 1.6656380389673181e+01 1.3977264224652317e+00 5.8422750064195448e+00 -1 0 0
38 2 1.6740519129900001e+01 1.3917137972000000e+00 2.9493983954999998e+00 0 0 0
39 2 8.0063374054000001e+00 6.1809187972000021e+00 1.4071266099999999e+00 0 0 0
40 2 8.6440542524262138e+00 6.1990186906183666e+00 4.2099116964502530e+00 0 0 0
41 2 1.0917731313499999e+01 1.3917137972000000e+00 1.9212172052000009e+00 0 0 0
42 2 1.1476570519784401e+01 1.4360710995227315e+00 4.5817774840954000e+00 0 0 0
43 2 1.8780342861177597e+00 6.1780668371701548e+00 5.1943675912280773e-01 0 0 0
44 2 2.7672189669999998e+00 6.1809187972000021e+00 3.4634889906000002e+00 0 0 0
45 2 4.7661596635340109e+00 1.3937567621069671e+00 1.0145913152333836e+00 0 0 0
46 2 5.6786128752000007e+00 1.3917137972000000e+00 3.9775795857000000e+00 0 0 0
47 2 1.3885478596165196e+01 6.4188376340418465e+00 2.5176964505202259e+00 0 0 0
48 2 1.4285808132975372e+01 6.1530148418777051e+00 5.1768278664520659e+00 0 0 0
49 2 1.3923887479415642e+01 2.6983525020901098e+00 6.1437515175306501e-01 0 0 0
50 2 1.3998442265900000e+01 3.0029460353000008e+00 3.4682648862000018e+00 0 0 0
51 2 5.2642605413999997e+00 7.7921510352999999e+00 1.9259931169000000e+00 0 0 0
52 2 6.1956026237561019e+00 7.5530133388032166e+00 4.9145573560104978e+00 0 0 0
53 2 8.1756544495999997e+00 3.0029460353000008e+00 2.4400837120999999e+00 0 0 0
54 2 8.7510340879156345e+00 2.9311663742915717e+00 5.0952202028558240e+00 0 0 0
55 2 2.5142103000000002e-02 7.7921510352999999e+00 3.9823554812999999e+00 0 0 0
56 2 1.6333724874988278e+01 7.8874583597249464e+00 1.2960918993437911e+00 0 0 0
57 2 2.3583298103971679e+00 3.0846792861894117e+00 1.7853811792331193e+00 0 0 0
58 2 2.9365360111999999e+00 3.0029460353000008e+00 4.4964460765000034e+00 0 0 0
59 2 1.1087048357700001e+01 7.7921510352999999e+00 2.9541742911000002e+00 0 0 0
60 2 1.1712630177212942e+01 7.6103289307097226e+00 5.6777958674046252e+00 0 0 0
61 2 5.2642605413999997e+00 4.5696865590000000e+00 1.9259931169000000e+00 0 0 0
62 2 5.9432428694330994e+00 4.8026583076450207e+00 4.7610643250341633e+00 0 0 0
63 2 1.3791032072427507e+01 9.5774453338101448e+00 5.3398290073440957e-01 0 0 0
64 2 1.3998442265900000e+01 9.3588915589999999e+00 3.4682648862000018e+00 0 0 0
65 2 2.5142103000000002e-02 4.5696865590000000e+00 3.9823554812999999e+00 0 0 0
66 2 1.6341793832199986e+01 4.5019740870330720e+00 1.2866982830392732e+00 0 0 0
67 2 8.1756544495999997e+00 9.3588915589999999e+00 2.4400837120999999e+00 0 0 0
68 2 9.0273352544223133e+00 2.8374561510294477e-01 5.3927181140772200e+00 0 1 0
69 2 1.1040511002438452e+01 4.5948344398032006e+00 3.1543124550691615e+00 0 0 0
70 2 1.1799174320529563e+01 4.8446043597760644e+00 5.7203284816896103e+00 0 0 0
71 2 2.3784203302945035e+00 9.2619184429528598e+00 1.7745062077308305e+00 0 0 0
72 2 2.9365360111999999e+00 9.3588915589999999e+00 4.4964460765000034e+00 0 0 0

Velocities

1 0.0000000000000000e+00 0.0000000000000000e+00 0.0000000000000000e+00
2 0.0000000000000000e+00 0.0000000000000000e+00 0.0000000000000000e+00
3 0.0000000000000000e+00 0.0000000000000000e+00 0.0000000000000000e+00
4 0.0000000000000000e+00 0.0000000000000000e+00 0.0000000000000000e+00
5 0.0000000000000000e+00 0.0000000000000000e+00 0.0000000000000000e+00
6 0.0000000000000000e+00 0.0000000000000000e+00 0.0000000000000000e+00
7 0.0000000000000000e+00 0.0000000000000000e+00 0.0000000000000000e+00
8 0.0000000000000000e+00 0.0000000000000000e+00 0.0000000000000000e+00
9 0.0000000000000000e+00 0.0000000000000000e+00 0.0000000000000000e+00
10 0.0000000000000000e+00 0.0000000000000000e+00 0.0000000000000000e+00
11 0.0000000000000000e+00 0.0000000000000000e+00 0.0000000000000000e+00
12 0.0000000000000000e+00 0.0000000000000000e+00 0.0000000000000000e+00
13 0.0000000000000000e+00 0.0000000000000000e+00 0.0000000000000000e+00
14 0.0000000000000000e+00 0.0000000000000000e+00 0.0000000000000000e+00
15 0.0000000000000000e+00 0.0000000000000000e+00 0.0000000000000000e+00
16 0.0000000000000000e+00 0.0000000000000000e+00 0.0000000000000000e+00
17 0.0000000000000000e+00 0.0000000000000000e+00 0.0000000000000000e+00
18 0.0000000000000000e+00 0.0000000000000000e+00 0.0000000000000000e+00
19 0.0000000000000000e+00 0.0000000000000000e+00 0.0000000000000000e+00
20 0.0000000000000000e+00 0.0000000000000000e+00 0.0000000000000000e+00
21 0.0000000000000000e+00 0.0000000000000000e+00 0.0000000000000000e+00
22 0.0000000000000000e+00 0.0000000000000000e+00 0.0000000000000000e+00
23 0.0000000000000000e+00 0.0000000000000000e+00 0.0000000000000000e+00
24 0.0000000000000000e+00 0.0000000000000000e+00 0.0000000000000000e+00
25 0.0000000000000000e+00 0.0000000000000000e+00 0.0000000000000000e+00
26 0.0000000000000000e+00 0.0000000000000000e+00 0.0000000000000000e+00
27 0.0000000000000000e+00 0.0000000000000000e+00 0.0000000000000000e+00
28 0.0000000000000000e+00 0.0000000000000000e+00 0.0000000000000000e+00
29 0.0000000000000000e+00 0.0000000000000000e+00 0.0000000000000000e+00
30 0.0000000000000000e+00 0.0000000000000000e+00 0.0000000000000000e+00
31 0.0000000000000000e+00 0.0000000000000000e+00 0.0000000000000000e+00
32 0.0000000000000000e+00 0.0000000000000000e+00 0.0000000000000000e+00
33 0.0000000000000000e+00 0.0000000000000000e+00 0.0000000000000000e+00
34 0.0000000000000000e+00 0.0000000000000000e+00 0.0000000000000000e+00
35 0.0000000000000000e+00 0.0000000000000000e+00 0.0000000000000000e+00
36 0.0000000000000000e+00 0.0000000000000000e+00 0.0000000000000000e+00
37 0.0000000000000000e+00 0.0000000000000000e+00 0.0000000000000000e+00
38 0.0000000000000000e+00 0.0000000000000000e+00 0.0000000000000000e+00
39 0.0000000000000000e+00 0.0000000000000000e+00 0.0000000000000000e+00
40 0.0000000000000000e+00 0.0000000000000000e+00 0.0000000000000000e+00
41 0.0000000000000000e+00 0.0000000000000000e+00 0.0000000000000000e+00
42 0.0000000000000000e+00 0.0000000000000000e+00 0.0000000000000000e+00
43 0.0000000000000000e+00 0.0000000000000000e+00 0.0000000000000000e+00
44 0.0000000000000000e+00 0.0000000000000000e+00 0.0000000000000000e+00
45 0.0000000000000000e+00 0.0000000000000000e+00 0.0000000000000000e+00
46 0.0000000000000000e+00 0.0000000000000000e+00 0.0000000000000000e+00
47 0.0000000000000000e+00 0.0000000000000000e+00 0.0000000000000000e+00
48 0.0000000000000000e+00 0.0000000000000000e+00 0.0000000000000000e+00
49 0.0000000000000000e+00 0.0000000000000000e+00 0.0000000000000000e+00
50 0.0000000000000000e+00 0.0000000000000000e+00 0.0000000000000000e+00
51 0.0000000000000000e+00 0.0000000000000000e+00 0.0000000000000000e+00
52 0.0000000000000000e+00 0.0000000000000000e+00 0.0000000000000000e+00
53 0.0000000000000000e+00 0.0000000000000000e+00 0.0000000000000000e+00
54 0.0000000000000000e+00 0.0000000000000000e+00 0.0000000000000000e+00
55 0.0000000000000000e+00 0.0000000000000000e+00 0.0000000000000000e+00
56 0.0000000000000000e+00 0.0000000000000000e+00 0.0000000000000000e+00
57 0.0000000000000000e+00 0.0000000000000000e+00 0.0000000000000000e+00
58 0.0000000000000000e+00 0.0000000000000000e+00 0.0000000000000000e+00
59 0.0000000000000000e+00 0.0000000000000000e+00 0.0000000000000000e+00
60 0.0000000000000000e+00 0.0000000000000000e+00 0.0000000000000000e+00
61 0.0000000000000000e+00 0.0000000000000000e+00 0.0000000000000000e+00
62 0.0000000000000000e+00 0.0000000000000000e+00 0.0000000000000000e+00
63 0.0000000000000000e+00 0.0000000000000000e+00 0.0000000000000000e+00
64 0.0000000000000000e+00 0.0000000000000000e+00 0.0000000000000000e+00
65 0.0000000000000000e+00 0.0000000000000000e+00 0.0000000000000000e+00
66 0.0000000000000000e+00 0.0000000000000000e+00 0.0000000000000000e+00
67 0.0000000000000000e+00 0.0000000000000000e+00 0.0000000000000000e+00
68 0.0000000000000000e+00 0.0000000000000000e+00 0.0000000000000000e+00
69 0.0000000000000000e+00 0.0000000000000000e+00 0.0000000000000000e+00
70 0.0000000000000000e+00 0.0000000000000000e+00 0.0000000000000000e+00
71 0.0000000000000000e+00 0.0000000000000000e+00 0.0000000000000000e+00
72 0.0000000000000000e+00 0.0000000000000000e+00 0.0000000000000000e+00
