
72 atoms
2 atom types
   0.0000000000   11.8257374458 xlo xhi
   0.0000000000   11.2351097481 ylo yhi
   0.0000000000   16.6389692597 zlo zhi
   3.6905792348    0.0000000000    0.0000000000 xy xz yz

Atoms # atomic

     1      1    5.7304548271    2.1775614453    1.3226758096
     2      1    0.9287309903    0.6430082842    3.8257904648
     3      1    3.8851652730    4.7260098286    6.3289051032
     4      1    1.8673382022    1.5042460931    0.0000000000
     5      1    4.8237724848    5.5872476374    2.5031146551
     6      1    5.9349171936    4.0526944763    5.0062292936
     7      1    1.8673382019    3.6617531035    1.3226758096
     8      1    2.9784829225    2.1271999423    3.8257904648
     9      1    4.0896276313    0.5926467812    6.3289051032
    10      1   11.6433235500    2.1775614453    1.3226758096
    11      1    6.8415997132    0.6430082842    3.8257904648
    12      1    9.7980339959    4.7260098286    6.3289051032
    13      1    7.7802069251    1.5042460931    0.0000000000
    14      1   10.7366412077    5.5872476374    2.5031146551
    15      1   11.8477859165    4.0526944763    5.0062292936
    16      1    7.7802069248    3.6617531035    1.3226758096
    17      1    8.8913516454    2.1271999423    3.8257904648
    18      1   10.0024963542    0.5926467812    6.3289051032
    19      1    7.5757444445    7.7951163194    1.3226758096
    20      1    2.7740206077    6.2605631582    3.8257904648
    21      1    5.7304548904   10.3435647026    6.3289051032
    22      1    3.7126278196    7.1218009671    0.0000000000
    23      1    6.6690621022   11.2048025115    2.5031146551
    24      1    7.7802068110    9.6702493503    5.0062292936
    25      1    3.7126278193    9.2793079775    1.3226758096
    26      1    4.8237725399    7.7447548163    3.8257904648
    27      1    5.9349172487    6.2102016552    6.3289051032
    28      1   13.4886131674    7.7951163194    1.3226758096
    29      1    8.6868893306    6.2605631582    3.8257904648
    30      1   11.6433236133   10.3435647026    6.3289051032
    31      1    9.6254965425    7.1218009671    0.0000000000
    32      1   12.5819308252   11.2048025115    2.5031146551
    33      1   13.6930755339    9.6702493503    5.0062292936
    34      1    9.6254965423    9.2793079775    1.3226758096
    35      1   10.7366412629    7.7447548163    3.8257904648
    36      1   11.8477859716    6.2102016552    6.3289051032
    37      2    1.6614174169    4.5359226809    6.6389692671
    38      2    3.5067069710    1.9874742977    1.6327399735
    39      2    4.6178516798    0.4529211366    4.1358546120
    40      2    5.6983536715    4.3794019516    0.8138710382
    41      2    6.8094983921    2.8448487905    3.3169856933
    42      2    2.0077745516    1.3102956181    5.8201003318
    43      2    0.8966298382    0.0975603676    1.6327399735
    44      2    3.8530641090    4.1805619120    4.1358546120
    45      2    4.9642088296    2.6460087508    6.6389692671
    46      2    7.5742861399    4.5359226809    6.6389692671
    47      2    9.4195756940    1.9874742977    1.6327399735
    48      2   10.5307204027    0.4529211366    4.1358546120
    49      2   11.6112223944    4.3794019516    0.8138710382
    50      2   12.7223671150    2.8448487905    3.3169856933
    51      2    7.9206432746    1.3102956181    5.8201003318
    52      2    6.8094985611    0.0975603676    1.6327399735
    53      2    9.7659328319    4.1805619120    4.1358546120
    54      2   10.8770775525    2.6460087508    6.6389692671
    55      2    3.5067070344   10.1534775550    6.6389692671
    56      2    5.3519965885    7.6050291717    1.6327399735
    57      2    6.4631412972    6.0704760106    4.1358546120
    58      2    7.5436432889    9.9969568257    0.8138710382
    59      2    8.6547880095    8.4624036645    3.3169856933
    60      2    3.8530641690    6.9278504921    5.8201003318
    61      2    2.7419194556    5.7151152416    1.6327399735
    62      2    5.6983537264    9.7981167860    4.1358546120
    63      2    6.8094984470    8.2635636249    6.6389692671
    64      2    9.4195757573   10.1534775550    6.6389692671
    65      2   11.2648653114    7.6050291717    1.6327399735
    66      2   12.3760100202    6.0704760106    4.1358546120
    67      2   13.4565120118    9.9969568257    0.8138710382
    68      2   14.5676567324    8.4624036645    3.3169856933
    69      2    9.7659328920    6.9278504921    5.8201003318
    70      2    8.6547881785    5.7151152416    1.6327399735
    71      2   11.6112224493    9.7981167860    4.1358546120
    72      2   12.7223671699    8.2635636249    6.6389692671
