
52 atoms
2 atom types
   0.0000000000   11.2564630382 xlo xhi
   0.0000000000    9.5784100000 ylo yhi
   0.0000000000   17.1924924047 zlo zhi
   0.0000000000    0.0000000000    0.0000000000 xy xz yz

Atoms # atomic

     1      1    4.9453580763    4.4433094293    2.7995183711
     2      1    5.5290274549    4.4433094293    5.8840619275
     3      1    1.8394077063    9.2325144293    1.2572465844
     4      1    2.4230770848    9.2325144293    4.3417901407
     5      1    4.9453580763    1.9126360369    2.7995183711
     6      1    5.5290274549    1.9126360369    5.8840619275
     7      1    1.8394077063    6.7018410369    1.2572465844
     8      1    2.4230770848    6.7018410369    4.3417901407
     9      1    1.4705409881    3.1779727331    2.3920409139
    10      1    2.0542103667    3.1779727331    5.4765844702
    11      1    3.9928219684    7.9671777331    0.8497691271
    12      1    4.5764913469    7.9671777331    3.9343126834
    13      1    5.1601607367    7.9671777331    7.0188562569
    14      1   10.5735895954    4.4433094293    2.7995183711
    15      1   11.1572589740    4.4433094293    5.8840619275
    16      1    7.4676392254    9.2325144293    1.2572465844
    17      1    8.0513086039    9.2325144293    4.3417901407
    18      1   10.5735895954    1.9126360369    2.7995183711
    19      1   11.1572589740    1.9126360369    5.8840619275
    20      1    7.4676392254    6.7018410369    1.2572465844
    21      1    8.0513086039    6.7018410369    4.3417901407
    22      1    7.0987725072    3.1779727331    2.3920409139
    23      1    7.6824418858    3.1779727331    5.4765844702
    24      1    9.6210534875    7.9671777331    0.8497691271
    25      1   10.2047228660    7.9671777331    3.9343126834
    26      1   10.7883922558    7.9671777331    7.0188562569
    27      2    1.2549722354    1.5667404950    4.1079488450
    28      2    3.7772532156    6.3559454950    2.5656770583
    29      2    0.6713028456    4.7892049713    1.0234052887
    30      2    1.2549722354    4.7892049713    4.1079488450
    31      2    1.8386416139    4.7892049713    7.1924924013
    32      2    3.7772532156   -0.0000000287    2.5656770583
    33      2    3.5574573346    3.1779727331    1.5422717868
    34      2    4.1411267131    3.1779727331    4.6268153431
    35      2    0.4515069758    7.9671777331    0.0000000000
    36      2    1.0351763544    7.9671777331    3.0845435563
    37      2    1.6188457329    7.9671777331    6.1690871126
    38      2    6.2995343647    1.5667404950    1.0234052887
    39      2    6.8832037545    1.5667404950    4.1079488450
    40      2    7.4668731330    1.5667404950    7.1924924013
    41      2    9.4054847347    6.3559454950    2.5656770583
    42      2    9.9891541133    6.3559454950    5.6502206318
    43      2    6.2995343647    4.7892049713    1.0234052887
    44      2    6.8832037545    4.7892049713    4.1079488450
    45      2    7.4668731330    4.7892049713    7.1924924013
    46      2    9.4054847347   -0.0000000287    2.5656770583
    47      2    9.9891541133   -0.0000000287    5.6502206318
    48      2    9.1856888537    3.1779727331    1.5422717868
    49      2    9.7693582322    3.1779727331    4.6268153431
    50      2    6.0797384949    7.9671777331    0.0000000000
    51      2    6.6634078735    7.9671777331    3.0845435563
    52      2    7.2470772520    7.9671777331    6.1690871126
