       N       E                     dE             d eps       ncg     rms          rms(c)
DAV:   1     0.649485191381E+04    0.64949E+04   -0.36644E+05   848   0.154E+03
DAV:   2     0.352664687002E+03   -0.61422E+04   -0.59290E+04   736   0.493E+02
DAV:   3    -0.248553938084E+03   -0.60122E+03   -0.57906E+03   792   0.165E+02
DAV:   4    -0.279623582322E+03   -0.31070E+02   -0.30761E+02   792   0.358E+01
DAV:   5    -0.280838135549E+03   -0.12146E+01   -0.12130E+01   880   0.736E+00    0.862E+01
DAV:   6    -0.320729636623E+03   -0.39892E+02   -0.66397E+02   880   0.122E+02    0.127E+02
DAV:   7    -0.253842521864E+03    0.66887E+02   -0.14542E+02   776   0.765E+01    0.515E+01
DAV:   8    -0.300872517867E+03   -0.47030E+02   -0.17567E+02   952   0.858E+01    0.109E+02
DAV:   9    -0.258853439555E+03    0.42019E+02   -0.80610E+01   880   0.496E+01    0.407E+01
DAV:  10    -0.268236196433E+03   -0.93828E+01   -0.46877E+01   952   0.491E+01    0.691E+01
DAV:  11    -0.253976963462E+03    0.14259E+02   -0.31696E+01   928   0.356E+01    0.283E+01
DAV:  12    -0.251525219024E+03    0.24517E+01   -0.11685E+01   928   0.259E+01    0.241E+01
DAV:  13    -0.249015673195E+03    0.25095E+01   -0.68286E+00   920   0.196E+01    0.181E+01
DAV:  14    -0.247970691137E+03    0.10450E+01   -0.25054E+00   952   0.119E+01    0.139E+01
DAV:  15    -0.247663817371E+03    0.30687E+00   -0.11453E+00   952   0.774E+00    0.121E+01
DAV:  16    -0.247302916774E+03    0.36090E+00   -0.48036E-01   936   0.531E+00    0.105E+01
DAV:  17    -0.247071307670E+03    0.23161E+00   -0.26488E-01   944   0.378E+00    0.960E+00
DAV:  18    -0.246710568123E+03    0.36074E+00   -0.25831E-01   944   0.450E+00    0.747E+00
DAV:  19    -0.246433916092E+03    0.27665E+00   -0.31297E-01   944   0.408E+00    0.451E+00
DAV:  20    -0.246343124017E+03    0.90792E-01   -0.19657E-01   952   0.327E+00    0.305E+00
DAV:  21    -0.246319828568E+03    0.23295E-01   -0.10175E-01   888   0.213E+00    0.199E+00
DAV:  22    -0.246314006331E+03    0.58222E-02   -0.39736E-02   760   0.116E+00    0.173E+00
DAV:  23    -0.246312105372E+03    0.19010E-02   -0.31261E-02   848   0.146E+00    0.156E+00
DAV:  24    -0.246310279010E+03    0.18264E-02   -0.37521E-02   952   0.156E+00    0.147E+00
DAV:  25    -0.246302596857E+03    0.76822E-02   -0.24958E-02   952   0.135E+00    0.104E+00
DAV:  26    -0.246298898333E+03    0.36985E-02   -0.10658E-02   944   0.743E-01    0.568E-01
DAV:  27    -0.246297767612E+03    0.11307E-02   -0.45488E-03   952   0.540E-01    0.287E-01
DAV:  28    -0.246298370512E+03   -0.60290E-03   -0.24676E-03   872   0.384E-01    0.371E-01
DAV:  29    -0.246298079360E+03    0.29115E-03   -0.12298E-03   776   0.301E-01    0.220E-01
DAV:  30    -0.246298374653E+03   -0.29529E-03   -0.70112E-04   680   0.233E-01    0.189E-01
DAV:  31    -0.246298390578E+03   -0.15925E-04   -0.47791E-04   624   0.188E-01
   1 F= -.24629839E+03 E0= -.24588235E+03  d E =-.832084E+00
